<event>
 4    1  0.3365401E-008  0.3466636E+03  0.7818608E-02  0.1063993E+00
          2   -1    0    0  501    0  0.00000000000E+00  0.00000000000E+00  0.11671927153E+04  0.11671927153E+04  0.25500000000E-02 0. -1.
         -2   -1    0    0    0  501 -0.00000000000E+00 -0.00000000000E+00 -0.11743846290E+03  0.11743846292E+03  0.25500000000E-02 0.  1.
    8880022    1    1    2    0    0 -0.24753542619E+03 -0.18844152079E+03  0.75039731664E+03  0.82660255251E+03  0.15294330000E+03 0.  0.
    8880022    1    1    2    0    0  0.24753542619E+03  0.18844152079E+03  0.29935693578E+03  0.45802862573E+03  0.15294330000E+03 0.  0.
<mgrwt>
<rscale>  0 0.34666359E+03</rscale>
<asrwt>0</asrwt>
<pdfrwt beam="1">  1        2 0.17956811E+00 0.34666359E+03</pdfrwt>
<pdfrwt beam="2">  1       -2 0.18067456E-01 0.34666359E+03</pdfrwt>
<totfact> 0.52105578E+02</totfact>
</mgrwt>
</event>
<event>
 4    1  0.3365401E-008  0.2317670E+03  0.7818608E-02  0.1125402E+00
          2   -1    0    0  501    0  0.00000000000E+00  0.00000000000E+00  0.16877962020E+04  0.16877962020E+04  0.25500000000E-02 0. -1.
         -2   -1    0    0    0  501 -0.00000000000E+00 -0.00000000000E+00 -0.14581564122E+03  0.14581564124E+03  0.25500000000E-02 0.  1.
    8880022    1    1    2    0    0  0.16830866656E+03 -0.44681798558E+02 -0.39612165843E+02  0.23512772499E+03  0.15294330000E+03 0.  0.
    8880022    1    1    2    0    0 -0.16830866656E+03  0.44681798558E+02  0.15815927266E+04  0.15984841182E+04  0.15294330000E+03 0. -1.
<mgrwt>
<rscale>  0 0.23176696E+03</rscale>
<asrwt>0</asrwt>
<pdfrwt beam="1">  1        2 0.25966095E+00 0.23176696E+03</pdfrwt>
<pdfrwt beam="2">  1       -2 0.22433176E-01 0.23176696E+03</pdfrwt>
<totfact> 0.18994468E+02</totfact>
</mgrwt>
</event>
<event>
 4    1  0.3365401E-008  0.3468089E+03  0.7818608E-02  0.1063932E+00
          2   -1    0    0  501    0  0.00000000000E+00  0.00000000000E+00  0.12971705664E+04  0.12971705664E+04  0.25500000000E-02 0. -1.
         -2   -1    0    0    0  501 -0.00000000000E+00 -0.00000000000E+00 -0.26686660464E+03  0.26686660466E+03  0.25500000000E-02 0.  1.
    8880022    1    1    2    0    0 -0.61589682689E+01  0.31120217703E+03 -0.11656833653E+03  0.36587505788E+03  0.15294330000E+03 0.  0.
    8880022    1    1    2    0    0  0.61589682689E+01 -0.31120217703E+03  0.11468722983E+04  0.11981621132E+04  0.15294330000E+03 0. -1.
<mgrwt>
<rscale>  0 0.34680885E+03</rscale>
<asrwt>0</asrwt>
<pdfrwt beam="1">  1        2 0.19956470E+00 0.34680885E+03</pdfrwt>
<pdfrwt beam="2">  1       -2 0.41056401E-01 0.34680885E+03</pdfrwt>
<totfact> 0.99512772E+01</totfact>
</mgrwt>
</event>
<event>
 4    1  0.3491395E-008  0.6972605E+03  0.7818608E-02  0.9721929E-01
         -2   -1    0    0    0  501 -0.00000000000E+00  0.00000000000E+00  0.12451888614E+04  0.12451888614E+04  0.25500000000E-02 0.  1.
          2   -1    0    0  501    0  0.00000000000E+00 -0.00000000000E+00 -0.11777871075E+04  0.11777871075E+04  0.25500000000E-02 0. -1.
    8880022    1    1    2    0    0 -0.43899759461E+03 -0.51967456810E+03  0.10242332761E+04  0.12390423728E+04  0.15294330000E+03 0.  0.
    8880022    1    1    2    0    0  0.43899759461E+03  0.51967456810E+03 -0.95683152225E+03  0.11839335960E+04  0.15294330000E+03 0.  0.
<mgrwt>
<rscale>  0 0.69726049E+03</rscale>
<asrwt>0</asrwt>
<pdfrwt beam="1">  1        2 0.18119802E+00 0.69726049E+03</pdfrwt>
<pdfrwt beam="2">  1       -2 0.19156752E+00 0.69726049E+03</pdfrwt>
<totfact> 0.30561122E+00</totfact>
</mgrwt>
</event>
<event>
 4    1  0.3365401E-008  0.3779700E+03  0.7818608E-02  0.1051687E+00
          2   -1    0    0  501    0  0.00000000000E+00  0.00000000000E+00  0.21013633650E+04  0.21013633650E+04  0.25500000000E-02 0. -1.
         -2   -1    0    0    0  501 -0.00000000000E+00 -0.00000000000E+00 -0.21453888473E+03  0.21453888474E+03  0.25500000000E-02 0.  1.
    8880022    1    1    2    0    0 -0.22867899999E+03 -0.25918249255E+03  0.19004648383E+04  0.19376862244E+04  0.15294330000E+03 0.  0.
    8880022    1    1    2    0    0  0.22867899999E+03  0.25918249255E+03 -0.13640358011E+02  0.37821602539E+03  0.15294330000E+03 0.  0.
<mgrwt>
<rscale>  0 0.37796998E+03</rscale>
<asrwt>0</asrwt>
<pdfrwt beam="1">  1        2 0.32328667E+00 0.37796998E+03</pdfrwt>
<pdfrwt beam="2">  1       -2 0.33005982E-01 0.37796998E+03</pdfrwt>
<totfact> 0.55221157E+01</totfact>
</mgrwt>
</event>
<event>
 4    1  0.3365401E-008  0.4598567E+03  0.7818608E-02  0.1024823E+00
          2   -1    0    0  501    0  0.00000000000E+00  0.00000000000E+00  0.53907072430E+03  0.53907072431E+03  0.25500000000E-02 0. -1.
         -2   -1    0    0    0  501 -0.00000000000E+00 -0.00000000000E+00 -0.64989446100E+03  0.64989446100E+03  0.25500000000E-02 0.  1.
    8880022    1    1    2    0    0  0.15176062953E+02 -0.43341228912E+03 -0.42969519036E+03  0.62936963295E+03  0.15294330000E+03 0.  0.
    8880022    1    1    2    0    0 -0.15176062953E+02  0.43341228912E+03  0.31887145367E+03  0.55959555236E+03  0.15294330000E+03 0.  0.
<mgrwt>
<rscale>  0 0.45985669E+03</rscale>
<asrwt>0</asrwt>
<pdfrwt beam="1">  1        2 0.82933958E-01 0.45985669E+03</pdfrwt>
<pdfrwt beam="2">  1       -2 0.99983763E-01 0.45985669E+03</pdfrwt>
<totfact> 0.48351132E+01</totfact>
</mgrwt>
</event>
<event>
 4    1  0.3365401E-008  0.5214503E+03  0.7818608E-02  0.1008327E+00
          2   -1    0    0  501    0  0.00000000000E+00  0.00000000000E+00  0.10957152566E+04  0.10957152566E+04  0.25500000000E-02 0. -1.
         -2   -1    0    0    0  501 -0.00000000000E+00 -0.00000000000E+00 -0.28188520918E+03  0.28188520919E+03  0.25500000000E-02 0.  1.
    8880022    1    1    2    0    0  0.49331751833E+03  0.71809165606E+02  0.64517334068E+03  0.82955350804E+03  0.15294330000E+03 0.  0.
    8880022    1    1    2    0    0 -0.49331751833E+03 -0.71809165606E+02  0.16865670672E+03  0.54804695774E+03  0.15294330000E+03 0.  0.
<mgrwt>
<rscale>  0 0.52145027E+03</rscale>
<asrwt>0</asrwt>
<pdfrwt beam="1">  1        2 0.16857158E+00 0.52145027E+03</pdfrwt>
<pdfrwt beam="2">  1       -2 0.43366956E-01 0.52145027E+03</pdfrwt>
<totfact> 0.11431953E+02</totfact>
</mgrwt>
</event>
<event>
 4    1  0.3365401E-008  0.3654307E+03  0.7818608E-02  0.1056454E+00
          2   -1    0    0  501    0  0.00000000000E+00  0.00000000000E+00  0.19392122091E+04  0.19392122091E+04  0.25500000000E-02 0. -1.
         -2   -1    0    0    0  501 -0.00000000000E+00 -0.00000000000E+00 -0.25110572977E+03  0.25110572979E+03  0.25500000000E-02 0.  1.
    8880022    1    1    2    0    0 -0.29611933853E+03 -0.14987085319E+03 -0.88930755764E+02  0.37609608829E+03  0.15294330000E+03 0.  0.
    8880022    1    1    2    0    0  0.29611933853E+03  0.14987085319E+03  0.17770372351E+04  0.18142218506E+04  0.15294330000E+03 0.  0.
<mgrwt>
<rscale>  0 0.36543069E+03</rscale>
<asrwt>0</asrwt>
<pdfrwt beam="1">  1        2 0.29834034E+00 0.36543069E+03</pdfrwt>
<pdfrwt beam="2">  1       -2 0.38631650E-01 0.36543069E+03</pdfrwt>
<totfact> 0.50211793E+01</totfact>
</mgrwt>
</event>
<event>
 4    1  0.3365401E-008  0.7889640E+03  0.7818608E-02  0.9576130E-01
         -2   -1    0    0    0  501 -0.00000000000E+00  0.00000000000E+00  0.66516752053E+03  0.66516752054E+03  0.25500000000E-02 0.  1.
          2   -1    0    0  501    0  0.00000000000E+00 -0.00000000000E+00 -0.17554422365E+04  0.17554422365E+04  0.25500000000E-02 0. -1.
    8880022    1    1    2    0    0 -0.77398300456E+03  0.47778339637E+01  0.28187788671E+03  0.83780625152E+03  0.15294330000E+03 0.  0.
    8880022    1    1    2    0    0  0.77398300456E+03 -0.47778339637E+01 -0.13721526027E+04  0.15828035056E+04  0.15294330000E+03 0.  0.
<mgrwt>
<rscale>  0 0.78896399E+03</rscale>
<asrwt>0</asrwt>
<pdfrwt beam="1">  1        2 0.27006803E+00 0.78896399E+03</pdfrwt>
<pdfrwt beam="2">  1       -2 0.10233347E+00 0.78896399E+03</pdfrwt>
<totfact> 0.73149422E+00</totfact>
</mgrwt>
</event>
<event>
 4    1  0.3365401E-008  0.2689564E+03  0.7818608E-02  0.1101878E+00
          2   -1    0    0  501    0  0.00000000000E+00  0.00000000000E+00  0.14525019123E+04  0.14525019123E+04  0.25500000000E-02 0. -1.
         -2   -1    0    0    0  501 -0.00000000000E+00 -0.00000000000E+00 -0.25031631123E+03  0.25031631124E+03  0.25500000000E-02 0.  1.
    8880022    1    1    2    0    0 -0.13168649066E+03  0.17777665054E+03 -0.16092723370E+03  0.31342478660E+03  0.15294330000E+03 0.  0.
    8880022    1    1    2    0    0  0.13168649066E+03 -0.17777665054E+03  0.13631128347E+04  0.13893934369E+04  0.15294330000E+03 0. -1.
<mgrwt>
<rscale>  0 0.26895636E+03</rscale>
<asrwt>0</asrwt>
<pdfrwt beam="1">  1        2 0.22346183E+00 0.26895636E+03</pdfrwt>
<pdfrwt beam="2">  1       -2 0.38510202E-01 0.26895636E+03</pdfrwt>
<totfact> 0.93994201E+01</totfact>
</mgrwt>
</event>
<event>
 4    1  0.3365401E-008  0.4123403E+03  0.7818608E-02  0.1039589E+00
          2   -1    0    0  501    0  0.00000000000E+00  0.00000000000E+00  0.12734919283E+04  0.12734919283E+04  0.25500000000E-02 0. -1.
         -2   -1    0    0    0  501 -0.00000000000E+00 -0.00000000000E+00 -0.32440394033E+03  0.32440394034E+03  0.25500000000E-02 0.  1.
    8880022    1    1    2    0    0  0.32094572323E+03  0.20887000799E+03  0.10874176702E+04  0.11629710573E+04  0.15294330000E+03 0. -1.
    8880022    1    1    2    0    0 -0.32094572323E+03 -0.20887000799E+03 -0.13832968231E+03  0.43492481134E+03  0.15294330000E+03 0.  0.
<mgrwt>
<rscale>  0 0.41234026E+03</rscale>
<asrwt>0</asrwt>
<pdfrwt beam="1">  1        2 0.19592184E+00 0.41234026E+03</pdfrwt>
<pdfrwt beam="2">  1       -2 0.49908298E-01 0.41234026E+03</pdfrwt>
<totfact> 0.68999380E+01</totfact>
</mgrwt>
</event>
<event>
 4    1  0.3365401E-008  0.7424428E+03  0.7818608E-02  0.9647282E-01
          2   -1    0    0  501    0  0.00000000000E+00  0.00000000000E+00  0.24772254753E+04  0.24772254753E+04  0.25500000000E-02 0. -1.
         -2   -1    0    0    0  501 -0.00000000000E+00 -0.00000000000E+00 -0.35973807910E+03  0.35973807911E+03  0.25500000000E-02 0.  1.
    8880022    1    1    2    0    0  0.69997125715E+03 -0.19460191152E+03  0.18266487459E+03  0.76458339913E+03  0.15294330000E+03 0.  0.
    8880022    1    1    2    0    0 -0.69997125715E+03  0.19460191152E+03  0.19348225216E+04  0.20723801552E+04  0.15294330000E+03 0.  0.
<mgrwt>
<rscale>  0 0.74244280E+03</rscale>
<asrwt>0</asrwt>
<pdfrwt beam="1">  1        2 0.38111162E+00 0.74244280E+03</pdfrwt>
<pdfrwt beam="2">  1       -2 0.55344319E-01 0.74244280E+03</pdfrwt>
<totfact> 0.11549519E+01</totfact>
</mgrwt>
</event>
<event>
 4    1  0.3365401E-008  0.1176733E+04  0.7818608E-02  0.9133470E-01
         -2   -1    0    0    0  501 -0.00000000000E+00  0.00000000000E+00  0.14417895140E+04  0.14417895140E+04  0.25500000000E-02 0.  1.
          2   -1    0    0  501    0  0.00000000000E+00 -0.00000000000E+00 -0.21832201252E+04  0.21832201252E+04  0.25500000000E-02 0. -1.
    8880022    1    1    2    0    0 -0.63392379357E+03 -0.97951479410E+03 -0.17271878402E+04  0.20899469123E+04  0.15294330000E+03 0.  0.
    8880022    1    1    2    0    0  0.63392379357E+03  0.97951479410E+03  0.98575722902E+03  0.15350627269E+04  0.15294330000E+03 0.  0.
<mgrwt>
<rscale>  0 0.11767329E+04</rscale>
<asrwt>0</asrwt>
<pdfrwt beam="1">  1        2 0.33588002E+00 0.11767329E+04</pdfrwt>
<pdfrwt beam="2">  1       -2 0.22181377E+00 0.11767329E+04</pdfrwt>
<totfact> 0.49585421E-01</totfact>
</mgrwt>
</event>
<event>
 4    1  0.3365401E-008  0.3146566E+03  0.7818608E-02  0.1078135E+00
         -2   -1    0    0    0  501 -0.00000000000E+00  0.00000000000E+00  0.23471935113E+03  0.23471935114E+03  0.25500000000E-02 0.  1.
          2   -1    0    0  501    0  0.00000000000E+00 -0.00000000000E+00 -0.10956394376E+04  0.10956394376E+04  0.25500000000E-02 0. -1.
    8880022    1    1    2    0    0  0.27474237589E+03 -0.11565140498E+02  0.91187859251E+02  0.32760342531E+03  0.15294330000E+03 0.  0.
    8880022    1    1    2    0    0 -0.27474237589E+03  0.11565140498E+02 -0.95210794576E+03  0.10027553635E+04  0.15294330000E+03 0.  0.
<mgrwt>
<rscale>  0 0.31465660E+03</rscale>
<asrwt>0</asrwt>
<pdfrwt beam="1">  1        2 0.16855991E+00 0.31465660E+03</pdfrwt>
<pdfrwt beam="2">  1       -2 0.36110670E-01 0.31465660E+03</pdfrwt>
<totfact> 0.16703344E+02</totfact>
</mgrwt>
</event>
<event>
 4    1  0.3365401E-008  0.9619293E+03  0.7818608E-02  0.9351315E-01
         -2   -1    0    0    0  501 -0.00000000000E+00  0.00000000000E+00  0.92315948044E+03  0.92315948045E+03  0.25500000000E-02 0.  1.
          2   -1    0    0  501    0  0.00000000000E+00 -0.00000000000E+00 -0.10216031390E+04  0.10216031390E+04  0.25500000000E-02 0. -1.
    8880022    1    1    2    0    0 -0.65379906786E+03  0.68881281524E+03 -0.18278967010E+03  0.97914249835E+03  0.15294330000E+03 0.  0.
    8880022    1    1    2    0    0  0.65379906786E+03 -0.68881281524E+03  0.84346011546E+02  0.96562012109E+03  0.15294330000E+03 0.  0.
<mgrwt>
<rscale>  0 0.96192930E+03</rscale>
<asrwt>0</asrwt>
<pdfrwt beam="1">  1        2 0.15716971E+00 0.96192930E+03</pdfrwt>
<pdfrwt beam="2">  1       -2 0.14202453E+00 0.96192930E+03</pdfrwt>
<totfact> 0.83993476E+00</totfact>
</mgrwt>
</event>
<event>
 4    1  0.3365401E-008  0.2897142E+03  0.7818608E-02  0.1090498E+00
          2   -1    0    0  501    0  0.00000000000E+00  0.00000000000E+00  0.35916813384E+03  0.35916813385E+03  0.25500000000E-02 0. -1.
         -2   -1    0    0    0  501 -0.00000000000E+00 -0.00000000000E+00 -0.10941026958E+04  0.10941026958E+04  0.25500000000E-02 0.  1.
    8880022    1    1    2    0    0 -0.22113346843E+03 -0.10790119736E+03 -0.10118452579E+04  0.10525042319E+04  0.15294330000E+03 0.  1.
    8880022    1    1    2    0    0  0.22113346843E+03  0.10790119736E+03  0.27691069599E+03  0.40076659769E+03  0.15294330000E+03 0.  0.
<mgrwt>
<rscale>  0 0.28971423E+03</rscale>
<asrwt>0</asrwt>
<pdfrwt beam="1">  1        2 0.55256637E-01 0.28971423E+03</pdfrwt>
<pdfrwt beam="2">  1       -2 0.16832349E+00 0.28971423E+03</pdfrwt>
<totfact> 0.21141908E+01</totfact>
</mgrwt>
</event>
<event>
 4    1  0.3365401E-008  0.1070839E+04  0.7818608E-02  0.9234090E-01
         -2   -1    0    0    0  501 -0.00000000000E+00  0.00000000000E+00  0.26791943740E+04  0.26791943740E+04  0.25500000000E-02 0.  1.
          2   -1    0    0  501    0  0.00000000000E+00 -0.00000000000E+00 -0.58633638261E+03  0.58633638262E+03  0.25500000000E-02 0. -1.
    8880022    1    1    2    0    0 -0.92706267057E+03  0.51367230308E+03  0.18949063674E+04  0.21765491551E+04  0.15294330000E+03 0.  0.
    8880022    1    1    2    0    0  0.92706267057E+03 -0.51367230308E+03  0.19795162398E+03  0.10889816016E+04  0.15294330000E+03 0.  0.
<mgrwt>
<rscale>  0 0.10708390E+04</rscale>
<asrwt>0</asrwt>
<pdfrwt beam="1">  1        2 0.90205596E-01 0.10708390E+04</pdfrwt>
<pdfrwt beam="2">  1       -2 0.41218375E+00 0.10708390E+04</pdfrwt>
<totfact> 0.31784465E-01</totfact>
</mgrwt>
</event>
<event>
 4    1  0.3365401E-008  0.3285959E+03  0.7818608E-02  0.1071760E+00
         -2   -1    0    0    0  501 -0.00000000000E+00  0.00000000000E+00  0.85332532496E+03  0.85332532497E+03  0.25500000000E-02 0.  1.
          2   -1    0    0  501    0  0.00000000000E+00 -0.00000000000E+00 -0.36519707141E+03  0.36519707142E+03  0.25500000000E-02 0. -1.
    8880022    1    1    2    0    0  0.72165389713E+02  0.28173704454E+03 -0.24846493195E+03  0.41195883430E+03  0.15294330000E+03 0.  0.
    8880022    1    1    2    0    0 -0.72165389713E+02 -0.28173704454E+03  0.73659318550E+03  0.80656356208E+03  0.15294330000E+03 0.  0.
<mgrwt>
<rscale>  0 0.32859589E+03</rscale>
<asrwt>0</asrwt>
<pdfrwt beam="1">  1        2 0.56184165E-01 0.32859589E+03</pdfrwt>
<pdfrwt beam="2">  1       -2 0.13128082E+00 0.32859589E+03</pdfrwt>
<totfact> 0.39320244E+01</totfact>
</mgrwt>
</event>
<event>
 4    1  0.3365401E-008  0.3960128E+03  0.7818608E-02  0.1045169E+00
          2   -1    0    0  501    0  0.00000000000E+00  0.00000000000E+00  0.37909260170E+03  0.37909260170E+03  0.25500000000E-02 0. -1.
         -2   -1    0    0    0  501 -0.00000000000E+00 -0.00000000000E+00 -0.75308285929E+03  0.75308285929E+03  0.25500000000E-02 0.  1.
    8880022    1    1    2    0    0  0.31722610420E+03 -0.18111343005E+03 -0.56702249769E+03  0.69162174752E+03  0.15294330000E+03 0.  0.
    8880022    1    1    2    0    0 -0.31722610420E+03  0.18111343005E+03  0.19303224010E+03  0.44055371348E+03  0.15294330000E+03 0.  0.
<mgrwt>
<rscale>  0 0.39601279E+03</rscale>
<asrwt>0</asrwt>
<pdfrwt beam="1">  1        2 0.58321939E-01 0.39601279E+03</pdfrwt>
<pdfrwt beam="2">  1       -2 0.11585890E+00 0.39601279E+03</pdfrwt>
<totfact> 0.50916120E+01</totfact>
</mgrwt>
</event>
<event>
 4    1  0.3365401E-008  0.6706236E+03  0.7818608E-02  0.9768832E-01
          2   -1    0    0  501    0  0.00000000000E+00  0.00000000000E+00  0.66046852522E+03  0.66046852522E+03  0.25500000000E-02 0. -1.
         -2   -1    0    0    0  501 -0.00000000000E+00 -0.00000000000E+00 -0.80788386927E+03  0.80788386928E+03  0.25500000000E-02 0.  1.
    8880022    1    1    2    0    0  0.11882294534E+03  0.64204786105E+03 -0.36473957379E+03  0.76339436592E+03  0.15294330000E+03 0.  0.
    8880022    1    1    2    0    0 -0.11882294534E+03 -0.64204786105E+03  0.21732422973E+03  0.70495802858E+03  0.15294330000E+03 0.  0.
<mgrwt>
<rscale>  0 0.67062359E+03</rscale>
<asrwt>0</asrwt>
<pdfrwt beam="1">  1        2 0.10161054E+00 0.67062359E+03</pdfrwt>
<pdfrwt beam="2">  1       -2 0.12428983E+00 0.67062359E+03</pdfrwt>
<totfact> 0.21895872E+01</totfact>
</mgrwt>
</event>
<event>
 4    1  0.3365401E-008  0.3232382E+03  0.7818608E-02  0.1074169E+00
         -2   -1    0    0    0  501 -0.00000000000E+00  0.00000000000E+00  0.29018851569E+03  0.29018851570E+03  0.25500000000E-02 0.  1.
          2   -1    0    0  501    0  0.00000000000E+00 -0.00000000000E+00 -0.11003819940E+04  0.11003819940E+04  0.25500000000E-02 0. -1.
    8880022    1    1    2    0    0 -0.15749248654E+03  0.23724959849E+03  0.16520408832E+03  0.36300867636E+03  0.15294330000E+03 0.  0.
    8880022    1    1    2    0    0  0.15749248654E+03 -0.23724959849E+03 -0.97539756659E+03  0.10275618333E+04  0.15294330000E+03 0.  0.
<mgrwt>
<rscale>  0 0.32323816E+03</rscale>
<asrwt>0</asrwt>
<pdfrwt beam="1">  1        2 0.16928953E+00 0.32323816E+03</pdfrwt>
<pdfrwt beam="2">  1       -2 0.44644388E-01 0.32323816E+03</pdfrwt>
<totfact> 0.11016774E+02</totfact>
</mgrwt>
</event>
<event>
 4    1  0.3365401E-008  0.5086680E+03  0.7818608E-02  0.1011541E+00
         -2   -1    0    0    0  501 -0.00000000000E+00  0.00000000000E+00  0.20766574211E+03  0.20766574212E+03  0.25500000000E-02 0.  1.
          2   -1    0    0  501    0  0.00000000000E+00 -0.00000000000E+00 -0.24198008046E+04  0.24198008046E+04  0.25500000000E-02 0. -1.
    8880022    1    1    2    0    0 -0.48496081116E+03 -0.12827443503E+02 -0.20210694676E+04  0.20840981209E+04  0.15294330000E+03 0.  0.
    8880022    1    1    2    0    0  0.48496081116E+03  0.12827443503E+02 -0.19106559497E+03  0.54336842590E+03  0.15294330000E+03 0.  0.
<mgrwt>
<rscale>  0 0.50866805E+03</rscale>
<asrwt>0</asrwt>
<pdfrwt beam="1">  1        2 0.37227703E+00 0.50866805E+03</pdfrwt>
<pdfrwt beam="2">  1       -2 0.31948577E-01 0.50866805E+03</pdfrwt>
<totfact> 0.38221606E+01</totfact>
</mgrwt>
</event>
<event>
 4    1  0.3365401E-008  0.2952800E+03  0.7818608E-02  0.1087624E+00
          2   -1    0    0  501    0  0.00000000000E+00  0.00000000000E+00  0.74485535281E+03  0.74485535281E+03  0.25500000000E-02 0. -1.
         -2   -1    0    0    0  501 -0.00000000000E+00 -0.00000000000E+00 -0.79791883586E+03  0.79791883586E+03  0.25500000000E-02 0.  1.
    8880022    1    1    2    0    0 -0.25252417413E+03  0.54912057870E+01  0.68603019663E+03  0.74687863509E+03  0.15294330000E+03 0. -1.
    8880022    1    1    2    0    0  0.25252417413E+03 -0.54912057870E+01 -0.73909367968E+03  0.79589555358E+03  0.15294330000E+03 0.  0.
<mgrwt>
<rscale>  0 0.29527998E+03</rscale>
<asrwt>0</asrwt>
<pdfrwt beam="1">  1        2 0.11459313E+00 0.29527998E+03</pdfrwt>
<pdfrwt beam="2">  1       -2 0.12275674E+00 0.29527998E+03</pdfrwt>
<totfact> 0.20593600E+01</totfact>
</mgrwt>
</event>
<event>
 4    1  0.3365401E-008  0.6539452E+03  0.7818608E-02  0.9799404E-01
          2   -1    0    0  501    0  0.00000000000E+00  0.00000000000E+00  0.32978238351E+03  0.32978238352E+03  0.25500000000E-02 0. -1.
         -2   -1    0    0    0  501 -0.00000000000E+00 -0.00000000000E+00 -0.33083427251E+04  0.33083427251E+04  0.25500000000E-02 0.  1.
    8880022    1    1    2    0    0 -0.49344932863E+03 -0.40094935253E+03 -0.70834349160E+02  0.65777031041E+03  0.15294330000E+03 0.  0.
    8880022    1    1    2    0    0  0.49344932863E+03  0.40094935253E+03 -0.29077259924E+04  0.29803547982E+04  0.15294330000E+03 0.  0.
<mgrwt>
<rscale>  0 0.65394516E+03</rscale>
<asrwt>0</asrwt>
<pdfrwt beam="1">  1        2 0.50735754E-01 0.65394516E+03</pdfrwt>
<pdfrwt beam="2">  1       -2 0.50897578E+00 0.65394516E+03</pdfrwt>
<totfact> 0.15418847E-01</totfact>
</mgrwt>
</event>
<event>
 4    1  0.3365401E-008  0.1245621E+04  0.7818608E-02  0.9073836E-01
         -2   -1    0    0    0  501 -0.00000000000E+00  0.00000000000E+00  0.91509769110E+03  0.91509769110E+03  0.25500000000E-02 0.  1.
          2   -1    0    0  501    0  0.00000000000E+00 -0.00000000000E+00 -0.33826466452E+04  0.33826466452E+04  0.25500000000E-02 0. -1.
    8880022    1    1    2    0    0 -0.41676293897E+03  0.11638245958E+04 -0.27513681540E+04  0.30201982400E+04  0.15294330000E+03 0.  0.
    8880022    1    1    2    0    0  0.41676293897E+03 -0.11638245958E+04  0.28381919987E+03  0.12775460963E+04  0.15294330000E+03 0.  0.
<mgrwt>
<rscale>  0 0.12456206E+04</rscale>
<asrwt>0</asrwt>
<pdfrwt beam="1">  1        2 0.52040717E+00 0.12456206E+04</pdfrwt>
<pdfrwt beam="2">  1       -2 0.14078426E+00 0.12456206E+04</pdfrwt>
<totfact> 0.34198036E-01</totfact>
</mgrwt>
</event>
<event>
 4    1  0.3365401E-008  0.1795315E+03  0.7818608E-02  0.1168257E+00
          2   -1    0    0  501    0  0.00000000000E+00  0.00000000000E+00  0.34325359020E+04  0.34325359020E+04  0.25500000000E-02 0. -1.
         -2   -1    0    0    0  501 -0.00000000000E+00 -0.00000000000E+00 -0.23401072551E+02  0.23401072690E+02  0.25500000000E-02 0.  1.
    8880022    1    1    2    0    0  0.69561309988E+02  0.63254550716E+02  0.30416350604E+04  0.30469288485E+04  0.15294330000E+03 0. -1.
    8880022    1    1    2    0    0 -0.69561309988E+02 -0.63254550716E+02  0.36749976897E+03  0.40900812613E+03  0.15294330000E+03 0.  1.
<mgrwt>
<rscale>  0 0.17953152E+03</rscale>
<asrwt>0</asrwt>
<pdfrwt beam="1">  1        2 0.52808257E+00 0.17953152E+03</pdfrwt>
<pdfrwt beam="2">  1       -2 0.36001642E-02 0.17953152E+03</pdfrwt>
<totfact> 0.37375589E+02</totfact>
</mgrwt>
</event>
<event>
 4    1  0.3365401E-008  0.1118591E+04  0.7818608E-02  0.9187259E-01
         -2   -1    0    0    0  501 -0.00000000000E+00  0.00000000000E+00  0.54526106332E+03  0.54526106332E+03  0.25500000000E-02 0.  1.
          2   -1    0    0  501    0  0.00000000000E+00 -0.00000000000E+00 -0.31516591151E+04  0.31516591151E+04  0.25500000000E-02 0. -1.
    8880022    1    1    2    0    0  0.25883110967E+02  0.11077834011E+04 -0.33936067536E+03  0.11689359778E+04  0.15294330000E+03 0.  0.
    8880022    1    1    2    0    0 -0.25883110967E+02 -0.11077834011E+04 -0.22670373764E+04  0.25279842006E+04  0.15294330000E+03 0.  0.
<mgrwt>
<rscale>  0 0.11185909E+04</rscale>
<asrwt>0</asrwt>
<pdfrwt beam="1">  1        2 0.48487062E+00 0.11185909E+04</pdfrwt>
<pdfrwt beam="2">  1       -2 0.83886319E-01 0.11185909E+04</pdfrwt>
<totfact> 0.17425439E+00</totfact>
</mgrwt>
</event>
<event>
 4    1  0.3365401E-008  0.3845166E+03  0.7818608E-02  0.1049277E+00
          2   -1    0    0  501    0  0.00000000000E+00  0.00000000000E+00  0.13682938146E+04  0.13682938146E+04  0.25500000000E-02 0. -1.
         -2   -1    0    0    0  501 -0.00000000000E+00 -0.00000000000E+00 -0.20654487973E+03  0.20654487975E+03  0.25500000000E-02 0.  1.
    8880022    1    1    2    0    0  0.30262142464E+03 -0.18133283975E+03  0.11246146908E+04  0.11885332058E+04  0.15294330000E+03 0.  0.
    8880022    1    1    2    0    0 -0.30262142464E+03  0.18133283975E+03  0.37134244070E+02  0.38630548860E+03  0.15294330000E+03 0.  0.
<mgrwt>
<rscale>  0 0.38451655E+03</rscale>
<asrwt>0</asrwt>
<pdfrwt beam="1">  1        2 0.21050674E+00 0.38451655E+03</pdfrwt>
<pdfrwt beam="2">  1       -2 0.31776135E-01 0.38451655E+03</pdfrwt>
<totfact> 0.14658962E+02</totfact>
</mgrwt>
</event>
<event>
 4    1  0.3365401E-008  0.6617998E+03  0.7818608E-02  0.9784886E-01
          2   -1    0    0  501    0  0.00000000000E+00  0.00000000000E+00  0.42345886845E+04  0.42345886845E+04  0.25500000000E-02 0. -1.
         -2   -1    0    0    0  501 -0.00000000000E+00 -0.00000000000E+00 -0.17778056540E+03  0.17778056542E+03  0.25500000000E-02 0.  1.
    8880022    1    1    2    0    0  0.51776654323E+02 -0.64179944690E+03  0.60166367178E+03  0.89441499256E+03  0.15294330000E+03 0.  0.
    8880022    1    1    2    0    0 -0.51776654323E+02  0.64179944690E+03  0.34551444473E+04  0.35179542573E+04  0.15294330000E+03 0.  0.
<mgrwt>
<rscale>  0 0.66179982E+03</rscale>
<asrwt>0</asrwt>
<pdfrwt beam="1">  1        2 0.65147511E+00 0.66179982E+03</pdfrwt>
<pdfrwt beam="2">  1       -2 0.27350859E-01 0.66179982E+03</pdfrwt>
<totfact> 0.30173520E+00</totfact>
</mgrwt>
</event>
<event>
 4    1  0.3365401E-008  0.6219275E+03  0.7818608E-02  0.9860930E-01
         -2   -1    0    0    0  501 -0.00000000000E+00  0.00000000000E+00  0.17467002310E+04  0.17467002310E+04  0.25500000000E-02 0.  1.
          2   -1    0    0  501    0  0.00000000000E+00 -0.00000000000E+00 -0.62406001896E+03  0.62406001897E+03  0.25500000000E-02 0. -1.
    8880022    1    1    2    0    0  0.50357497847E+03 -0.33138253110E+03  0.15134380627E+04  0.16362422080E+04  0.15294330000E+03 0.  0.
    8880022    1    1    2    0    0 -0.50357497847E+03  0.33138253110E+03 -0.39079785062E+03  0.73451804193E+03  0.15294330000E+03 0.  0.
<mgrwt>
<rscale>  0 0.62192748E+03</rscale>
<asrwt>0</asrwt>
<pdfrwt beam="1">  1        2 0.96009233E-01 0.62192748E+03</pdfrwt>
<pdfrwt beam="2">  1       -2 0.26872311E+00 0.62192748E+03</pdfrwt>
<totfact> 0.24661252E+00</totfact>
</mgrwt>
</event>
<event>
 4    1  0.3365401E-008  0.2582454E+03  0.7818608E-02  0.1108202E+00
         -2   -1    0    0    0  501 -0.00000000000E+00  0.00000000000E+00  0.62988188549E+03  0.62988188550E+03  0.25500000000E-02 0.  1.
          2   -1    0    0  501    0  0.00000000000E+00 -0.00000000000E+00 -0.27624912839E+03  0.27624912840E+03  0.25500000000E-02 0. -1.
    8880022    1    1    2    0    0  0.87125309978E+02 -0.18896610979E+03  0.53261845840E+03  0.59192320915E+03  0.15294330000E+03 0.  1.
    8880022    1    1    2    0    0 -0.87125309978E+02  0.18896610979E+03 -0.17898570129E+03  0.31420780476E+03  0.15294330000E+03 0.  0.
<mgrwt>
<rscale>  0 0.25824535E+03</rscale>
<asrwt>0</asrwt>
<pdfrwt beam="1">  1        2 0.42499866E-01 0.25824535E+03</pdfrwt>
<pdfrwt beam="2">  1       -2 0.96904905E-01 0.25824535E+03</pdfrwt>
<totfact> 0.11140442E+02</totfact>
</mgrwt>
</event>
<event>
 4    1  0.3365401E-008  0.3198964E+03  0.7818608E-02  0.1075697E+00
         -2   -1    0    0    0  501 -0.00000000000E+00  0.00000000000E+00  0.67190194098E+02  0.67190194146E+02  0.25500000000E-02 0.  1.
          2   -1    0    0  501    0  0.00000000000E+00 -0.00000000000E+00 -0.30848102680E+04  0.30848102680E+04  0.25500000000E-02 0. -1.
    8880022    1    1    2    0    0  0.20286385592E+03  0.19439218134E+03 -0.26301824560E+04  0.26495647698E+04  0.15294330000E+03 0.  0.
    8880022    1    1    2    0    0 -0.20286385592E+03 -0.19439218134E+03 -0.38743761785E+03  0.50243569235E+03  0.15294330000E+03 0.  0.
<mgrwt>
<rscale>  0 0.31989642E+03</rscale>
<asrwt>0</asrwt>
<pdfrwt beam="1">  1        2 0.47458608E+00 0.31989642E+03</pdfrwt>
<pdfrwt beam="2">  1       -2 0.10336955E-01 0.31989642E+03</pdfrwt>
<totfact> 0.11507371E+02</totfact>
</mgrwt>
</event>
<event>
 4    1  0.3365401E-008  0.4971733E+03  0.7818608E-02  0.1014519E+00
         -2   -1    0    0    0  501 -0.00000000000E+00  0.00000000000E+00  0.12906459871E+03  0.12906459873E+03  0.25500000000E-02 0.  1.
          2   -1    0    0  501    0  0.00000000000E+00 -0.00000000000E+00 -0.33742197424E+04  0.33742197424E+04  0.25500000000E-02 0. -1.
    8880022    1    1    2    0    0 -0.45127138967E+02  0.47090677400E+03 -0.27744198261E+04  0.28186143179E+04  0.15294330000E+03 0.  0.
    8880022    1    1    2    0    0  0.45127138967E+02 -0.47090677400E+03 -0.47073531753E+03  0.68467002319E+03  0.15294330000E+03 0.  0.
<mgrwt>
<rscale>  0 0.49717331E+03</rscale>
<asrwt>0</asrwt>
<pdfrwt beam="1">  1        2 0.51911066E+00 0.49717331E+03</pdfrwt>
<pdfrwt beam="2">  1       -2 0.19856095E-01 0.49717331E+03</pdfrwt>
<totfact> 0.24238688E+01</totfact>
</mgrwt>
</event>
<event>
 4    1  0.3365401E-008  0.7959974E+03  0.7818608E-02  0.9565829E-01
         -2   -1    0    0    0  501 -0.00000000000E+00  0.00000000000E+00  0.22420622188E+03  0.22420622189E+03  0.25500000000E-02 0.  1.
          2   -1    0    0  501    0  0.00000000000E+00 -0.00000000000E+00 -0.31516558127E+04  0.31516558127E+04  0.25500000000E-02 0. -1.
    8880022    1    1    2    0    0  0.36577406270E+03 -0.69023870279E+03 -0.92116220779E+03  0.12174364862E+04  0.15294330000E+03 0.  0.
    8880022    1    1    2    0    0 -0.36577406270E+03  0.69023870279E+03 -0.20062873830E+04  0.21584255484E+04  0.15294330000E+03 0.  0.
<mgrwt>
<rscale>  0 0.79599735E+03</rscale>
<asrwt>0</asrwt>
<pdfrwt beam="1">  1        2 0.48487009E+00 0.79599735E+03</pdfrwt>
<pdfrwt beam="2">  1       -2 0.34493267E-01 0.79599735E+03</pdfrwt>
<totfact> 0.11623429E+01</totfact>
</mgrwt>
</event>
<event>
 4    1  0.3365401E-008  0.2868830E+03  0.7818608E-02  0.1091988E+00
         -2   -1    0    0    0  501 -0.00000000000E+00  0.00000000000E+00  0.29983051344E+03  0.29983051346E+03  0.25500000000E-02 0.  1.
          2   -1    0    0  501    0  0.00000000000E+00 -0.00000000000E+00 -0.10395064864E+04  0.10395064864E+04  0.25500000000E-02 0. -1.
    8880022    1    1    2    0    0  0.24136570984E+03 -0.25550308404E+02  0.20464919330E+03  0.35239632444E+03  0.15294330000E+03 0.  0.
    8880022    1    1    2    0    0 -0.24136570984E+03  0.25550308404E+02 -0.94432516624E+03  0.98694067540E+03  0.15294330000E+03 0. -1.
<mgrwt>
<rscale>  0 0.28688304E+03</rscale>
<asrwt>0</asrwt>
<pdfrwt beam="1">  1        2 0.15992407E+00 0.28688304E+03</pdfrwt>
<pdfrwt beam="2">  1       -2 0.46127772E-01 0.28688304E+03</pdfrwt>
<totfact> 0.11308447E+02</totfact>
</mgrwt>
</event>
<event>
 4    1  0.3365401E-008  0.5062620E+03  0.7818608E-02  0.1012157E+00
         -2   -1    0    0    0  501 -0.00000000000E+00  0.00000000000E+00  0.63033729114E+03  0.63033729114E+03  0.25500000000E-02 0.  1.
          2   -1    0    0  501    0  0.00000000000E+00 -0.00000000000E+00 -0.68976503784E+03  0.68976503784E+03  0.25500000000E-02 0. -1.
    8880022    1    1    2    0    0 -0.39811362581E+03  0.27279123907E+03  0.39318788648E+03  0.64101317167E+03  0.15294330000E+03 0.  1.
    8880022    1    1    2    0    0  0.39811362581E+03 -0.27279123907E+03 -0.45261563318E+03  0.67908915731E+03  0.15294330000E+03 0.  0.
<mgrwt>
<rscale>  0 0.50626196E+03</rscale>
<asrwt>0</asrwt>
<pdfrwt beam="1">  1        2 0.10611770E+00 0.50626196E+03</pdfrwt>
<pdfrwt beam="2">  1       -2 0.96974968E-01 0.50626196E+03</pdfrwt>
<totfact> 0.38456107E+01</totfact>
</mgrwt>
</event>
<event>
 4    1  0.3365401E-008  0.3780312E+03  0.7818608E-02  0.1051664E+00
         -2   -1    0    0    0  501 -0.00000000000E+00  0.00000000000E+00  0.66524038070E+03  0.66524038071E+03  0.25500000000E-02 0.  1.
          2   -1    0    0  501    0  0.00000000000E+00 -0.00000000000E+00 -0.37098750778E+03  0.37098750779E+03  0.25500000000E-02 0. -1.
    8880022    1    1    2    0    0 -0.23799825347E+03  0.25074443981E+03 -0.18902858573E+03  0.42265754694E+03  0.15294330000E+03 0.  0.
    8880022    1    1    2    0    0  0.23799825347E+03 -0.25074443981E+03  0.48328145865E+03  0.61357034156E+03  0.15294330000E+03 0.  0.
<mgrwt>
<rscale>  0 0.37803121E+03</rscale>
<asrwt>0</asrwt>
<pdfrwt beam="1">  1        2 0.57075002E-01 0.37803121E+03</pdfrwt>
<pdfrwt beam="2">  1       -2 0.10234467E+00 0.37803121E+03</pdfrwt>
<totfact> 0.70278661E+01</totfact>
</mgrwt>
</event>
<event>
 4    1  0.3365401E-008  0.8730175E+03  0.7818608E-02  0.9459954E-01
         -2   -1    0    0    0  501 -0.00000000000E+00  0.00000000000E+00  0.20156211096E+04  0.20156211096E+04  0.25500000000E-02 0.  1.
          2   -1    0    0  501    0  0.00000000000E+00 -0.00000000000E+00 -0.88841981647E+03  0.88841981647E+03  0.25500000000E-02 0. -1.
    8880022    1    1    2    0    0  0.60131143196E+03  0.61415998604E+03  0.16640589597E+04  0.18791625265E+04  0.15294330000E+03 0.  0.
    8880022    1    1    2    0    0 -0.60131143196E+03 -0.61415998604E+03 -0.53685766659E+03  0.10248783995E+04  0.15294330000E+03 0. -1.
<mgrwt>
<rscale>  0 0.87301751E+03</rscale>
<asrwt>0</asrwt>
<pdfrwt beam="1">  1        2 0.13667997E+00 0.87301751E+03</pdfrwt>
<pdfrwt beam="2">  1       -2 0.31009555E+00 0.87301751E+03</pdfrwt>
<totfact> 0.84351518E-01</totfact>
</mgrwt>
</event>
<event>
 4    1  0.3365401E-008  0.1392575E+04  0.7818608E-02  0.8959211E-01
         -2   -1    0    0    0  501 -0.00000000000E+00  0.00000000000E+00  0.53577292123E+03  0.53577292123E+03  0.25500000000E-02 0.  1.
          2   -1    0    0  501    0  0.00000000000E+00 -0.00000000000E+00 -0.40207833505E+04  0.40207833505E+04  0.25500000000E-02 0. -1.
    8880022    1    1    2    0    0  0.12052746654E+04 -0.68057868080E+03 -0.24621872958E+04  0.28287156613E+04  0.15294330000E+03 0.  0.
    8880022    1    1    2    0    0 -0.12052746654E+04  0.68057868080E+03 -0.10228231335E+04  0.17278406105E+04  0.15294330000E+03 0.  0.
<mgrwt>
<rscale>  0 0.13925753E+04</rscale>
<asrwt>0</asrwt>
<pdfrwt beam="1">  1        2 0.61858203E+00 0.13925753E+04</pdfrwt>
<pdfrwt beam="2">  1       -2 0.82426606E-01 0.13925753E+04</pdfrwt>
<totfact> 0.42019571E-01</totfact>
</mgrwt>
</event>
<event>
 4    1  0.3365401E-008  0.2686489E+03  0.7818608E-02  0.1102055E+00
         -2   -1    0    0    0  501 -0.00000000000E+00  0.00000000000E+00  0.42905996455E+03  0.42905996456E+03  0.25500000000E-02 0.  1.
          2   -1    0    0  501    0  0.00000000000E+00 -0.00000000000E+00 -0.25312683599E+03  0.25312683601E+03  0.25500000000E-02 0. -1.
    8880022    1    1    2    0    0  0.93575145215E+02  0.20006068836E+03 -0.10959422221E+03  0.29014329802E+03  0.15294330000E+03 0. -1.
    8880022    1    1    2    0    0 -0.93575145215E+02 -0.20006068836E+03  0.28552735077E+03  0.39204350254E+03  0.15294330000E+03 0.  0.
<mgrwt>
<rscale>  0 0.26864892E+03</rscale>
<asrwt>0</asrwt>
<pdfrwt beam="1">  1        2 0.38942590E-01 0.26864892E+03</pdfrwt>
<pdfrwt beam="2">  1       -2 0.66009225E-01 0.26864892E+03</pdfrwt>
<totfact> 0.28625183E+02</totfact>
</mgrwt>
</event>
<event>
 4    1  0.3365401E-008  0.6182615E+03  0.7818608E-02  0.9868227E-01
         -2   -1    0    0    0  501 -0.00000000000E+00  0.00000000000E+00  0.99307352760E+03  0.99307352761E+03  0.25500000000E-02 0.  1.
          2   -1    0    0  501    0  0.00000000000E+00 -0.00000000000E+00 -0.11294075858E+04  0.11294075858E+04  0.25500000000E-02 0. -1.
    8880022    1    1    2    0    0 -0.58364138551E+03  0.13497521283E+03  0.79345970840E+03  0.10058953906E+04  0.15294330000E+03 0.  0.
    8880022    1    1    2    0    0  0.58364138551E+03 -0.13497521283E+03 -0.92979376655E+03  0.11165857228E+04  0.15294330000E+03 0.  0.
<mgrwt>
<rscale>  0 0.61826146E+03</rscale>
<asrwt>0</asrwt>
<pdfrwt beam="1">  1        2 0.17375501E+00 0.61826146E+03</pdfrwt>
<pdfrwt beam="2">  1       -2 0.15278054E+00 0.61826146E+03</pdfrwt>
<totfact> 0.62053996E+00</totfact>
</mgrwt>
</event>
<event>
 4    1  0.3365401E-008  0.6698646E+03  0.7818608E-02  0.9770203E-01
          2   -1    0    0  501    0  0.00000000000E+00  0.00000000000E+00  0.24786819343E+04  0.24786819343E+04  0.25500000000E-02 0. -1.
         -2   -1    0    0    0  501 -0.00000000000E+00 -0.00000000000E+00 -0.19522062841E+03  0.19522062843E+03  0.25500000000E-02 0.  1.
    8880022    1    1    2    0    0 -0.52516501537E+03  0.38668924784E+03  0.78128757712E+03  0.10291398345E+04  0.15294330000E+03 0.  1.
    8880022    1    1    2    0    0  0.52516501537E+03 -0.38668924784E+03  0.15021737287E+04  0.16447627282E+04  0.15294330000E+03 0. -1.
<mgrwt>
<rscale>  0 0.66986455E+03</rscale>
<asrwt>0</asrwt>
<pdfrwt beam="1">  1        2 0.38133569E+00 0.66986455E+03</pdfrwt>
<pdfrwt beam="2">  1       -2 0.30033942E-01 0.66986455E+03</pdfrwt>
<totfact> 0.38615403E+01</totfact>
</mgrwt>
</event>
<event>
 4    1  0.3365401E-008  0.2002870E+03  0.7818608E-02  0.1149497E+00
          2   -1    0    0  501    0  0.00000000000E+00  0.00000000000E+00  0.58786825943E+03  0.58786825944E+03  0.25500000000E-02 0. -1.
         -2   -1    0    0    0  501 -0.00000000000E+00 -0.00000000000E+00 -0.69379452633E+02  0.69379452680E+02  0.25500000000E-02 0.  1.
    8880022    1    1    2    0    0 -0.12760855259E+03 -0.20959051207E+02  0.30139827235E+03  0.36187815092E+03  0.15294330000E+03 0.  0.
    8880022    1    1    2    0    0  0.12760855259E+03  0.20959051207E+02  0.21709053445E+03  0.29536956120E+03  0.15294330000E+03 0. -1.
<mgrwt>
<rscale>  0 0.20028699E+03</rscale>
<asrwt>0</asrwt>
<pdfrwt beam="1">  1        2 0.90441269E-01 0.20028699E+03</pdfrwt>
<pdfrwt beam="2">  1       -2 0.10673762E-01 0.20028699E+03</pdfrwt>
<totfact> 0.30530624E+03</totfact>
</mgrwt>
</event>
<event>
 4    1  0.3365401E-008  0.4397820E+03  0.7818608E-02  0.1030814E+00
          2   -1    0    0  501    0  0.00000000000E+00  0.00000000000E+00  0.53810440162E+03  0.53810440162E+03  0.25500000000E-02 0. -1.
         -2   -1    0    0    0  501 -0.00000000000E+00 -0.00000000000E+00 -0.95785637987E+03  0.95785637988E+03  0.25500000000E-02 0.  1.
    8880022    1    1    2    0    0  0.25178484006E+03 -0.32652860075E+03  0.38134138197E+03  0.58209057320E+03  0.15294330000E+03 0. -1.
    8880022    1    1    2    0    0 -0.25178484006E+03  0.32652860075E+03 -0.80109336022E+03  0.91387020829E+03  0.15294330000E+03 0.  1.
<mgrwt>
<rscale>  0 0.43978198E+03</rscale>
<asrwt>0</asrwt>
<pdfrwt beam="1">  1        2 0.82785293E-01 0.43978198E+03</pdfrwt>
<pdfrwt beam="2">  1       -2 0.14736252E+00 0.43978198E+03</pdfrwt>
<totfact> 0.18648295E+01</totfact>
</mgrwt>
</event>
<event>
 4    1  0.3365401E-008  0.1288880E+04  0.7818608E-02  0.9038430E-01
          2   -1    0    0  501    0  0.00000000000E+00  0.00000000000E+00  0.23965528515E+04  0.23965528515E+04  0.25500000000E-02 0. -1.
         -2   -1    0    0    0  501 -0.00000000000E+00 -0.00000000000E+00 -0.90834285947E+03  0.90834285947E+03  0.25500000000E-02 0.  1.
    8880022    1    1    2    0    0  0.87797275220E+03  0.93111961277E+03  0.15483707079E+04  0.20146124662E+04  0.15294330000E+03 0.  0.
    8880022    1    1    2    0    0 -0.87797275220E+03 -0.93111961277E+03 -0.60160715892E+02  0.12902832447E+04  0.15294330000E+03 0.  0.
<mgrwt>
<rscale>  0 0.12888800E+04</rscale>
<asrwt>0</asrwt>
<pdfrwt beam="1">  1        2 0.36870044E+00 0.12888800E+04</pdfrwt>
<pdfrwt beam="2">  1       -2 0.13974506E+00 0.12888800E+04</pdfrwt>
<totfact> 0.13939716E+00</totfact>
</mgrwt>
</event>
<event>
 4    1  0.3365401E-008  0.5139971E+03  0.7818608E-02  0.1010189E+00
         -2   -1    0    0    0  501 -0.00000000000E+00  0.00000000000E+00  0.18165240699E+03  0.18165240701E+03  0.25500000000E-02 0.  1.
          2   -1    0    0  501    0  0.00000000000E+00 -0.00000000000E+00 -0.27572593665E+04  0.27572593665E+04  0.25500000000E-02 0. -1.
    8880022    1    1    2    0    0 -0.22324390260E+03  0.43699373189E+03 -0.27769370641E+03  0.58421469458E+03  0.15294330000E+03 0.  0.
    8880022    1    1    2    0    0  0.22324390260E+03 -0.43699373189E+03 -0.22979132531E+04  0.23546970789E+04  0.15294330000E+03 0.  0.
<mgrwt>
<rscale>  0 0.51399710E+03</rscale>
<asrwt>0</asrwt>
<pdfrwt beam="1">  1        2 0.42419372E+00 0.51399710E+03</pdfrwt>
<pdfrwt beam="2">  1       -2 0.27946526E-01 0.51399710E+03</pdfrwt>
<totfact> 0.31453584E+01</totfact>
</mgrwt>
</event>
<event>
 4    1  0.3365401E-008  0.3085269E+03  0.7818608E-02  0.1081054E+00
          2   -1    0    0  501    0  0.00000000000E+00  0.00000000000E+00  0.78785779378E+03  0.78785779378E+03  0.25500000000E-02 0. -1.
         -2   -1    0    0    0  501 -0.00000000000E+00 -0.00000000000E+00 -0.23507070379E+03  0.23507070380E+03  0.25500000000E-02 0.  1.
    8880022    1    1    2    0    0  0.18806066426E+03  0.19086745837E+03 -0.80177253098E+02  0.31877459910E+03  0.15294330000E+03 0.  0.
    8880022    1    1    2    0    0 -0.18806066426E+03 -0.19086745837E+03  0.63296434309E+03  0.70415389848E+03  0.15294330000E+03 0.  0.
<mgrwt>
<rscale>  0 0.30852691E+03</rscale>
<asrwt>0</asrwt>
<pdfrwt beam="1">  1        2 0.12120889E+00 0.30852691E+03</pdfrwt>
<pdfrwt beam="2">  1       -2 0.36164723E-01 0.30852691E+03</pdfrwt>
<totfact> 0.26252089E+02</totfact>
</mgrwt>
</event>
<event>
 4    1  0.3365401E-008  0.3276723E+03  0.7818608E-02  0.1072171E+00
         -2   -1    0    0    0  501 -0.00000000000E+00  0.00000000000E+00  0.26488991058E+03  0.26488991060E+03  0.25500000000E-02 0.  1.
          2   -1    0    0  501    0  0.00000000000E+00 -0.00000000000E+00 -0.11293104188E+04  0.11293104188E+04  0.25500000000E-02 0. -1.
    8880022    1    1    2    0    0 -0.65185794000E+02  0.28236203832E+03 -0.99035959664E+03  0.10431592841E+04  0.15294330000E+03 0.  0.
    8880022    1    1    2    0    0  0.65185794000E+02 -0.28236203832E+03  0.12593908845E+03  0.35104104523E+03  0.15294330000E+03 0.  1.
<mgrwt>
<rscale>  0 0.32767234E+03</rscale>
<asrwt>0</asrwt>
<pdfrwt beam="1">  1        2 0.17374006E+00 0.32767234E+03</pdfrwt>
<pdfrwt beam="2">  1       -2 0.40752295E-01 0.32767234E+03</pdfrwt>
<totfact> 0.12641216E+02</totfact>
</mgrwt>
</event>
<event>
 4    1  0.3365401E-008  0.3023870E+03  0.7818608E-02  0.1084053E+00
          2   -1    0    0  501    0  0.00000000000E+00  0.00000000000E+00  0.12056666921E+04  0.12056666921E+04  0.25500000000E-02 0. -1.
         -2   -1    0    0    0  501 -0.00000000000E+00 -0.00000000000E+00 -0.23703710994E+03  0.23703710996E+03  0.25500000000E-02 0.  1.
    8880022    1    1    2    0    0 -0.14784007139E+03  0.21491757890E+03 -0.11054891736E+03  0.32196112898E+03  0.15294330000E+03 0.  0.
    8880022    1    1    2    0    0  0.14784007139E+03 -0.21491757890E+03  0.10791784996E+04  0.11207426731E+04  0.15294330000E+03 0.  0.
<mgrwt>
<rscale>  0 0.30238701E+03</rscale>
<asrwt>0</asrwt>
<pdfrwt beam="1">  1        2 0.18548718E+00 0.30238701E+03</pdfrwt>
<pdfrwt beam="2">  1       -2 0.36467248E-01 0.30238701E+03</pdfrwt>
<totfact> 0.14176790E+02</totfact>
</mgrwt>
</event>
<event>
 4    1  0.5611719E-008  0.9405258E+03  0.7818608E-02  0.9376294E-01
          2   -1    0    0  501    0  0.00000000000E+00  0.00000000000E+00  0.28381192495E+04  0.28381192495E+04  0.25500000000E-02 0. -1.
         -2   -1    0    0    0  501 -0.00000000000E+00 -0.00000000000E+00 -0.14729412007E+04  0.14729412007E+04  0.25500000000E-02 0.  1.
    8880022    1    1    2    0    0  0.37183098797E+03  0.85025809852E+03  0.25965193416E+04  0.27616121129E+04  0.15294330000E+03 0.  0.
    8880022    1    1    2    0    0 -0.37183098797E+03 -0.85025809852E+03 -0.12313412928E+04  0.15494483373E+04  0.15294330000E+03 0.  0.
<mgrwt>
<rscale>  0 0.94052579E+03</rscale>
<asrwt>0</asrwt>
<pdfrwt beam="1">  1        2 0.43663373E+00 0.94052579E+03</pdfrwt>
<pdfrwt beam="2">  1       -2 0.22660634E+00 0.94052579E+03</pdfrwt>
<totfact> 0.20239160E-01</totfact>
</mgrwt>
</event>
<event>
 4    1  0.3365401E-008  0.7191294E+03  0.7818608E-02  0.9685066E-01
          2   -1    0    0  501    0  0.00000000000E+00  0.00000000000E+00  0.16231256994E+04  0.16231256994E+04  0.25500000000E-02 0. -1.
         -2   -1    0    0    0  501 -0.00000000000E+00 -0.00000000000E+00 -0.44761060581E+03  0.44761060582E+03  0.25500000000E-02 0.  1.
    8880022    1    1    2    0    0 -0.67543774279E+03 -0.19375063974E+03  0.11435816193E+04  0.13508982300E+04  0.15294330000E+03 0.  0.
    8880022    1    1    2    0    0  0.67543774279E+03  0.19375063974E+03  0.31933474311E+02  0.71983807525E+03  0.15294330000E+03 0.  0.
<mgrwt>
<rscale>  0 0.71912941E+03</rscale>
<asrwt>0</asrwt>
<pdfrwt beam="1">  1        2 0.24971164E+00 0.71912941E+03</pdfrwt>
<pdfrwt beam="2">  1       -2 0.68863172E-01 0.71912941E+03</pdfrwt>
<totfact> 0.21483288E+01</totfact>
</mgrwt>
</event>
<event>
 4    1  0.3365401E-008  0.9529812E+03  0.7818608E-02  0.9361673E-01
          2   -1    0    0  501    0  0.00000000000E+00  0.00000000000E+00  0.19538816197E+04  0.19538816197E+04  0.25500000000E-02 0. -1.
         -2   -1    0    0    0  501 -0.00000000000E+00 -0.00000000000E+00 -0.56047805045E+03  0.56047805045E+03  0.25500000000E-02 0.  1.
    8880022    1    1    2    0    0 -0.68153726100E+03  0.64829653469E+03  0.12161160933E+04  0.15450279740E+04  0.15294330000E+03 0.  0.
    8880022    1    1    2    0    0  0.68153726100E+03 -0.64829653469E+03  0.17728747593E+03  0.96933169614E+03  0.15294330000E+03 0.  0.
<mgrwt>
<rscale>  0 0.95298116E+03</rscale>
<asrwt>0</asrwt>
<pdfrwt beam="1">  1        2 0.30059718E+00 0.95298116E+03</pdfrwt>
<pdfrwt beam="2">  1       -2 0.86227391E-01 0.95298116E+03</pdfrwt>
<totfact> 0.83191025E+00</totfact>
</mgrwt>
</event>
<event>
 4    1  0.3365401E-008  0.4539588E+03  0.7818608E-02  0.1026548E+00
          2   -1    0    0  501    0  0.00000000000E+00  0.00000000000E+00  0.82748464849E+03  0.82748464849E+03  0.25500000000E-02 0. -1.
         -2   -1    0    0    0  501 -0.00000000000E+00 -0.00000000000E+00 -0.79967304216E+03  0.79967304217E+03  0.25500000000E-02 0.  1.
    8880022    1    1    2    0    0  0.38441565326E+03  0.18684634209E+03 -0.66120286430E+03  0.80203979377E+03  0.15294330000E+03 0.  0.
    8880022    1    1    2    0    0 -0.38441565326E+03 -0.18684634209E+03  0.68901447062E+03  0.82511789689E+03  0.15294330000E+03 0.  0.
<mgrwt>
<rscale>  0 0.45395881E+03</rscale>
<asrwt>0</asrwt>
<pdfrwt beam="1">  1        2 0.12730533E+00 0.45395881E+03</pdfrwt>
<pdfrwt beam="2">  1       -2 0.12302662E+00 0.45395881E+03</pdfrwt>
<totfact> 0.17329996E+01</totfact>
</mgrwt>
</event>
<event>
 4    1  0.3365401E-008  0.3335916E+03  0.7818608E-02  0.1069559E+00
         -2   -1    0    0    0  501 -0.00000000000E+00  0.00000000000E+00  0.52200810915E+02  0.52200810978E+02  0.25500000000E-02 0.  1.
          2   -1    0    0  501    0  0.00000000000E+00 -0.00000000000E+00 -0.28522359228E+04  0.28522359228E+04  0.25500000000E-02 0. -1.
    8880022    1    1    2    0    0 -0.26756723837E+03  0.12766946478E+03 -0.67017839701E+03  0.74861368951E+03  0.15294330000E+03 0.  0.
    8880022    1    1    2    0    0  0.26756723837E+03 -0.12766946478E+03 -0.21298567148E+04  0.21558230442E+04  0.15294330000E+03 0.  0.
<mgrwt>
<rscale>  0 0.33359163E+03</rscale>
<asrwt>0</asrwt>
<pdfrwt beam="1">  1        2 0.43880541E+00 0.33359163E+03</pdfrwt>
<pdfrwt beam="2">  1       -2 0.80308962E-02 0.33359163E+03</pdfrwt>
<totfact> 0.23535124E+02</totfact>
</mgrwt>
</event>
<event>
 4    1  0.3365401E-008  0.2487614E+03  0.7818608E-02  0.1114090E+00
         -2   -1    0    0    0  501 -0.00000000000E+00  0.00000000000E+00  0.89438917875E+02  0.89438917911E+02  0.25500000000E-02 0.  1.
          2   -1    0    0  501    0  0.00000000000E+00 -0.00000000000E+00 -0.19869608691E+04  0.19869608691E+04  0.25500000000E-02 0. -1.
    8880022    1    1    2    0    0  0.15715392072E+03  0.11744451276E+03 -0.11059027706E+03  0.27223598361E+03  0.15294330000E+03 0.  1.
    8880022    1    1    2    0    0 -0.15715392072E+03 -0.11744451276E+03 -0.17869316742E+04  0.18041638034E+04  0.15294330000E+03 0.  0.
<mgrwt>
<rscale>  0 0.24876137E+03</rscale>
<asrwt>0</asrwt>
<pdfrwt beam="1">  1        2 0.30568625E+00 0.24876137E+03</pdfrwt>
<pdfrwt beam="2">  1       -2 0.13759835E-01 0.24876137E+03</pdfrwt>
<totfact> 0.30081092E+02</totfact>
</mgrwt>
</event>
<event>
 4    1  0.3365401E-008  0.2815705E+03  0.7818608E-02  0.1094834E+00
         -2   -1    0    0    0  501 -0.00000000000E+00  0.00000000000E+00  0.28313813506E+03  0.28313813508E+03  0.25500000000E-02 0.  1.
          2   -1    0    0  501    0  0.00000000000E+00 -0.00000000000E+00 -0.21192567271E+04  0.21192567271E+04  0.25500000000E-02 0. -1.
    8880022    1    1    2    0    0 -0.37527976308E+02  0.23341367921E+03  0.20097248960E+03  0.34593625026E+03  0.15294330000E+03 0.  0.
    8880022    1    1    2    0    0  0.37527976308E+02 -0.23341367921E+03 -0.20370910817E+04  0.20564586119E+04  0.15294330000E+03 0. -1.
<mgrwt>
<rscale>  0 0.28157050E+03</rscale>
<asrwt>0</asrwt>
<pdfrwt beam="1">  1        2 0.32603949E+00 0.28157050E+03</pdfrwt>
<pdfrwt beam="2">  1       -2 0.43559714E-01 0.28157050E+03</pdfrwt>
<totfact> 0.32775163E+01</totfact>
</mgrwt>
</event>
<event>
 4    1  0.3365401E-008  0.3289328E+03  0.7818608E-02  0.1071610E+00
         -2   -1    0    0    0  501 -0.00000000000E+00  0.00000000000E+00  0.12922525453E+04  0.12922525453E+04  0.25500000000E-02 0.  1.
          2   -1    0    0  501    0  0.00000000000E+00 -0.00000000000E+00 -0.83841464795E+02  0.83841464834E+02  0.25500000000E-02 0. -1.
    8880022    1    1    2    0    0  0.25285768895E+03  0.14445811109E+03  0.57881541590E+03  0.66575077576E+03  0.15294330000E+03 0.  1.
    8880022    1    1    2    0    0 -0.25285768895E+03 -0.14445811109E+03  0.62959566460E+03  0.71034323437E+03  0.15294330000E+03 0. -1.
<mgrwt>
<rscale>  0 0.32893283E+03</rscale>
<asrwt>0</asrwt>
<pdfrwt beam="1">  1        2 0.12898688E-01 0.32893283E+03</pdfrwt>
<pdfrwt beam="2">  1       -2 0.19880806E+00 0.32893283E+03</pdfrwt>
<totfact> 0.68338148E+01</totfact>
</mgrwt>
</event>
<event>
 4    1  0.3365401E-008  0.7539913E+03  0.7818608E-02  0.9629109E-01
          2   -1    0    0  501    0  0.00000000000E+00  0.00000000000E+00  0.21310842409E+04  0.21310842409E+04  0.25500000000E-02 0. -1.
         -2   -1    0    0    0  501 -0.00000000000E+00 -0.00000000000E+00 -0.42832412399E+03  0.42832412400E+03  0.25500000000E-02 0.  1.
    8880022    1    1    2    0    0  0.58138218314E+03  0.45508895777E+03  0.16373147114E+04  0.18025821256E+04  0.15294330000E+03 0.  0.
    8880022    1    1    2    0    0 -0.58138218314E+03 -0.45508895777E+03  0.65445405486E+02  0.75682623928E+03  0.15294330000E+03 0.  0.
<mgrwt>
<rscale>  0 0.75399128E+03</rscale>
<asrwt>0</asrwt>
<pdfrwt beam="1">  1        2 0.32785911E+00 0.75399128E+03</pdfrwt>
<pdfrwt beam="2">  1       -2 0.65896019E-01 0.75399128E+03</pdfrwt>
<totfact> 0.12416171E+01</totfact>
</mgrwt>
</event>
<event>
 4    1  0.3365401E-008  0.7937830E+03  0.7818608E-02  0.9569060E-01
          2   -1    0    0  501    0  0.00000000000E+00  0.00000000000E+00  0.34511054020E+04  0.34511054020E+04  0.25500000000E-02 0. -1.
         -2   -1    0    0    0  501 -0.00000000000E+00 -0.00000000000E+00 -0.24820072039E+03  0.24820072041E+03  0.25500000000E-02 0.  1.
    8880022    1    1    2    0    0 -0.39617015918E+03 -0.67063325439E+03  0.25525392370E+04  0.26731157787E+04  0.15294330000E+03 0.  0.
    8880022    1    1    2    0    0  0.39617015918E+03  0.67063325439E+03  0.65036544455E+03  0.10261903436E+04  0.15294330000E+03 0.  0.
<mgrwt>
<rscale>  0 0.79378297E+03</rscale>
<asrwt>0</asrwt>
<pdfrwt beam="1">  1        2 0.53093929E+00 0.79378297E+03</pdfrwt>
<pdfrwt beam="2">  1       -2 0.38184726E-01 0.79378297E+03</pdfrwt>
<totfact> 0.61022661E+00</totfact>
</mgrwt>
</event>
<event>
 4    1  0.3365401E-008  0.3338441E+03  0.7818608E-02  0.1069449E+00
         -2   -1    0    0    0  501 -0.00000000000E+00  0.00000000000E+00  0.13053781938E+04  0.13053781938E+04  0.25500000000E-02 0.  1.
          2   -1    0    0  501    0  0.00000000000E+00 -0.00000000000E+00 -0.24412862181E+04  0.24412862181E+04  0.25500000000E-02 0. -1.
    8880022    1    1    2    0    0  0.22351562571E+03  0.19519474841E+03 -0.24082367046E+04  0.24312663168E+04  0.15294330000E+03 0.  0.
    8880022    1    1    2    0    0 -0.22351562571E+03 -0.19519474841E+03  0.12723286803E+04  0.13153980951E+04  0.15294330000E+03 0.  1.
<mgrwt>
<rscale>  0 0.33384409E+03</rscale>
<asrwt>0</asrwt>
<pdfrwt beam="1">  1        2 0.37558250E+00 0.33384409E+03</pdfrwt>
<pdfrwt beam="2">  1       -2 0.20082741E+00 0.33384409E+03</pdfrwt>
<totfact> 0.60341854E-01</totfact>
</mgrwt>
</event>
<event>
 4    1  0.3365401E-008  0.3543527E+03  0.7818608E-02  0.1060843E+00
          2   -1    0    0  501    0  0.00000000000E+00  0.00000000000E+00  0.21684967956E+04  0.21684967956E+04  0.25500000000E-02 0. -1.
         -2   -1    0    0    0  501 -0.00000000000E+00 -0.00000000000E+00 -0.19139562361E+03  0.19139562363E+03  0.25500000000E-02 0.  1.
    8880022    1    1    2    0    0 -0.82730244363E+02  0.30875537090E+03  0.31284241416E+01  0.35436649453E+03  0.15294330000E+03 0.  1.
    8880022    1    1    2    0    0  0.82730244363E+02 -0.30875537090E+03  0.19739727478E+04  0.20055259247E+04  0.15294330000E+03 0.  0.
<mgrwt>
<rscale>  0 0.35435269E+03</rscale>
<asrwt>0</asrwt>
<pdfrwt beam="1">  1        2 0.33361489E+00 0.35435269E+03</pdfrwt>
<pdfrwt beam="2">  1       -2 0.29445481E-01 0.35435269E+03</pdfrwt>
<totfact> 0.63125977E+01</totfact>
</mgrwt>
</event>
<event>
 4    1  0.3365401E-008  0.2591497E+03  0.7818608E-02  0.1107655E+00
          2   -1    0    0  501    0  0.00000000000E+00  0.00000000000E+00  0.38922656352E+04  0.38922656352E+04  0.25500000000E-02 0. -1.
         -2   -1    0    0    0  501 -0.00000000000E+00 -0.00000000000E+00 -0.37644566276E+03  0.37644566277E+03  0.25500000000E-02 0.  1.
    8880022    1    1    2    0    0 -0.19935380516E+03  0.63442800811E+02 -0.32695790395E+03  0.41720504860E+03  0.15294330000E+03 0.  0.
    8880022    1    1    2    0    0  0.19935380516E+03 -0.63442800811E+02  0.38427778764E+04  0.38515062494E+04  0.15294330000E+03 0. -1.
<mgrwt>
<rscale>  0 0.25914973E+03</rscale>
<asrwt>0</asrwt>
<pdfrwt beam="1">  1        2 0.59881012E+00 0.25914973E+03</pdfrwt>
<pdfrwt beam="2">  1       -2 0.57914715E-01 0.25914973E+03</pdfrwt>
<totfact> 0.15748842E+00</totfact>
</mgrwt>
</event>
<event>
 4    1  0.3365401E-008  0.4401757E+03  0.7818608E-02  0.1030693E+00
          2   -1    0    0  501    0  0.00000000000E+00  0.00000000000E+00  0.24799993441E+04  0.24799993441E+04  0.25500000000E-02 0. -1.
         -2   -1    0    0    0  501 -0.00000000000E+00 -0.00000000000E+00 -0.14468836312E+03  0.14468836314E+03  0.25500000000E-02 0.  1.
    8880022    1    1    2    0    0  0.41116749396E+03  0.36114805397E+02  0.27754832594E+03  0.52037266791E+03  0.15294330000E+03 0.  1.
    8880022    1    1    2    0    0 -0.41116749396E+03 -0.36114805397E+02  0.20577626550E+04  0.21043150393E+04  0.15294330000E+03 0.  0.
<mgrwt>
<rscale>  0 0.44017569E+03</rscale>
<asrwt>0</asrwt>
<pdfrwt beam="1">  1        2 0.38153837E+00 0.44017569E+03</pdfrwt>
<pdfrwt beam="2">  1       -2 0.22259748E-01 0.44017569E+03</pdfrwt>
<totfact> 0.69033735E+01</totfact>
</mgrwt>
</event>
<event>
 4    1  0.3365401E-008  0.1744635E+03  0.7818608E-02  0.1173271E+00
         -2   -1    0    0    0  501 -0.00000000000E+00  0.00000000000E+00  0.31477116310E+03  0.31477116311E+03  0.25500000000E-02 0.  1.
          2   -1    0    0  501    0  0.00000000000E+00 -0.00000000000E+00 -0.17650824361E+04  0.17650824361E+04  0.25500000000E-02 0. -1.
    8880022    1    1    2    0    0 -0.47548229845E+02 -0.69173960679E+02 -0.17361958476E+04  0.17449394102E+04  0.15294330000E+03 0.  0.
    8880022    1    1    2    0    0  0.47548229845E+02  0.69173960679E+02  0.28588457460E+03  0.33491418902E+03  0.15294330000E+03 0.  1.
<mgrwt>
<rscale>  0 0.17446353E+03</rscale>
<asrwt>0</asrwt>
<pdfrwt beam="1">  1        2 0.27155114E+00 0.17446353E+03</pdfrwt>
<pdfrwt beam="2">  1       -2 0.48426334E-01 0.17446353E+03</pdfrwt>
<totfact> 0.42727633E+01</totfact>
</mgrwt>
</event>
<event>
 4    1  0.3365401E-008  0.4010336E+03  0.7818608E-02  0.1043422E+00
         -2   -1    0    0    0  501 -0.00000000000E+00  0.00000000000E+00  0.23635098173E+03  0.23635098174E+03  0.25500000000E-02 0.  1.
          2   -1    0    0  501    0  0.00000000000E+00 -0.00000000000E+00 -0.98841418800E+03  0.98841418800E+03  0.25500000000E-02 0. -1.
    8880022    1    1    2    0    0  0.16991039036E+03  0.32949475472E+03 -0.71784935941E+03  0.82227470468E+03  0.15294330000E+03 0.  0.
    8880022    1    1    2    0    0 -0.16991039036E+03 -0.32949475472E+03 -0.34213846860E+02  0.40249046507E+03  0.15294330000E+03 0.  0.
<mgrwt>
<rscale>  0 0.40103365E+03</rscale>
<asrwt>0</asrwt>
<pdfrwt beam="1">  1        2 0.15206372E+00 0.40103365E+03</pdfrwt>
<pdfrwt beam="2">  1       -2 0.36361690E-01 0.40103365E+03</pdfrwt>
<totfact> 0.18954138E+02</totfact>
</mgrwt>
</event>
<event>
 4    1  0.3365401E-008  0.3350779E+03  0.7818608E-02  0.1068912E+00
          2   -1    0    0  501    0  0.00000000000E+00  0.00000000000E+00  0.33431366971E+04  0.33431366971E+04  0.25500000000E-02 0. -1.
         -2   -1    0    0    0  501 -0.00000000000E+00 -0.00000000000E+00 -0.44632799849E+02  0.44632799922E+02  0.25500000000E-02 0.  1.
    8880022    1    1    2    0    0 -0.24957422735E+02 -0.29709033559E+03  0.80648642998E+03  0.87332557228E+03  0.15294330000E+03 0.  0.
    8880022    1    1    2    0    0  0.24957422735E+02  0.29709033559E+03  0.24920174672E+04  0.25144439247E+04  0.15294330000E+03 0.  0.
<mgrwt>
<rscale>  0 0.33507789E+03</rscale>
<asrwt>0</asrwt>
<pdfrwt beam="1">  1        2 0.51432883E+00 0.33507789E+03</pdfrwt>
<pdfrwt beam="2">  1       -2 0.68665832E-02 0.33507789E+03</pdfrwt>
<totfact> 0.15103401E+02</totfact>
</mgrwt>
</event>
<event>
 4    1  0.3365401E-008  0.6200261E+03  0.7818608E-02  0.9864708E-01
          2   -1    0    0  501    0  0.00000000000E+00  0.00000000000E+00  0.20827229038E+04  0.20827229038E+04  0.25500000000E-02 0. -1.
         -2   -1    0    0    0  501 -0.00000000000E+00 -0.00000000000E+00 -0.18733063644E+03  0.18733063645E+03  0.25500000000E-02 0.  1.
    8880022    1    1    2    0    0  0.59362788169E+03  0.92987618581E+02  0.10851916956E+04  0.12498293597E+04  0.15294330000E+03 0.  0.
    8880022    1    1    2    0    0 -0.59362788169E+03 -0.92987618581E+02  0.81020057183E+03  0.10202241806E+04  0.15294330000E+03 0.  0.
<mgrwt>
<rscale>  0 0.62002614E+03</rscale>
<asrwt>0</asrwt>
<pdfrwt beam="1">  1        2 0.32041890E+00 0.62002614E+03</pdfrwt>
<pdfrwt beam="2">  1       -2 0.28820099E-01 0.62002614E+03</pdfrwt>
<totfact> 0.69475243E+01</totfact>
</mgrwt>
</event>
<event>
 4    1  0.3365401E-008  0.3837929E+03  0.7818608E-02  0.1049541E+00
          2   -1    0    0  501    0  0.00000000000E+00  0.00000000000E+00  0.16974567058E+04  0.16974567058E+04  0.25500000000E-02 0. -1.
         -2   -1    0    0    0  501 -0.00000000000E+00 -0.00000000000E+00 -0.36081664330E+03  0.36081664331E+03  0.25500000000E-02 0.  1.
    8880022    1    1    2    0    0 -0.34025363805E+03 -0.90181845293E+02 -0.22856749776E+03  0.44669906813E+03  0.15294330000E+03 0.  0.
    8880022    1    1    2    0    0  0.34025363805E+03  0.90181845293E+02  0.15652075603E+04  0.16115742810E+04  0.15294330000E+03 0.  0.
<mgrwt>
<rscale>  0 0.38379286E+03</rscale>
<asrwt>0</asrwt>
<pdfrwt beam="1">  1        2 0.26114718E+00 0.38379286E+03</pdfrwt>
<pdfrwt beam="2">  1       -2 0.55510254E-01 0.38379286E+03</pdfrwt>
<totfact> 0.32748007E+01</totfact>
</mgrwt>
</event>
<event>
 4    1  0.3467100E-008  0.4778514E+03  0.7818608E-02  0.1019727E+00
          2   -1    0    0  501    0  0.00000000000E+00  0.00000000000E+00  0.97341591940E+03  0.97341591941E+03  0.25500000000E-02 0. -1.
         -2   -1    0    0    0  501 -0.00000000000E+00 -0.00000000000E+00 -0.10036401301E+04  0.10036401301E+04  0.25500000000E-02 0.  1.
    8880022    1    1    2    0    0  0.28137176464E+02  0.45183911918E+03 -0.88043998242E+03  0.10017567100E+04  0.15294330000E+03 0.  1.
    8880022    1    1    2    0    0 -0.28137176464E+02 -0.45183911918E+03  0.85021577169E+03  0.97529933957E+03  0.15294330000E+03 0.  0.
<mgrwt>
<rscale>  0 0.47785138E+03</rscale>
<asrwt>0</asrwt>
<pdfrwt beam="1">  1        2 0.14975630E+00 0.47785138E+03</pdfrwt>
<pdfrwt beam="2">  1       -2 0.15440617E+00 0.47785138E+03</pdfrwt>
<totfact> 0.77269557E+00</totfact>
</mgrwt>
</event>
<event>
 4    1  0.3365401E-008  0.1959267E+03  0.7818608E-02  0.1153222E+00
          2   -1    0    0  501    0  0.00000000000E+00  0.00000000000E+00  0.14282085425E+04  0.14282085425E+04  0.25500000000E-02 0. -1.
         -2   -1    0    0    0  501 -0.00000000000E+00 -0.00000000000E+00 -0.14122377082E+03  0.14122377084E+03  0.25500000000E-02 0.  1.
    8880022    1    1    2    0    0  0.11021619982E+03  0.53366620043E+02 -0.62612014553E+02  0.20568792920E+03  0.15294330000E+03 0.  0.
    8880022    1    1    2    0    0 -0.11021619982E+03 -0.53366620043E+02  0.13495967862E+04  0.13637443841E+04  0.15294330000E+03 0.  0.
<mgrwt>
<rscale>  0 0.19592667E+03</rscale>
<asrwt>0</asrwt>
<pdfrwt beam="1">  1        2 0.21972439E+00 0.19592667E+03</pdfrwt>
<pdfrwt beam="2">  1       -2 0.21726734E-01 0.19592667E+03</pdfrwt>
<totfact> 0.27779615E+02</totfact>
</mgrwt>
</event>
<event>
 4    1  0.3365401E-008  0.2886346E+03  0.7818608E-02  0.1091064E+00
         -2   -1    0    0    0  501 -0.00000000000E+00  0.00000000000E+00  0.10261040508E+03  0.10261040511E+03  0.25500000000E-02 0.  1.
          2   -1    0    0  501    0  0.00000000000E+00 -0.00000000000E+00 -0.20396126118E+04  0.20396126118E+04  0.25500000000E-02 0. -1.
    8880022    1    1    2    0    0 -0.13074543463E+03 -0.20693939046E+03 -0.17995149499E+04  0.18225158403E+04  0.15294330000E+03 0. -1.
    8880022    1    1    2    0    0  0.13074543463E+03  0.20693939046E+03 -0.13748725679E+03  0.31970717664E+03  0.15294330000E+03 0.  0.
<mgrwt>
<rscale>  0 0.28863460E+03</rscale>
<asrwt>0</asrwt>
<pdfrwt beam="1">  1        2 0.31378652E+00 0.28863460E+03</pdfrwt>
<pdfrwt beam="2">  1       -2 0.15786218E-01 0.28863460E+03</pdfrwt>
<totfact> 0.22273136E+02</totfact>
</mgrwt>
</event>
<event>
 4    1  0.3365401E-008  0.8608078E+03  0.7818608E-02  0.9475945E-01
          2   -1    0    0  501    0  0.00000000000E+00  0.00000000000E+00  0.50272518528E+03  0.50272518528E+03  0.25500000000E-02 0. -1.
         -2   -1    0    0    0  501 -0.00000000000E+00 -0.00000000000E+00 -0.35140563829E+04  0.35140563829E+04  0.25500000000E-02 0.  1.
    8880022    1    1    2    0    0 -0.62528856730E+03  0.57150037600E+03  0.24613393404E+02  0.86115965088E+03  0.15294330000E+03 0.  0.
    8880022    1    1    2    0    0  0.62528856730E+03 -0.57150037600E+03 -0.30359445910E+04  0.31556219173E+04  0.15294330000E+03 0.  0.
<mgrwt>
<rscale>  0 0.86080783E+03</rscale>
<asrwt>0</asrwt>
<pdfrwt beam="1">  1        2 0.77342339E-01 0.86080783E+03</pdfrwt>
<pdfrwt beam="2">  1       -2 0.54062404E+00 0.86080783E+03</pdfrwt>
<totfact> 0.59764996E-02</totfact>
</mgrwt>
</event>
<event>
 4    1  0.3365401E-008  0.2512085E+03  0.7818608E-02  0.1112543E+00
         -2   -1    0    0    0  501 -0.00000000000E+00  0.00000000000E+00  0.22637967998E+02  0.22637968141E+02  0.25500000000E-02 0.  1.
          2   -1    0    0  501    0  0.00000000000E+00 -0.00000000000E+00 -0.32005071794E+04  0.32005071794E+04  0.25500000000E-02 0. -1.
    8880022    1    1    2    0    0  0.15192307713E+03  0.12897060504E+03 -0.10100865815E+04  0.10408557026E+04  0.15294330000E+03 0.  0.
    8880022    1    1    2    0    0 -0.15192307713E+03 -0.12897060504E+03 -0.21677826299E+04  0.21822894450E+04  0.15294330000E+03 0.  0.
<mgrwt>
<rscale>  0 0.25120846E+03</rscale>
<asrwt>0</asrwt>
<pdfrwt beam="1">  1        2 0.49238536E+00 0.25120846E+03</pdfrwt>
<pdfrwt beam="2">  1       -2 0.34827669E-02 0.25120846E+03</pdfrwt>
<totfact> 0.53634463E+02</totfact>
</mgrwt>
</event>
<event>
 4    1  0.3365401E-008  0.3531670E+03  0.7818608E-02  0.1061323E+00
         -2   -1    0    0    0  501 -0.00000000000E+00  0.00000000000E+00  0.76245861858E+02  0.76245861901E+02  0.25500000000E-02 0.  1.
          2   -1    0    0  501    0  0.00000000000E+00 -0.00000000000E+00 -0.22525312475E+04  0.22525312475E+04  0.25500000000E-02 0. -1.
    8880022    1    1    2    0    0 -0.10221519376E+03 -0.30147520801E+03 -0.47889710322E+03  0.59503725544E+03  0.15294330000E+03 0.  0.
    8880022    1    1    2    0    0  0.10221519376E+03  0.30147520801E+03 -0.16973882824E+04  0.17337398539E+04  0.15294330000E+03 0. -1.
<mgrwt>
<rscale>  0 0.35316696E+03</rscale>
<asrwt>0</asrwt>
<pdfrwt beam="1">  1        2 0.34654322E+00 0.35316696E+03</pdfrwt>
<pdfrwt beam="2">  1       -2 0.11730134E-01 0.35316696E+03</pdfrwt>
<totfact> 0.27604419E+02</totfact>
</mgrwt>
</event>
<event>
 4    1  0.3365401E-008  0.8686932E+03  0.7818608E-02  0.9465585E-01
          2   -1    0    0  501    0  0.00000000000E+00  0.00000000000E+00  0.16295358270E+04  0.16295358270E+04  0.25500000000E-02 0. -1.
         -2   -1    0    0    0  501 -0.00000000000E+00 -0.00000000000E+00 -0.61469889826E+03  0.61469889827E+03  0.25500000000E-02 0.  1.
    8880022    1    1    2    0    0 -0.73721617353E+03 -0.43329959484E+03  0.10646863559E+04  0.13741124098E+04  0.15294330000E+03 0.  0.
    8880022    1    1    2    0    0  0.73721617353E+03  0.43329959484E+03 -0.49849427168E+02  0.87012231543E+03  0.15294330000E+03 0.  0.
<mgrwt>
<rscale>  0 0.86869320E+03</rscale>
<asrwt>0</asrwt>
<pdfrwt beam="1">  1        2 0.25069782E+00 0.86869320E+03</pdfrwt>
<pdfrwt beam="2">  1       -2 0.94569061E-01 0.86869320E+03</pdfrwt>
<totfact> 0.10228932E+01</totfact>
</mgrwt>
</event>
<event>
 4    1  0.3365401E-008  0.4338574E+03  0.7818608E-02  0.1032648E+00
         -2   -1    0    0    0  501 -0.00000000000E+00  0.00000000000E+00  0.16704786383E+03  0.16704786385E+03  0.25500000000E-02 0.  1.
          2   -1    0    0  501    0  0.00000000000E+00 -0.00000000000E+00 -0.16679457138E+04  0.16679457138E+04  0.25500000000E-02 0. -1.
    8880022    1    1    2    0    0  0.40594061400E+03 -0.72689586615E+01 -0.12730425732E+04  0.13449422538E+04  0.15294330000E+03 0.  0.
    8880022    1    1    2    0    0 -0.40594061400E+03  0.72689586615E+01 -0.22785527681E+03  0.49005132389E+03  0.15294330000E+03 0.  0.
<mgrwt>
<rscale>  0 0.43385743E+03</rscale>
<asrwt>0</asrwt>
<pdfrwt beam="1">  1        2 0.25660702E+00 0.43385743E+03</pdfrwt>
<pdfrwt beam="2">  1       -2 0.25699673E-01 0.43385743E+03</pdfrwt>
<totfact> 0.14712363E+02</totfact>
</mgrwt>
</event>
<event>
 4    1  0.3365401E-008  0.5587624E+03  0.7818608E-02  0.9994859E-01
         -2   -1    0    0    0  501 -0.00000000000E+00  0.00000000000E+00  0.37207720541E+03  0.37207720542E+03  0.25500000000E-02 0.  1.
          2   -1    0    0  501    0  0.00000000000E+00 -0.00000000000E+00 -0.10964358211E+04  0.10964358211E+04  0.25500000000E-02 0. -1.
    8880022    1    1    2    0    0  0.12786357191E+03  0.52199109771E+03 -0.71788754170E+03  0.90971312767E+03  0.15294330000E+03 0.  0.
    8880022    1    1    2    0    0 -0.12786357191E+03 -0.52199109771E+03 -0.64710739515E+01  0.55879989882E+03  0.15294330000E+03 0.  0.
<mgrwt>
<rscale>  0 0.55876243E+03</rscale>
<asrwt>0</asrwt>
<pdfrwt beam="1">  1        2 0.16868243E+00 0.55876243E+03</pdfrwt>
<pdfrwt beam="2">  1       -2 0.57242647E-01 0.55876243E+03</pdfrwt>
<totfact> 0.64833701E+01</totfact>
</mgrwt>
</event>
<event>
 4    1  0.3365401E-008  0.8168034E+03  0.7818608E-02  0.9536008E-01
          2   -1    0    0  501    0  0.00000000000E+00  0.00000000000E+00  0.59109702732E+03  0.59109702732E+03  0.25500000000E-02 0. -1.
         -2   -1    0    0    0  501 -0.00000000000E+00 -0.00000000000E+00 -0.12897619164E+04  0.12897619164E+04  0.25500000000E-02 0.  1.
    8880022    1    1    2    0    0 -0.76887504323E+03 -0.22936297807E+03 -0.16997861117E+02  0.81698028624E+03  0.15294330000E+03 0.  0.
    8880022    1    1    2    0    0  0.76887504323E+03  0.22936297807E+03 -0.68166702795E+03  0.10638786575E+04  0.15294330000E+03 0.  0.
<mgrwt>
<rscale>  0 0.81680344E+03</rscale>
<asrwt>0</asrwt>
<pdfrwt beam="1">  1        2 0.90938005E-01 0.81680344E+03</pdfrwt>
<pdfrwt beam="2">  1       -2 0.19842491E+00 0.81680344E+03</pdfrwt>
<totfact> 0.69628805E+00</totfact>
</mgrwt>
</event>
<event>
 4    1  0.3365401E-008  0.2705611E+03  0.7818608E-02  0.1100959E+00
         -2   -1    0    0    0  501 -0.00000000000E+00  0.00000000000E+00  0.38722847512E+03  0.38722847513E+03  0.25500000000E-02 0.  1.
          2   -1    0    0  501    0  0.00000000000E+00 -0.00000000000E+00 -0.52458685408E+03  0.52458685409E+03  0.25500000000E-02 0. -1.
    8880022    1    1    2    0    0 -0.86346098511E+02 -0.20580581248E+03  0.29594207932E+03  0.40098010986E+03  0.15294330000E+03 0.  0.
    8880022    1    1    2    0    0  0.86346098511E+02  0.20580581248E+03 -0.43330045828E+03  0.51083521936E+03  0.15294330000E+03 0. -1.
<mgrwt>
<rscale>  0 0.27056115E+03</rscale>
<asrwt>0</asrwt>
<pdfrwt beam="1">  1        2 0.80705670E-01 0.27056115E+03</pdfrwt>
<pdfrwt beam="2">  1       -2 0.59573612E-01 0.27056115E+03</pdfrwt>
<totfact> 0.15981071E+02</totfact>
</mgrwt>
</event>
<event>
 4    1  0.3365401E-008  0.8025254E+03  0.7818608E-02  0.9556369E-01
         -2   -1    0    0    0  501 -0.00000000000E+00  0.00000000000E+00  0.87042588811E+03  0.87042588812E+03  0.25500000000E-02 0.  1.
          2   -1    0    0  501    0  0.00000000000E+00 -0.00000000000E+00 -0.11972255287E+04  0.11972255287E+04  0.25500000000E-02 0. -1.
    8880022    1    1    2    0    0  0.25898918320E+03 -0.74402956031E+03  0.47554263096E+03  0.93283858760E+03  0.15294330000E+03 0.  0.
    8880022    1    1    2    0    0 -0.25898918320E+03  0.74402956031E+03 -0.80234227156E+03  0.11348128292E+04  0.15294330000E+03 0.  0.
<mgrwt>
<rscale>  0 0.80252541E+03</rscale>
<asrwt>0</asrwt>
<pdfrwt beam="1">  1        2 0.18418854E+00 0.80252541E+03</pdfrwt>
<pdfrwt beam="2">  1       -2 0.13391168E+00 0.80252541E+03</pdfrwt>
<totfact> 0.77614477E+00</totfact>
</mgrwt>
</event>
<event>
 4    1  0.3365401E-008  0.7046527E+03  0.7818608E-02  0.9709308E-01
         -2   -1    0    0    0  501 -0.00000000000E+00  0.00000000000E+00  0.59560651533E+03  0.59560651533E+03  0.25500000000E-02 0.  1.
          2   -1    0    0  501    0  0.00000000000E+00 -0.00000000000E+00 -0.13231946534E+04  0.13231946534E+04  0.25500000000E-02 0. -1.
    8880022    1    1    2    0    0 -0.37058921307E+03  0.57948888563E+03 -0.94734436916E+03  0.11806763910E+04  0.15294330000E+03 0.  0.
    8880022    1    1    2    0    0  0.37058921307E+03 -0.57948888563E+03  0.21975623109E+03  0.73812477775E+03  0.15294330000E+03 0.  0.
<mgrwt>
<rscale>  0 0.70465267E+03</rscale>
<asrwt>0</asrwt>
<pdfrwt beam="1">  1        2 0.20356841E+00 0.70465267E+03</pdfrwt>
<pdfrwt beam="2">  1       -2 0.91631772E-01 0.70465267E+03</pdfrwt>
<totfact> 0.16682490E+01</totfact>
</mgrwt>
</event>
<event>
 4    1  0.3365401E-008  0.2353198E+03  0.7818608E-02  0.1122951E+00
          2   -1    0    0  501    0  0.00000000000E+00  0.00000000000E+00  0.15493572085E+04  0.15493572085E+04  0.25500000000E-02 0. -1.
         -2   -1    0    0    0  501 -0.00000000000E+00 -0.00000000000E+00 -0.10994009887E+03  0.10994009890E+03  0.25500000000E-02 0.  1.
    8880022    1    1    2    0    0  0.16639518895E+03  0.65546748154E+02  0.38130150361E+02  0.23838896048E+03  0.15294330000E+03 0.  0.
    8880022    1    1    2    0    0 -0.16639518895E+03 -0.65546748154E+02  0.14012869593E+04  0.14209083469E+04  0.15294330000E+03 0. -1.
<mgrwt>
<rscale>  0 0.23531976E+03</rscale>
<asrwt>0</asrwt>
<pdfrwt beam="1">  1        2 0.23836265E+00 0.23531976E+03</pdfrwt>
<pdfrwt beam="2">  1       -2 0.16913861E-01 0.23531976E+03</pdfrwt>
<totfact> 0.36356662E+02</totfact>
</mgrwt>
</event>
<event>
 4    1  0.3365401E-008  0.4613834E+03  0.7818608E-02  0.1024381E+00
          2   -1    0    0  501    0  0.00000000000E+00  0.00000000000E+00  0.11115564057E+04  0.11115564057E+04  0.25500000000E-02 0. -1.
         -2   -1    0    0    0  501 -0.00000000000E+00 -0.00000000000E+00 -0.39847932605E+03  0.39847932606E+03  0.25500000000E-02 0.  1.
    8880022    1    1    2    0    0  0.42632387630E+03 -0.87925987404E+02 -0.18759668404E+03  0.49806344540E+03  0.15294330000E+03 0.  0.
    8880022    1    1    2    0    0 -0.42632387630E+03  0.87925987404E+02  0.90067376369E+03  0.10119722864E+04  0.15294330000E+03 0.  0.
<mgrwt>
<rscale>  0 0.46138344E+03</rscale>
<asrwt>0</asrwt>
<pdfrwt beam="1">  1        2 0.17100868E+00 0.46138344E+03</pdfrwt>
<pdfrwt beam="2">  1       -2 0.61304512E-01 0.46138344E+03</pdfrwt>
<totfact> 0.55693829E+01</totfact>
</mgrwt>
</event>
<event>
 4    1  0.3365401E-008  0.6512031E+03  0.7818608E-02  0.9804524E-01
         -2   -1    0    0    0  501 -0.00000000000E+00  0.00000000000E+00  0.73692878679E+03  0.73692878680E+03  0.25500000000E-02 0.  1.
          2   -1    0    0  501    0  0.00000000000E+00 -0.00000000000E+00 -0.13899291463E+04  0.13899291463E+04  0.25500000000E-02 0. -1.
    8880022    1    1    2    0    0  0.56744045675E+03 -0.28050876540E+03  0.48755192551E+03  0.81349392899E+03  0.15294330000E+03 0.  0.
    8880022    1    1    2    0    0 -0.56744045675E+03  0.28050876540E+03 -0.11405522850E+04  0.13133640041E+04  0.15294330000E+03 0.  0.
<mgrwt>
<rscale>  0 0.65120311E+03</rscale>
<asrwt>0</asrwt>
<pdfrwt beam="1">  1        2 0.21383525E+00 0.65120311E+03</pdfrwt>
<pdfrwt beam="2">  1       -2 0.11337366E+00 0.65120311E+03</pdfrwt>
<totfact> 0.92886393E+00</totfact>
</mgrwt>
</event>
<event>
 4    1  0.3365401E-008  0.3511546E+03  0.7818608E-02  0.1062142E+00
          2   -1    0    0  501    0  0.00000000000E+00  0.00000000000E+00  0.66873004497E+03  0.66873004498E+03  0.25500000000E-02 0. -1.
         -2   -1    0    0    0  501 -0.00000000000E+00 -0.00000000000E+00 -0.26005021753E+03  0.26005021754E+03  0.25500000000E-02 0.  1.
    8880022    1    1    2    0    0  0.19404867591E+03  0.24952563896E+03  0.45482255579E+03  0.57460694687E+03  0.15294330000E+03 0. -1.
    8880022    1    1    2    0    0 -0.19404867591E+03 -0.24952563896E+03 -0.46142728341E+02  0.35417331565E+03  0.15294330000E+03 0.  0.
<mgrwt>
<rscale>  0 0.35115465E+03</rscale>
<asrwt>0</asrwt>
<pdfrwt beam="1">  1        2 0.10288155E+00 0.35115465E+03</pdfrwt>
<pdfrwt beam="2">  1       -2 0.40007726E-01 0.35115465E+03</pdfrwt>
<totfact> 0.26454023E+02</totfact>
</mgrwt>
</event>
<event>
 4    1  0.3365401E-008  0.4027107E+03  0.7818608E-02  0.1042845E+00
         -2   -1    0    0    0  501 -0.00000000000E+00  0.00000000000E+00  0.42906643032E+03  0.42906643033E+03  0.25500000000E-02 0.  1.
          2   -1    0    0  501    0  0.00000000000E+00 -0.00000000000E+00 -0.97688996612E+03  0.97688996612E+03  0.25500000000E-02 0. -1.
    8880022    1    1    2    0    0  0.20527955068E+03  0.31087714662E+03 -0.82434162543E+03  0.91745030527E+03  0.15294330000E+03 0.  0.
    8880022    1    1    2    0    0 -0.20527955068E+03 -0.31087714662E+03  0.27651808963E+03  0.48850609118E+03  0.15294330000E+03 0.  0.
<mgrwt>
<rscale>  0 0.40271075E+03</rscale>
<asrwt>0</asrwt>
<pdfrwt beam="1">  1        2 0.15029076E+00 0.40271075E+03</pdfrwt>
<pdfrwt beam="2">  1       -2 0.66010220E-01 0.40271075E+03</pdfrwt>
<totfact> 0.58105662E+01</totfact>
</mgrwt>
</event>
<event>
 4    1  0.3365401E-008  0.9160982E+03  0.7818608E-02  0.9405679E-01
         -2   -1    0    0    0  501 -0.00000000000E+00  0.00000000000E+00  0.53098348136E+03  0.53098348137E+03  0.25500000000E-02 0.  1.
          2   -1    0    0  501    0  0.00000000000E+00 -0.00000000000E+00 -0.24432149839E+04  0.24432149839E+04  0.25500000000E-02 0. -1.
    8880022    1    1    2    0    0 -0.15261161788E+03  0.89025495393E+03 -0.72456190451E+02  0.91895905320E+03  0.15294330000E+03 0.  0.
    8880022    1    1    2    0    0  0.15261161788E+03 -0.89025495393E+03 -0.18397753121E+04  0.20552394120E+04  0.15294330000E+03 0.  0.
<mgrwt>
<rscale>  0 0.91609816E+03</rscale>
<asrwt>0</asrwt>
<pdfrwt beam="1">  1        2 0.37587922E+00 0.91609816E+03</pdfrwt>
<pdfrwt beam="2">  1       -2 0.81689768E-01 0.91609816E+03</pdfrwt>
<totfact> 0.50533679E+00</totfact>
</mgrwt>
</event>
<event>
 4    1  0.3365401E-008  0.1494109E+04  0.7818608E-02  0.8888380E-01
          2   -1    0    0  501    0  0.00000000000E+00  0.00000000000E+00  0.14236381245E+04  0.14236381245E+04  0.25500000000E-02 0. -1.
         -2   -1    0    0    0  501 -0.00000000000E+00 -0.00000000000E+00 -0.19462946962E+04  0.19462946962E+04  0.25500000000E-02 0.  1.
    8880022    1    1    2    0    0  0.40226058650E+03 -0.14307884781E+04 -0.10041134713E+04  0.18001679824E+04  0.15294330000E+03 0.  0.
    8880022    1    1    2    0    0 -0.40226058650E+03  0.14307884781E+04  0.48145689960E+03  0.15697648383E+04  0.15294330000E+03 0.  0.
<mgrwt>
<rscale>  0 0.14941087E+04</rscale>
<asrwt>0</asrwt>
<pdfrwt beam="1">  1        2 0.21902125E+00 0.14941087E+04</pdfrwt>
<pdfrwt beam="2">  1       -2 0.29942996E+00 0.14941087E+04</pdfrwt>
<totfact> 0.42347726E-01</totfact>
</mgrwt>
</event>
<event>
 4    1  0.3365401E-008  0.5141015E+03  0.7818608E-02  0.1010162E+00
          2   -1    0    0  501    0  0.00000000000E+00  0.00000000000E+00  0.18493606297E+04  0.18493606297E+04  0.25500000000E-02 0. -1.
         -2   -1    0    0    0  501 -0.00000000000E+00 -0.00000000000E+00 -0.31531019939E+03  0.31531019940E+03  0.25500000000E-02 0.  1.
    8880022    1    1    2    0    0 -0.27568738504E+03 -0.40608519258E+03  0.15673313148E+04  0.16494932013E+04  0.15294330000E+03 0.  0.
    8880022    1    1    2    0    0  0.27568738504E+03  0.40608519258E+03 -0.33280884447E+02  0.51517762780E+03  0.15294330000E+03 0.  0.
<mgrwt>
<rscale>  0 0.51410152E+03</rscale>
<asrwt>0</asrwt>
<pdfrwt beam="1">  1        2 0.28451701E+00 0.51410152E+03</pdfrwt>
<pdfrwt beam="2">  1       -2 0.48509262E-01 0.51410152E+03</pdfrwt>
<totfact> 0.34759275E+01</totfact>
</mgrwt>
</event>
<event>
 4    1  0.3365401E-008  0.2682855E+03  0.7818608E-02  0.1102265E+00
         -2   -1    0    0    0  501 -0.00000000000E+00  0.00000000000E+00  0.27103601509E+02  0.27103601629E+02  0.25500000000E-02 0.  1.
          2   -1    0    0  501    0  0.00000000000E+00 -0.00000000000E+00 -0.33803132454E+04  0.33803132454E+04  0.25500000000E-02 0. -1.
    8880022    1    1    2    0    0  0.22025744836E+03  0.84914023309E+01 -0.88776047811E+03  0.92741348221E+03  0.15294330000E+03 0.  0.
    8880022    1    1    2    0    0 -0.22025744836E+03 -0.84914023309E+01 -0.24654491658E+04  0.24800033649E+04  0.15294330000E+03 0.  0.
<mgrwt>
<rscale>  0 0.26828548E+03</rscale>
<asrwt>0</asrwt>
<pdfrwt beam="1">  1        2 0.52004786E+00 0.26828548E+03</pdfrwt>
<pdfrwt beam="2">  1       -2 0.41697875E-02 0.26828548E+03</pdfrwt>
<totfact> 0.31365919E+02</totfact>
</mgrwt>
</event>
<event>
 4    1  0.3365401E-008  0.3299600E+03  0.7818608E-02  0.1071155E+00
         -2   -1    0    0    0  501 -0.00000000000E+00  0.00000000000E+00  0.11291970061E+04  0.11291970061E+04  0.25500000000E-02 0.  1.
          2   -1    0    0  501    0  0.00000000000E+00 -0.00000000000E+00 -0.24004671027E+03  0.24004671029E+03  0.25500000000E-02 0. -1.
    8880022    1    1    2    0    0  0.10815541866E+03  0.27163277198E+03  0.97414744866E+03  0.10285119650E+04  0.15294330000E+03 0.  0.
    8880022    1    1    2    0    0 -0.10815541866E+03 -0.27163277198E+03 -0.84997152831E+02  0.34073175139E+03  0.15294330000E+03 0. -1.
<mgrwt>
<rscale>  0 0.32996001E+03</rscale>
<asrwt>0</asrwt>
<pdfrwt beam="1">  1        2 0.36930263E-01 0.32996001E+03</pdfrwt>
<pdfrwt beam="2">  1       -2 0.17372262E+00 0.32996001E+03</pdfrwt>
<totfact> 0.29866810E+01</totfact>
</mgrwt>
</event>
<event>
 4    1  0.3365401E-008  0.3208726E+03  0.7818608E-02  0.1075248E+00
          2   -1    0    0  501    0  0.00000000000E+00  0.00000000000E+00  0.24258614353E+04  0.24258614353E+04  0.25500000000E-02 0. -1.
         -2   -1    0    0    0  501 -0.00000000000E+00 -0.00000000000E+00 -0.84131063279E+03  0.84131063279E+03  0.25500000000E-02 0.  1.
    8880022    1    1    2    0    0  0.47138599709E+02 -0.27811066410E+03  0.23841227353E+04  0.24056185190E+04  0.15294330000E+03 0.  0.
    8880022    1    1    2    0    0 -0.47138599709E+02  0.27811066410E+03 -0.79957193283E+03  0.86155354903E+03  0.15294330000E+03 0.  0.
<mgrwt>
<rscale>  0 0.32087263E+03</rscale>
<asrwt>0</asrwt>
<pdfrwt beam="1">  1        2 0.37320945E+00 0.32087263E+03</pdfrwt>
<pdfrwt beam="2">  1       -2 0.12943241E+00 0.32087263E+03</pdfrwt>
<totfact> 0.20152509E+00</totfact>
</mgrwt>
</event>
<event>
 4    1  0.3365401E-008  0.2483967E+03  0.7818608E-02  0.1114322E+00
          2   -1    0    0  501    0  0.00000000000E+00  0.00000000000E+00  0.14902410705E+04  0.14902410705E+04  0.25500000000E-02 0. -1.
         -2   -1    0    0    0  501 -0.00000000000E+00 -0.00000000000E+00 -0.16636263162E+03  0.16636263164E+03  0.25500000000E-02 0.  1.
    8880022    1    1    2    0    0  0.19154229738E+03 -0.40259066659E+02 -0.55929598022E+02  0.25461542978E+03  0.15294330000E+03 0.  1.
    8880022    1    1    2    0    0 -0.19154229738E+03  0.40259066659E+02  0.13798080369E+04  0.14019882724E+04  0.15294330000E+03 0.  0.
<mgrwt>
<rscale>  0 0.24839665E+03</rscale>
<asrwt>0</asrwt>
<pdfrwt beam="1">  1        2 0.22926785E+00 0.24839665E+03</pdfrwt>
<pdfrwt beam="2">  1       -2 0.25594252E-01 0.24839665E+03</pdfrwt>
<totfact> 0.19092022E+02</totfact>
</mgrwt>
</event>
<event>
 4    1  0.3365401E-008  0.8613049E+03  0.7818608E-02  0.9475288E-01
         -2   -1    0    0    0  501 -0.00000000000E+00  0.00000000000E+00  0.32002850425E+03  0.32002850426E+03  0.25500000000E-02 0.  1.
          2   -1    0    0  501    0  0.00000000000E+00 -0.00000000000E+00 -0.34908816739E+04  0.34908816739E+04  0.25500000000E-02 0. -1.
    8880022    1    1    2    0    0  0.67310654803E+03 -0.51515243839E+03 -0.26898781107E+04  0.28244097371E+04  0.15294330000E+03 0.  0.
    8880022    1    1    2    0    0 -0.67310654803E+03  0.51515243839E+03 -0.48097505896E+03  0.98650044102E+03  0.15294330000E+03 0.  0.
<mgrwt>
<rscale>  0 0.86130489E+03</rscale>
<asrwt>0</asrwt>
<pdfrwt beam="1">  1        2 0.53705869E+00 0.86130489E+03</pdfrwt>
<pdfrwt beam="2">  1       -2 0.49235157E-01 0.86130489E+03</pdfrwt>
<totfact> 0.34199481E+00</totfact>
</mgrwt>
</event>
<event>
 4    1  0.3365401E-008  0.6991639E+03  0.7818608E-02  0.9718663E-01
          2   -1    0    0  501    0  0.00000000000E+00  0.00000000000E+00  0.16747633729E+04  0.16747633729E+04  0.25500000000E-02 0. -1.
         -2   -1    0    0    0  501 -0.00000000000E+00 -0.00000000000E+00 -0.47444486241E+03  0.47444486241E+03  0.25500000000E-02 0.  1.
    8880022    1    1    2    0    0 -0.67712192210E+03 -0.83333150342E+02 -0.66438826025E+02  0.70231352112E+03  0.15294330000E+03 0.  0.
    8880022    1    1    2    0    0  0.67712192210E+03  0.83333150342E+02  0.12667573366E+04  0.14468947142E+04  0.15294330000E+03 0.  0.
<mgrwt>
<rscale>  0 0.69916390E+03</rscale>
<asrwt>0</asrwt>
<pdfrwt beam="1">  1        2 0.25765591E+00 0.69916390E+03</pdfrwt>
<pdfrwt beam="2">  1       -2 0.72991515E-01 0.69916390E+03</pdfrwt>
<totfact> 0.17769540E+01</totfact>
</mgrwt>
</event>
<event>
 4    1  0.3365401E-008  0.7160843E+03  0.7818608E-02  0.9690115E-01
          2   -1    0    0  501    0  0.00000000000E+00  0.00000000000E+00  0.18957544340E+04  0.18957544340E+04  0.25500000000E-02 0. -1.
         -2   -1    0    0    0  501 -0.00000000000E+00 -0.00000000000E+00 -0.29661640886E+03  0.29661640887E+03  0.25500000000E-02 0.  1.
    8880022    1    1    2    0    0  0.58171735432E+03  0.38857429683E+03  0.47421800371E+03  0.85887102206E+03  0.15294330000E+03 0.  0.
    8880022    1    1    2    0    0 -0.58171735432E+03 -0.38857429683E+03  0.11249200214E+04  0.13334998208E+04  0.15294330000E+03 0.  0.
<mgrwt>
<rscale>  0 0.71608429E+03</rscale>
<asrwt>0</asrwt>
<pdfrwt beam="1">  1        2 0.29165452E+00 0.71608429E+03</pdfrwt>
<pdfrwt beam="2">  1       -2 0.45633294E-01 0.71608429E+03</pdfrwt>
<totfact> 0.35953327E+01</totfact>
</mgrwt>
</event>
<event>
 4    1  0.3365401E-008  0.7997392E+03  0.7818608E-02  0.9560395E-01
          2   -1    0    0  501    0  0.00000000000E+00  0.00000000000E+00  0.19088435519E+04  0.19088435519E+04  0.25500000000E-02 0. -1.
         -2   -1    0    0    0  501 -0.00000000000E+00 -0.00000000000E+00 -0.67827317383E+03  0.67827317384E+03  0.25500000000E-02 0.  1.
    8880022    1    1    2    0    0  0.77837069979E+03  0.10163789054E+03 -0.30487572134E+03  0.85588087113E+03  0.15294330000E+03 0.  0.
    8880022    1    1    2    0    0 -0.77837069979E+03 -0.10163789054E+03  0.15354460994E+04  0.17312358546E+04  0.15294330000E+03 0.  0.
<mgrwt>
<rscale>  0 0.79973925E+03</rscale>
<asrwt>0</asrwt>
<pdfrwt beam="1">  1        2 0.29366824E+00 0.79973925E+03</pdfrwt>
<pdfrwt beam="2">  1       -2 0.10434972E+00 0.79973925E+03</pdfrwt>
<totfact> 0.57470287E+00</totfact>
</mgrwt>
</event>
<event>
 4    1  0.3365401E-008  0.3723044E+03  0.7818608E-02  0.1053815E+00
          2   -1    0    0  501    0  0.00000000000E+00  0.00000000000E+00  0.30718210184E+04  0.30718210184E+04  0.25500000000E-02 0. -1.
         -2   -1    0    0    0  501 -0.00000000000E+00 -0.00000000000E+00 -0.17266215043E+03  0.17266215045E+03  0.25500000000E-02 0.  1.
    8880022    1    1    2    0    0  0.11060192790E+02  0.33925885899E+03  0.28438218400E+04  0.28680887734E+04  0.15294330000E+03 0.  0.
    8880022    1    1    2    0    0 -0.11060192790E+02 -0.33925885899E+03  0.55337027981E+02  0.37639439548E+03  0.15294330000E+03 0.  1.
<mgrwt>
<rscale>  0 0.37230438E+03</rscale>
<asrwt>0</asrwt>
<pdfrwt beam="1">  1        2 0.47258781E+00 0.37230438E+03</pdfrwt>
<pdfrwt beam="2">  1       -2 0.26563410E-01 0.37230438E+03</pdfrwt>
<totfact> 0.23337893E+01</totfact>
</mgrwt>
</event>
<event>
 4    1  0.3365401E-008  0.6001014E+03  0.7818608E-02  0.9905196E-01
         -2   -1    0    0    0  501 -0.00000000000E+00  0.00000000000E+00  0.84436102798E+03  0.84436102798E+03  0.25500000000E-02 0.  1.
          2   -1    0    0  501    0  0.00000000000E+00 -0.00000000000E+00 -0.94156522411E+03  0.94156522411E+03  0.25500000000E-02 0. -1.
    8880022    1    1    2    0    0  0.57848273669E+03 -0.45692385916E+02 -0.70904999768E+03  0.92890991113E+03  0.15294330000E+03 0.  0.
    8880022    1    1    2    0    0 -0.57848273669E+03  0.45692385916E+02  0.61184580155E+03  0.85701634096E+03  0.15294330000E+03 0.  0.
<mgrwt>
<rscale>  0 0.60010143E+03</rscale>
<asrwt>0</asrwt>
<pdfrwt beam="1">  1        2 0.14485619E+00 0.60010143E+03</pdfrwt>
<pdfrwt beam="2">  1       -2 0.12990170E+00 0.60010143E+03</pdfrwt>
<totfact> 0.12397773E+01</totfact>
</mgrwt>
</event>
<event>
 4    1  0.3365401E-008  0.5648887E+03  0.7818608E-02  0.9981053E-01
          2   -1    0    0  501    0  0.00000000000E+00  0.00000000000E+00  0.92653997726E+03  0.92653997727E+03  0.25500000000E-02 0. -1.
         -2   -1    0    0    0  501 -0.00000000000E+00 -0.00000000000E+00 -0.10109677945E+04  0.10109677945E+04  0.25500000000E-02 0.  1.
    8880022    1    1    2    0    0 -0.12638280895E+03 -0.52889981303E+03  0.74441036408E+03  0.93447636128E+03  0.15294330000E+03 0.  0.
    8880022    1    1    2    0    0  0.12638280895E+03  0.52889981303E+03 -0.82883818134E+03  0.10030314105E+04  0.15294330000E+03 0.  1.
<mgrwt>
<rscale>  0 0.56488873E+03</rscale>
<asrwt>0</asrwt>
<pdfrwt beam="1">  1        2 0.14254461E+00 0.56488873E+03</pdfrwt>
<pdfrwt beam="2">  1       -2 0.15553351E+00 0.56488873E+03</pdfrwt>
<totfact> 0.79993317E+00</totfact>
</mgrwt>
</event>
<event>
 4    1  0.3365401E-008  0.1580459E+04  0.7818608E-02  0.8832643E-01
         -2   -1    0    0    0  501 -0.00000000000E+00  0.00000000000E+00  0.10702508358E+04  0.10702508358E+04  0.25500000000E-02 0.  1.
          2   -1    0    0  501    0  0.00000000000E+00 -0.00000000000E+00 -0.25069315972E+04  0.25069315972E+04  0.25500000000E-02 0. -1.
    8880022    1    1    2    0    0 -0.12200091738E+04  0.99299408814E+03 -0.11882463042E+04  0.19773165087E+04  0.15294330000E+03 0.  0.
    8880022    1    1    2    0    0  0.12200091738E+04 -0.99299408814E+03 -0.24843445712E+03  0.15998659243E+04  0.15294330000E+03 0.  0.
<mgrwt>
<rscale>  0 0.15804592E+04</rscale>
<asrwt>0</asrwt>
<pdfrwt beam="1">  1        2 0.38568178E+00 0.15804592E+04</pdfrwt>
<pdfrwt beam="2">  1       -2 0.16465398E+00 0.15804592E+04</pdfrwt>
<totfact> 0.75120511E-01</totfact>
</mgrwt>
</event>
<event>
 4    1  0.3365401E-008  0.6131296E+03  0.7818608E-02  0.9878535E-01
         -2   -1    0    0    0  501 -0.00000000000E+00  0.00000000000E+00  0.37402283198E+03  0.37402283199E+03  0.25500000000E-02 0.  1.
          2   -1    0    0  501    0  0.00000000000E+00 -0.00000000000E+00 -0.18913225303E+04  0.18913225303E+04  0.25500000000E-02 0. -1.
    8880022    1    1    2    0    0 -0.29961501479E+03 -0.51260807462E+03  0.16694559166E+02  0.61335679386E+03  0.15294330000E+03 0.  1.
    8880022    1    1    2    0    0  0.29961501479E+03  0.51260807462E+03 -0.15339942575E+04  0.16519885685E+04  0.15294330000E+03 0.  0.
<mgrwt>
<rscale>  0 0.61312955E+03</rscale>
<asrwt>0</asrwt>
<pdfrwt beam="1">  1        2 0.29097269E+00 0.61312955E+03</pdfrwt>
<pdfrwt beam="2">  1       -2 0.57541975E-01 0.61312955E+03</pdfrwt>
<totfact> 0.22856303E+01</totfact>
</mgrwt>
</event>
<event>
 4    1  0.3365401E-008  0.7407670E+03  0.7818608E-02  0.9649948E-01
         -2   -1    0    0    0  501 -0.00000000000E+00  0.00000000000E+00  0.70631607938E+03  0.70631607939E+03  0.25500000000E-02 0.  1.
          2   -1    0    0  501    0  0.00000000000E+00 -0.00000000000E+00 -0.16953943007E+04  0.16953943007E+04  0.25500000000E-02 0. -1.
    8880022    1    1    2    0    0 -0.60111549832E+03 -0.40497441490E+03 -0.13784203404E+04  0.15648573120E+04  0.15294330000E+03 0.  0.
    8880022    1    1    2    0    0  0.60111549832E+03  0.40497441490E+03  0.38934211902E+03  0.83685306817E+03  0.15294330000E+03 0.  0.
<mgrwt>
<rscale>  0 0.74076702E+03</rscale>
<asrwt>0</asrwt>
<pdfrwt beam="1">  1        2 0.26082989E+00 0.74076702E+03</pdfrwt>
<pdfrwt beam="2">  1       -2 0.10866401E+00 0.74076702E+03</pdfrwt>
<totfact> 0.68784684E+00</totfact>
</mgrwt>
</event>
<event>
 4    1  0.3365401E-008  0.4280907E+03  0.7818608E-02  0.1034465E+00
         -2   -1    0    0    0  501 -0.00000000000E+00  0.00000000000E+00  0.14499468323E+03  0.14499468325E+03  0.25500000000E-02 0.  1.
          2   -1    0    0  501    0  0.00000000000E+00 -0.00000000000E+00 -0.17343129754E+04  0.17343129754E+04  0.25500000000E-02 0. -1.
    8880022    1    1    2    0    0  0.63039069190E+02 -0.39483681540E+03 -0.12840259882E+04  0.13535081922E+04  0.15294330000E+03 0.  0.
    8880022    1    1    2    0    0 -0.63039069190E+02  0.39483681540E+03 -0.30529230403E+03  0.52579946648E+03  0.15294330000E+03 0.  0.
<mgrwt>
<rscale>  0 0.42809075E+03</rscale>
<asrwt>0</asrwt>
<pdfrwt beam="1">  1        2 0.26681737E+00 0.42809075E+03</pdfrwt>
<pdfrwt beam="2">  1       -2 0.22306876E-01 0.42809075E+03</pdfrwt>
<totfact> 0.17443692E+02</totfact>
</mgrwt>
</event>
<event>
 4    1  0.3365401E-008  0.3550089E+03  0.7818608E-02  0.1060578E+00
         -2   -1    0    0    0  501 -0.00000000000E+00  0.00000000000E+00  0.16790625384E+04  0.16790625384E+04  0.25500000000E-02 0.  1.
          2   -1    0    0  501    0  0.00000000000E+00 -0.00000000000E+00 -0.95785026528E+03  0.95785026528E+03  0.25500000000E-02 0. -1.
    8880022    1    1    2    0    0 -0.21878963835E+03  0.23403159440E+03  0.16263493151E+04  0.16646451396E+04  0.15294330000E+03 0.  0.
    8880022    1    1    2    0    0  0.21878963835E+03 -0.23403159440E+03 -0.90513704193E+03  0.97226766414E+03  0.15294330000E+03 0.  0.
<mgrwt>
<rscale>  0 0.35500894E+03</rscale>
<asrwt>0</asrwt>
<pdfrwt beam="1">  1        2 0.14736158E+00 0.35500894E+03</pdfrwt>
<pdfrwt beam="2">  1       -2 0.25831731E+00 0.35500894E+03</pdfrwt>
<totfact> 0.17512884E+00</totfact>
</mgrwt>
</event>
<event>
 4    1  0.3365401E-008  0.6470856E+03  0.7818608E-02  0.9812263E-01
         -2   -1    0    0    0  501 -0.00000000000E+00  0.00000000000E+00  0.20393379279E+04  0.20393379279E+04  0.25500000000E-02 0.  1.
          2   -1    0    0  501    0  0.00000000000E+00 -0.00000000000E+00 -0.67765177050E+03  0.67765177051E+03  0.25500000000E-02 0. -1.
    8880022    1    1    2    0    0  0.39821398833E+03  0.48657346100E+03 -0.45332555470E+03  0.79007836637E+03  0.15294330000E+03 0.  0.
    8880022    1    1    2    0    0 -0.39821398833E+03 -0.48657346100E+03  0.18150117121E+04  0.19269113321E+04  0.15294330000E+03 0.  0.
<mgrwt>
<rscale>  0 0.64708559E+03</rscale>
<asrwt>0</asrwt>
<pdfrwt beam="1">  1        2 0.10425412E+00 0.64708559E+03</pdfrwt>
<pdfrwt beam="2">  1       -2 0.31374430E+00 0.64708559E+03</pdfrwt>
<totfact> 0.11922923E+00</totfact>
</mgrwt>
</event>
<event>
 4    1  0.3365401E-008  0.1229465E+04  0.7818608E-02  0.9087450E-01
          2   -1    0    0  501    0  0.00000000000E+00  0.00000000000E+00  0.27987511421E+04  0.27987511421E+04  0.25500000000E-02 0. -1.
         -2   -1    0    0    0  501 -0.00000000000E+00 -0.00000000000E+00 -0.72932670317E+03  0.72932670317E+03  0.25500000000E-02 0.  1.
    8880022    1    1    2    0    0  0.35043076536E+03 -0.11684996351E+04  0.19332716632E+04  0.22910967015E+04  0.15294330000E+03 0.  0.
    8880022    1    1    2    0    0 -0.35043076536E+03  0.11684996351E+04  0.13615277564E+03  0.12369811437E+04  0.15294330000E+03 0.  0.
<mgrwt>
<rscale>  0 0.12294652E+04</rscale>
<asrwt>0</asrwt>
<pdfrwt beam="1">  1        2 0.43057710E+00 0.12294652E+04</pdfrwt>
<pdfrwt beam="2">  1       -2 0.11220411E+00 0.12294652E+04</pdfrwt>
<totfact> 0.14242689E+00</totfact>
</mgrwt>
</event>
<event>
 4    1  0.3365401E-008  0.5353415E+03  0.7818608E-02  0.1004945E+00
          2   -1    0    0  501    0  0.00000000000E+00  0.00000000000E+00  0.34911569502E+04  0.34911569502E+04  0.25500000000E-02 0. -1.
         -2   -1    0    0    0  501 -0.00000000000E+00 -0.00000000000E+00 -0.90304355617E+02  0.90304355653E+02  0.25500000000E-02 0.  1.
    8880022    1    1    2    0    0  0.36126677873E+03 -0.36425980812E+03  0.11603544717E+04  0.12778939887E+04  0.15294330000E+03 0.  0.
    8880022    1    1    2    0    0 -0.36126677873E+03  0.36425980812E+03  0.22404981228E+04  0.23035673172E+04  0.15294330000E+03 0.  0.
<mgrwt>
<rscale>  0 0.53534152E+03</rscale>
<asrwt>0</asrwt>
<pdfrwt beam="1">  1        2 0.53710098E+00 0.53534152E+03</pdfrwt>
<pdfrwt beam="2">  1       -2 0.13892980E-01 0.53534152E+03</pdfrwt>
<totfact> 0.36856511E+01</totfact>
</mgrwt>
</event>
<event>
 4    1  0.3365401E-008  0.3502147E+03  0.7818608E-02  0.1062527E+00
          2   -1    0    0  501    0  0.00000000000E+00  0.00000000000E+00  0.22426167761E+04  0.22426167761E+04  0.25500000000E-02 0. -1.
         -2   -1    0    0    0  501 -0.00000000000E+00 -0.00000000000E+00 -0.84611957436E+02  0.84611957475E+02  0.25500000000E-02 0.  1.
    8880022    1    1    2    0    0  0.12006807839E+03 -0.29127710078E+03  0.17709654765E+04  0.18052614948E+04  0.15294330000E+03 0.  0.
    8880022    1    1    2    0    0 -0.12006807839E+03  0.29127710078E+03  0.38703934216E+03  0.52196723871E+03  0.15294330000E+03 0.  0.
<mgrwt>
<rscale>  0 0.35021471E+03</rscale>
<asrwt>0</asrwt>
<pdfrwt beam="1">  1        2 0.34501795E+00 0.35021471E+03</pdfrwt>
<pdfrwt beam="2">  1       -2 0.13017225E-01 0.35021471E+03</pdfrwt>
<totfact> 0.23584900E+02</totfact>
</mgrwt>
</event>
<event>
 4    1  0.3365401E-008  0.7080274E+03  0.7818608E-02  0.9703602E-01
         -2   -1    0    0    0  501 -0.00000000000E+00  0.00000000000E+00  0.14784292162E+04  0.14784292162E+04  0.25500000000E-02 0.  1.
          2   -1    0    0  501    0  0.00000000000E+00 -0.00000000000E+00 -0.62940143307E+03  0.62940143308E+03  0.25500000000E-02 0. -1.
    8880022    1    1    2    0    0 -0.40872049088E+03 -0.55754702048E+03  0.11402994403E+04  0.13422315695E+04  0.15294330000E+03 0.  0.
    8880022    1    1    2    0    0  0.40872049088E+03  0.55754702048E+03 -0.29127165712E+03  0.76559907978E+03  0.15294330000E+03 0.  0.
<mgrwt>
<rscale>  0 0.70802738E+03</rscale>
<asrwt>0</asrwt>
<pdfrwt beam="1">  1        2 0.96830991E-01 0.70802738E+03</pdfrwt>
<pdfrwt beam="2">  1       -2 0.22745065E+00 0.70802738E+03</pdfrwt>
<totfact> 0.42797211E+00</totfact>
</mgrwt>
</event>
<event>
 4    1  0.3365401E-008  0.8085194E+03  0.7818608E-02  0.9547767E-01
         -2   -1    0    0    0  501 -0.00000000000E+00  0.00000000000E+00  0.66316920082E+03  0.66316920082E+03  0.25500000000E-02 0.  1.
          2   -1    0    0  501    0  0.00000000000E+00 -0.00000000000E+00 -0.18380339042E+04  0.18380339042E+04  0.25500000000E-02 0. -1.
    8880022    1    1    2    0    0 -0.55666108547E+03 -0.56607453384E+03 -0.14390414280E+04  0.16506192252E+04  0.15294330000E+03 0.  0.
    8880022    1    1    2    0    0  0.55666108547E+03  0.56607453384E+03  0.26417672457E+03  0.85058387991E+03  0.15294330000E+03 0.  0.
<mgrwt>
<rscale>  0 0.80851938E+03</rscale>
<asrwt>0</asrwt>
<pdfrwt beam="1">  1        2 0.28277444E+00 0.80851938E+03</pdfrwt>
<pdfrwt beam="2">  1       -2 0.10202603E+00 0.80851938E+03</pdfrwt>
<totfact> 0.66217779E+00</totfact>
</mgrwt>
</event>
<event>
 4    1  0.3365401E-008  0.2644270E+03  0.7818608E-02  0.1104512E+00
         -2   -1    0    0    0  501 -0.00000000000E+00  0.00000000000E+00  0.26772901067E+03  0.26772901068E+03  0.25500000000E-02 0.  1.
          2   -1    0    0  501    0  0.00000000000E+00 -0.00000000000E+00 -0.28745623413E+03  0.28745623414E+03  0.25500000000E-02 0. -1.
    8880022    1    1    2    0    0 -0.15902162951E+03 -0.14574676530E+03 -0.93813716244E+02  0.28057559519E+03  0.15294330000E+03 0.  0.
    8880022    1    1    2    0    0  0.15902162951E+03  0.14574676530E+03  0.74086492783E+02  0.27460964964E+03  0.15294330000E+03 0.  0.
<mgrwt>
<rscale>  0 0.26442702E+03</rscale>
<asrwt>0</asrwt>
<pdfrwt beam="1">  1        2 0.44224036E-01 0.26442702E+03</pdfrwt>
<pdfrwt beam="2">  1       -2 0.41189078E-01 0.26442702E+03</pdfrwt>
<totfact> 0.64686789E+02</totfact>
</mgrwt>
</event>
<event>
 4    1  0.3365401E-008  0.5823094E+03  0.7818608E-02  0.9942804E-01
         -2   -1    0    0    0  501 -0.00000000000E+00  0.00000000000E+00  0.32236635611E+03  0.32236635612E+03  0.25500000000E-02 0.  1.
          2   -1    0    0  501    0  0.00000000000E+00 -0.00000000000E+00 -0.14774055932E+04  0.14774055932E+04  0.25500000000E-02 0. -1.
    8880022    1    1    2    0    0  0.73382624520E+02  0.55705255286E+03 -0.94560058706E+02  0.58993712711E+03  0.15294330000E+03 0.  0.
    8880022    1    1    2    0    0 -0.73382624520E+02 -0.55705255286E+03 -0.10604791783E+04  0.12098348222E+04  0.15294330000E+03 0.  0.
<mgrwt>
<rscale>  0 0.58230938E+03</rscale>
<asrwt>0</asrwt>
<pdfrwt beam="1">  1        2 0.22729316E+00 0.58230938E+03</pdfrwt>
<pdfrwt beam="2">  1       -2 0.49594825E-01 0.58230938E+03</pdfrwt>
<totfact> 0.52389661E+01</totfact>
</mgrwt>
</event>
<event>
 4    1  0.4550746E-008  0.1451403E+04  0.7818608E-02  0.8917429E-01
         -2   -1    0    0    0  501 -0.00000000000E+00  0.00000000000E+00  0.16200954324E+04  0.16200954324E+04  0.25500000000E-02 0.  1.
          2   -1    0    0  501    0  0.00000000000E+00 -0.00000000000E+00 -0.27977264083E+04  0.27977264083E+04  0.25500000000E-02 0. -1.
    8880022    1    1    2    0    0  0.56968057303E+03 -0.13261381597E+04 -0.22048547623E+04  0.26396883433E+04  0.15294330000E+03 0.  0.
    8880022    1    1    2    0    0 -0.56968057303E+03  0.13261381597E+04  0.10272237865E+04  0.17781334973E+04  0.15294330000E+03 0.  0.
<mgrwt>
<rscale>  0 0.14514028E+04</rscale>
<asrwt>0</asrwt>
<pdfrwt beam="1">  1        2 0.43041945E+00 0.14514028E+04</pdfrwt>
<pdfrwt beam="2">  1       -2 0.24924545E+00 0.14514028E+04</pdfrwt>
<totfact> 0.14243982E-01</totfact>
</mgrwt>
</event>
<event>
 4    1  0.3365401E-008  0.4294428E+03  0.7818608E-02  0.1034036E+00
          2   -1    0    0  501    0  0.00000000000E+00  0.00000000000E+00  0.12746900791E+04  0.12746900791E+04  0.25500000000E-02 0. -1.
         -2   -1    0    0    0  501 -0.00000000000E+00 -0.00000000000E+00 -0.15554322219E+03  0.15554322221E+03  0.25500000000E-02 0.  1.
    8880022    1    1    2    0    0 -0.18783362324E+03  0.35460966852E+03  0.74856684667E+03  0.86300258631E+03  0.15294330000E+03 0.  0.
    8880022    1    1    2    0    0  0.18783362324E+03 -0.35460966852E+03  0.37058001019E+03  0.56723071496E+03  0.15294330000E+03 0.  0.
<mgrwt>
<rscale>  0 0.42944283E+03</rscale>
<asrwt>0</asrwt>
<pdfrwt beam="1">  1        2 0.19610617E+00 0.42944283E+03</pdfrwt>
<pdfrwt beam="2">  1       -2 0.23929726E-01 0.42944283E+03</pdfrwt>
<totfact> 0.27509529E+02</totfact>
</mgrwt>
</event>
<event>
 4    1  0.3365401E-008  0.2489505E+03  0.7818608E-02  0.1113970E+00
          2   -1    0    0  501    0  0.00000000000E+00  0.00000000000E+00  0.21814130941E+04  0.21814130941E+04  0.25500000000E-02 0. -1.
         -2   -1    0    0    0  501 -0.00000000000E+00 -0.00000000000E+00 -0.20226268829E+03  0.20226268831E+03  0.25500000000E-02 0.  1.
    8880022    1    1    2    0    0 -0.13046958472E+03 -0.14684133142E+03  0.20945404887E+04  0.21092833383E+04  0.15294330000E+03 0.  0.
    8880022    1    1    2    0    0  0.13046958472E+03  0.14684133142E+03 -0.11539008293E+03  0.27439244414E+03  0.15294330000E+03 0.  1.
<mgrwt>
<rscale>  0 0.24895048E+03</rscale>
<asrwt>0</asrwt>
<pdfrwt beam="1">  1        2 0.33560203E+00 0.24895048E+03</pdfrwt>
<pdfrwt beam="2">  1       -2 0.31117336E-01 0.24895048E+03</pdfrwt>
<totfact> 0.58060425E+01</totfact>
</mgrwt>
</event>
<event>
 4    1  0.3365401E-008  0.2182448E+03  0.7818608E-02  0.1135198E+00
         -2   -1    0    0    0  501 -0.00000000000E+00  0.00000000000E+00  0.64776173820E+02  0.64776173871E+02  0.25500000000E-02 0.  1.
          2   -1    0    0  501    0  0.00000000000E+00 -0.00000000000E+00 -0.16003603604E+04  0.16003603604E+04  0.25500000000E-02 0. -1.
    8880022    1    1    2    0    0  0.14974462862E+03  0.42610851458E+02 -0.13799039505E+04  0.13970560848E+04  0.15294330000E+03 0. -1.
    8880022    1    1    2    0    0 -0.14974462862E+03 -0.42610851458E+02 -0.15568023605E+03  0.26808044944E+03  0.15294330000E+03 0.  1.
<mgrwt>
<rscale>  0 0.21824480E+03</rscale>
<asrwt>0</asrwt>
<pdfrwt beam="1">  1        2 0.24620925E+00 0.21824480E+03</pdfrwt>
<pdfrwt beam="2">  1       -2 0.99655665E-02 0.21824480E+03</pdfrwt>
<totfact> 0.81131324E+02</totfact>
</mgrwt>
</event>
<event>
 4    1  0.3365401E-008  0.6581079E+03  0.7818608E-02  0.9791683E-01
         -2   -1    0    0    0  501 -0.00000000000E+00  0.00000000000E+00  0.31430499081E+03  0.31430499082E+03  0.25500000000E-02 0.  1.
          2   -1    0    0  501    0  0.00000000000E+00 -0.00000000000E+00 -0.20629497418E+04  0.20629497418E+04  0.25500000000E-02 0. -1.
    8880022    1    1    2    0    0 -0.60182040403E+03  0.21800597892E+03 -0.18940682472E+03  0.68482187744E+03  0.15294330000E+03 0.  0.
    8880022    1    1    2    0    0  0.60182040403E+03 -0.21800597892E+03 -0.15592379263E+04  0.16924328552E+04  0.15294330000E+03 0.  0.
<mgrwt>
<rscale>  0 0.65810794E+03</rscale>
<asrwt>0</asrwt>
<pdfrwt beam="1">  1        2 0.31737687E+00 0.65810794E+03</pdfrwt>
<pdfrwt beam="2">  1       -2 0.48354615E-01 0.65810794E+03</pdfrwt>
<totfact> 0.26172510E+01</totfact>
</mgrwt>
</event>
<event>
 4    1  0.3365401E-008  0.2280550E+03  0.7818608E-02  0.1128016E+00
         -2   -1    0    0    0  501 -0.00000000000E+00  0.00000000000E+00  0.82819937310E+03  0.82819937311E+03  0.25500000000E-02 0.  1.
          2   -1    0    0  501    0  0.00000000000E+00 -0.00000000000E+00 -0.19942831505E+03  0.19942831506E+03  0.25500000000E-02 0. -1.
    8880022    1    1    2    0    0  0.15924914203E+03 -0.57071427362E+02 -0.11090553801E+03  0.25359244554E+03  0.15294330000E+03 0. -1.
    8880022    1    1    2    0    0 -0.15924914203E+03  0.57071427362E+02  0.73967659607E+03  0.77403524263E+03  0.15294330000E+03 0.  0.
<mgrwt>
<rscale>  0 0.22805502E+03</rscale>
<asrwt>0</asrwt>
<pdfrwt beam="1">  1        2 0.30681279E-01 0.22805502E+03</pdfrwt>
<pdfrwt beam="2">  1       -2 0.12741529E+00 0.22805502E+03</pdfrwt>
<totfact> 0.82916274E+01</totfact>
</mgrwt>
</event>
<event>
 4    1  0.4571292E-008  0.1315331E+04  0.7818608E-02  0.9017495E-01
         -2   -1    0    0    0  501 -0.00000000000E+00  0.00000000000E+00  0.17960084397E+04  0.17960084397E+04  0.25500000000E-02 0.  1.
          2   -1    0    0  501    0  0.00000000000E+00 -0.00000000000E+00 -0.23178383381E+04  0.23178383381E+04  0.25500000000E-02 0. -1.
    8880022    1    1    2    0    0  0.94420457422E+03 -0.90287441046E+03 -0.18333477296E+04  0.22563820665E+04  0.15294330000E+03 0.  0.
    8880022    1    1    2    0    0 -0.94420457422E+03  0.90287441046E+03  0.13115178312E+04  0.18574647113E+04  0.15294330000E+03 0.  0.
<mgrwt>
<rscale>  0 0.13153312E+04</rscale>
<asrwt>0</asrwt>
<pdfrwt beam="1">  1        2 0.35659051E+00 0.13153312E+04</pdfrwt>
<pdfrwt beam="2">  1       -2 0.27630899E+00 0.13153312E+04</pdfrwt>
<totfact> 0.18871462E-01</totfact>
</mgrwt>
</event>
<event>
 4    1  0.3365401E-008  0.4206202E+03  0.7818608E-02  0.1036865E+00
         -2   -1    0    0    0  501 -0.00000000000E+00  0.00000000000E+00  0.55934250226E+03  0.55934250227E+03  0.25500000000E-02 0.  1.
          2   -1    0    0  501    0  0.00000000000E+00 -0.00000000000E+00 -0.54169390986E+03  0.54169390987E+03  0.25500000000E-02 0. -1.
    8880022    1    1    2    0    0 -0.80655089520E+02 -0.38343768464E+03  0.36393480356E+03  0.55621029811E+03  0.15294330000E+03 0. -1.
    8880022    1    1    2    0    0  0.80655089520E+02  0.38343768464E+03 -0.34628621116E+03  0.54482611402E+03  0.15294330000E+03 0.  0.
<mgrwt>
<rscale>  0 0.42062020E+03</rscale>
<asrwt>0</asrwt>
<pdfrwt beam="1">  1        2 0.83337524E-01 0.42062020E+03</pdfrwt>
<pdfrwt beam="2">  1       -2 0.86052693E-01 0.42062020E+03</pdfrwt>
<totfact> 0.68245357E+01</totfact>
</mgrwt>
</event>
<event>
 4    1  0.3365401E-008  0.1787594E+03  0.7818608E-02  0.1169009E+00
          2   -1    0    0  501    0  0.00000000000E+00  0.00000000000E+00  0.22985448874E+03  0.22985448876E+03  0.25500000000E-02 0. -1.
         -2   -1    0    0    0  501 -0.00000000000E+00 -0.00000000000E+00 -0.61942482141E+03  0.61942482141E+03  0.25500000000E-02 0.  1.
    8880022    1    1    2    0    0  0.38680426648E+02 -0.84066080257E+02  0.17917799059E+03  0.25310015129E+03  0.15294330000E+03 0.  0.
    8880022    1    1    2    0    0 -0.38680426648E+02  0.84066080257E+02 -0.56874832326E+03  0.59617915888E+03  0.15294330000E+03 0.  1.
<mgrwt>
<rscale>  0 0.17875943E+03</rscale>
<asrwt>0</asrwt>
<pdfrwt beam="1">  1        2 0.35362229E-01 0.17875943E+03</pdfrwt>
<pdfrwt beam="2">  1       -2 0.95296126E-01 0.17875943E+03</pdfrwt>
<totfact> 0.14224998E+02</totfact>
</mgrwt>
</event>
<event>
 4    1  0.3365401E-008  0.3837822E+03  0.7818608E-02  0.1049545E+00
         -2   -1    0    0    0  501 -0.00000000000E+00  0.00000000000E+00  0.98919362584E+03  0.98919362584E+03  0.25500000000E-02 0.  1.
          2   -1    0    0  501    0  0.00000000000E+00 -0.00000000000E+00 -0.39923865287E+03  0.39923865288E+03  0.25500000000E-02 0. -1.
    8880022    1    1    2    0    0  0.77952644339E+02  0.34324990967E+03  0.84470094118E+03  0.92779763327E+03  0.15294330000E+03 0.  0.
    8880022    1    1    2    0    0 -0.77952644339E+02 -0.34324990967E+03 -0.25474596822E+03  0.46063464545E+03  0.15294330000E+03 0.  0.
<mgrwt>
<rscale>  0 0.38378219E+03</rscale>
<asrwt>0</asrwt>
<pdfrwt beam="1">  1        2 0.61421332E-01 0.38378219E+03</pdfrwt>
<pdfrwt beam="2">  1       -2 0.15218363E+00 0.38378219E+03</pdfrwt>
<totfact> 0.24220482E+01</totfact>
</mgrwt>
</event>
<event>
 4    1  0.3365401E-008  0.4123175E+03  0.7818608E-02  0.1039596E+00
         -2   -1    0    0    0  501 -0.00000000000E+00  0.00000000000E+00  0.12285925455E+04  0.12285925455E+04  0.25500000000E-02 0.  1.
          2   -1    0    0  501    0  0.00000000000E+00 -0.00000000000E+00 -0.53065669228E+03  0.53065669228E+03  0.25500000000E-02 0. -1.
    8880022    1    1    2    0    0 -0.32373354054E+03  0.20447649501E+03 -0.40732481572E+03  0.57958536972E+03  0.15294330000E+03 0.  0.
    8880022    1    1    2    0    0  0.32373354054E+03 -0.20447649501E+03  0.11052606689E+04  0.11796638680E+04  0.15294330000E+03 0.  0.
<mgrwt>
<rscale>  0 0.41231747E+03</rscale>
<asrwt>0</asrwt>
<pdfrwt beam="1">  1        2 0.81639492E-01 0.41231747E+03</pdfrwt>
<pdfrwt beam="2">  1       -2 0.18901424E+00 0.41231747E+03</pdfrwt>
<totfact> 0.96613408E+00</totfact>
</mgrwt>
</event>
<event>
 4    1  0.3365401E-008  0.4116081E+03  0.7818608E-02  0.1039833E+00
         -2   -1    0    0    0  501 -0.00000000000E+00  0.00000000000E+00  0.43778933739E+02  0.43778933813E+02  0.25500000000E-02 0.  1.
          2   -1    0    0  501    0  0.00000000000E+00 -0.00000000000E+00 -0.43408900454E+04  0.43408900454E+04  0.25500000000E-02 0. -1.
    8880022    1    1    2    0    0  0.12831471043E+03 -0.35995121473E+03 -0.28706794452E+04  0.29000382190E+04  0.15294330000E+03 0.  0.
    8880022    1    1    2    0    0 -0.12831471043E+03  0.35995121473E+03 -0.14264316664E+04  0.14846307601E+04  0.15294330000E+03 0.  0.
<mgrwt>
<rscale>  0 0.41160806E+03</rscale>
<asrwt>0</asrwt>
<pdfrwt beam="1">  1        2 0.66782890E+00 0.41160806E+03</pdfrwt>
<pdfrwt beam="2">  1       -2 0.67352240E-02 0.41160806E+03</pdfrwt>
<totfact> 0.27511579E+01</totfact>
</mgrwt>
</event>
<event>
 4    1  0.3365401E-008  0.1145719E+04  0.7818608E-02  0.9161742E-01
          2   -1    0    0  501    0  0.00000000000E+00  0.00000000000E+00  0.12404661490E+04  0.12404661490E+04  0.25500000000E-02 0. -1.
         -2   -1    0    0    0  501 -0.00000000000E+00 -0.00000000000E+00 -0.13269515293E+04  0.13269515293E+04  0.25500000000E-02 0.  1.
    8880022    1    1    2    0    0  0.59906931380E+03  0.96457056639E+03 -0.62094944142E+03  0.13031693221E+04  0.15294330000E+03 0.  0.
    8880022    1    1    2    0    0 -0.59906931380E+03 -0.96457056639E+03  0.53446406115E+03  0.12642483561E+04  0.15294330000E+03 0.  0.
<mgrwt>
<rscale>  0 0.11457190E+04</rscale>
<asrwt>0</asrwt>
<pdfrwt beam="1">  1        2 0.19084095E+00 0.11457190E+04</pdfrwt>
<pdfrwt beam="2">  1       -2 0.20414639E+00 0.11457190E+04</pdfrwt>
<totfact> 0.21859370E+00</totfact>
</mgrwt>
</event>
<event>
 4    1  0.3365401E-008  0.1452120E+04  0.7818608E-02  0.8916932E-01
         -2   -1    0    0    0  501 -0.00000000000E+00  0.00000000000E+00  0.10501419019E+04  0.10501419019E+04  0.25500000000E-02 0.  1.
          2   -1    0    0  501    0  0.00000000000E+00 -0.00000000000E+00 -0.23065266871E+04  0.23065266871E+04  0.25500000000E-02 0. -1.
    8880022    1    1    2    0    0 -0.14337290047E+04  0.17228065816E+03 -0.24363041212E+02  0.14523238947E+04  0.15294330000E+03 0.  0.
    8880022    1    1    2    0    0  0.14337290047E+04 -0.17228065816E+03 -0.12320217440E+04  0.19043446943E+04  0.15294330000E+03 0.  0.
<mgrwt>
<rscale>  0 0.14521195E+04</rscale>
<asrwt>0</asrwt>
<pdfrwt beam="1">  1        2 0.35485026E+00 0.14521195E+04</pdfrwt>
<pdfrwt beam="2">  1       -2 0.16156029E+00 0.14521195E+04</pdfrwt>
<totfact> 0.10447663E+00</totfact>
</mgrwt>
</event>
<event>
 4    1  0.3365401E-008  0.8462093E+03  0.7818608E-02  0.9495439E-01
         -2   -1    0    0    0  501 -0.00000000000E+00  0.00000000000E+00  0.13240047406E+04  0.13240047406E+04  0.25500000000E-02 0.  1.
          2   -1    0    0  501    0  0.00000000000E+00 -0.00000000000E+00 -0.11389495148E+04  0.11389495148E+04  0.25500000000E-02 0. -1.
    8880022    1    1    2    0    0 -0.38551173043E+03 -0.73760372510E+03  0.98494024383E+03  0.12985289702E+04  0.15294330000E+03 0.  0.
    8880022    1    1    2    0    0  0.38551173043E+03  0.73760372510E+03 -0.79988501807E+03  0.11644252852E+04  0.15294330000E+03 0.  0.
<mgrwt>
<rscale>  0 0.84620931E+03</rscale>
<asrwt>0</asrwt>
<pdfrwt beam="1">  1        2 0.17522300E+00 0.84620931E+03</pdfrwt>
<pdfrwt beam="2">  1       -2 0.20369304E+00 0.84620931E+03</pdfrwt>
<totfact> 0.26253250E+00</totfact>
</mgrwt>
</event>
<event>
 4    1  0.3365401E-008  0.3258716E+03  0.7818608E-02  0.1072978E+00
         -2   -1    0    0    0  501 -0.00000000000E+00  0.00000000000E+00  0.39715088111E+03  0.39715088112E+03  0.25500000000E-02 0.  1.
          2   -1    0    0  501    0  0.00000000000E+00 -0.00000000000E+00 -0.10473750520E+04  0.10473750520E+04  0.25500000000E-02 0. -1.
    8880022    1    1    2    0    0 -0.15416782306E+03 -0.24296696044E+03  0.29817578917E+03  0.44170251957E+03  0.15294330000E+03 0.  0.
    8880022    1    1    2    0    0  0.15416782306E+03  0.24296696044E+03 -0.94839996007E+03  0.10028234136E+04  0.15294330000E+03 0. -1.
<mgrwt>
<rscale>  0 0.32587162E+03</rscale>
<asrwt>0</asrwt>
<pdfrwt beam="1">  1        2 0.16113462E+00 0.32587162E+03</pdfrwt>
<pdfrwt beam="2">  1       -2 0.61100136E-01 0.32587162E+03</pdfrwt>
<totfact> 0.62715442E+01</totfact>
</mgrwt>
</event>
<event>
 4    1  0.3365401E-008  0.4067032E+03  0.7818608E-02  0.1041483E+00
          2   -1    0    0  501    0  0.00000000000E+00  0.00000000000E+00  0.21382258567E+03  0.21382258568E+03  0.25500000000E-02 0. -1.
         -2   -1    0    0    0  501 -0.00000000000E+00 -0.00000000000E+00 -0.86394031414E+03  0.86394031414E+03  0.25500000000E-02 0.  1.
    8880022    1    1    2    0    0 -0.22608082399E+02  0.37617109529E+03 -0.15077546800E+03  0.43375190269E+03  0.15294330000E+03 0. -1.
    8880022    1    1    2    0    0  0.22608082399E+02 -0.37617109529E+03 -0.49934226047E+03  0.64401099713E+03  0.15294330000E+03 0.  0.
<mgrwt>
<rscale>  0 0.40670317E+03</rscale>
<asrwt>0</asrwt>
<pdfrwt beam="1">  1        2 0.32895783E-01 0.40670317E+03</pdfrwt>
<pdfrwt beam="2">  1       -2 0.13291389E+00 0.40670317E+03</pdfrwt>
<totfact> 0.67936808E+01</totfact>
</mgrwt>
</event>
<event>
 4    1  0.3365401E-008  0.8231482E+03  0.7818608E-02  0.9527102E-01
         -2   -1    0    0    0  501 -0.00000000000E+00  0.00000000000E+00  0.13771658271E+04  0.13771658271E+04  0.25500000000E-02 0.  1.
          2   -1    0    0  501    0  0.00000000000E+00 -0.00000000000E+00 -0.17137125726E+04  0.17137125726E+04  0.25500000000E-02 0. -1.
    8880022    1    1    2    0    0 -0.70265108474E+02  0.80575690500E+03  0.11365943651E+04  0.14033601745E+04  0.15294330000E+03 0.  0.
    8880022    1    1    2    0    0  0.70265108474E+02 -0.80575690500E+03 -0.14731411107E+04  0.16875182252E+04  0.15294330000E+03 0.  0.
<mgrwt>
<rscale>  0 0.82314824E+03</rscale>
<asrwt>0</asrwt>
<pdfrwt beam="1">  1        2 0.26364809E+00 0.82314824E+03</pdfrwt>
<pdfrwt beam="2">  1       -2 0.21187167E+00 0.82314824E+03</pdfrwt>
<totfact> 0.10998666E+00</totfact>
</mgrwt>
</event>
<event>
 4    1  0.6138902E-008  0.6218661E+03  0.7818608E-02  0.9861051E-01
         -2   -1    0    0    0  501 -0.00000000000E+00  0.00000000000E+00  0.10056698191E+04  0.10056698191E+04  0.25500000000E-02 0.  1.
          2   -1    0    0  501    0  0.00000000000E+00 -0.00000000000E+00 -0.16150877662E+04  0.16150877662E+04  0.25500000000E-02 0. -1.
    8880022    1    1    2    0    0  0.20592932678E+03  0.56649707383E+03  0.83908688841E+03  0.10444061861E+04  0.15294330000E+03 0.  0.
    8880022    1    1    2    0    0 -0.20592932678E+03 -0.56649707383E+03 -0.14485048355E+04  0.15763513992E+04  0.15294330000E+03 0.  0.
<mgrwt>
<rscale>  0 0.62186612E+03</rscale>
<asrwt>0</asrwt>
<pdfrwt beam="1">  1        2 0.24847504E+00 0.62186612E+03</pdfrwt>
<pdfrwt beam="2">  1       -2 0.15471843E+00 0.62186612E+03</pdfrwt>
<totfact> 0.31789396E+00</totfact>
</mgrwt>
</event>
<event>
 4    1  0.3365401E-008  0.7055235E+03  0.7818608E-02  0.9707833E-01
         -2   -1    0    0    0  501 -0.00000000000E+00  0.00000000000E+00  0.11252491639E+04  0.11252491639E+04  0.25500000000E-02 0.  1.
          2   -1    0    0  501    0  0.00000000000E+00 -0.00000000000E+00 -0.11498097347E+04  0.11498097347E+04  0.25500000000E-02 0. -1.
    8880022    1    1    2    0    0  0.68352775549E+03  0.84625618961E+02 -0.90455372376E+03  0.11471620548E+04  0.15294330000E+03 0.  0.
    8880022    1    1    2    0    0 -0.68352775549E+03 -0.84625618961E+02  0.87999315295E+03  0.11278968438E+04  0.15294330000E+03 0.  0.
<mgrwt>
<rscale>  0 0.70552345E+03</rscale>
<asrwt>0</asrwt>
<pdfrwt beam="1">  1        2 0.17689381E+00 0.70552345E+03</pdfrwt>
<pdfrwt beam="2">  1       -2 0.17311526E+00 0.70552345E+03</pdfrwt>
<totfact> 0.42352184E+00</totfact>
</mgrwt>
</event>
<event>
 4    1  0.3365401E-008  0.5877427E+03  0.7818608E-02  0.9931167E-01
          2   -1    0    0  501    0  0.00000000000E+00  0.00000000000E+00  0.11137930869E+04  0.11137930869E+04  0.25500000000E-02 0. -1.
         -2   -1    0    0    0  501 -0.00000000000E+00 -0.00000000000E+00 -0.39428108761E+03  0.39428108762E+03  0.25500000000E-02 0.  1.
    8880022    1    1    2    0    0  0.34232367233E+03  0.45261942950E+03  0.11441706895E+02  0.58785407226E+03  0.15294330000E+03 0.  1.
    8880022    1    1    2    0    0 -0.34232367233E+03 -0.45261942950E+03  0.70807029234E+03  0.92022010221E+03  0.15294330000E+03 0. -1.
<mgrwt>
<rscale>  0 0.58774271E+03</rscale>
<asrwt>0</asrwt>
<pdfrwt beam="1">  1        2 0.17135278E+00 0.58774271E+03</pdfrwt>
<pdfrwt beam="2">  1       -2 0.60658629E-01 0.58774271E+03</pdfrwt>
<totfact> 0.55860420E+01</totfact>
</mgrwt>
</event>
<event>
 4    1  0.3365401E-008  0.1056951E+04  0.7818608E-02  0.9248197E-01
          2   -1    0    0  501    0  0.00000000000E+00  0.00000000000E+00  0.18403262523E+04  0.18403262523E+04  0.25500000000E-02 0. -1.
         -2   -1    0    0    0  501 -0.00000000000E+00 -0.00000000000E+00 -0.15191391384E+04  0.15191391384E+04  0.25500000000E-02 0.  1.
    8880022    1    1    2    0    0 -0.66020940295E+03 -0.81109656953E+03  0.14621505338E+04  0.18041701520E+04  0.15294330000E+03 0.  0.
    8880022    1    1    2    0    0  0.66020940295E+03  0.81109656953E+03 -0.11409634199E+04  0.15552952387E+04  0.15294330000E+03 0.  0.
<mgrwt>
<rscale>  0 0.10569512E+04</rscale>
<asrwt>0</asrwt>
<pdfrwt beam="1">  1        2 0.28312712E+00 0.10569512E+04</pdfrwt>
<pdfrwt beam="2">  1       -2 0.23371371E+00 0.10569512E+04</pdfrwt>
<totfact> 0.65807939E-01</totfact>
</mgrwt>
</event>
<event>
 4    1  0.3365401E-008  0.1244112E+04  0.7818608E-02  0.9075098E-01
         -2   -1    0    0    0  501 -0.00000000000E+00  0.00000000000E+00  0.22037902189E+04  0.22037902189E+04  0.25500000000E-02 0.  1.
          2   -1    0    0  501    0  0.00000000000E+00 -0.00000000000E+00 -0.12157592993E+04  0.12157592993E+04  0.25500000000E-02 0. -1.
    8880022    1    1    2    0    0  0.69652568743E+03 -0.10194480775E+04  0.16051084804E+04  0.20308095191E+04  0.15294330000E+03 0.  0.
    8880022    1    1    2    0    0 -0.69652568743E+03  0.10194480775E+04 -0.61707756077E+03  0.13887399991E+04  0.15294330000E+03 0.  0.
<mgrwt>
<rscale>  0 0.12441118E+04</rscale>
<asrwt>0</asrwt>
<pdfrwt beam="1">  1        2 0.18703989E+00 0.12441118E+04</pdfrwt>
<pdfrwt beam="2">  1       -2 0.33904465E+00 0.12441118E+04</pdfrwt>
<totfact> 0.32922707E-01</totfact>
</mgrwt>
</event>
<event>
 4    1  0.3365401E-008  0.4883652E+03  0.7818608E-02  0.1016861E+00
         -2   -1    0    0    0  501 -0.00000000000E+00  0.00000000000E+00  0.79787496377E+02  0.79787496418E+02  0.25500000000E-02 0.  1.
          2   -1    0    0  501    0  0.00000000000E+00 -0.00000000000E+00 -0.33833622023E+04  0.33833622023E+04  0.25500000000E-02 0. -1.
    8880022    1    1    2    0    0 -0.15729740842E+03 -0.43631000261E+03 -0.22428127655E+04  0.22953669962E+04  0.15294330000E+03 0.  0.
    8880022    1    1    2    0    0  0.15729740842E+03  0.43631000261E+03 -0.10607619404E+04  0.11677827026E+04  0.15294330000E+03 0.  0.
<mgrwt>
<rscale>  0 0.48836518E+03</rscale>
<asrwt>0</asrwt>
<pdfrwt beam="1">  1        2 0.52051715E+00 0.48836518E+03</pdfrwt>
<pdfrwt beam="2">  1       -2 0.12275002E-01 0.48836518E+03</pdfrwt>
<totfact> 0.53946426E+01</totfact>
</mgrwt>
</event>
<event>
 4    1  0.3365401E-008  0.5457991E+03  0.7818608E-02  0.1002471E+00
          2   -1    0    0  501    0  0.00000000000E+00  0.00000000000E+00  0.13788151409E+04  0.13788151409E+04  0.25500000000E-02 0. -1.
         -2   -1    0    0    0  501 -0.00000000000E+00 -0.00000000000E+00 -0.74748674478E+03  0.74748674479E+03  0.25500000000E-02 0.  1.
    8880022    1    1    2    0    0  0.79507389826E+02  0.51786445647E+03  0.12120973004E+04  0.13293143115E+04  0.15294330000E+03 0.  0.
    8880022    1    1    2    0    0 -0.79507389826E+02 -0.51786445647E+03 -0.58076890421E+03  0.79698757419E+03  0.15294330000E+03 0.  1.
<mgrwt>
<rscale>  0 0.54579911E+03</rscale>
<asrwt>0</asrwt>
<pdfrwt beam="1">  1        2 0.21212540E+00 0.54579911E+03</pdfrwt>
<pdfrwt beam="2">  1       -2 0.11499796E+00 0.54579911E+03</pdfrwt>
<totfact> 0.92676439E+00</totfact>
</mgrwt>
</event>
<event>
 4    1  0.3365401E-008  0.6072947E+03  0.7818608E-02  0.9890386E-01
         -2   -1    0    0    0  501 -0.00000000000E+00  0.00000000000E+00  0.54380688162E+03  0.54380688163E+03  0.25500000000E-02 0.  1.
          2   -1    0    0  501    0  0.00000000000E+00 -0.00000000000E+00 -0.14586575068E+04  0.14586575068E+04  0.25500000000E-02 0. -1.
    8880022    1    1    2    0    0 -0.49083208412E+03 -0.32326306750E+03  0.27495105269E+03  0.66663699267E+03  0.15294330000E+03 0.  0.
    8880022    1    1    2    0    0  0.49083208412E+03  0.32326306750E+03 -0.11898016779E+04  0.13358273958E+04  0.15294330000E+03 0.  0.
<mgrwt>
<rscale>  0 0.60729466E+03</rscale>
<asrwt>0</asrwt>
<pdfrwt beam="1">  1        2 0.22440885E+00 0.60729466E+03</pdfrwt>
<pdfrwt beam="2">  1       -2 0.83662598E-01 0.60729466E+03</pdfrwt>
<totfact> 0.17467670E+01</totfact>
</mgrwt>
</event>
<event>
 4    1  0.3365401E-008  0.5581648E+03  0.7818608E-02  0.9996216E-01
         -2   -1    0    0    0  501 -0.00000000000E+00  0.00000000000E+00  0.15551792452E+04  0.15551792452E+04  0.25500000000E-02 0.  1.
          2   -1    0    0  501    0  0.00000000000E+00 -0.00000000000E+00 -0.22795817233E+03  0.22795817235E+03  0.25500000000E-02 0. -1.
    8880022    1    1    2    0    0 -0.22919689455E+03 -0.48541223118E+03  0.97400155598E+03  0.11225982962E+04  0.15294330000E+03 0.  0.
    8880022    1    1    2    0    0  0.22919689455E+03  0.48541223118E+03  0.35321951690E+03  0.66053912132E+03  0.15294330000E+03 0.  0.
<mgrwt>
<rscale>  0 0.55816476E+03</rscale>
<asrwt>0</asrwt>
<pdfrwt beam="1">  1        2 0.35070486E-01 0.55816476E+03</pdfrwt>
<pdfrwt beam="2">  1       -2 0.23925836E+00 0.55816476E+03</pdfrwt>
<totfact> 0.11694488E+01</totfact>
</mgrwt>
</event>
<event>
 4    1  0.3365401E-008  0.9656596E+03  0.7818608E-02  0.9347032E-01
          2   -1    0    0  501    0  0.00000000000E+00  0.00000000000E+00  0.17522956366E+04  0.17522956366E+04  0.25500000000E-02 0. -1.
         -2   -1    0    0    0  501 -0.00000000000E+00 -0.00000000000E+00 -0.81410092387E+03  0.81410092387E+03  0.25500000000E-02 0.  1.
    8880022    1    1    2    0    0 -0.70923103038E+03 -0.63725830696E+03  0.12242506238E+04  0.15592588134E+04  0.15294330000E+03 0. -1.
    8880022    1    1    2    0    0  0.70923103038E+03  0.63725830696E+03 -0.28605591110E+03  0.10071377471E+04  0.15294330000E+03 0.  0.
<mgrwt>
<rscale>  0 0.96565960E+03</rscale>
<asrwt>0</asrwt>
<pdfrwt beam="1">  1        2 0.26958394E+00 0.96565960E+03</pdfrwt>
<pdfrwt beam="2">  1       -2 0.12524630E+00 0.96565960E+03</pdfrwt>
<totfact> 0.43758758E+00</totfact>
</mgrwt>
</event>
<event>
 4    1  0.3365401E-008  0.7825344E+03  0.7818608E-02  0.9585648E-01
         -2   -1    0    0    0  501 -0.00000000000E+00  0.00000000000E+00  0.55702308389E+03  0.55702308389E+03  0.25500000000E-02 0.  1.
          2   -1    0    0  501    0  0.00000000000E+00 -0.00000000000E+00 -0.20544278857E+04  0.20544278857E+04  0.25500000000E-02 0. -1.
    8880022    1    1    2    0    0  0.49719874658E+03 -0.58460404995E+03 -0.16389834417E+04  0.18162122299E+04  0.15294330000E+03 0.  0.
    8880022    1    1    2    0    0 -0.49719874658E+03  0.58460404995E+03  0.14157863990E+03  0.79523873969E+03  0.15294330000E+03 0.  0.
<mgrwt>
<rscale>  0 0.78253443E+03</rscale>
<asrwt>0</asrwt>
<pdfrwt beam="1">  1        2 0.31606582E+00 0.78253443E+03</pdfrwt>
<pdfrwt beam="2">  1       -2 0.85695860E-01 0.78253443E+03</pdfrwt>
<totfact> 0.76035113E+00</totfact>
</mgrwt>
</event>
<event>
 4    1  0.3365401E-008  0.5185513E+03  0.7818608E-02  0.1009047E+00
          2   -1    0    0  501    0  0.00000000000E+00  0.00000000000E+00  0.15110615457E+04  0.15110615457E+04  0.25500000000E-02 0. -1.
         -2   -1    0    0    0  501 -0.00000000000E+00 -0.00000000000E+00 -0.29821673104E+03  0.29821673105E+03  0.25500000000E-02 0.  1.
    8880022    1    1    2    0    0  0.27667693619E+03  0.41103979604E+03  0.31936176301E+02  0.51953384233E+03  0.15294330000E+03 0.  0.
    8880022    1    1    2    0    0 -0.27667693619E+03 -0.41103979604E+03  0.11809086383E+04  0.12897444344E+04  0.15294330000E+03 0.  0.
<mgrwt>
<rscale>  0 0.51855134E+03</rscale>
<asrwt>0</asrwt>
<pdfrwt beam="1">  1        2 0.23247101E+00 0.51855134E+03</pdfrwt>
<pdfrwt beam="2">  1       -2 0.45879497E-01 0.51855134E+03</pdfrwt>
<totfact> 0.59219269E+01</totfact>
</mgrwt>
</event>
<event>
 4    1  0.3365401E-008  0.1005623E+04  0.7818608E-02  0.9302400E-01
          2   -1    0    0  501    0  0.00000000000E+00  0.00000000000E+00  0.12704858781E+04  0.12704858781E+04  0.25500000000E-02 0. -1.
         -2   -1    0    0    0  501 -0.00000000000E+00 -0.00000000000E+00 -0.15432767634E+04  0.15432767634E+04  0.25500000000E-02 0.  1.
    8880022    1    1    2    0    0  0.10081080592E+03 -0.98879837077E+03  0.84260563821E+03  0.13119683499E+04  0.15294330000E+03 0.  0.
    8880022    1    1    2    0    0 -0.10081080592E+03  0.98879837077E+03 -0.11153965234E+04  0.15017942916E+04  0.15294330000E+03 0.  0.
<mgrwt>
<rscale>  0 0.10056225E+04</rscale>
<asrwt>0</asrwt>
<pdfrwt beam="1">  1        2 0.19545937E+00 0.10056225E+04</pdfrwt>
<pdfrwt beam="2">  1       -2 0.23742719E+00 0.10056225E+04</pdfrwt>
<totfact> 0.13152628E+00</totfact>
</mgrwt>
</event>
<event>
 4    1  0.3365401E-008  0.1077935E+04  0.7818608E-02  0.9226969E-01
          2   -1    0    0  501    0  0.00000000000E+00  0.00000000000E+00  0.33565987096E+04  0.33565987096E+04  0.25500000000E-02 0. -1.
         -2   -1    0    0    0  501 -0.00000000000E+00 -0.00000000000E+00 -0.67068304236E+03  0.67068304237E+03  0.25500000000E-02 0.  1.
    8880022    1    1    2    0    0 -0.98183115307E+03 -0.41780260004E+03  0.27436463438E+04  0.29478022896E+04  0.15294330000E+03 0.  0.
    8880022    1    1    2    0    0  0.98183115307E+03  0.41780260004E+03 -0.57730676507E+02  0.10794794624E+04  0.15294330000E+03 0.  0.
<mgrwt>
<rscale>  0 0.10779346E+04</rscale>
<asrwt>0</asrwt>
<pdfrwt beam="1">  1        2 0.51639980E+00 0.10779346E+04</pdfrwt>
<pdfrwt beam="2">  1       -2 0.10318201E+00 0.10779346E+04</pdfrwt>
<totfact> 0.79434968E-01</totfact>
</mgrwt>
</event>
<event>
 4    1  0.3365401E-008  0.5642537E+03  0.7818608E-02  0.9982476E-01
          2   -1    0    0  501    0  0.00000000000E+00  0.00000000000E+00  0.61205768980E+03  0.61205768981E+03  0.25500000000E-02 0. -1.
         -2   -1    0    0    0  501 -0.00000000000E+00 -0.00000000000E+00 -0.84748323010E+03  0.84748323010E+03  0.25500000000E-02 0.  1.
    8880022    1    1    2    0    0  0.53328500856E+03  0.10294495500E+03 -0.57122985127E+03  0.80292325917E+03  0.15294330000E+03 0.  0.
    8880022    1    1    2    0    0 -0.53328500856E+03 -0.10294495500E+03  0.33580431097E+03  0.65661766074E+03  0.15294330000E+03 0.  0.
<mgrwt>
<rscale>  0 0.56425368E+03</rscale>
<asrwt>0</asrwt>
<pdfrwt beam="1">  1        2 0.94162722E-01 0.56425368E+03</pdfrwt>
<pdfrwt beam="2">  1       -2 0.13038203E+00 0.56425368E+03</pdfrwt>
<totfact> 0.21556105E+01</totfact>
</mgrwt>
</event>
<event>
 4    1  0.3365401E-008  0.3641500E+03  0.7818608E-02  0.1056953E+00
          2   -1    0    0  501    0  0.00000000000E+00  0.00000000000E+00  0.16212243852E+04  0.16212243852E+04  0.25500000000E-02 0. -1.
         -2   -1    0    0    0  501 -0.00000000000E+00 -0.00000000000E+00 -0.33408718177E+03  0.33408718178E+03  0.25500000000E-02 0.  1.
    8880022    1    1    2    0    0 -0.13380619915E+03 -0.30217458897E+03  0.14931587303E+04  0.15369216727E+04  0.15294330000E+03 0.  0.
    8880022    1    1    2    0    0  0.13380619915E+03  0.30217458897E+03 -0.20602152681E+03  0.41838989433E+03  0.15294330000E+03 0.  1.
<mgrwt>
<rscale>  0 0.36415002E+03</rscale>
<asrwt>0</asrwt>
<pdfrwt beam="1">  1        2 0.24941913E+00 0.36415002E+03</pdfrwt>
<pdfrwt beam="2">  1       -2 0.51398028E-01 0.36415002E+03</pdfrwt>
<totfact> 0.42289954E+01</totfact>
</mgrwt>
</event>
<event>
 4    1  0.3365401E-008  0.4247891E+03  0.7818608E-02  0.1035519E+00
         -2   -1    0    0    0  501 -0.00000000000E+00  0.00000000000E+00  0.28697200790E+03  0.28697200791E+03  0.25500000000E-02 0.  1.
          2   -1    0    0  501    0  0.00000000000E+00 -0.00000000000E+00 -0.19393451361E+04  0.19393451361E+04  0.25500000000E-02 0. -1.
    8880022    1    1    2    0    0 -0.22049624343E+02  0.39568671699E+03  0.88888526351E+02  0.43398961631E+03  0.15294330000E+03 0.  0.
    8880022    1    1    2    0    0  0.22049624343E+02 -0.39568671699E+03 -0.17412616546E+04  0.17923275277E+04  0.15294330000E+03 0.  0.
<mgrwt>
<rscale>  0 0.42478914E+03</rscale>
<asrwt>0</asrwt>
<pdfrwt beam="1">  1        2 0.29836078E+00 0.42478914E+03</pdfrwt>
<pdfrwt beam="2">  1       -2 0.44149541E-01 0.42478914E+03</pdfrwt>
<totfact> 0.38198379E+01</totfact>
</mgrwt>
</event>
<event>
 4    1  0.3365401E-008  0.6558822E+03  0.7818608E-02  0.9795804E-01
          2   -1    0    0  501    0  0.00000000000E+00  0.00000000000E+00  0.20218871487E+04  0.20218871487E+04  0.25500000000E-02 0. -1.
         -2   -1    0    0    0  501 -0.00000000000E+00 -0.00000000000E+00 -0.34448275226E+03  0.34448275227E+03  0.25500000000E-02 0.  1.
    8880022    1    1    2    0    0 -0.59158144790E+02 -0.63505126918E+03  0.10706559256E+03  0.66456338652E+03  0.15294330000E+03 0.  0.
    8880022    1    1    2    0    0  0.59158144790E+02  0.63505126918E+03  0.15703388038E+04  0.17018065144E+04  0.15294330000E+03 0.  0.
<mgrwt>
<rscale>  0 0.65588219E+03</rscale>
<asrwt>0</asrwt>
<pdfrwt beam="1">  1        2 0.31105956E+00 0.65588219E+03</pdfrwt>
<pdfrwt beam="2">  1       -2 0.52997347E-01 0.65588219E+03</pdfrwt>
<totfact> 0.22869400E+01</totfact>
</mgrwt>
</event>
<event>
 4    1  0.3365401E-008  0.1097353E+04  0.7818608E-02  0.9207775E-01
         -2   -1    0    0    0  501 -0.00000000000E+00  0.00000000000E+00  0.77266488578E+03  0.77266488579E+03  0.25500000000E-02 0.  1.
          2   -1    0    0  501    0  0.00000000000E+00 -0.00000000000E+00 -0.18514187263E+04  0.18514187263E+04  0.25500000000E-02 0. -1.
    8880022    1    1    2    0    0 -0.51178252411E+03  0.95857777456E+03 -0.17483018332E+02  0.10974926017E+04  0.15294330000E+03 0.  0.
    8880022    1    1    2    0    0  0.51178252411E+03 -0.95857777456E+03 -0.10612708221E+04  0.15265910103E+04  0.15294330000E+03 0.  0.
<mgrwt>
<rscale>  0 0.10973533E+04</rscale>
<asrwt>0</asrwt>
<pdfrwt beam="1">  1        2 0.28483365E+00 0.10973533E+04</pdfrwt>
<pdfrwt beam="2">  1       -2 0.11887152E+00 0.10973533E+04</pdfrwt>
<totfact> 0.43317846E+00</totfact>
</mgrwt>
</event>
<event>
 4    1  0.3365401E-008  0.5996459E+03  0.7818608E-02  0.9906141E-01
          2   -1    0    0  501    0  0.00000000000E+00  0.00000000000E+00  0.16205007192E+04  0.16205007192E+04  0.25500000000E-02 0. -1.
         -2   -1    0    0    0  501 -0.00000000000E+00 -0.00000000000E+00 -0.27814238059E+03  0.27814238060E+03  0.25500000000E-02 0.  1.
    8880022    1    1    2    0    0  0.33438618210E+03 -0.47367649790E+03  0.10980974478E+04  0.12511567453E+04  0.15294330000E+03 0. -1.
    8880022    1    1    2    0    0 -0.33438618210E+03  0.47367649790E+03  0.24426089077E+03  0.64748635447E+03  0.15294330000E+03 0.  0.
<mgrwt>
<rscale>  0 0.59964589E+03</rscale>
<asrwt>0</asrwt>
<pdfrwt beam="1">  1        2 0.24930780E+00 0.59964589E+03</pdfrwt>
<pdfrwt beam="2">  1       -2 0.42791136E-01 0.59964589E+03</pdfrwt>
<totfact> 0.58548349E+01</totfact>
</mgrwt>
</event>
<event>
 4    1  0.3365401E-008  0.7716595E+03  0.7818608E-02  0.9601970E-01
         -2   -1    0    0    0  501 -0.00000000000E+00  0.00000000000E+00  0.44799184092E+03  0.44799184092E+03  0.25500000000E-02 0.  1.
          2   -1    0    0  501    0  0.00000000000E+00 -0.00000000000E+00 -0.20200068124E+04  0.20200068124E+04  0.25500000000E-02 0. -1.
    8880022    1    1    2    0    0 -0.34018746575E+03 -0.67552880242E+03 -0.64359288512E+02  0.77433871515E+03  0.15294330000E+03 0.  0.
    8880022    1    1    2    0    0  0.34018746575E+03  0.67552880242E+03 -0.15076556829E+04  0.16936599381E+04  0.15294330000E+03 0.  0.
<mgrwt>
<rscale>  0 0.77165946E+03</rscale>
<asrwt>0</asrwt>
<pdfrwt beam="1">  1        2 0.31077027E+00 0.77165946E+03</pdfrwt>
<pdfrwt beam="2">  1       -2 0.68921823E-01 0.77165946E+03</pdfrwt>
<totfact> 0.12926500E+01</totfact>
</mgrwt>
</event>
<event>
 4    1  0.3365401E-008  0.7468159E+03  0.7818608E-02  0.9640359E-01
         -2   -1    0    0    0  501 -0.00000000000E+00  0.00000000000E+00  0.28832839703E+03  0.28832839704E+03  0.25500000000E-02 0.  1.
          2   -1    0    0  501    0  0.00000000000E+00 -0.00000000000E+00 -0.46515755938E+04  0.46515755938E+04  0.25500000000E-02 0. -1.
    8880022    1    1    2    0    0 -0.52838113960E+03 -0.50512934774E+03 -0.40693962178E+04  0.41373565857E+04  0.15294330000E+03 0.  0.
    8880022    1    1    2    0    0  0.52838113960E+03  0.50512934774E+03 -0.29385097894E+03  0.80254740512E+03  0.15294330000E+03 0.  0.
<mgrwt>
<rscale>  0 0.74681587E+03</rscale>
<asrwt>0</asrwt>
<pdfrwt beam="1">  1        2 0.71562696E+00 0.74681587E+03</pdfrwt>
<pdfrwt beam="2">  1       -2 0.44358218E-01 0.74681587E+03</pdfrwt>
<totfact> 0.48007904E-01</totfact>
</mgrwt>
</event>
<event>
 4    1  0.3365401E-008  0.4104791E+03  0.7818608E-02  0.1040210E+00
         -2   -1    0    0    0  501 -0.00000000000E+00  0.00000000000E+00  0.17767378805E+03  0.17767378807E+03  0.25500000000E-02 0.  1.
          2   -1    0    0  501    0  0.00000000000E+00 -0.00000000000E+00 -0.22706150497E+04  0.22706150497E+04  0.25500000000E-02 0. -1.
    8880022    1    1    2    0    0  0.64174746570E+01  0.38086778727E+03 -0.11230540023E+03  0.42556504943E+03  0.15294330000E+03 0.  0.
    8880022    1    1    2    0    0 -0.64174746570E+01 -0.38086778727E+03 -0.19806358614E+04  0.20227237884E+04  0.15294330000E+03 0.  0.
<mgrwt>
<rscale>  0 0.41047912E+03</rscale>
<asrwt>0</asrwt>
<pdfrwt beam="1">  1        2 0.34932537E+00 0.41047912E+03</pdfrwt>
<pdfrwt beam="2">  1       -2 0.27334431E-01 0.41047912E+03</pdfrwt>
<totfact> 0.62788424E+01</totfact>
</mgrwt>
</event>
<event>
 4    1  0.3365401E-008  0.6271535E+03  0.7818608E-02  0.9850619E-01
          2   -1    0    0  501    0  0.00000000000E+00  0.00000000000E+00  0.34412097667E+04  0.34412097667E+04  0.25500000000E-02 0. -1.
         -2   -1    0    0    0  501 -0.00000000000E+00 -0.00000000000E+00 -0.25188400073E+03  0.25188400074E+03  0.25500000000E-02 0.  1.
    8880022    1    1    2    0    0 -0.53144545743E+03  0.29579653183E+03  0.29593969495E+04  0.30251201332E+04  0.15294330000E+03 0.  0.
    8880022    1    1    2    0    0  0.53144545743E+03 -0.29579653183E+03  0.22992881652E+03  0.66797363432E+03  0.15294330000E+03 0.  0.
<mgrwt>
<rscale>  0 0.62715350E+03</rscale>
<asrwt>0</asrwt>
<pdfrwt beam="1">  1        2 0.52941686E+00 0.62715350E+03</pdfrwt>
<pdfrwt beam="2">  1       -2 0.38751387E-01 0.62715350E+03</pdfrwt>
<totfact> 0.62405791E+00</totfact>
</mgrwt>
</event>
<event>
 4    1  0.3365401E-008  0.2959156E+03  0.7818608E-02  0.1087300E+00
          2   -1    0    0  501    0  0.00000000000E+00  0.00000000000E+00  0.41422861504E+03  0.41422861504E+03  0.25500000000E-02 0. -1.
         -2   -1    0    0    0  501 -0.00000000000E+00 -0.00000000000E+00 -0.54225613861E+03  0.54225613861E+03  0.25500000000E-02 0.  1.
    8880022    1    1    2    0    0 -0.66400576631E+02 -0.24446953544E+03  0.30955315155E+03  0.42823964901E+03  0.15294330000E+03 0. -1.
    8880022    1    1    2    0    0  0.66400576631E+02  0.24446953544E+03 -0.43758067512E+03  0.52824510465E+03  0.15294330000E+03 0.  0.
<mgrwt>
<rscale>  0 0.29591560E+03</rscale>
<asrwt>0</asrwt>
<pdfrwt beam="1">  1        2 0.63727479E-01 0.29591560E+03</pdfrwt>
<pdfrwt beam="2">  1       -2 0.83424021E-01 0.29591560E+03</pdfrwt>
<totfact> 0.10039382E+02</totfact>
</mgrwt>
</event>
<event>
 4    1  0.3365401E-008  0.2736456E+03  0.7818608E-02  0.1099211E+00
         -2   -1    0    0    0  501 -0.00000000000E+00  0.00000000000E+00  0.62910677924E+03  0.62910677924E+03  0.25500000000E-02 0.  1.
          2   -1    0    0  501    0  0.00000000000E+00 -0.00000000000E+00 -0.11160127179E+04  0.11160127179E+04  0.25500000000E-02 0. -1.
    8880022    1    1    2    0    0  0.20231611289E+03 -0.10275431993E+03  0.58126346536E+03  0.64245554630E+03  0.15294330000E+03 0.  0.
    8880022    1    1    2    0    0 -0.20231611289E+03  0.10275431993E+03 -0.10681694040E+04  0.11026639508E+04  0.15294330000E+03 0. -1.
<mgrwt>
<rscale>  0 0.27364560E+03</rscale>
<asrwt>0</asrwt>
<pdfrwt beam="1">  1        2 0.17169426E+00 0.27364560E+03</pdfrwt>
<pdfrwt beam="2">  1       -2 0.96785658E-01 0.27364560E+03</pdfrwt>
<totfact> 0.21027234E+01</totfact>
</mgrwt>
</event>
<event>
 4    1  0.3365401E-008  0.8030558E+03  0.7818608E-02  0.9555604E-01
          2   -1    0    0  501    0  0.00000000000E+00  0.00000000000E+00  0.27312062530E+04  0.27312062530E+04  0.25500000000E-02 0. -1.
         -2   -1    0    0    0  501 -0.00000000000E+00 -0.00000000000E+00 -0.57185098870E+03  0.57185098870E+03  0.25500000000E-02 0.  1.
    8880022    1    1    2    0    0 -0.78806744885E+03 -0.21369108196E+02 -0.18575467646E+03  0.82425930117E+03  0.15294330000E+03 0.  0.
    8880022    1    1    2    0    0  0.78806744885E+03  0.21369108196E+02  0.23451099408E+04  0.24787979405E+04  0.15294330000E+03 0.  0.
<mgrwt>
<rscale>  0 0.80305579E+03</rscale>
<asrwt>0</asrwt>
<pdfrwt beam="1">  1        2 0.42018558E+00 0.80305579E+03</pdfrwt>
<pdfrwt beam="2">  1       -2 0.87977075E-01 0.80305579E+03</pdfrwt>
<totfact> 0.29667088E+00</totfact>
</mgrwt>
</event>
<event>
 4    1  0.3365401E-008  0.2175042E+03  0.7818608E-02  0.1135758E+00
         -2   -1    0    0    0  501 -0.00000000000E+00  0.00000000000E+00  0.11066329146E+03  0.11066329149E+03  0.25500000000E-02 0.  1.
          2   -1    0    0  501    0  0.00000000000E+00 -0.00000000000E+00 -0.71377387653E+03  0.71377387653E+03  0.25500000000E-02 0. -1.
    8880022    1    1    2    0    0 -0.14672702853E+03 -0.48863294876E+02 -0.40494732053E+02  0.22124176556E+03  0.15294330000E+03 0.  1.
    8880022    1    1    2    0    0  0.14672702853E+03  0.48863294876E+02 -0.56261585301E+03  0.60319540247E+03  0.15294330000E+03 0. -1.
<mgrwt>
<rscale>  0 0.21750424E+03</rscale>
<asrwt>0</asrwt>
<pdfrwt beam="1">  1        2 0.10981136E+00 0.21750424E+03</pdfrwt>
<pdfrwt beam="2">  1       -2 0.17025122E-01 0.21750424E+03</pdfrwt>
<totfact> 0.11343045E+03</totfact>
</mgrwt>
</event>
<event>
 4    1  0.3365401E-008  0.7279264E+03  0.7818608E-02  0.9670631E-01
         -2   -1    0    0    0  501 -0.00000000000E+00  0.00000000000E+00  0.59218604574E+03  0.59218604574E+03  0.25500000000E-02 0.  1.
          2   -1    0    0  501    0  0.00000000000E+00 -0.00000000000E+00 -0.13736406191E+04  0.13736406191E+04  0.25500000000E-02 0. -1.
    8880022    1    1    2    0    0 -0.25375311756E+03  0.66490195508E+03  0.18961298161E+03  0.75221671767E+03  0.15294330000E+03 0.  0.
    8880022    1    1    2    0    0  0.25375311756E+03 -0.66490195508E+03 -0.97106755495E+03  0.12136099471E+04  0.15294330000E+03 0.  0.
<mgrwt>
<rscale>  0 0.72792644E+03</rscale>
<asrwt>0</asrwt>
<pdfrwt beam="1">  1        2 0.21132932E+00 0.72792644E+03</pdfrwt>
<pdfrwt beam="2">  1       -2 0.91105546E-01 0.72792644E+03</pdfrwt>
<totfact> 0.15776526E+01</totfact>
</mgrwt>
</event>
<event>
 4    1  0.3365401E-008  0.2600095E+03  0.7818608E-02  0.1107138E+00
          2   -1    0    0  501    0  0.00000000000E+00  0.00000000000E+00  0.73032950061E+02  0.73032950106E+02  0.25500000000E-02 0. -1.
         -2   -1    0    0    0  501 -0.00000000000E+00 -0.00000000000E+00 -0.11001143868E+04  0.11001143868E+04  0.25500000000E-02 0.  1.
    8880022    1    1    2    0    0  0.20244498422E+03  0.56826914216E+02 -0.74711413601E+03  0.79106539240E+03  0.15294330000E+03 0.  0.
    8880022    1    1    2    0    0 -0.20244498422E+03 -0.56826914216E+02 -0.27996730068E+03  0.38208194446E+03  0.15294330000E+03 0. -1.
<mgrwt>
<rscale>  0 0.26000947E+03</rscale>
<asrwt>0</asrwt>
<pdfrwt beam="1">  1        2 0.11235839E-01 0.26000947E+03</pdfrwt>
<pdfrwt beam="2">  1       -2 0.16924835E+00 0.26000947E+03</pdfrwt>
<totfact> 0.12784941E+02</totfact>
</mgrwt>
</event>
<event>
 4    1  0.3365401E-008  0.1642639E+03  0.7818608E-02  0.1183965E+00
         -2   -1    0    0    0  501 -0.00000000000E+00  0.00000000000E+00  0.10252466189E+03  0.10252466192E+03  0.25500000000E-02 0.  1.
          2   -1    0    0  501    0  0.00000000000E+00 -0.00000000000E+00 -0.11950254585E+04  0.11950254585E+04  0.25500000000E-02 0. -1.
    8880022    1    1    2    0    0  0.30382388700E+02 -0.51651594186E+02  0.26647309109E+02  0.16641126411E+03  0.15294330000E+03 0.  0.
    8880022    1    1    2    0    0 -0.30382388700E+02  0.51651594186E+02 -0.11191481057E+04  0.11311388563E+04  0.15294330000E+03 0. -1.
<mgrwt>
<rscale>  0 0.16426390E+03</rscale>
<asrwt>0</asrwt>
<pdfrwt beam="1">  1        2 0.18385006E+00 0.16426390E+03</pdfrwt>
<pdfrwt beam="2">  1       -2 0.15773026E-01 0.16426390E+03</pdfrwt>
<totfact> 0.64255207E+02</totfact>
</mgrwt>
</event>
<event>
 4    1  0.3365401E-008  0.9472698E+03  0.7818608E-02  0.9368347E-01
          2   -1    0    0  501    0  0.00000000000E+00  0.00000000000E+00  0.22674344400E+04  0.22674344400E+04  0.25500000000E-02 0. -1.
         -2   -1    0    0    0  501 -0.00000000000E+00 -0.00000000000E+00 -0.60110301780E+03  0.60110301780E+03  0.25500000000E-02 0.  1.
    8880022    1    1    2    0    0 -0.89943403970E+03  0.25484660307E+03 -0.51635309942E+01  0.94728385288E+03  0.15294330000E+03 0.  0.
    8880022    1    1    2    0    0  0.89943403970E+03 -0.25484660307E+03  0.16714949532E+04  0.19212536050E+04  0.15294330000E+03 0.  0.
<mgrwt>
<rscale>  0 0.94726978E+03</rscale>
<asrwt>0</asrwt>
<pdfrwt beam="1">  1        2 0.34883607E+00 0.94726978E+03</pdfrwt>
<pdfrwt beam="2">  1       -2 0.92477386E-01 0.94726978E+03</pdfrwt>
<totfact> 0.47512399E+00</totfact>
</mgrwt>
</event>
<event>
 4    1  0.3365401E-008  0.7314590E+03  0.7818608E-02  0.9664896E-01
          2   -1    0    0  501    0  0.00000000000E+00  0.00000000000E+00  0.33381287446E+04  0.33381287446E+04  0.25500000000E-02 0. -1.
         -2   -1    0    0    0  501 -0.00000000000E+00 -0.00000000000E+00 -0.19010720779E+03  0.19010720780E+03  0.25500000000E-02 0.  1.
    8880022    1    1    2    0    0 -0.57772008803E+03 -0.42175841285E+03  0.22727917817E+04  0.23875960284E+04  0.15294330000E+03 0.  0.
    8880022    1    1    2    0    0  0.57772008803E+03  0.42175841285E+03  0.87522975505E+03  0.11406399239E+04  0.15294330000E+03 0.  0.
<mgrwt>
<rscale>  0 0.73145903E+03</rscale>
<asrwt>0</asrwt>
<pdfrwt beam="1">  1        2 0.51355825E+00 0.73145903E+03</pdfrwt>
<pdfrwt beam="2">  1       -2 0.29247264E-01 0.73145903E+03</pdfrwt>
<totfact> 0.12152359E+01</totfact>
</mgrwt>
</event>
<event>
 4    1  0.3365401E-008  0.1838832E+03  0.7818608E-02  0.1164097E+00
          2   -1    0    0  501    0  0.00000000000E+00  0.00000000000E+00  0.60273375787E+03  0.60273375787E+03  0.25500000000E-02 0. -1.
         -2   -1    0    0    0  501 -0.00000000000E+00 -0.00000000000E+00 -0.32162020961E+03  0.32162020962E+03  0.25500000000E-02 0.  1.
    8880022    1    1    2    0    0  0.49055460377E+02  0.89526155513E+02 -0.27938192757E+03  0.33446567116E+03  0.15294330000E+03 0.  1.
    8880022    1    1    2    0    0 -0.49055460377E+02 -0.89526155513E+02  0.56049547583E+03  0.58988829633E+03  0.15294330000E+03 0.  0.
<mgrwt>
<rscale>  0 0.18388318E+03</rscale>
<asrwt>0</asrwt>
<pdfrwt beam="1">  1        2 0.92728269E-01 0.18388318E+03</pdfrwt>
<pdfrwt beam="2">  1       -2 0.49480033E-01 0.18388318E+03</pdfrwt>
<totfact> 0.20090766E+02</totfact>
</mgrwt>
</event>
<event>
 4    1  0.3365401E-008  0.3798416E+03  0.7818608E-02  0.1050992E+00
          2   -1    0    0  501    0  0.00000000000E+00  0.00000000000E+00  0.31731956719E+04  0.31731956719E+04  0.25500000000E-02 0. -1.
         -2   -1    0    0    0  501 -0.00000000000E+00 -0.00000000000E+00 -0.95986029534E+02  0.95986029568E+02  0.25500000000E-02 0.  1.
    8880022    1    1    2    0    0  0.34613073903E+03  0.32886161397E+02  0.27244478211E+04  0.27507990786E+04  0.15294330000E+03 0. -1.
    8880022    1    1    2    0    0 -0.34613073903E+03 -0.32886161397E+02  0.35276182131E+03  0.51838262287E+03  0.15294330000E+03 0.  0.
<mgrwt>
<rscale>  0 0.37984160E+03</rscale>
<asrwt>0</asrwt>
<pdfrwt beam="1">  1        2 0.48818398E+00 0.37984160E+03</pdfrwt>
<pdfrwt beam="2">  1       -2 0.14767081E-01 0.37984160E+03</pdfrwt>
<totfact> 0.55657772E+01</totfact>
</mgrwt>
</event>
<event>
 4    1  0.3365401E-008  0.2676877E+03  0.7818608E-02  0.1102610E+00
         -2   -1    0    0    0  501 -0.00000000000E+00  0.00000000000E+00  0.36518110198E+02  0.36518110287E+02  0.25500000000E-02 0.  1.
          2   -1    0    0  501    0  0.00000000000E+00 -0.00000000000E+00 -0.21769006897E+04  0.21769006897E+04  0.25500000000E-02 0. -1.
    8880022    1    1    2    0    0 -0.13017442448E+03 -0.17697364527E+03 -0.14177330057E+04  0.14427832756E+04  0.15294330000E+03 0. -1.
    8880022    1    1    2    0    0  0.13017442448E+03  0.17697364527E+03 -0.72264957383E+03  0.77063552441E+03  0.15294330000E+03 0.  1.
<mgrwt>
<rscale>  0 0.26768770E+03</rscale>
<asrwt>0</asrwt>
<pdfrwt beam="1">  1        2 0.33490769E+00 0.26768770E+03</pdfrwt>
<pdfrwt beam="2">  1       -2 0.56181725E-02 0.26768770E+03</pdfrwt>
<totfact> 0.98149518E+02</totfact>
</mgrwt>
</event>
<event>
 4    1  0.3365401E-008  0.7307910E+03  0.7818608E-02  0.9665978E-01
          2   -1    0    0  501    0  0.00000000000E+00  0.00000000000E+00  0.26814457870E+04  0.26814457870E+04  0.25500000000E-02 0. -1.
         -2   -1    0    0    0  501 -0.00000000000E+00 -0.00000000000E+00 -0.49717129176E+03  0.49717129176E+03  0.25500000000E-02 0.  1.
    8880022    1    1    2    0    0 -0.69631268234E+03  0.16066263105E+03 -0.13831981132E+03  0.74376599533E+03  0.15294330000E+03 0.  0.
    8880022    1    1    2    0    0  0.69631268234E+03 -0.16066263105E+03  0.23225943066E+04  0.24348510834E+04  0.15294330000E+03 0.  0.
<mgrwt>
<rscale>  0 0.73079100E+03</rscale>
<asrwt>0</asrwt>
<pdfrwt beam="1">  1        2 0.41253012E+00 0.73079100E+03</pdfrwt>
<pdfrwt beam="2">  1       -2 0.76487891E-01 0.73079100E+03</pdfrwt>
<totfact> 0.44112915E+00</totfact>
</mgrwt>
</event>
<event>
 4    1  0.3365401E-008  0.4215914E+03  0.7818608E-02  0.1036550E+00
         -2   -1    0    0    0  501 -0.00000000000E+00  0.00000000000E+00  0.17277298818E+03  0.17277298820E+03  0.25500000000E-02 0.  1.
          2   -1    0    0  501    0  0.00000000000E+00 -0.00000000000E+00 -0.14464048999E+04  0.14464048999E+04  0.25500000000E-02 0. -1.
    8880022    1    1    2    0    0  0.13984903060E+03  0.36713748463E+03 -0.20177409403E+03  0.46738861990E+03  0.15294330000E+03 0.  1.
    8880022    1    1    2    0    0 -0.13984903060E+03 -0.36713748463E+03 -0.10718578177E+04  0.11517892682E+04  0.15294330000E+03 0.  0.
<mgrwt>
<rscale>  0 0.42159143E+03</rscale>
<asrwt>0</asrwt>
<pdfrwt beam="1">  1        2 0.22252382E+00 0.42159143E+03</pdfrwt>
<pdfrwt beam="2">  1       -2 0.26580461E-01 0.42159143E+03</pdfrwt>
<totfact> 0.18297165E+02</totfact>
</mgrwt>
</event>
<event>
 4    1  0.3365401E-008  0.1571145E+03  0.7818608E-02  0.1191994E+00
         -2   -1    0    0    0  501 -0.00000000000E+00  0.00000000000E+00  0.26823553356E+03  0.26823553357E+03  0.25500000000E-02 0.  1.
          2   -1    0    0  501    0  0.00000000000E+00 -0.00000000000E+00 -0.40801572266E+03  0.40801572266E+03  0.25500000000E-02 0. -1.
    8880022    1    1    2    0    0 -0.34099181589E+02 -0.11425808706E+02  0.22767043068E+03  0.27662028362E+03  0.15294330000E+03 0.  1.
    8880022    1    1    2    0    0  0.34099181589E+02  0.11425808706E+02 -0.36745061977E+03  0.39963097262E+03  0.15294330000E+03 0.  0.
<mgrwt>
<rscale>  0 0.15711447E+03</rscale>
<asrwt>0</asrwt>
<pdfrwt beam="1">  1        2 0.62771650E-01 0.15711447E+03</pdfrwt>
<pdfrwt beam="2">  1       -2 0.41267005E-01 0.15711447E+03</pdfrwt>
<totfact> 0.44180400E+02</totfact>
</mgrwt>
</event>
<event>
 4    1  0.3365401E-008  0.4609073E+03  0.7818608E-02  0.1024518E+00
          2   -1    0    0  501    0  0.00000000000E+00  0.00000000000E+00  0.12592688139E+04  0.12592688139E+04  0.25500000000E-02 0. -1.
         -2   -1    0    0    0  501 -0.00000000000E+00 -0.00000000000E+00 -0.25121882497E+03  0.25121882499E+03  0.25500000000E-02 0.  1.
    8880022    1    1    2    0    0 -0.29124935471E+03 -0.32282768698E+03  0.71168365854E+02  0.46636947950E+03  0.15294330000E+03 0.  0.
    8880022    1    1    2    0    0  0.29124935471E+03  0.32282768698E+03  0.93688162311E+03  0.10441181594E+04  0.15294330000E+03 0.  0.
<mgrwt>
<rscale>  0 0.46090732E+03</rscale>
<asrwt>0</asrwt>
<pdfrwt beam="1">  1        2 0.19373366E+00 0.46090732E+03</pdfrwt>
<pdfrwt beam="2">  1       -2 0.38649051E-01 0.46090732E+03</pdfrwt>
<totfact> 0.11545527E+02</totfact>
</mgrwt>
</event>
<event>
 4    1  0.3365401E-008  0.3465439E+03  0.7818608E-02  0.1064043E+00
          2   -1    0    0  501    0  0.00000000000E+00  0.00000000000E+00  0.35142422978E+04  0.35142422978E+04  0.25500000000E-02 0. -1.
         -2   -1    0    0    0  501 -0.00000000000E+00 -0.00000000000E+00 -0.12545083710E+03  0.12545083713E+03  0.25500000000E-02 0.  1.
    8880022    1    1    2    0    0 -0.27667976560E+02 -0.30973462511E+03  0.14207906538E+03  0.37453860782E+03  0.15294330000E+03 0.  0.
    8880022    1    1    2    0    0  0.27667976560E+02  0.30973462511E+03  0.32467123953E+04  0.32651545271E+04  0.15294330000E+03 0.  0.
<mgrwt>
<rscale>  0 0.34654395E+03</rscale>
<asrwt>0</asrwt>
<pdfrwt beam="1">  1        2 0.54065264E+00 0.34654395E+03</pdfrwt>
<pdfrwt beam="2">  1       -2 0.19300130E-01 0.34654395E+03</pdfrwt>
<totfact> 0.21588383E+01</totfact>
</mgrwt>
</event>
<event>
 4    1  0.3365401E-008  0.5607697E+03  0.7818608E-02  0.9990315E-01
         -2   -1    0    0    0  501 -0.00000000000E+00  0.00000000000E+00  0.53541293721E+03  0.53541293722E+03  0.25500000000E-02 0.  1.
          2   -1    0    0  501    0  0.00000000000E+00 -0.00000000000E+00 -0.12646263980E+04  0.12646263980E+04  0.25500000000E-02 0. -1.
    8880022    1    1    2    0    0  0.93179494504E+02 -0.53140241932E+03  0.29405305204E+03  0.63319017671E+03  0.15294330000E+03 0.  0.
    8880022    1    1    2    0    0 -0.93179494504E+02  0.53140241932E+03 -0.10232665128E+04  0.11668491585E+04  0.15294330000E+03 0.  0.
<mgrwt>
<rscale>  0 0.56076965E+03</rscale>
<asrwt>0</asrwt>
<pdfrwt beam="1">  1        2 0.19455791E+00 0.56076965E+03</pdfrwt>
<pdfrwt beam="2">  1       -2 0.82371221E-01 0.56076965E+03</pdfrwt>
<totfact> 0.23451339E+01</totfact>
</mgrwt>
</event>
<event>
 4    1  0.3365401E-008  0.6058105E+03  0.7818608E-02  0.9893424E-01
         -2   -1    0    0    0  501 -0.00000000000E+00  0.00000000000E+00  0.36101464220E+03  0.36101464221E+03  0.25500000000E-02 0.  1.
          2   -1    0    0  501    0  0.00000000000E+00 -0.00000000000E+00 -0.14992604385E+04  0.14992604385E+04  0.25500000000E-02 0. -1.
    8880022    1    1    2    0    0 -0.16948474292E+03  0.56115031745E+03 -0.10968760357E+04  0.12530536491E+04  0.15294330000E+03 0.  0.
    8880022    1    1    2    0    0  0.16948474292E+03 -0.56115031745E+03 -0.41369760579E+02  0.60722143157E+03  0.15294330000E+03 0.  0.
<mgrwt>
<rscale>  0 0.60581054E+03</rscale>
<asrwt>0</asrwt>
<pdfrwt beam="1">  1        2 0.23065545E+00 0.60581054E+03</pdfrwt>
<pdfrwt beam="2">  1       -2 0.55540715E-01 0.60581054E+03</pdfrwt>
<totfact> 0.40276060E+01</totfact>
</mgrwt>
</event>
<event>
 4    1  0.3365401E-008  0.4972977E+03  0.7818608E-02  0.1014487E+00
          2   -1    0    0  501    0  0.00000000000E+00  0.00000000000E+00  0.54852515067E+03  0.54852515067E+03  0.25500000000E-02 0. -1.
         -2   -1    0    0    0  501 -0.00000000000E+00 -0.00000000000E+00 -0.54251613170E+03  0.54251613170E+03  0.25500000000E-02 0.  1.
    8880022    1    1    2    0    0  0.28444865760E+03 -0.37815645762E+03 -0.22122811483E+03  0.54428565759E+03  0.15294330000E+03 0.  0.
    8880022    1    1    2    0    0 -0.28444865760E+03  0.37815645762E+03  0.22723713380E+03  0.54675562479E+03  0.15294330000E+03 0.  0.
<mgrwt>
<rscale>  0 0.49729770E+03</rscale>
<asrwt>0</asrwt>
<pdfrwt beam="1">  1        2 0.84388485E-01 0.49729770E+03</pdfrwt>
<pdfrwt beam="2">  1       -2 0.83464020E-01 0.49729770E+03</pdfrwt>
<totfact> 0.71514162E+01</totfact>
</mgrwt>
</event>
<event>
 4    1  0.3365401E-008  0.4049618E+03  0.7818608E-02  0.1042075E+00
          2   -1    0    0  501    0  0.00000000000E+00  0.00000000000E+00  0.85815622561E+03  0.85815622561E+03  0.25500000000E-02 0. -1.
         -2   -1    0    0    0  501 -0.00000000000E+00 -0.00000000000E+00 -0.48124828935E+03  0.48124828936E+03  0.25500000000E-02 0.  1.
    8880022    1    1    2    0    0 -0.30088158432E+03  0.22376928942E+03 -0.33155017464E+03  0.52337328360E+03  0.15294330000E+03 0.  0.
    8880022    1    1    2    0    0  0.30088158432E+03 -0.22376928942E+03  0.70845811089E+03  0.81603123137E+03  0.15294330000E+03 0.  0.
<mgrwt>
<rscale>  0 0.40496182E+03</rscale>
<asrwt>0</asrwt>
<pdfrwt beam="1">  1        2 0.13202403E+00 0.40496182E+03</pdfrwt>
<pdfrwt beam="2">  1       -2 0.74038199E-01 0.40496182E+03</pdfrwt>
<totfact> 0.54169675E+01</totfact>
</mgrwt>
</event>
<event>
 4    1  0.3365401E-008  0.1989346E+03  0.7818608E-02  0.1150641E+00
         -2   -1    0    0    0  501 -0.00000000000E+00  0.00000000000E+00  0.30368414231E+02  0.30368414338E+02  0.25500000000E-02 0.  1.
          2   -1    0    0  501    0  0.00000000000E+00 -0.00000000000E+00 -0.16630885756E+04  0.16630885756E+04  0.25500000000E-02 0. -1.
    8880022    1    1    2    0    0 -0.10691983930E+03 -0.68931037229E+02 -0.42245384358E+03  0.46694993618E+03  0.15294330000E+03 0.  1.
    8880022    1    1    2    0    0  0.10691983930E+03  0.68931037229E+02 -0.12102663177E+04  0.12265070537E+04  0.15294330000E+03 0.  0.
<mgrwt>
<rscale>  0 0.19893464E+03</rscale>
<asrwt>0</asrwt>
<pdfrwt beam="1">  1        2 0.25585971E+00 0.19893464E+03</pdfrwt>
<pdfrwt beam="2">  1       -2 0.46720650E-02 0.19893464E+03</pdfrwt>
<totfact> 0.24289916E+03</totfact>
</mgrwt>
</event>
<event>
 4    1  0.3365401E-008  0.3911467E+03  0.7818608E-02  0.1046889E+00
          2   -1    0    0  501    0  0.00000000000E+00  0.00000000000E+00  0.81512056480E+03  0.81512056480E+03  0.25500000000E-02 0. -1.
         -2   -1    0    0    0  501 -0.00000000000E+00 -0.00000000000E+00 -0.96980522130E+03  0.96980522130E+03  0.25500000000E-02 0.  1.
    8880022    1    1    2    0    0  0.11800588570E+03  0.34011565770E+03  0.72411670540E+03  0.82300711160E+03  0.15294330000E+03 0.  0.
    8880022    1    1    2    0    0 -0.11800588570E+03 -0.34011565770E+03 -0.87880136190E+03  0.96191867451E+03  0.15294330000E+03 0.  0.
<mgrwt>
<rscale>  0 0.39114665E+03</rscale>
<asrwt>0</asrwt>
<pdfrwt beam="1">  1        2 0.12540316E+00 0.39114665E+03</pdfrwt>
<pdfrwt beam="2">  1       -2 0.14920080E+00 0.39114665E+03</pdfrwt>
<totfact> 0.10965803E+01</totfact>
</mgrwt>
</event>
<event>
 4    1  0.3365401E-008  0.9356061E+03  0.7818608E-02  0.9382135E-01
          2   -1    0    0  501    0  0.00000000000E+00  0.00000000000E+00  0.13185701752E+04  0.13185701752E+04  0.25500000000E-02 0. -1.
         -2   -1    0    0    0  501 -0.00000000000E+00 -0.00000000000E+00 -0.88908336058E+03  0.88908336059E+03  0.25500000000E-02 0.  1.
    8880022    1    1    2    0    0 -0.80494845577E+02 -0.91950409540E+03  0.77029832388E+03  0.12119069116E+04  0.15294330000E+03 0.  0.
    8880022    1    1    2    0    0  0.80494845577E+02  0.91950409540E+03 -0.34081150929E+03  0.99574662415E+03  0.15294330000E+03 0.  0.
<mgrwt>
<rscale>  0 0.93560614E+03</rscale>
<asrwt>0</asrwt>
<pdfrwt beam="1">  1        2 0.20285695E+00 0.93560614E+03</pdfrwt>
<pdfrwt beam="2">  1       -2 0.13678206E+00 0.93560614E+03</pdfrwt>
<totfact> 0.61453245E+00</totfact>
</mgrwt>
</event>
<event>
 4    1  0.3365401E-008  0.4586416E+03  0.7818608E-02  0.1025176E+00
          2   -1    0    0  501    0  0.00000000000E+00  0.00000000000E+00  0.15808866728E+04  0.15808866728E+04  0.25500000000E-02 0. -1.
         -2   -1    0    0    0  501 -0.00000000000E+00 -0.00000000000E+00 -0.41567821870E+03  0.41567821871E+03  0.25500000000E-02 0.  1.
    8880022    1    1    2    0    0  0.42896865674E+03 -0.54280156713E+02  0.14057470766E+04  0.14786740480E+04  0.15294330000E+03 0.  0.
    8880022    1    1    2    0    0 -0.42896865674E+03  0.54280156713E+02 -0.24053862248E+03  0.51789084351E+03  0.15294330000E+03 0.  0.
<mgrwt>
<rscale>  0 0.45864158E+03</rscale>
<asrwt>0</asrwt>
<pdfrwt beam="1">  1        2 0.24321333E+00 0.45864158E+03</pdfrwt>
<pdfrwt beam="2">  1       -2 0.63950496E-01 0.45864158E+03</pdfrwt>
<totfact> 0.27690999E+01</totfact>
</mgrwt>
</event>
<event>
 4    1  0.3365401E-008  0.3760560E+03  0.7818608E-02  0.1052401E+00
         -2   -1    0    0    0  501 -0.00000000000E+00  0.00000000000E+00  0.11142756825E+03  0.11142756828E+03  0.25500000000E-02 0.  1.
          2   -1    0    0  501    0  0.00000000000E+00 -0.00000000000E+00 -0.20385889740E+04  0.20385889740E+04  0.25500000000E-02 0. -1.
    8880022    1    1    2    0    0  0.18766250758E+03  0.28776601928E+03 -0.16240223198E+04  0.16669932954E+04  0.15294330000E+03 0.  0.
    8880022    1    1    2    0    0 -0.18766250758E+03 -0.28776601928E+03 -0.30313908592E+03  0.48302324689E+03  0.15294330000E+03 0.  0.
<mgrwt>
<rscale>  0 0.37605605E+03</rscale>
<asrwt>0</asrwt>
<pdfrwt beam="1">  1        2 0.31362904E+00 0.37605605E+03</pdfrwt>
<pdfrwt beam="2">  1       -2 0.17142704E-01 0.37605605E+03</pdfrwt>
<totfact> 0.19070374E+02</totfact>
</mgrwt>
</event>
<event>
 4    1  0.3365401E-008  0.1122723E+04  0.7818608E-02  0.9183323E-01
         -2   -1    0    0    0  501 -0.00000000000E+00  0.00000000000E+00  0.81581992549E+03  0.81581992549E+03  0.25500000000E-02 0.  1.
          2   -1    0    0  501    0  0.00000000000E+00 -0.00000000000E+00 -0.28595219981E+04  0.28595219981E+04  0.25500000000E-02 0. -1.
    8880022    1    1    2    0    0  0.40174805375E+03  0.10371666361E+04 -0.22677751666E+04  0.25304766327E+04  0.15294330000E+03 0.  0.
    8880022    1    1    2    0    0 -0.40174805375E+03 -0.10371666361E+04  0.22407309400E+03  0.11448652908E+04  0.15294330000E+03 0.  0.
<mgrwt>
<rscale>  0 0.11227234E+04</rscale>
<asrwt>0</asrwt>
<pdfrwt beam="1">  1        2 0.43992645E+00 0.11227234E+04</pdfrwt>
<pdfrwt beam="2">  1       -2 0.12551076E+00 0.11227234E+04</pdfrwt>
<totfact> 0.10051812E+00</totfact>
</mgrwt>
</event>
<event>
 4    1  0.3365401E-008  0.7787309E+03  0.7818608E-02  0.9591324E-01
          2   -1    0    0  501    0  0.00000000000E+00  0.00000000000E+00  0.78042464883E+03  0.78042464883E+03  0.25500000000E-02 0. -1.
         -2   -1    0    0    0  501 -0.00000000000E+00 -0.00000000000E+00 -0.15040182606E+04  0.15040182606E+04  0.25500000000E-02 0.  1.
    8880022    1    1    2    0    0 -0.55377667231E+03 -0.52570107150E+03 -0.11559132727E+04  0.13937565664E+04  0.15294330000E+03 0.  0.
    8880022    1    1    2    0    0  0.55377667231E+03  0.52570107150E+03  0.43231966095E+03  0.89068634301E+03  0.15294330000E+03 0.  0.
<mgrwt>
<rscale>  0 0.77873094E+03</rscale>
<asrwt>0</asrwt>
<pdfrwt beam="1">  1        2 0.12006533E+00 0.77873094E+03</pdfrwt>
<pdfrwt beam="2">  1       -2 0.23138742E+00 0.77873094E+03</pdfrwt>
<totfact> 0.30525475E+00</totfact>
</mgrwt>
</event>
<event>
 4    1  0.3365401E-008  0.5039252E+03  0.7818608E-02  0.1012759E+00
          2   -1    0    0  501    0  0.00000000000E+00  0.00000000000E+00  0.23314532590E+04  0.23314532590E+04  0.25500000000E-02 0. -1.
         -2   -1    0    0    0  501 -0.00000000000E+00 -0.00000000000E+00 -0.17447011719E+03  0.17447011721E+03  0.25500000000E-02 0.  1.
    8880022    1    1    2    0    0 -0.24464816932E+03  0.41315398688E+03  0.31048340483E+03  0.59189571828E+03  0.15294330000E+03 0.  0.
    8880022    1    1    2    0    0  0.24464816932E+03 -0.41315398688E+03  0.18464997370E+04  0.19140276579E+04  0.15294330000E+03 0. -1.
<mgrwt>
<rscale>  0 0.50392519E+03</rscale>
<asrwt>0</asrwt>
<pdfrwt beam="1">  1        2 0.35868513E+00 0.50392519E+03</pdfrwt>
<pdfrwt beam="2">  1       -2 0.26841555E-01 0.50392519E+03</pdfrwt>
<totfact> 0.58950302E+01</totfact>
</mgrwt>
</event>
<event>
 4    1  0.3365401E-008  0.7162453E+03  0.7818608E-02  0.9689847E-01
          2   -1    0    0  501    0  0.00000000000E+00  0.00000000000E+00  0.10989933940E+04  0.10989933940E+04  0.25500000000E-02 0. -1.
         -2   -1    0    0    0  501 -0.00000000000E+00 -0.00000000000E+00 -0.67175282289E+03  0.67175282290E+03  0.25500000000E-02 0.  1.
    8880022    1    1    2    0    0  0.51422933057E+03  0.47453548047E+03  0.70266792541E+03  0.10033691210E+04  0.15294330000E+03 0.  0.
    8880022    1    1    2    0    0 -0.51422933057E+03 -0.47453548047E+03 -0.27542735435E+03  0.76737709582E+03  0.15294330000E+03 0.  0.
<mgrwt>
<rscale>  0 0.71624533E+03</rscale>
<asrwt>0</asrwt>
<pdfrwt beam="1">  1        2 0.16907591E+00 0.71624533E+03</pdfrwt>
<pdfrwt beam="2">  1       -2 0.10334659E+00 0.71624533E+03</pdfrwt>
<totfact> 0.17023290E+01</totfact>
</mgrwt>
</event>
<event>
 4    1  0.3365401E-008  0.7110851E+03  0.7818608E-02  0.9698461E-01
          2   -1    0    0  501    0  0.00000000000E+00  0.00000000000E+00  0.21472319901E+04  0.21472319901E+04  0.25500000000E-02 0. -1.
         -2   -1    0    0    0  501 -0.00000000000E+00 -0.00000000000E+00 -0.45392606318E+03  0.45392606319E+03  0.25500000000E-02 0.  1.
    8880022    1    1    2    0    0 -0.27451989300E+03 -0.63787862819E+03 -0.55563700152E+02  0.71325261565E+03  0.15294330000E+03 0.  0.
    8880022    1    1    2    0    0  0.27451989300E+03  0.63787862819E+03  0.17488696271E+04  0.18879054377E+04  0.15294330000E+03 0.  0.
<mgrwt>
<rscale>  0 0.71108506E+03</rscale>
<asrwt>0</asrwt>
<pdfrwt beam="1">  1        2 0.33034338E+00 0.71108506E+03</pdfrwt>
<pdfrwt beam="2">  1       -2 0.69834780E-01 0.71108506E+03</pdfrwt>
<totfact> 0.10799263E+01</totfact>
</mgrwt>
</event>
<event>
 4    1  0.3365401E-008  0.9711063E+03  0.7818608E-02  0.9340815E-01
         -2   -1    0    0    0  501 -0.00000000000E+00  0.00000000000E+00  0.12527503357E+04  0.12527503357E+04  0.25500000000E-02 0.  1.
          2   -1    0    0  501    0  0.00000000000E+00 -0.00000000000E+00 -0.10886111021E+04  0.10886111021E+04  0.25500000000E-02 0. -1.
    8880022    1    1    2    0    0  0.60111910458E+03  0.74720257748E+03 -0.56815206424E+03  0.11250974584E+04  0.15294330000E+03 0.  0.
    8880022    1    1    2    0    0 -0.60111910458E+03 -0.74720257748E+03  0.73229129783E+03  0.12162639794E+04  0.15294330000E+03 0.  0.
<mgrwt>
<rscale>  0 0.97110634E+03</rscale>
<asrwt>0</asrwt>
<pdfrwt beam="1">  1        2 0.16747863E+00 0.97110634E+03</pdfrwt>
<pdfrwt beam="2">  1       -2 0.19273082E+00 0.97110634E+03</pdfrwt>
<totfact> 0.32742066E+00</totfact>
</mgrwt>
</event>
<event>
 4    1  0.3365401E-008  0.4527214E+03  0.7818608E-02  0.1026914E+00
          2   -1    0    0  501    0  0.00000000000E+00  0.00000000000E+00  0.85180123333E+03  0.85180123333E+03  0.25500000000E-02 0. -1.
         -2   -1    0    0    0  501 -0.00000000000E+00 -0.00000000000E+00 -0.33585135554E+03  0.33585135555E+03  0.25500000000E-02 0.  1.
    8880022    1    1    2    0    0 -0.37272004349E+03 -0.20650607642E+03  0.57419247065E+03  0.73120013456E+03  0.15294330000E+03 0.  0.
    8880022    1    1    2    0    0  0.37272004349E+03  0.20650607642E+03 -0.58242592856E+02  0.45645245432E+03  0.15294330000E+03 0.  0.
<mgrwt>
<rscale>  0 0.45272138E+03</rscale>
<asrwt>0</asrwt>
<pdfrwt beam="1">  1        2 0.13104634E+00 0.45272138E+03</pdfrwt>
<pdfrwt beam="2">  1       -2 0.51669440E-01 0.45272138E+03</pdfrwt>
<totfact> 0.11613322E+02</totfact>
</mgrwt>
</event>
<event>
 4    1  0.3365401E-008  0.1804178E+03  0.7818608E-02  0.1167399E+00
         -2   -1    0    0    0  501 -0.00000000000E+00  0.00000000000E+00  0.82090736770E+02  0.82090736810E+02  0.25500000000E-02 0.  1.
          2   -1    0    0  501    0  0.00000000000E+00 -0.00000000000E+00 -0.25723776314E+04  0.25723776314E+04  0.25500000000E-02 0. -1.
    8880022    1    1    2    0    0  0.63903633895E+02  0.71240802167E+02 -0.24481285286E+02  0.18207117472E+03  0.15294330000E+03 0.  0.
    8880022    1    1    2    0    0 -0.63903633895E+02 -0.71240802167E+02 -0.24658056093E+04  0.24723971935E+04  0.15294330000E+03 0. -1.
<mgrwt>
<rscale>  0 0.18041779E+03</rscale>
<asrwt>0</asrwt>
<pdfrwt beam="1">  1        2 0.39575034E+00 0.18041779E+03</pdfrwt>
<pdfrwt beam="2">  1       -2 0.12629346E-01 0.18041779E+03</pdfrwt>
<totfact> 0.17266557E+02</totfact>
</mgrwt>
</event>
<event>
 4    1  0.3365401E-008  0.6957750E+03  0.7818608E-02  0.9724485E-01
          2   -1    0    0  501    0  0.00000000000E+00  0.00000000000E+00  0.23916445730E+04  0.23916445730E+04  0.25500000000E-02 0. -1.
         -2   -1    0    0    0  501 -0.00000000000E+00 -0.00000000000E+00 -0.25761113235E+03  0.25761113236E+03  0.25500000000E-02 0.  1.
    8880022    1    1    2    0    0  0.50228622231E+03 -0.45653009900E+03  0.16801699539E+04  0.18185361991E+04  0.15294330000E+03 0.  0.
    8880022    1    1    2    0    0 -0.50228622231E+03  0.45653009900E+03  0.45386348667E+03  0.83071950619E+03  0.15294330000E+03 0.  0.
<mgrwt>
<rscale>  0 0.69577499E+03</rscale>
<asrwt>0</asrwt>
<pdfrwt beam="1">  1        2 0.36794531E+00 0.69577499E+03</pdfrwt>
<pdfrwt beam="2">  1       -2 0.39632483E-01 0.69577499E+03</pdfrwt>
<totfact> 0.25427509E+01</totfact>
</mgrwt>
</event>
<event>
 4    1  0.3365401E-008  0.8475264E+03  0.7818608E-02  0.9493663E-01
          2   -1    0    0  501    0  0.00000000000E+00  0.00000000000E+00  0.96071074857E+03  0.96071074858E+03  0.25500000000E-02 0. -1.
         -2   -1    0    0    0  501 -0.00000000000E+00 -0.00000000000E+00 -0.14246747728E+04  0.14246747729E+04  0.25500000000E-02 0.  1.
    8880022    1    1    2    0    0 -0.68037082684E+03  0.48166892461E+03  0.59019328458E+03  0.10327774112E+04  0.15294330000E+03 0.  0.
    8880022    1    1    2    0    0  0.68037082684E+03 -0.48166892461E+03 -0.10541573089E+04  0.13526081102E+04  0.15294330000E+03 0.  0.
<mgrwt>
<rscale>  0 0.84752644E+03</rscale>
<asrwt>0</asrwt>
<pdfrwt beam="1">  1        2 0.14780165E+00 0.84752644E+03</pdfrwt>
<pdfrwt beam="2">  1       -2 0.21918073E+00 0.84752644E+03</pdfrwt>
<totfact> 0.27057792E+00</totfact>
</mgrwt>
</event>
<event>
 4    1  0.3365401E-008  0.3078580E+03  0.7818608E-02  0.1081377E+00
         -2   -1    0    0    0  501 -0.00000000000E+00  0.00000000000E+00  0.46460544911E+03  0.46460544912E+03  0.25500000000E-02 0.  1.
          2   -1    0    0  501    0  0.00000000000E+00 -0.00000000000E+00 -0.51471839326E+03  0.51471839326E+03  0.25500000000E-02 0. -1.
    8880022    1    1    2    0    0 -0.20499318635E+03  0.17135544984E+03  0.35539513663E+03  0.47019384598E+03  0.15294330000E+03 0.  1.
    8880022    1    1    2    0    0  0.20499318635E+03 -0.17135544984E+03 -0.40550808078E+03  0.50912999640E+03  0.15294330000E+03 0.  0.
<mgrwt>
<rscale>  0 0.30785800E+03</rscale>
<asrwt>0</asrwt>
<pdfrwt beam="1">  1        2 0.79187445E-01 0.30785800E+03</pdfrwt>
<pdfrwt beam="2">  1       -2 0.71477762E-01 0.30785800E+03</pdfrwt>
<totfact> 0.11053088E+02</totfact>
</mgrwt>
</event>
<event>
 4    1  0.3365401E-008  0.4799452E+03  0.7818608E-02  0.1019150E+00
          2   -1    0    0  501    0  0.00000000000E+00  0.00000000000E+00  0.29870196081E+04  0.29870196081E+04  0.25500000000E-02 0. -1.
         -2   -1    0    0    0  501 -0.00000000000E+00 -0.00000000000E+00 -0.15211942138E+03  0.15211942140E+03  0.25500000000E-02 0.  1.
    8880022    1    1    2    0    0  0.44573875333E+03 -0.90954379942E+02  0.25195688343E+04  0.25648731936E+04  0.15294330000E+03 0.  0.
    8880022    1    1    2    0    0 -0.44573875333E+03  0.90954379942E+02  0.31533135241E+03  0.57426583590E+03  0.15294330000E+03 0.  0.
<mgrwt>
<rscale>  0 0.47994519E+03</rscale>
<asrwt>0</asrwt>
<pdfrwt beam="1">  1        2 0.45954142E+00 0.47994519E+03</pdfrwt>
<pdfrwt beam="2">  1       -2 0.23402991E-01 0.47994519E+03</pdfrwt>
<totfact> 0.31909143E+01</totfact>
</mgrwt>
</event>
<event>
 4    1  0.3365401E-008  0.4726947E+03  0.7818608E-02  0.1021162E+00
         -2   -1    0    0    0  501 -0.00000000000E+00  0.00000000000E+00  0.21472868953E+03  0.21472868955E+03  0.25500000000E-02 0.  1.
          2   -1    0    0  501    0  0.00000000000E+00 -0.00000000000E+00 -0.21646911784E+04  0.21646911784E+04  0.25500000000E-02 0. -1.
    8880022    1    1    2    0    0  0.36884126628E+03  0.25299156916E+03 -0.11764803180E+03  0.48711531097E+03  0.15294330000E+03 0.  0.
    8880022    1    1    2    0    0 -0.36884126628E+03 -0.25299156916E+03 -0.18323144571E+04  0.18923045570E+04  0.15294330000E+03 0.  0.
<mgrwt>
<rscale>  0 0.47269469E+03</rscale>
<asrwt>0</asrwt>
<pdfrwt beam="1">  1        2 0.33302940E+00 0.47269469E+03</pdfrwt>
<pdfrwt beam="2">  1       -2 0.33035185E-01 0.47269469E+03</pdfrwt>
<totfact> 0.49902828E+01</totfact>
</mgrwt>
</event>
<event>
 4    1  0.3365401E-008  0.1925948E+03  0.7818608E-02  0.1156142E+00
         -2   -1    0    0    0  501 -0.00000000000E+00  0.00000000000E+00  0.32431886585E+03  0.32431886586E+03  0.25500000000E-02 0.  1.
          2   -1    0    0  501    0  0.00000000000E+00 -0.00000000000E+00 -0.54045439950E+03  0.54045439951E+03  0.25500000000E-02 0. -1.
    8880022    1    1    2    0    0 -0.91997539399E+02  0.72370925505E+02  0.27585150679E+03  0.33643246711E+03  0.15294330000E+03 0.  0.
    8880022    1    1    2    0    0  0.91997539399E+02 -0.72370925505E+02 -0.49198704045E+03  0.52834079825E+03  0.15294330000E+03 0.  0.
<mgrwt>
<rscale>  0 0.19259478E+03</rscale>
<asrwt>0</asrwt>
<pdfrwt beam="1">  1        2 0.83146830E-01 0.19259478E+03</pdfrwt>
<pdfrwt beam="2">  1       -2 0.49895210E-01 0.19259478E+03</pdfrwt>
<totfact> 0.22350237E+02</totfact>
</mgrwt>
</event>
<event>
 4    1  0.3365401E-008  0.1092063E+04  0.7818608E-02  0.9212963E-01
         -2   -1    0    0    0  501 -0.00000000000E+00  0.00000000000E+00  0.14288364071E+04  0.14288364071E+04  0.25500000000E-02 0.  1.
          2   -1    0    0  501    0  0.00000000000E+00 -0.00000000000E+00 -0.11022834039E+04  0.11022834039E+04  0.25500000000E-02 0. -1.
    8880022    1    1    2    0    0  0.12381393864E+03 -0.10741878231E+04 -0.46030515583E+03  0.11851083749E+04  0.15294330000E+03 0.  0.
    8880022    1    1    2    0    0 -0.12381393864E+03  0.10741878231E+04  0.78685815895E+03  0.13460114361E+04  0.15294330000E+03 0.  0.
<mgrwt>
<rscale>  0 0.10920627E+04</rscale>
<asrwt>0</asrwt>
<pdfrwt beam="1">  1        2 0.16958206E+00 0.10920627E+04</pdfrwt>
<pdfrwt beam="2">  1       -2 0.21982099E+00 0.10920627E+04</pdfrwt>
<totfact> 0.21154460E+00</totfact>
</mgrwt>
</event>
<event>
 4    1  0.3365401E-008  0.1151259E+04  0.7818608E-02  0.9156623E-01
         -2   -1    0    0    0  501 -0.00000000000E+00  0.00000000000E+00  0.13054924349E+04  0.13054924349E+04  0.25500000000E-02 0.  1.
          2   -1    0    0  501    0  0.00000000000E+00 -0.00000000000E+00 -0.12157648521E+04  0.12157648521E+04  0.25500000000E-02 0. -1.
    8880022    1    1    2    0    0  0.59196686600E+03 -0.97549045522E+03  0.55682641860E+03  0.12788485884E+04  0.15294330000E+03 0.  0.
    8880022    1    1    2    0    0 -0.59196686600E+03  0.97549045522E+03 -0.46709883580E+03  0.12424086985E+04  0.15294330000E+03 0.  0.
<mgrwt>
<rscale>  0 0.11512593E+04</rscale>
<asrwt>0</asrwt>
<pdfrwt beam="1">  1        2 0.18704075E+00 0.11512593E+04</pdfrwt>
<pdfrwt beam="2">  1       -2 0.20084499E+00 0.11512593E+04</pdfrwt>
<totfact> 0.23749223E+00</totfact>
</mgrwt>
</event>
<event>
 4    1  0.3365401E-008  0.1683869E+03  0.7818608E-02  0.1179541E+00
         -2   -1    0    0    0  501 -0.00000000000E+00  0.00000000000E+00  0.11670024846E+03  0.11670024849E+03  0.25500000000E-02 0.  1.
          2   -1    0    0  501    0  0.00000000000E+00 -0.00000000000E+00 -0.11496637600E+04  0.11496637601E+04  0.25500000000E-02 0. -1.
    8880022    1    1    2    0    0 -0.53585840430E+02 -0.45728097780E+02  0.45826542260E+02  0.17451139278E+03  0.15294330000E+03 0.  1.
    8880022    1    1    2    0    0  0.53585840430E+02  0.45728097780E+02 -0.10787900539E+04  0.10918526158E+04  0.15294330000E+03 0.  0.
<mgrwt>
<rscale>  0 0.16838692E+03</rscale>
<asrwt>0</asrwt>
<pdfrwt beam="1">  1        2 0.17687134E+00 0.16838692E+03</pdfrwt>
<pdfrwt beam="2">  1       -2 0.17953885E-01 0.16838692E+03</pdfrwt>
<totfact> 0.54914426E+02</totfact>
</mgrwt>
</event>
<event>
 4    1  0.3365401E-008  0.1101771E+04  0.7818608E-02  0.9203467E-01
         -2   -1    0    0    0  501 -0.00000000000E+00  0.00000000000E+00  0.32693505555E+04  0.32693505555E+04  0.25500000000E-02 0.  1.
          2   -1    0    0  501    0  0.00000000000E+00 -0.00000000000E+00 -0.79527882000E+03  0.79527882000E+03  0.25500000000E-02 0. -1.
    8880022    1    1    2    0    0  0.45385212205E+03  0.99223275376E+03 -0.24686535453E+03  0.11290888993E+04  0.15294330000E+03 0.  0.
    8880022    1    1    2    0    0 -0.45385212205E+03 -0.99223275376E+03  0.27209370901E+04  0.29355404762E+04  0.15294330000E+03 0.  0.
<mgrwt>
<rscale>  0 0.11017710E+04</rscale>
<asrwt>0</asrwt>
<pdfrwt beam="1">  1        2 0.12235059E+00 0.11017710E+04</pdfrwt>
<pdfrwt beam="2">  1       -2 0.50297701E+00 0.11017710E+04</pdfrwt>
<totfact> 0.54527847E-02</totfact>
</mgrwt>
</event>
<event>
 4    1  0.3365401E-008  0.3995423E+03  0.7818608E-02  0.1043938E+00
         -2   -1    0    0    0  501 -0.00000000000E+00  0.00000000000E+00  0.12400947179E+03  0.12400947182E+03  0.25500000000E-02 0.  1.
          2   -1    0    0  501    0  0.00000000000E+00 -0.00000000000E+00 -0.17721311150E+04  0.17721311150E+04  0.25500000000E-02 0. -1.
    8880022    1    1    2    0    0  0.27465045324E+03 -0.24659582597E+03 -0.32815407584E+03  0.51702913202E+03  0.15294330000E+03 0.  0.
    8880022    1    1    2    0    0 -0.27465045324E+03  0.24659582597E+03 -0.13199675673E+04  0.13791114548E+04  0.15294330000E+03 0.  0.
<mgrwt>
<rscale>  0 0.39954227E+03</rscale>
<asrwt>0</asrwt>
<pdfrwt beam="1">  1        2 0.27263554E+00 0.39954227E+03</pdfrwt>
<pdfrwt beam="2">  1       -2 0.19078381E-01 0.39954227E+03</pdfrwt>
<totfact> 0.21945391E+02</totfact>
</mgrwt>
</event>
<event>
 4    1  0.3365401E-008  0.6589162E+03  0.7818608E-02  0.9790191E-01
         -2   -1    0    0    0  501 -0.00000000000E+00  0.00000000000E+00  0.80049655358E+03  0.80049655358E+03  0.25500000000E-02 0.  1.
          2   -1    0    0  501    0  0.00000000000E+00 -0.00000000000E+00 -0.10222147434E+04  0.10222147434E+04  0.25500000000E-02 0. -1.
    8880022    1    1    2    0    0 -0.47786543548E+03  0.42711063146E+03 -0.73526104203E+03  0.98730913035E+03  0.15294330000E+03 0.  0.
    8880022    1    1    2    0    0  0.47786543548E+03 -0.42711063146E+03  0.51354285221E+03  0.83540216663E+03  0.15294330000E+03 0.  0.
<mgrwt>
<rscale>  0 0.65891617E+03</rscale>
<asrwt>0</asrwt>
<pdfrwt beam="1">  1        2 0.15726381E+00 0.65891617E+03</pdfrwt>
<pdfrwt beam="2">  1       -2 0.12315332E+00 0.65891617E+03</pdfrwt>
<totfact> 0.12482593E+01</totfact>
</mgrwt>
</event>
<event>
 4    1  0.3365401E-008  0.2140569E+03  0.7818608E-02  0.1138393E+00
         -2   -1    0    0    0  501 -0.00000000000E+00  0.00000000000E+00  0.73424118565E+03  0.73424118565E+03  0.25500000000E-02 0.  1.
          2   -1    0    0  501    0  0.00000000000E+00 -0.00000000000E+00 -0.48855614062E+03  0.48855614063E+03  0.25500000000E-02 0. -1.
    8880022    1    1    2    0    0  0.54939270190E+02  0.13932109132E+03  0.69385955034E+03  0.72612768747E+03  0.15294330000E+03 0.  0.
    8880022    1    1    2    0    0 -0.54939270190E+02 -0.13932109132E+03 -0.44817450531E+03  0.49666963881E+03  0.15294330000E+03 0. -1.
<mgrwt>
<rscale>  0 0.21405687E+03</rscale>
<asrwt>0</asrwt>
<pdfrwt beam="1">  1        2 0.75162483E-01 0.21405687E+03</pdfrwt>
<pdfrwt beam="2">  1       -2 0.11296018E+00 0.21405687E+03</pdfrwt>
<totfact> 0.42075353E+01</totfact>
</mgrwt>
</event>
<event>
 4    1  0.3365401E-008  0.4675644E+03  0.7818608E-02  0.1022610E+00
          2   -1    0    0  501    0  0.00000000000E+00  0.00000000000E+00  0.11989921223E+04  0.11989921223E+04  0.25500000000E-02 0. -1.
         -2   -1    0    0    0  501 -0.00000000000E+00 -0.00000000000E+00 -0.64105863027E+03  0.64105863028E+03  0.25500000000E-02 0.  1.
    8880022    1    1    2    0    0 -0.42415683465E+03 -0.12375701470E+03  0.10572311736E+04  0.11560078834E+04  0.15294330000E+03 0.  0.
    8880022    1    1    2    0    0  0.42415683465E+03  0.12375701470E+03 -0.49929768155E+03  0.68404286919E+03  0.15294330000E+03 0.  0.
<mgrwt>
<rscale>  0 0.46756440E+03</rscale>
<asrwt>0</asrwt>
<pdfrwt beam="1">  1        2 0.18446032E+00 0.46756440E+03</pdfrwt>
<pdfrwt beam="2">  1       -2 0.98624406E-01 0.46756440E+03</pdfrwt>
<totfact> 0.17195037E+01</totfact>
</mgrwt>
</event>
<event>
 4    1  0.3365401E-008  0.1699135E+03  0.7818608E-02  0.1177938E+00
          2   -1    0    0  501    0  0.00000000000E+00  0.00000000000E+00  0.16730681770E+03  0.16730681772E+03  0.25500000000E-02 0. -1.
         -2   -1    0    0    0  501 -0.00000000000E+00 -0.00000000000E+00 -0.94513869354E+03  0.94513869355E+03  0.25500000000E-02 0.  1.
    8880022    1    1    2    0    0 -0.46890497469E+02  0.57273362544E+02 -0.89180489593E+03  0.90784722405E+03  0.15294330000E+03 0.  1.
    8880022    1    1    2    0    0  0.46890497469E+02 -0.57273362544E+02  0.11397302008E+03  0.20459828722E+03  0.15294330000E+03 0.  0.
<mgrwt>
<rscale>  0 0.16991354E+03</rscale>
<asrwt>0</asrwt>
<pdfrwt beam="1">  1        2 0.25739511E-01 0.16991354E+03</pdfrwt>
<pdfrwt beam="2">  1       -2 0.14540595E+00 0.16991354E+03</pdfrwt>
<totfact> 0.72824086E+01</totfact>
</mgrwt>
</event>
<event>
 4    1  0.3365401E-008  0.5969722E+03  0.7818608E-02  0.9911708E-01
          2   -1    0    0  501    0  0.00000000000E+00  0.00000000000E+00  0.39723051157E+03  0.39723051158E+03  0.25500000000E-02 0. -1.
         -2   -1    0    0    0  501 -0.00000000000E+00 -0.00000000000E+00 -0.19316485743E+04  0.19316485743E+04  0.25500000000E-02 0.  1.
    8880022    1    1    2    0    0 -0.51662651385E+03 -0.25706254011E+03  0.84944054442E+02  0.60298528153E+03  0.15294330000E+03 0.  0.
    8880022    1    1    2    0    0  0.51662651385E+03  0.25706254011E+03 -0.16193621171E+04  0.17258938043E+04  0.15294330000E+03 0.  0.
<mgrwt>
<rscale>  0 0.59697216E+03</rscale>
<asrwt>0</asrwt>
<pdfrwt beam="1">  1        2 0.61112387E-01 0.59697216E+03</pdfrwt>
<pdfrwt beam="2">  1       -2 0.29717670E+00 0.59697216E+03</pdfrwt>
<totfact> 0.28264624E+00</totfact>
</mgrwt>
</event>
<event>
 4    1  0.3365401E-008  0.5605372E+03  0.7818608E-02  0.9990840E-01
          2   -1    0    0  501    0  0.00000000000E+00  0.00000000000E+00  0.34772599888E+04  0.34772599888E+04  0.25500000000E-02 0. -1.
         -2   -1    0    0    0  501 -0.00000000000E+00 -0.00000000000E+00 -0.13686916008E+03  0.13686916010E+03  0.25500000000E-02 0.  1.
    8880022    1    1    2    0    0  0.42399639404E+03 -0.33322273468E+03  0.61679265527E+03  0.83344775821E+03  0.15294330000E+03 0.  0.
    8880022    1    1    2    0    0 -0.42399639404E+03  0.33322273468E+03  0.27235981734E+04  0.27806813906E+04  0.15294330000E+03 0.  0.
<mgrwt>
<rscale>  0 0.56053723E+03</rscale>
<asrwt>0</asrwt>
<pdfrwt beam="1">  1        2 0.53496303E+00 0.56053723E+03</pdfrwt>
<pdfrwt beam="2">  1       -2 0.21056796E-01 0.56053723E+03</pdfrwt>
<totfact> 0.18398121E+01</totfact>
</mgrwt>
</event>
<event>
 4    1  0.3365401E-008  0.7040517E+03  0.7818608E-02  0.9710328E-01
         -2   -1    0    0    0  501 -0.00000000000E+00  0.00000000000E+00  0.54758942393E+03  0.54758942394E+03  0.25500000000E-02 0.  1.
          2   -1    0    0  501    0  0.00000000000E+00 -0.00000000000E+00 -0.14654278691E+04  0.14654278691E+04  0.25500000000E-02 0. -1.
    8880022    1    1    2    0    0 -0.54612074838E+03  0.41719215065E+03  0.16339531723E+03  0.72276333961E+03  0.15294330000E+03 0.  0.
    8880022    1    1    2    0    0  0.54612074838E+03 -0.41719215065E+03 -0.10812337624E+04  0.12902539534E+04  0.15294330000E+03 0.  0.
<mgrwt>
<rscale>  0 0.70405171E+03</rscale>
<asrwt>0</asrwt>
<pdfrwt beam="1">  1        2 0.22545044E+00 0.70405171E+03</pdfrwt>
<pdfrwt beam="2">  1       -2 0.84244527E-01 0.70405171E+03</pdfrwt>
<totfact> 0.16812560E+01</totfact>
</mgrwt>
</event>
<event>
 4    1  0.3365401E-008  0.5010671E+03  0.7818608E-02  0.1013501E+00
         -2   -1    0    0    0  501 -0.00000000000E+00  0.00000000000E+00  0.39202072594E+03  0.39202072595E+03  0.25500000000E-02 0.  1.
          2   -1    0    0  501    0  0.00000000000E+00 -0.00000000000E+00 -0.29344370708E+04  0.29344370708E+04  0.25500000000E-02 0. -1.
    8880022    1    1    2    0    0  0.43480631110E+03 -0.19651995657E+03  0.19936094982E+03  0.53927086221E+03  0.15294330000E+03 0.  0.
    8880022    1    1    2    0    0 -0.43480631110E+03  0.19651995657E+03 -0.27417772947E+04  0.27871869346E+04  0.15294330000E+03 0.  0.
<mgrwt>
<rscale>  0 0.50106714E+03</rscale>
<asrwt>0</asrwt>
<pdfrwt beam="1">  1        2 0.45145184E+00 0.50106714E+03</pdfrwt>
<pdfrwt beam="2">  1       -2 0.60310883E-01 0.50106714E+03</pdfrwt>
<totfact> 0.55263687E+00</totfact>
</mgrwt>
</event>
<event>
 4    1  0.3365401E-008  0.3811567E+03  0.7818608E-02  0.1050507E+00
         -2   -1    0    0    0  501 -0.00000000000E+00  0.00000000000E+00  0.11610068329E+04  0.11610068329E+04  0.25500000000E-02 0.  1.
          2   -1    0    0  501    0  0.00000000000E+00 -0.00000000000E+00 -0.39568786157E+03  0.39568786158E+03  0.25500000000E-02 0. -1.
    8880022    1    1    2    0    0  0.31134497921E+03  0.15796542005E+03 -0.26095328025E+03  0.46192752408E+03  0.15294330000E+03 0.  0.
    8880022    1    1    2    0    0 -0.31134497921E+03 -0.15796542005E+03  0.10262722516E+04  0.10947671704E+04  0.15294330000E+03 0.  0.
<mgrwt>
<rscale>  0 0.38115669E+03</rscale>
<asrwt>0</asrwt>
<pdfrwt beam="1">  1        2 0.60875057E-01 0.38115669E+03</pdfrwt>
<pdfrwt beam="2">  1       -2 0.17861643E+00 0.38115669E+03</pdfrwt>
<totfact> 0.15870321E+01</totfact>
</mgrwt>
</event>
<event>
 4    1  0.3365401E-008  0.2888979E+03  0.7818608E-02  0.1090926E+00
         -2   -1    0    0    0  501 -0.00000000000E+00  0.00000000000E+00  0.21006228686E+03  0.21006228687E+03  0.25500000000E-02 0.  1.
          2   -1    0    0  501    0  0.00000000000E+00 -0.00000000000E+00 -0.57231567236E+03  0.57231567237E+03  0.25500000000E-02 0. -1.
    8880022    1    1    2    0    0  0.23884323267E+03 -0.54993194366E+02  0.35186084027E+02  0.29103273826E+03  0.15294330000E+03 0.  0.
    8880022    1    1    2    0    0 -0.23884323267E+03  0.54993194366E+02 -0.39743946954E+03  0.49134522098E+03  0.15294330000E+03 0.  0.
<mgrwt>
<rscale>  0 0.28889790E+03</rscale>
<asrwt>0</asrwt>
<pdfrwt beam="1">  1        2 0.88048564E-01 0.28889790E+03</pdfrwt>
<pdfrwt beam="2">  1       -2 0.32317275E-01 0.28889790E+03</pdfrwt>
<totfact> 0.47771252E+02</totfact>
</mgrwt>
</event>
<event>
 4    1  0.3365401E-008  0.2081614E+03  0.7818608E-02  0.1143030E+00
          2   -1    0    0  501    0  0.00000000000E+00  0.00000000000E+00  0.25126939691E+04  0.25126939691E+04  0.25500000000E-02 0. -1.
         -2   -1    0    0    0  501 -0.00000000000E+00 -0.00000000000E+00 -0.33103797777E+03  0.33103797778E+03  0.25500000000E-02 0.  1.
    8880022    1    1    2    0    0  0.13490832184E+03 -0.41704290816E+02 -0.29350774163E+03  0.35983044699E+03  0.15294330000E+03 0.  1.
    8880022    1    1    2    0    0 -0.13490832184E+03  0.41704290816E+02  0.24751637329E+04  0.24839014999E+04  0.15294330000E+03 0.  0.
<mgrwt>
<rscale>  0 0.20816137E+03</rscale>
<asrwt>0</asrwt>
<pdfrwt beam="1">  1        2 0.38656830E+00 0.20816137E+03</pdfrwt>
<pdfrwt beam="2">  1       -2 0.50928920E-01 0.20816137E+03</pdfrwt>
<totfact> 0.15347175E+01</totfact>
</mgrwt>
</event>
<event>
 4    1  0.3365401E-008  0.7518326E+03  0.7818608E-02  0.9632480E-01
         -2   -1    0    0    0  501 -0.00000000000E+00  0.00000000000E+00  0.27738575979E+03  0.27738575980E+03  0.25500000000E-02 0.  1.
          2   -1    0    0  501    0  0.00000000000E+00 -0.00000000000E+00 -0.32308762299E+04  0.32308762299E+04  0.25500000000E-02 0. -1.
    8880022    1    1    2    0    0 -0.64572305444E+03  0.35341534354E+03 -0.25427001405E+04  0.26515233971E+04  0.15294330000E+03 0.  0.
    8880022    1    1    2    0    0  0.64572305444E+03 -0.35341534354E+03 -0.41079032962E+03  0.85673859258E+03  0.15294330000E+03 0.  0.
<mgrwt>
<rscale>  0 0.75183264E+03</rscale>
<asrwt>0</asrwt>
<pdfrwt beam="1">  1        2 0.49705785E+00 0.75183264E+03</pdfrwt>
<pdfrwt beam="2">  1       -2 0.42674735E-01 0.75183264E+03</pdfrwt>
<totfact> 0.69082163E+00</totfact>
</mgrwt>
</event>
<event>
 4    1  0.4743183E-008  0.8116251E+03  0.7818608E-02  0.9543341E-01
          2   -1    0    0  501    0  0.00000000000E+00  0.00000000000E+00  0.11624833107E+04  0.11624833107E+04  0.25500000000E-02 0. -1.
         -2   -1    0    0    0  501 -0.00000000000E+00 -0.00000000000E+00 -0.14136877347E+04  0.14136877347E+04  0.25500000000E-02 0.  1.
    8880022    1    1    2    0    0 -0.75389876927E+03 -0.25880537372E+03  0.87144616819E+03  0.11908625667E+04  0.15294330000E+03 0.  0.
    8880022    1    1    2    0    0  0.75389876927E+03  0.25880537372E+03 -0.11226505922E+04  0.13853084787E+04  0.15294330000E+03 0.  0.
<mgrwt>
<rscale>  0 0.81162505E+03</rscale>
<asrwt>0</asrwt>
<pdfrwt beam="1">  1        2 0.17884359E+00 0.81162505E+03</pdfrwt>
<pdfrwt beam="2">  1       -2 0.21749042E+00 0.81162505E+03</pdfrwt>
<totfact> 0.20854387E+00</totfact>
</mgrwt>
</event>
<event>
 4    1  0.3365401E-008  0.4726579E+03  0.7818608E-02  0.1021173E+00
         -2   -1    0    0    0  501 -0.00000000000E+00  0.00000000000E+00  0.35895407358E+03  0.35895407359E+03  0.25500000000E-02 0.  1.
          2   -1    0    0  501    0  0.00000000000E+00 -0.00000000000E+00 -0.30892225798E+04  0.30892225798E+04  0.25500000000E-02 0. -1.
    8880022    1    1    2    0    0  0.44114109806E+03  0.73541303451E+02  0.17552190860E+03  0.50419578055E+03  0.15294330000E+03 0.  0.
    8880022    1    1    2    0    0 -0.44114109806E+03 -0.73541303451E+02 -0.29057904148E+04  0.29439808728E+04  0.15294330000E+03 0.  0.
<mgrwt>
<rscale>  0 0.47265785E+03</rscale>
<asrwt>0</asrwt>
<pdfrwt beam="1">  1        2 0.47526500E+00 0.47265785E+03</pdfrwt>
<pdfrwt beam="2">  1       -2 0.55223706E-01 0.47265785E+03</pdfrwt>
<totfact> 0.53975174E+00</totfact>
</mgrwt>
</event>
<event>
 4    1  0.3365401E-008  0.3424535E+03  0.7818608E-02  0.1065756E+00
         -2   -1    0    0    0  501 -0.00000000000E+00  0.00000000000E+00  0.62399302703E+03  0.62399302704E+03  0.25500000000E-02 0.  1.
          2   -1    0    0  501    0  0.00000000000E+00 -0.00000000000E+00 -0.77933040404E+03  0.77933040404E+03  0.25500000000E-02 0. -1.
    8880022    1    1    2    0    0 -0.12388452338E+03 -0.28024163835E+03 -0.68889695255E+03  0.76932009934E+03  0.15294330000E+03 0.  0.
    8880022    1    1    2    0    0  0.12388452338E+03  0.28024163835E+03  0.53355957554E+03  0.63400333175E+03  0.15294330000E+03 0.  1.
<mgrwt>
<rscale>  0 0.34245351E+03</rscale>
<asrwt>0</asrwt>
<pdfrwt beam="1">  1        2 0.11989698E+00 0.34245351E+03</pdfrwt>
<pdfrwt beam="2">  1       -2 0.95998928E-01 0.34245351E+03</pdfrwt>
<totfact> 0.34592872E+01</totfact>
</mgrwt>
</event>
<event>
 4    1  0.3365401E-008  0.4370751E+03  0.7818608E-02  0.1031648E+00
          2   -1    0    0  501    0  0.00000000000E+00  0.00000000000E+00  0.16655810182E+04  0.16655810182E+04  0.25500000000E-02 0. -1.
         -2   -1    0    0    0  501 -0.00000000000E+00 -0.00000000000E+00 -0.38601230826E+03  0.38601230827E+03  0.25500000000E-02 0.  1.
    8880022    1    1    2    0    0 -0.13107286099E+03 -0.38789549938E+03 -0.22021682367E+03  0.48941814001E+03  0.15294330000E+03 0.  0.
    8880022    1    1    2    0    0  0.13107286099E+03  0.38789549938E+03  0.14997855336E+04  0.15621751864E+04  0.15294330000E+03 0.  0.
<mgrwt>
<rscale>  0 0.43707513E+03</rscale>
<asrwt>0</asrwt>
<pdfrwt beam="1">  1        2 0.25624323E+00 0.43707513E+03</pdfrwt>
<pdfrwt beam="2">  1       -2 0.59386510E-01 0.43707513E+03</pdfrwt>
<totfact> 0.29259869E+01</totfact>
</mgrwt>
</event>
<event>
 4    1  0.3365401E-008  0.2715536E+03  0.7818608E-02  0.1100394E+00
          2   -1    0    0  501    0  0.00000000000E+00  0.00000000000E+00  0.64028453962E+03  0.64028453962E+03  0.25500000000E-02 0. -1.
         -2   -1    0    0    0  501 -0.00000000000E+00 -0.00000000000E+00 -0.13842685191E+03  0.13842685193E+03  0.25500000000E-02 0.  1.
    8880022    1    1    2    0    0 -0.52446878280E+02 -0.21817201966E+03  0.91335446661E+02  0.28650221995E+03  0.15294330000E+03 0.  0.
    8880022    1    1    2    0    0  0.52446878280E+02  0.21817201966E+03  0.41052224105E+03  0.49220917161E+03  0.15294330000E+03 0.  0.
<mgrwt>
<rscale>  0 0.27155360E+03</rscale>
<asrwt>0</asrwt>
<pdfrwt beam="1">  1        2 0.98505311E-01 0.27155360E+03</pdfrwt>
<pdfrwt beam="2">  1       -2 0.21296439E-01 0.27155360E+03</pdfrwt>
<totfact> 0.88298864E+02</totfact>
</mgrwt>
</event>
<event>
 4    1  0.3365401E-008  0.6064149E+03  0.7818608E-02  0.9892186E-01
         -2   -1    0    0    0  501 -0.00000000000E+00  0.00000000000E+00  0.67107656400E+03  0.67107656400E+03  0.25500000000E-02 0.  1.
          2   -1    0    0  501    0  0.00000000000E+00 -0.00000000000E+00 -0.13618645859E+04  0.13618645859E+04  0.25500000000E-02 0. -1.
    8880022    1    1    2    0    0  0.20858146646E+03  0.54848983288E+03 -0.11311872512E+04  0.12834810382E+04  0.15294330000E+03 0.  0.
    8880022    1    1    2    0    0 -0.20858146646E+03 -0.54848983288E+03  0.44039922932E+03  0.74946011176E+03  0.15294330000E+03 0.  0.
<mgrwt>
<rscale>  0 0.60641486E+03</rscale>
<asrwt>0</asrwt>
<pdfrwt beam="1">  1        2 0.20951763E+00 0.60641486E+03</pdfrwt>
<pdfrwt beam="2">  1       -2 0.10324255E+00 0.60641486E+03</pdfrwt>
<totfact> 0.12153313E+01</totfact>
</mgrwt>
</event>
<event>
 4    1  0.3365401E-008  0.2645658E+03  0.7818608E-02  0.1104431E+00
          2   -1    0    0  501    0  0.00000000000E+00  0.00000000000E+00  0.15843281750E+04  0.15843281750E+04  0.25500000000E-02 0. -1.
         -2   -1    0    0    0  501 -0.00000000000E+00 -0.00000000000E+00 -0.71712157194E+02  0.71712157239E+02  0.25500000000E-02 0.  1.
    8880022    1    1    2    0    0 -0.87609642579E+02 -0.19730174457E+03  0.24324899920E+03  0.35939554325E+03  0.15294330000E+03 0.  0.
    8880022    1    1    2    0    0  0.87609642579E+02  0.19730174457E+03  0.12693670186E+04  0.12966447890E+04  0.15294330000E+03 0. -1.
<mgrwt>
<rscale>  0 0.26456583E+03</rscale>
<asrwt>0</asrwt>
<pdfrwt beam="1">  1        2 0.24374277E+00 0.26456583E+03</pdfrwt>
<pdfrwt beam="2">  1       -2 0.11032641E-01 0.26456583E+03</pdfrwt>
<totfact> 0.69919926E+02</totfact>
</mgrwt>
</event>
<event>
 4    1  0.3365401E-008  0.2041162E+03  0.7818608E-02  0.1146312E+00
          2   -1    0    0  501    0  0.00000000000E+00  0.00000000000E+00  0.20612127562E+04  0.20612127562E+04  0.25500000000E-02 0. -1.
         -2   -1    0    0    0  501 -0.00000000000E+00 -0.00000000000E+00 -0.14166973348E+03  0.14166973351E+03  0.25500000000E-02 0.  1.
    8880022    1    1    2    0    0 -0.82041617090E+02  0.10742886846E+03  0.19796148569E+04  0.19901101536E+04  0.15294330000E+03 0.  0.
    8880022    1    1    2    0    0  0.82041617090E+02 -0.10742886846E+03 -0.60071834241E+02  0.21277233607E+03  0.15294330000E+03 0.  1.
<mgrwt>
<rscale>  0 0.20411625E+03</rscale>
<asrwt>0</asrwt>
<pdfrwt beam="1">  1        2 0.31710962E+00 0.20411625E+03</pdfrwt>
<pdfrwt beam="2">  1       -2 0.21795346E-01 0.20411625E+03</pdfrwt>
<totfact> 0.12864085E+02</totfact>
</mgrwt>
</event>
<event>
 4    1  0.3365401E-008  0.1022404E+04  0.7818608E-02  0.9284308E-01
          2   -1    0    0  501    0  0.00000000000E+00  0.00000000000E+00  0.23428982281E+04  0.23428982281E+04  0.25500000000E-02 0. -1.
         -2   -1    0    0    0  501 -0.00000000000E+00 -0.00000000000E+00 -0.77194934519E+03  0.77194934519E+03  0.25500000000E-02 0.  1.
    8880022    1    1    2    0    0 -0.10074646995E+04  0.83263416390E+02 -0.22629193754E+03  0.10471473685E+04  0.15294330000E+03 0.  0.
    8880022    1    1    2    0    0  0.10074646995E+04 -0.83263416390E+02  0.17972408205E+04  0.20677002048E+04  0.15294330000E+03 0.  0.
<mgrwt>
<rscale>  0 0.10224038E+04</rscale>
<asrwt>0</asrwt>
<pdfrwt beam="1">  1        2 0.36044588E+00 0.10224038E+04</pdfrwt>
<pdfrwt beam="2">  1       -2 0.11876144E+00 0.10224038E+04</pdfrwt>
<totfact> 0.23380708E+00</totfact>
</mgrwt>
</event>
<event>
 4    1  0.3365401E-008  0.1418586E+04  0.7818608E-02  0.8940474E-01
          2   -1    0    0  501    0  0.00000000000E+00  0.00000000000E+00  0.19013588107E+04  0.19013588107E+04  0.25500000000E-02 0. -1.
         -2   -1    0    0    0  501 -0.00000000000E+00 -0.00000000000E+00 -0.15390149780E+04  0.15390149780E+04  0.25500000000E-02 0.  1.
    8880022    1    1    2    0    0  0.11359692985E+04  0.83580335759E+03 -0.78012146902E+03  0.16189424508E+04  0.15294330000E+03 0.  0.
    8880022    1    1    2    0    0 -0.11359692985E+04 -0.83580335759E+03  0.11424653017E+04  0.18214313378E+04  0.15294330000E+03 0.  0.
<mgrwt>
<rscale>  0 0.14185856E+04</rscale>
<asrwt>0</asrwt>
<pdfrwt beam="1">  1        2 0.29251674E+00 0.14185856E+04</pdfrwt>
<pdfrwt beam="2">  1       -2 0.23677154E+00 0.14185856E+04</pdfrwt>
<totfact> 0.55649642E-01</totfact>
</mgrwt>
</event>
<event>
 4    1  0.3365401E-008  0.4374679E+03  0.7818608E-02  0.1031527E+00
          2   -1    0    0  501    0  0.00000000000E+00  0.00000000000E+00  0.43877124360E+03  0.43877124361E+03  0.25500000000E-02 0. -1.
         -2   -1    0    0    0  501 -0.00000000000E+00 -0.00000000000E+00 -0.11672284023E+04  0.11672284023E+04  0.25500000000E-02 0.  1.
    8880022    1    1    2    0    0 -0.15426048020E+03 -0.37972391121E+03  0.27126915504E+03  0.51474765856E+03  0.15294330000E+03 0.  0.
    8880022    1    1    2    0    0  0.15426048020E+03  0.37972391121E+03 -0.99972631376E+03  0.10912519874E+04  0.15294330000E+03 0.  1.
<mgrwt>
<rscale>  0 0.43746794E+03</rscale>
<asrwt>0</asrwt>
<pdfrwt beam="1">  1        2 0.67503268E-01 0.43746794E+03</pdfrwt>
<pdfrwt beam="2">  1       -2 0.17957360E+00 0.43746794E+03</pdfrwt>
<totfact> 0.13803502E+01</totfact>
</mgrwt>
</event>
<event>
 4    1  0.3365401E-008  0.8091436E+03  0.7818608E-02  0.9546876E-01
         -2   -1    0    0    0  501 -0.00000000000E+00  0.00000000000E+00  0.79165988369E+03  0.79165988369E+03  0.25500000000E-02 0.  1.
          2   -1    0    0  501    0  0.00000000000E+00 -0.00000000000E+00 -0.37652925708E+04  0.37652925708E+04  0.25500000000E-02 0. -1.
    8880022    1    1    2    0    0 -0.15736627195E+03 -0.77881804816E+03 -0.34995748217E+04  0.35918988406E+04  0.15294330000E+03 0.  0.
    8880022    1    1    2    0    0  0.15736627195E+03  0.77881804816E+03  0.52594213458E+03  0.96505361386E+03  0.15294330000E+03 0.  0.
<mgrwt>
<rscale>  0 0.80914359E+03</rscale>
<asrwt>0</asrwt>
<pdfrwt beam="1">  1        2 0.57927577E+00 0.80914359E+03</pdfrwt>
<pdfrwt beam="2">  1       -2 0.12179383E+00 0.80914359E+03</pdfrwt>
<totfact> 0.28984795E-01</totfact>
</mgrwt>
</event>
<event>
 4    1  0.3365401E-008  0.5154464E+03  0.7818608E-02  0.1009824E+00
         -2   -1    0    0    0  501 -0.00000000000E+00  0.00000000000E+00  0.22865033574E+03  0.22865033575E+03  0.25500000000E-02 0.  1.
          2   -1    0    0  501    0  0.00000000000E+00 -0.00000000000E+00 -0.18110201658E+04  0.18110201658E+04  0.25500000000E-02 0. -1.
    8880022    1    1    2    0    0  0.47882518876E+03  0.11410423213E+03 -0.18065454060E+03  0.54618774541E+03  0.15294330000E+03 0.  0.
    8880022    1    1    2    0    0 -0.47882518876E+03 -0.11410423213E+03 -0.14017152894E+04  0.14934827561E+04  0.15294330000E+03 0.  0.
<mgrwt>
<rscale>  0 0.51544640E+03</rscale>
<asrwt>0</asrwt>
<pdfrwt beam="1">  1        2 0.27861848E+00 0.51544640E+03</pdfrwt>
<pdfrwt beam="2">  1       -2 0.35176976E-01 0.51544640E+03</pdfrwt>
<totfact> 0.68222010E+01</totfact>
</mgrwt>
</event>
<event>
 4    1  0.3365401E-008  0.5360034E+03  0.7818608E-02  0.1004787E+00
          2   -1    0    0  501    0  0.00000000000E+00  0.00000000000E+00  0.27150562065E+04  0.27150562065E+04  0.25500000000E-02 0. -1.
         -2   -1    0    0    0  501 -0.00000000000E+00 -0.00000000000E+00 -0.25327628450E+03  0.25327628451E+03  0.25500000000E-02 0.  1.
    8880022    1    1    2    0    0 -0.51258387929E+03 -0.34143506284E+02  0.98434728368E+02  0.54496702753E+03  0.15294330000E+03 0.  0.
    8880022    1    1    2    0    0  0.51258387929E+03  0.34143506284E+02  0.23633451936E+04  0.24233654634E+04  0.15294330000E+03 0.  0.
<mgrwt>
<rscale>  0 0.53600342E+03</rscale>
<asrwt>0</asrwt>
<pdfrwt beam="1">  1        2 0.41770095E+00 0.53600342E+03</pdfrwt>
<pdfrwt beam="2">  1       -2 0.38965582E-01 0.53600342E+03</pdfrwt>
<totfact> 0.17751408E+01</totfact>
</mgrwt>
</event>
<event>
 4    1  0.3365401E-008  0.7416285E+03  0.7818608E-02  0.9648576E-01
          2   -1    0    0  501    0  0.00000000000E+00  0.00000000000E+00  0.38528818789E+04  0.38528818789E+04  0.25500000000E-02 0. -1.
         -2   -1    0    0    0  501 -0.00000000000E+00 -0.00000000000E+00 -0.16703948495E+03  0.16703948497E+03  0.25500000000E-02 0.  1.
    8880022    1    1    2    0    0 -0.64900354325E+03  0.32467761279E+03  0.26093200590E+04  0.27126673174E+04  0.15294330000E+03 0.  0.
    8880022    1    1    2    0    0  0.64900354325E+03 -0.32467761279E+03  0.10765223349E+04  0.13072540464E+04  0.15294330000E+03 0.  0.
<mgrwt>
<rscale>  0 0.74162848E+03</rscale>
<asrwt>0</asrwt>
<pdfrwt beam="1">  1        2 0.59275100E+00 0.74162848E+03</pdfrwt>
<pdfrwt beam="2">  1       -2 0.25698385E-01 0.74162848E+03</pdfrwt>
<totfact> 0.66974315E+00</totfact>
</mgrwt>
</event>
<event>
 4    1  0.3365401E-008  0.2556767E+03  0.7818608E-02  0.1109769E+00
         -2   -1    0    0    0  501 -0.00000000000E+00  0.00000000000E+00  0.31555661676E+03  0.31555661677E+03  0.25500000000E-02 0.  1.
          2   -1    0    0  501    0  0.00000000000E+00 -0.00000000000E+00 -0.23216006516E+04  0.23216006516E+04  0.25500000000E-02 0. -1.
    8880022    1    1    2    0    0  0.20851733756E+02  0.20382380634E+03  0.25535293082E+03  0.36135261328E+03  0.15294330000E+03 0.  0.
    8880022    1    1    2    0    0 -0.20851733756E+02 -0.20382380634E+03 -0.22613969656E+04  0.22758046551E+04  0.15294330000E+03 0.  0.
<mgrwt>
<rscale>  0 0.25567673E+03</rscale>
<asrwt>0</asrwt>
<pdfrwt beam="1">  1        2 0.35716932E+00 0.25567673E+03</pdfrwt>
<pdfrwt beam="2">  1       -2 0.48547173E-01 0.25567673E+03</pdfrwt>
<totfact> 0.20876796E+01</totfact>
</mgrwt>
</event>
<event>
 4    1  0.3365401E-008  0.2372099E+03  0.7818608E-02  0.1121666E+00
         -2   -1    0    0    0  501 -0.00000000000E+00  0.00000000000E+00  0.68388159940E+03  0.68388159940E+03  0.25500000000E-02 0.  1.
          2   -1    0    0  501    0  0.00000000000E+00 -0.00000000000E+00 -0.53804336865E+03  0.53804336866E+03  0.25500000000E-02 0. -1.
    8880022    1    1    2    0    0  0.15721949932E+03  0.90326662950E+02 -0.48939175531E+03  0.54384999787E+03  0.15294330000E+03 0.  0.
    8880022    1    1    2    0    0 -0.15721949932E+03 -0.90326662950E+02  0.63522998605E+03  0.67807497019E+03  0.15294330000E+03 0.  1.
<mgrwt>
<rscale>  0 0.23720989E+03</rscale>
<asrwt>0</asrwt>
<pdfrwt beam="1">  1        2 0.82775903E-01 0.23720989E+03</pdfrwt>
<pdfrwt beam="2">  1       -2 0.10521255E+00 0.23720989E+03</pdfrwt>
<totfact> 0.44447934E+01</totfact>
</mgrwt>
</event>
<event>
 4    1  0.3365401E-008  0.6776024E+03  0.7818608E-02  0.9756321E-01
          2   -1    0    0  501    0  0.00000000000E+00  0.00000000000E+00  0.43432563149E+04  0.43432563149E+04  0.25500000000E-02 0. -1.
         -2   -1    0    0    0  501 -0.00000000000E+00 -0.00000000000E+00 -0.15839017113E+03  0.15839017115E+03  0.25500000000E-02 0.  1.
    8880022    1    1    2    0    0  0.61179000866E+03  0.24792420414E+03  0.79441002863E+03  0.10441419311E+04  0.15294330000E+03 0.  0.
    8880022    1    1    2    0    0 -0.61179000866E+03 -0.24792420414E+03  0.33904561151E+04  0.34575045549E+04  0.15294330000E+03 0.  0.
<mgrwt>
<rscale>  0 0.67760245E+03</rscale>
<asrwt>0</asrwt>
<pdfrwt beam="1">  1        2 0.66819331E+00 0.67760245E+03</pdfrwt>
<pdfrwt beam="2">  1       -2 0.24367718E-01 0.67760245E+03</pdfrwt>
<totfact> 0.29774483E+00</totfact>
</mgrwt>
</event>
<event>
 4    1  0.3779053E-008  0.6284227E+03  0.7818608E-02  0.9848132E-01
          2   -1    0    0  501    0  0.00000000000E+00  0.00000000000E+00  0.11528848033E+04  0.11528848033E+04  0.25500000000E-02 0. -1.
         -2   -1    0    0    0  501 -0.00000000000E+00 -0.00000000000E+00 -0.13231376362E+04  0.13231376362E+04  0.25500000000E-02 0.  1.
    8880022    1    1    2    0    0  0.60850498192E+03 -0.35285793162E+02  0.98065061924E+03  0.11647277322E+04  0.15294330000E+03 0.  0.
    8880022    1    1    2    0    0 -0.60850498192E+03  0.35285793162E+02 -0.11509034521E+04  0.13112947073E+04  0.15294330000E+03 0.  0.
<mgrwt>
<rscale>  0 0.62842267E+03</rscale>
<asrwt>0</asrwt>
<pdfrwt beam="1">  1        2 0.17736689E+00 0.62842267E+03</pdfrwt>
<pdfrwt beam="2">  1       -2 0.20355964E+00 0.62842267E+03</pdfrwt>
<totfact> 0.26736429E+00</totfact>
</mgrwt>
</event>
<event>
 4    1  0.3365401E-008  0.2869825E+03  0.7818608E-02  0.1091935E+00
          2   -1    0    0  501    0  0.00000000000E+00  0.00000000000E+00  0.20004009337E+04  0.20004009337E+04  0.25500000000E-02 0. -1.
         -2   -1    0    0    0  501 -0.00000000000E+00 -0.00000000000E+00 -0.18283014659E+03  0.18283014661E+03  0.25500000000E-02 0.  1.
    8880022    1    1    2    0    0 -0.79758860016E+02  0.22935959119E+03  0.18696623453E+04  0.18915592077E+04  0.15294330000E+03 0.  0.
    8880022    1    1    2    0    0  0.79758860016E+02 -0.22935959119E+03 -0.52091558181E+02  0.29167187260E+03  0.15294330000E+03 0.  1.
<mgrwt>
<rscale>  0 0.28698249E+03</rscale>
<asrwt>0</asrwt>
<pdfrwt beam="1">  1        2 0.30775397E+00 0.28698249E+03</pdfrwt>
<pdfrwt beam="2">  1       -2 0.28127717E-01 0.28698249E+03</pdfrwt>
<totfact> 0.85857628E+01</totfact>
</mgrwt>
</event>
<event>
 4    1  0.3365401E-008  0.6034697E+03  0.7818608E-02  0.9898234E-01
          2   -1    0    0  501    0  0.00000000000E+00  0.00000000000E+00  0.33242985696E+04  0.33242985696E+04  0.25500000000E-02 0. -1.
         -2   -1    0    0    0  501 -0.00000000000E+00 -0.00000000000E+00 -0.15768650895E+03  0.15768650897E+03  0.25500000000E-02 0.  1.
    8880022    1    1    2    0    0 -0.51026223557E+03  0.28357798034E+03  0.62138678833E+03  0.86619698321E+03  0.15294330000E+03 0.  0.
    8880022    1    1    2    0    0  0.51026223557E+03 -0.28357798034E+03  0.25452252723E+04  0.26157880953E+04  0.15294330000E+03 0.  0.
<mgrwt>
<rscale>  0 0.60346970E+03</rscale>
<asrwt>0</asrwt>
<pdfrwt beam="1">  1        2 0.51143051E+00 0.60346970E+03</pdfrwt>
<pdfrwt beam="2">  1       -2 0.24259465E-01 0.60346970E+03</pdfrwt>
<totfact> 0.17892310E+01</totfact>
</mgrwt>
</event>
<event>
 4    1  0.3365401E-008  0.3848015E+03  0.7818608E-02  0.1049173E+00
         -2   -1    0    0    0  501 -0.00000000000E+00  0.00000000000E+00  0.19274035550E+03  0.19274035552E+03  0.25500000000E-02 0.  1.
          2   -1    0    0  501    0  0.00000000000E+00 -0.00000000000E+00 -0.81390181456E+03  0.81390181457E+03  0.25500000000E-02 0. -1.
    8880022    1    1    2    0    0 -0.24819376261E+03 -0.25115810868E+03 -0.19137350040E+03  0.42976273573E+03  0.15294330000E+03 0.  0.
    8880022    1    1    2    0    0  0.24819376261E+03  0.25115810868E+03 -0.42978795867E+03  0.57687943435E+03  0.15294330000E+03 0.  0.
<mgrwt>
<rscale>  0 0.38480150E+03</rscale>
<asrwt>0</asrwt>
<pdfrwt beam="1">  1        2 0.12521566E+00 0.38480150E+03</pdfrwt>
<pdfrwt beam="2">  1       -2 0.29652363E-01 0.38480150E+03</pdfrwt>
<totfact> 0.36177396E+02</totfact>
</mgrwt>
</event>
<event>
 4    1  0.3365401E-008  0.8510683E+03  0.7818608E-02  0.9488904E-01
          2   -1    0    0  501    0  0.00000000000E+00  0.00000000000E+00  0.17752439385E+04  0.17752439385E+04  0.25500000000E-02 0. -1.
         -2   -1    0    0    0  501 -0.00000000000E+00 -0.00000000000E+00 -0.55519395384E+03  0.55519395384E+03  0.25500000000E-02 0.  1.
    8880022    1    1    2    0    0 -0.37754653930E+03  0.74725112902E+03  0.10074525536E+02  0.85112795057E+03  0.15294330000E+03 0.  0.
    8880022    1    1    2    0    0  0.37754653930E+03 -0.74725112902E+03  0.12099754592E+04  0.14793099418E+04  0.15294330000E+03 0.  0.
<mgrwt>
<rscale>  0 0.85106832E+03</rscale>
<asrwt>0</asrwt>
<pdfrwt beam="1">  1        2 0.27311445E+00 0.85106832E+03</pdfrwt>
<pdfrwt beam="2">  1       -2 0.85414454E-01 0.85106832E+03</pdfrwt>
<totfact> 0.10785714E+01</totfact>
</mgrwt>
</event>
<event>
 4    1  0.3365401E-008  0.2131477E+03  0.7818608E-02  0.1139097E+00
          2   -1    0    0  501    0  0.00000000000E+00  0.00000000000E+00  0.12810203277E+04  0.12810203277E+04  0.25500000000E-02 0. -1.
         -2   -1    0    0    0  501 -0.00000000000E+00 -0.00000000000E+00 -0.25996138915E+03  0.25996138917E+03  0.25500000000E-02 0.  1.
    8880022    1    1    2    0    0 -0.59375762712E+02  0.13606906123E+03 -0.20547764893E+03  0.29606247288E+03  0.15294330000E+03 0.  0.
    8880022    1    1    2    0    0  0.59375762712E+02 -0.13606906123E+03  0.12265365875E+04  0.12449192440E+04  0.15294330000E+03 0.  0.
<mgrwt>
<rscale>  0 0.21314766E+03</rscale>
<asrwt>0</asrwt>
<pdfrwt beam="1">  1        2 0.19708005E+00 0.21314766E+03</pdfrwt>
<pdfrwt beam="2">  1       -2 0.39994060E-01 0.21314766E+03</pdfrwt>
<totfact> 0.11010169E+02</totfact>
</mgrwt>
</event>
<event>
 4    1  0.3365401E-008  0.4587179E+03  0.7818608E-02  0.1025154E+00
          2   -1    0    0  501    0  0.00000000000E+00  0.00000000000E+00  0.16996209816E+04  0.16996209816E+04  0.25500000000E-02 0. -1.
         -2   -1    0    0    0  501 -0.00000000000E+00 -0.00000000000E+00 -0.26759914451E+03  0.26759914452E+03  0.25500000000E-02 0.  1.
    8880022    1    1    2    0    0  0.16980369305E+03  0.39774002642E+03  0.14370366423E+04  0.15084748547E+04  0.15294330000E+03 0.  0.
    8880022    1    1    2    0    0 -0.16980369305E+03 -0.39774002642E+03 -0.50148052344E+01  0.45874527145E+03  0.15294330000E+03 0.  0.
<mgrwt>
<rscale>  0 0.45871786E+03</rscale>
<asrwt>0</asrwt>
<pdfrwt beam="1">  1        2 0.26148015E+00 0.45871786E+03</pdfrwt>
<pdfrwt beam="2">  1       -2 0.41169100E-01 0.45871786E+03</pdfrwt>
<totfact> 0.58464455E+01</totfact>
</mgrwt>
</event>
<event>
 4    1  0.3365401E-008  0.6354766E+03  0.7818608E-02  0.9834419E-01
         -2   -1    0    0    0  501 -0.00000000000E+00  0.00000000000E+00  0.52897399453E+03  0.52897399454E+03  0.25500000000E-02 0.  1.
          2   -1    0    0  501    0  0.00000000000E+00 -0.00000000000E+00 -0.54306234816E+04  0.54306234816E+04  0.25500000000E-02 0. -1.
    8880022    1    1    2    0    0 -0.97306737068E+02  0.60907332494E+03  0.31159929089E+03  0.70776033185E+03  0.15294330000E+03 0.  0.
    8880022    1    1    2    0    0  0.97306737068E+02 -0.60907332494E+03 -0.52132487780E+04  0.52518371443E+04  0.15294330000E+03 0.  0.
<mgrwt>
<rscale>  0 0.63547665E+03</rscale>
<asrwt>0</asrwt>
<pdfrwt beam="1">  1        2 0.83548050E+00 0.63547665E+03</pdfrwt>
<pdfrwt beam="2">  1       -2 0.81380618E-01 0.63547665E+03</pdfrwt>
<totfact> 0.13712604E-02</totfact>
</mgrwt>
</event>
<event>
 4    1  0.3365401E-008  0.2113408E+03  0.7818608E-02  0.1140509E+00
         -2   -1    0    0    0  501 -0.00000000000E+00  0.00000000000E+00  0.94072549501E+03  0.94072549501E+03  0.25500000000E-02 0.  1.
          2   -1    0    0  501    0  0.00000000000E+00 -0.00000000000E+00 -0.68278884937E+02  0.68278884985E+02  0.25500000000E-02 0. -1.
    8880022    1    1    2    0    0 -0.11849221380E+03  0.85046420286E+02  0.71467353887E+03  0.74526721283E+03  0.15294330000E+03 0.  0.
    8880022    1    1    2    0    0  0.11849221380E+03 -0.85046420286E+02  0.15777307120E+03  0.26373716717E+03  0.15294330000E+03 0.  0.
<mgrwt>
<rscale>  0 0.21134084E+03</rscale>
<asrwt>0</asrwt>
<pdfrwt beam="1">  1        2 0.10504443E-01 0.21134084E+03</pdfrwt>
<pdfrwt beam="2">  1       -2 0.14472701E+00 0.21134084E+03</pdfrwt>
<totfact> 0.20969932E+02</totfact>
</mgrwt>
</event>
<event>
 4    1  0.3365401E-008  0.4880091E+03  0.7818608E-02  0.1016957E+00
          2   -1    0    0  501    0  0.00000000000E+00  0.00000000000E+00  0.13482505910E+04  0.13482505910E+04  0.25500000000E-02 0. -1.
         -2   -1    0    0    0  501 -0.00000000000E+00 -0.00000000000E+00 -0.19274917980E+03  0.19274917982E+03  0.25500000000E-02 0.  1.
    8880022    1    1    2    0    0 -0.15014285706E+03 -0.43842711630E+03  0.80050915890E+03  0.93753281560E+03  0.15294330000E+03 0.  0.
    8880022    1    1    2    0    0  0.15014285706E+03  0.43842711630E+03  0.35499225228E+03  0.60346695521E+03  0.15294330000E+03 0.  0.
<mgrwt>
<rscale>  0 0.48800908E+03</rscale>
<asrwt>0</asrwt>
<pdfrwt beam="1">  1        2 0.20742316E+00 0.48800908E+03</pdfrwt>
<pdfrwt beam="2">  1       -2 0.29653722E-01 0.48800908E+03</pdfrwt>
<totfact> 0.16859179E+02</totfact>
</mgrwt>
</event>
<event>
 4    1  0.3365401E-008  0.9037056E+03  0.7818608E-02  0.9420961E-01
          2   -1    0    0  501    0  0.00000000000E+00  0.00000000000E+00  0.61745421483E+03  0.61745421484E+03  0.25500000000E-02 0. -1.
         -2   -1    0    0    0  501 -0.00000000000E+00 -0.00000000000E+00 -0.17984053828E+04  0.17984053828E+04  0.25500000000E-02 0.  1.
    8880022    1    1    2    0    0 -0.55426567156E+03  0.69719563033E+03 -0.12117505111E+04  0.15116292984E+04  0.15294330000E+03 0.  0.
    8880022    1    1    2    0    0  0.55426567156E+03 -0.69719563033E+03  0.30799343055E+02  0.90423029930E+03  0.15294330000E+03 0.  0.
<mgrwt>
<rscale>  0 0.90370561E+03</rscale>
<asrwt>0</asrwt>
<pdfrwt beam="1">  1        2 0.94992957E-01 0.90370561E+03</pdfrwt>
<pdfrwt beam="2">  1       -2 0.27667775E+00 0.90370561E+03</pdfrwt>
<totfact> 0.21434386E+00</totfact>
</mgrwt>
</event>
<event>
 4    1  0.3365401E-008  0.4351407E+03  0.7818608E-02  0.1032248E+00
          2   -1    0    0  501    0  0.00000000000E+00  0.00000000000E+00  0.19124818048E+04  0.19124818048E+04  0.25500000000E-02 0. -1.
         -2   -1    0    0    0  501 -0.00000000000E+00 -0.00000000000E+00 -0.47804872475E+03  0.47804872475E+03  0.25500000000E-02 0.  1.
    8880022    1    1    2    0    0 -0.34436493113E+03  0.21764327440E+03 -0.34710344119E+03  0.55662218118E+03  0.15294330000E+03 0.  0.
    8880022    1    1    2    0    0  0.34436493113E+03 -0.21764327440E+03  0.17815365213E+04  0.18339083484E+04  0.15294330000E+03 0.  0.
<mgrwt>
<rscale>  0 0.43514073E+03</rscale>
<asrwt>0</asrwt>
<pdfrwt beam="1">  1        2 0.29422796E+00 0.43514073E+03</pdfrwt>
<pdfrwt beam="2">  1       -2 0.73545959E-01 0.43514073E+03</pdfrwt>
<totfact> 0.13663554E+01</totfact>
</mgrwt>
</event>
<event>
 4    1  0.3365401E-008  0.7092127E+03  0.7818608E-02  0.9701606E-01
          2   -1    0    0  501    0  0.00000000000E+00  0.00000000000E+00  0.61717693366E+03  0.61717693367E+03  0.25500000000E-02 0. -1.
         -2   -1    0    0    0  501 -0.00000000000E+00 -0.00000000000E+00 -0.92865997371E+03  0.92865997371E+03  0.25500000000E-02 0.  1.
    8880022    1    1    2    0    0  0.48789017036E+03  0.49148158839E+03 -0.42617496451E+03  0.82741025099E+03  0.15294330000E+03 0.  1.
    8880022    1    1    2    0    0 -0.48789017036E+03 -0.49148158839E+03  0.11469192447E+03  0.71842665639E+03  0.15294330000E+03 0.  0.
<mgrwt>
<rscale>  0 0.70921268E+03</rscale>
<asrwt>0</asrwt>
<pdfrwt beam="1">  1        2 0.94950298E-01 0.70921268E+03</pdfrwt>
<pdfrwt beam="2">  1       -2 0.14287076E+00 0.70921268E+03</pdfrwt>
<totfact> 0.16620177E+01</totfact>
</mgrwt>
</event>
<event>
 4    1  0.3365401E-008  0.3783572E+03  0.7818608E-02  0.1051543E+00
          2   -1    0    0  501    0  0.00000000000E+00  0.00000000000E+00  0.11334487874E+04  0.11334487874E+04  0.25500000000E-02 0. -1.
         -2   -1    0    0    0  501 -0.00000000000E+00 -0.00000000000E+00 -0.19671295563E+03  0.19671295564E+03  0.25500000000E-02 0.  1.
    8880022    1    1    2    0    0  0.12072910898E+03  0.32432547850E+03  0.86627835916E+03  0.94530015462E+03  0.15294330000E+03 0. -1.
    8880022    1    1    2    0    0 -0.12072910898E+03 -0.32432547850E+03  0.70457472575E+02  0.38486158839E+03  0.15294330000E+03 0.  0.
<mgrwt>
<rscale>  0 0.37835722E+03</rscale>
<asrwt>0</asrwt>
<pdfrwt beam="1">  1        2 0.17437674E+00 0.37835722E+03</pdfrwt>
<pdfrwt beam="2">  1       -2 0.30263532E-01 0.37835722E+03</pdfrwt>
<totfact> 0.21853862E+02</totfact>
</mgrwt>
</event>
<event>
 4    1  0.3365401E-008  0.4482918E+03  0.7818608E-02  0.1028233E+00
          2   -1    0    0  501    0  0.00000000000E+00  0.00000000000E+00  0.25342296977E+04  0.25342296977E+04  0.25500000000E-02 0. -1.
         -2   -1    0    0    0  501 -0.00000000000E+00 -0.00000000000E+00 -0.28542135733E+03  0.28542135734E+03  0.25500000000E-02 0.  1.
    8880022    1    1    2    0    0 -0.32161878511E+02  0.42016606336E+03 -0.73668488534E+02  0.45430453052E+03  0.15294330000E+03 0.  0.
    8880022    1    1    2    0    0  0.32161878511E+02 -0.42016606336E+03  0.23224768289E+04  0.23653465245E+04  0.15294330000E+03 0.  0.
<mgrwt>
<rscale>  0 0.44829182E+03</rscale>
<asrwt>0</asrwt>
<pdfrwt beam="1">  1        2 0.38988150E+00 0.44829182E+03</pdfrwt>
<pdfrwt beam="2">  1       -2 0.43910977E-01 0.44829182E+03</pdfrwt>
<totfact> 0.18211244E+01</totfact>
</mgrwt>
</event>
<event>
 4    1  0.3365401E-008  0.4312033E+03  0.7818608E-02  0.1033481E+00
          2   -1    0    0  501    0  0.00000000000E+00  0.00000000000E+00  0.28087417383E+04  0.28087417383E+04  0.25500000000E-02 0. -1.
         -2   -1    0    0    0  501 -0.00000000000E+00 -0.00000000000E+00 -0.13651081027E+03  0.13651081030E+03  0.25500000000E-02 0.  1.
    8880022    1    1    2    0    0 -0.39785443872E+03  0.65241719568E+02  0.27924264676E+03  0.51372438638E+03  0.15294330000E+03 0.  0.
    8880022    1    1    2    0    0  0.39785443872E+03 -0.65241719568E+02  0.23929882813E+04  0.24315281623E+04  0.15294330000E+03 0.  0.
<mgrwt>
<rscale>  0 0.43120330E+03</rscale>
<asrwt>0</asrwt>
<pdfrwt beam="1">  1        2 0.43211410E+00 0.43120330E+03</pdfrwt>
<pdfrwt beam="2">  1       -2 0.21001664E-01 0.43120330E+03</pdfrwt>
<totfact> 0.49823225E+01</totfact>
</mgrwt>
</event>
<event>
 4    1  0.3365401E-008  0.2884814E+03  0.7818608E-02  0.1091145E+00
          2   -1    0    0  501    0  0.00000000000E+00  0.00000000000E+00  0.50653477710E+03  0.50653477711E+03  0.25500000000E-02 0. -1.
         -2   -1    0    0    0  501 -0.00000000000E+00 -0.00000000000E+00 -0.25110606007E+03  0.25110606009E+03  0.25500000000E-02 0.  1.
    8880022    1    1    2    0    0 -0.22442639033E+03 -0.97276060217E+02  0.35045042345E+03  0.45391297500E+03  0.15294330000E+03 0. -1.
    8880022    1    1    2    0    0  0.22442639033E+03  0.97276060217E+02 -0.95021706421E+02  0.30372786219E+03  0.15294330000E+03 0.  0.
<mgrwt>
<rscale>  0 0.28848135E+03</rscale>
<asrwt>0</asrwt>
<pdfrwt beam="1">  1        2 0.77928426E-01 0.28848135E+03</pdfrwt>
<pdfrwt beam="2">  1       -2 0.38631702E-01 0.28848135E+03</pdfrwt>
<totfact> 0.39292033E+02</totfact>
</mgrwt>
</event>
<event>
 4    1  0.3365401E-008  0.6114041E+03  0.7818608E-02  0.9882025E-01
          2   -1    0    0  501    0  0.00000000000E+00  0.00000000000E+00  0.84529938931E+03  0.84529938932E+03  0.25500000000E-02 0. -1.
         -2   -1    0    0    0  501 -0.00000000000E+00 -0.00000000000E+00 -0.54859323498E+03  0.54859323498E+03  0.25500000000E-02 0.  1.
    8880022    1    1    2    0    0 -0.13257730081E+03  0.57692854854E+03 -0.15853091067E+03  0.63162250867E+03  0.15294330000E+03 0.  0.
    8880022    1    1    2    0    0  0.13257730081E+03 -0.57692854854E+03  0.45523706500E+03  0.76227011563E+03  0.15294330000E+03 0.  0.
<mgrwt>
<rscale>  0 0.61140408E+03</rscale>
<asrwt>0</asrwt>
<pdfrwt beam="1">  1        2 0.13004606E+00 0.61140408E+03</pdfrwt>
<pdfrwt beam="2">  1       -2 0.84398960E-01 0.61140408E+03</pdfrwt>
<totfact> 0.40243050E+01</totfact>
</mgrwt>
</event>
<event>
 4    1  0.3365401E-008  0.5161192E+03  0.7818608E-02  0.1009655E+00
          2   -1    0    0  501    0  0.00000000000E+00  0.00000000000E+00  0.28752185561E+04  0.28752185561E+04  0.25500000000E-02 0. -1.
         -2   -1    0    0    0  501 -0.00000000000E+00 -0.00000000000E+00 -0.23639210263E+03  0.23639210264E+03  0.25500000000E-02 0.  1.
    8880022    1    1    2    0    0 -0.47950909599E+03  0.11427350095E+03  0.10620319630E+03  0.52693280224E+03  0.15294330000E+03 0.  0.
    8880022    1    1    2    0    0  0.47950909599E+03 -0.11427350095E+03  0.25326232572E+04  0.25846778565E+04  0.15294330000E+03 0.  0.
<mgrwt>
<rscale>  0 0.51611923E+03</rscale>
<asrwt>0</asrwt>
<pdfrwt beam="1">  1        2 0.44234130E+00 0.51611923E+03</pdfrwt>
<pdfrwt beam="2">  1       -2 0.36368017E-01 0.51611923E+03</pdfrwt>
<totfact> 0.16411521E+01</totfact>
</mgrwt>
</event>
<event>
 4    1  0.3365401E-008  0.7572267E+03  0.7818608E-02  0.9624081E-01
          2   -1    0    0  501    0  0.00000000000E+00  0.00000000000E+00  0.11922973632E+04  0.11922973632E+04  0.25500000000E-02 0. -1.
         -2   -1    0    0    0  501 -0.00000000000E+00 -0.00000000000E+00 -0.77662201595E+03  0.77662201596E+03  0.25500000000E-02 0.  1.
    8880022    1    1    2    0    0  0.65714811321E+03  0.34373959918E+03 -0.39963229686E+03  0.85621152787E+03  0.15294330000E+03 0.  0.
    8880022    1    1    2    0    0 -0.65714811321E+03 -0.34373959918E+03  0.81530764406E+03  0.11127078512E+04  0.15294330000E+03 0.  0.
<mgrwt>
<rscale>  0 0.75722666E+03</rscale>
<asrwt>0</asrwt>
<pdfrwt beam="1">  1        2 0.18343036E+00 0.75722666E+03</pdfrwt>
<pdfrwt beam="2">  1       -2 0.11948031E+00 0.75722666E+03</pdfrwt>
<totfact> 0.10467956E+01</totfact>
</mgrwt>
</event>
<event>
 4    1  0.3365401E-008  0.2605936E+03  0.7818608E-02  0.1106787E+00
         -2   -1    0    0    0  501 -0.00000000000E+00  0.00000000000E+00  0.66039462825E+02  0.66039462875E+02  0.25500000000E-02 0.  1.
          2   -1    0    0  501    0  0.00000000000E+00 -0.00000000000E+00 -0.10750330269E+04  0.10750330269E+04  0.25500000000E-02 0. -1.
    8880022    1    1    2    0    0 -0.10656876122E+03  0.18210015399E+03 -0.62343987676E+03  0.67571169881E+03  0.15294330000E+03 0.  0.
    8880022    1    1    2    0    0  0.10656876122E+03 -0.18210015399E+03 -0.38555368728E+03  0.46536079094E+03  0.15294330000E+03 0.  0.
<mgrwt>
<rscale>  0 0.26059359E+03</rscale>
<asrwt>0</asrwt>
<pdfrwt beam="1">  1        2 0.16538968E+00 0.26059359E+03</pdfrwt>
<pdfrwt beam="2">  1       -2 0.10159918E-01 0.26059359E+03</pdfrwt>
<totfact> 0.15298373E+03</totfact>
</mgrwt>
</event>
<event>
 4    1  0.3365401E-008  0.9515408E+03  0.7818608E-02  0.9363351E-01
          2   -1    0    0  501    0  0.00000000000E+00  0.00000000000E+00  0.19872724713E+04  0.19872724713E+04  0.25500000000E-02 0. -1.
         -2   -1    0    0    0  501 -0.00000000000E+00 -0.00000000000E+00 -0.66445433907E+03  0.66445433908E+03  0.25500000000E-02 0.  1.
    8880022    1    1    2    0    0  0.92780704585E+03  0.14564438108E+03  0.14047243198E+04  0.16966674004E+04  0.15294330000E+03 0.  0.
    8880022    1    1    2    0    0 -0.92780704585E+03 -0.14564438108E+03 -0.81906187502E+02  0.95505941000E+03  0.15294330000E+03 0.  0.
<mgrwt>
<rscale>  0 0.95154078E+03</rscale>
<asrwt>0</asrwt>
<pdfrwt beam="1">  1        2 0.30573423E+00 0.95154078E+03</pdfrwt>
<pdfrwt beam="2">  1       -2 0.10222374E+00 0.95154078E+03</pdfrwt>
<totfact> 0.53560123E+00</totfact>
</mgrwt>
</event>
<event>
 4    1  0.3365401E-008  0.3592927E+03  0.7818608E-02  0.1058864E+00
         -2   -1    0    0    0  501 -0.00000000000E+00  0.00000000000E+00  0.16440092777E+03  0.16440092779E+03  0.25500000000E-02 0.  1.
          2   -1    0    0  501    0  0.00000000000E+00 -0.00000000000E+00 -0.23742978538E+04  0.23742978538E+04  0.25500000000E-02 0. -1.
    8880022    1    1    2    0    0  0.94703673198E+01 -0.32497674365E+03 -0.66497738509E+02  0.36539454568E+03  0.15294330000E+03 0.  1.
    8880022    1    1    2    0    0 -0.94703673198E+01  0.32497674365E+03 -0.21433991875E+04  0.21733042359E+04  0.15294330000E+03 0.  0.
<mgrwt>
<rscale>  0 0.35929267E+03</rscale>
<asrwt>0</asrwt>
<pdfrwt beam="1">  1        2 0.36527657E+00 0.35929267E+03</pdfrwt>
<pdfrwt beam="2">  1       -2 0.25292452E-01 0.35929267E+03</pdfrwt>
<totfact> 0.64202022E+01</totfact>
</mgrwt>
</event>
<event>
 4    1  0.3365401E-008  0.1231563E+04  0.7818608E-02  0.9085669E-01
         -2   -1    0    0    0  501 -0.00000000000E+00  0.00000000000E+00  0.18232100223E+04  0.18232100223E+04  0.25500000000E-02 0.  1.
          2   -1    0    0  501    0  0.00000000000E+00 -0.00000000000E+00 -0.25199839092E+04  0.25199839092E+04  0.25500000000E-02 0. -1.
    8880022    1    1    2    0    0  0.56353237747E+03 -0.10843372654E+04 -0.21257493786E+04  0.24567372915E+04  0.15294330000E+03 0.  0.
    8880022    1    1    2    0    0 -0.56353237747E+03  0.10843372654E+04  0.14289754917E+04  0.18864566400E+04  0.15294330000E+03 0.  0.
<mgrwt>
<rscale>  0 0.12315631E+04</rscale>
<asrwt>0</asrwt>
<pdfrwt beam="1">  1        2 0.38768983E+00 0.12315631E+04</pdfrwt>
<pdfrwt beam="2">  1       -2 0.28049385E+00 0.12315631E+04</pdfrwt>
<totfact> 0.13817911E-01</totfact>
</mgrwt>
</event>
<event>
 4    1  0.3365401E-008  0.5569741E+03  0.7818608E-02  0.9998925E-01
          2   -1    0    0  501    0  0.00000000000E+00  0.00000000000E+00  0.75463088688E+03  0.75463088688E+03  0.25500000000E-02 0. -1.
         -2   -1    0    0    0  501 -0.00000000000E+00 -0.00000000000E+00 -0.29635321788E+04  0.29635321788E+04  0.25500000000E-02 0.  1.
    8880022    1    1    2    0    0  0.50459278843E+03 -0.17948440589E+03 -0.28297787037E+04  0.28840713755E+04  0.15294330000E+03 0.  0.
    8880022    1    1    2    0    0 -0.50459278843E+03  0.17948440589E+03  0.62087741180E+03  0.83409169016E+03  0.15294330000E+03 0.  0.
<mgrwt>
<rscale>  0 0.55697414E+03</rscale>
<asrwt>0</asrwt>
<pdfrwt beam="1">  1        2 0.11609706E+00 0.55697414E+03</pdfrwt>
<pdfrwt beam="2">  1       -2 0.45592802E+00 0.55697414E+03</pdfrwt>
<totfact> 0.13272894E-01</totfact>
</mgrwt>
</event>
<event>
 4    1  0.3933703E-008  0.9598417E+03  0.7818608E-02  0.9353721E-01
          2   -1    0    0  501    0  0.00000000000E+00  0.00000000000E+00  0.16717561636E+04  0.16717561636E+04  0.25500000000E-02 0. -1.
         -2   -1    0    0    0  501 -0.00000000000E+00 -0.00000000000E+00 -0.15500958410E+04  0.15500958410E+04  0.25500000000E-02 0.  1.
    8880022    1    1    2    0    0 -0.45036050654E+03  0.83371452421E+03 -0.12324103009E+04  0.15620919616E+04  0.15294330000E+03 0.  0.
    8880022    1    1    2    0    0  0.45036050654E+03 -0.83371452421E+03  0.13540706235E+04  0.16597600429E+04  0.15294330000E+03 0.  0.
<mgrwt>
<rscale>  0 0.95984173E+03</rscale>
<asrwt>0</asrwt>
<pdfrwt beam="1">  1        2 0.25719326E+00 0.95984173E+03</pdfrwt>
<pdfrwt beam="2">  1       -2 0.23847628E+00 0.95984173E+03</pdfrwt>
<totfact> 0.77331673E-01</totfact>
</mgrwt>
</event>
<event>
 4    1  0.3365401E-008  0.4713057E+03  0.7818608E-02  0.1021552E+00
          2   -1    0    0  501    0  0.00000000000E+00  0.00000000000E+00  0.11876705311E+04  0.11876705311E+04  0.25500000000E-02 0. -1.
         -2   -1    0    0    0  501 -0.00000000000E+00 -0.00000000000E+00 -0.25819796229E+03  0.25819796231E+03  0.25500000000E-02 0.  1.
    8880022    1    1    2    0    0 -0.44495643955E+03 -0.27408147119E+02  0.85187993745E+02  0.47894267602E+03  0.15294330000E+03 0.  0.
    8880022    1    1    2    0    0  0.44495643955E+03  0.27408147119E+02  0.84428457507E+03  0.96692581739E+03  0.15294330000E+03 0.  0.
<mgrwt>
<rscale>  0 0.47130573E+03</rscale>
<asrwt>0</asrwt>
<pdfrwt beam="1">  1        2 0.18271854E+00 0.47130573E+03</pdfrwt>
<pdfrwt beam="2">  1       -2 0.39722764E-01 0.47130573E+03</pdfrwt>
<totfact> 0.12030992E+02</totfact>
</mgrwt>
</event>
<event>
 4    1  0.3365401E-008  0.2571743E+03  0.7818608E-02  0.1108853E+00
          2   -1    0    0  501    0  0.00000000000E+00  0.00000000000E+00  0.96593311908E+03  0.96593311909E+03  0.25500000000E-02 0. -1.
         -2   -1    0    0    0  501 -0.00000000000E+00 -0.00000000000E+00 -0.72572942390E+03  0.72572942390E+03  0.25500000000E-02 0.  1.
    8880022    1    1    2    0    0 -0.48506481577E+02  0.20098277462E+03 -0.68483977281E+03  0.73153545497E+03  0.15294330000E+03 0.  1.
    8880022    1    1    2    0    0  0.48506481577E+02 -0.20098277462E+03  0.92504346799E+03  0.96012708801E+03  0.15294330000E+03 0.  0.
<mgrwt>
<rscale>  0 0.25717427E+03</rscale>
<asrwt>0</asrwt>
<pdfrwt beam="1">  1        2 0.14860510E+00 0.25717427E+03</pdfrwt>
<pdfrwt beam="2">  1       -2 0.11165068E+00 0.25717427E+03</pdfrwt>
<totfact> 0.18605700E+01</totfact>
</mgrwt>
</event>
<event>
 4    1  0.3365401E-008  0.3783557E+03  0.7818608E-02  0.1051543E+00
          2   -1    0    0  501    0  0.00000000000E+00  0.00000000000E+00  0.61280704405E+03  0.61280704405E+03  0.25500000000E-02 0. -1.
         -2   -1    0    0    0  501 -0.00000000000E+00 -0.00000000000E+00 -0.27837108931E+03  0.27837108932E+03  0.25500000000E-02 0.  1.
    8880022    1    1    2    0    0  0.23951755787E+03  0.24978531386E+03 -0.11476476545E+02  0.37852968982E+03  0.15294330000E+03 0.  0.
    8880022    1    1    2    0    0 -0.23951755787E+03 -0.24978531386E+03  0.34591243128E+03  0.51264844356E+03  0.15294330000E+03 0.  0.
<mgrwt>
<rscale>  0 0.37835567E+03</rscale>
<asrwt>0</asrwt>
<pdfrwt beam="1">  1        2 0.94278007E-01 0.37835567E+03</pdfrwt>
<pdfrwt beam="2">  1       -2 0.42826321E-01 0.37835567E+03</pdfrwt>
<totfact> 0.25691298E+02</totfact>
</mgrwt>
</event>
<event>
 4    1  0.3365401E-008  0.3797132E+03  0.7818608E-02  0.1051040E+00
         -2   -1    0    0    0  501 -0.00000000000E+00  0.00000000000E+00  0.68816878534E+03  0.68816878534E+03  0.25500000000E-02 0.  1.
          2   -1    0    0  501    0  0.00000000000E+00 -0.00000000000E+00 -0.11592179202E+04  0.11592179202E+04  0.25500000000E-02 0. -1.
    8880022    1    1    2    0    0 -0.13501331511E+03 -0.32025276591E+03 -0.10715876157E+04  0.11368738279E+04  0.15294330000E+03 0.  0.
    8880022    1    1    2    0    0  0.13501331511E+03  0.32025276591E+03  0.60053848086E+03  0.71051287767E+03  0.15294330000E+03 0.  0.
<mgrwt>
<rscale>  0 0.37971316E+03</rscale>
<asrwt>0</asrwt>
<pdfrwt beam="1">  1        2 0.17834122E+00 0.37971316E+03</pdfrwt>
<pdfrwt beam="2">  1       -2 0.10587212E+00 0.37971316E+03</pdfrwt>
<totfact> 0.15624682E+01</totfact>
</mgrwt>
</event>
<event>
 4    1  0.3365401E-008  0.1786071E+03  0.7818608E-02  0.1169158E+00
          2   -1    0    0  501    0  0.00000000000E+00  0.00000000000E+00  0.12909850222E+04  0.12909850222E+04  0.25500000000E-02 0. -1.
         -2   -1    0    0    0  501 -0.00000000000E+00 -0.00000000000E+00 -0.27491091581E+03  0.27491091582E+03  0.25500000000E-02 0.  1.
    8880022    1    1    2    0    0 -0.82151847174E+02  0.41951454169E+02 -0.23889514290E+03  0.29828072820E+03  0.15294330000E+03 0.  0.
    8880022    1    1    2    0    0  0.82151847174E+02 -0.41951454169E+02  0.12549692493E+04  0.12676152098E+04  0.15294330000E+03 0.  0.
<mgrwt>
<rscale>  0 0.17860712E+03</rscale>
<asrwt>0</asrwt>
<pdfrwt beam="1">  1        2 0.19861308E+00 0.17860712E+03</pdfrwt>
<pdfrwt beam="2">  1       -2 0.42293987E-01 0.17860712E+03</pdfrwt>
<totfact> 0.98740376E+01</totfact>
</mgrwt>
</event>
<event>
 4    1  0.3365401E-008  0.1213593E+04  0.7818608E-02  0.9101041E-01
         -2   -1    0    0    0  501 -0.00000000000E+00  0.00000000000E+00  0.86115810022E+03  0.86115810022E+03  0.25500000000E-02 0.  1.
          2   -1    0    0  501    0  0.00000000000E+00 -0.00000000000E+00 -0.24930374632E+04  0.24930374632E+04  0.25500000000E-02 0. -1.
    8880022    1    1    2    0    0  0.10067002732E+04  0.66028047966E+03  0.12380986195E+03  0.12198919160E+04  0.15294330000E+03 0.  0.
    8880022    1    1    2    0    0 -0.10067002732E+04 -0.66028047966E+03 -0.17556892249E+04  0.21343036474E+04  0.15294330000E+03 0.  0.
<mgrwt>
<rscale>  0 0.12135928E+04</rscale>
<asrwt>0</asrwt>
<pdfrwt beam="1">  1        2 0.38354422E+00 0.12135928E+04</pdfrwt>
<pdfrwt beam="2">  1       -2 0.13248586E+00 0.12135928E+04</pdfrwt>
<totfact> 0.14217588E+00</totfact>
</mgrwt>
</event>
<event>
 4    1  0.3365401E-008  0.3566484E+03  0.7818608E-02  0.1059919E+00
         -2   -1    0    0    0  501 -0.00000000000E+00  0.00000000000E+00  0.36731277498E+03  0.36731277499E+03  0.25500000000E-02 0.  1.
          2   -1    0    0  501    0  0.00000000000E+00 -0.00000000000E+00 -0.60787845909E+03  0.60787845910E+03  0.25500000000E-02 0. -1.
    8880022    1    1    2    0    0  0.19749358496E+03  0.25456376383E+03 -0.44014118417E+03  0.56650008029E+03  0.15294330000E+03 0.  0.
    8880022    1    1    2    0    0 -0.19749358496E+03 -0.25456376383E+03  0.19957550005E+03  0.40869115379E+03  0.15294330000E+03 0.  0.
<mgrwt>
<rscale>  0 0.35664840E+03</rscale>
<asrwt>0</asrwt>
<pdfrwt beam="1">  1        2 0.93519763E-01 0.35664840E+03</pdfrwt>
<pdfrwt beam="2">  1       -2 0.56509658E-01 0.35664840E+03</pdfrwt>
<totfact> 0.14896018E+02</totfact>
</mgrwt>
</event>
<event>
 4    1  0.3365401E-008  0.4527487E+03  0.7818608E-02  0.1026906E+00
         -2   -1    0    0    0  501 -0.00000000000E+00  0.00000000000E+00  0.79360364922E+03  0.79360364923E+03  0.25500000000E-02 0.  1.
          2   -1    0    0  501    0  0.00000000000E+00 -0.00000000000E+00 -0.16664126618E+04  0.16664126618E+04  0.25500000000E-02 0. -1.
    8880022    1    1    2    0    0 -0.46346516563E+02  0.42360561236E+03  0.69426757543E+03  0.82884789541E+03  0.15294330000E+03 0.  0.
    8880022    1    1    2    0    0  0.46346516563E+02 -0.42360561236E+03 -0.15670765880E+04  0.16311684156E+04  0.15294330000E+03 0. -1.
<mgrwt>
<rscale>  0 0.45274868E+03</rscale>
<asrwt>0</asrwt>
<pdfrwt beam="1">  1        2 0.25637118E+00 0.45274868E+03</pdfrwt>
<pdfrwt beam="2">  1       -2 0.12209287E+00 0.45274868E+03</pdfrwt>
<totfact> 0.56817992E+00</totfact>
</mgrwt>
</event>
<event>
 4    1  0.3365401E-008  0.3093519E+03  0.7818608E-02  0.1080657E+00
          2   -1    0    0  501    0  0.00000000000E+00  0.00000000000E+00  0.32012553180E+03  0.32012553181E+03  0.25500000000E-02 0. -1.
         -2   -1    0    0    0  501 -0.00000000000E+00 -0.00000000000E+00 -0.43837768188E+03  0.43837768189E+03  0.25500000000E-02 0.  1.
    8880022    1    1    2    0    0  0.20989206489E+03 -0.16808407865E+03  0.15476467805E+03  0.34590561572E+03  0.15294330000E+03 0.  0.
    8880022    1    1    2    0    0 -0.20989206489E+03  0.16808407865E+03 -0.27301682812E+03  0.41259759798E+03  0.15294330000E+03 0.  0.
<mgrwt>
<rscale>  0 0.30935189E+03</rscale>
<asrwt>0</asrwt>
<pdfrwt beam="1">  1        2 0.49250082E-01 0.30935189E+03</pdfrwt>
<pdfrwt beam="2">  1       -2 0.67442720E-01 0.30935189E+03</pdfrwt>
<totfact> 0.21154473E+02</totfact>
</mgrwt>
</event>
<event>
 4    1  0.3365401E-008  0.7671129E+03  0.7818608E-02  0.9608879E-01
          2   -1    0    0  501    0  0.00000000000E+00  0.00000000000E+00  0.22080464741E+04  0.22080464741E+04  0.25500000000E-02 0. -1.
         -2   -1    0    0    0  501 -0.00000000000E+00 -0.00000000000E+00 -0.95001210365E+03  0.95001210365E+03  0.25500000000E-02 0.  1.
    8880022    1    1    2    0    0  0.74651267798E+03  0.88257100977E+02 -0.71033924039E+03  0.10454874383E+04  0.15294330000E+03 0.  0.
    8880022    1    1    2    0    0 -0.74651267798E+03 -0.88257100977E+02  0.19683736108E+04  0.21125711394E+04  0.15294330000E+03 0.  0.
<mgrwt>
<rscale>  0 0.76711286E+03</rscale>
<asrwt>0</asrwt>
<pdfrwt beam="1">  1        2 0.33969946E+00 0.76711286E+03</pdfrwt>
<pdfrwt beam="2">  1       -2 0.14615571E+00 0.76711286E+03</pdfrwt>
<totfact> 0.17053800E+00</totfact>
</mgrwt>
</event>
<event>
 4    1  0.3365401E-008  0.4802889E+03  0.7818608E-02  0.1019056E+00
          2   -1    0    0  501    0  0.00000000000E+00  0.00000000000E+00  0.15012161075E+04  0.15012161075E+04  0.25500000000E-02 0. -1.
         -2   -1    0    0    0  501 -0.00000000000E+00 -0.00000000000E+00 -0.25549914168E+03  0.25549914169E+03  0.25500000000E-02 0.  1.
    8880022    1    1    2    0    0 -0.45454493545E+03 -0.25975235104E+02  0.11773988555E+04  0.12715917305E+04  0.15294330000E+03 0.  0.
    8880022    1    1    2    0    0  0.45454493545E+03  0.25975235104E+02  0.68318110357E+02  0.48512351870E+03  0.15294330000E+03 0.  0.
<mgrwt>
<rscale>  0 0.48028894E+03</rscale>
<asrwt>0</asrwt>
<pdfrwt beam="1">  1        2 0.23095632E+00 0.48028894E+03</pdfrwt>
<pdfrwt beam="2">  1       -2 0.39307561E-01 0.48028894E+03</pdfrwt>
<totfact> 0.81642100E+01</totfact>
</mgrwt>
</event>
<event>
 4    1  0.3365401E-008  0.7143313E+03  0.7818608E-02  0.9693033E-01
          2   -1    0    0  501    0  0.00000000000E+00  0.00000000000E+00  0.31213736750E+04  0.31213736750E+04  0.25500000000E-02 0. -1.
         -2   -1    0    0    0  501 -0.00000000000E+00 -0.00000000000E+00 -0.70550012280E+03  0.70550012280E+03  0.25500000000E-02 0.  1.
    8880022    1    1    2    0    0  0.28208071107E+02 -0.69719575718E+03  0.28850985610E+04  0.29722151636E+04  0.15294330000E+03 0.  0.
    8880022    1    1    2    0    0 -0.28208071107E+02  0.69719575718E+03 -0.46922500880E+03  0.85465863419E+03  0.15294330000E+03 0.  0.
<mgrwt>
<rscale>  0 0.71433135E+03</rscale>
<asrwt>0</asrwt>
<pdfrwt beam="1">  1        2 0.48021133E+00 0.71433135E+03</pdfrwt>
<pdfrwt beam="2">  1       -2 0.10853848E+00 0.71433135E+03</pdfrwt>
<totfact> 0.10703080E+00</totfact>
</mgrwt>
</event>
<event>
 4    1  0.3365401E-008  0.2826944E+03  0.7818608E-02  0.1094226E+00
          2   -1    0    0  501    0  0.00000000000E+00  0.00000000000E+00  0.96182518115E+03  0.96182518116E+03  0.25500000000E-02 0. -1.
         -2   -1    0    0    0  501 -0.00000000000E+00 -0.00000000000E+00 -0.57966163228E+03  0.57966163229E+03  0.25500000000E-02 0.  1.
    8880022    1    1    2    0    0 -0.12913691567E+03  0.19961990962E+03  0.90445101632E+03  0.94760104751E+03  0.15294330000E+03 0.  0.
    8880022    1    1    2    0    0  0.12913691567E+03 -0.19961990962E+03 -0.52228746745E+03  0.59388576593E+03  0.15294330000E+03 0.  0.
<mgrwt>
<rscale>  0 0.28269437E+03</rscale>
<asrwt>0</asrwt>
<pdfrwt beam="1">  1        2 0.14797310E+00 0.28269437E+03</pdfrwt>
<pdfrwt beam="2">  1       -2 0.89178713E-01 0.28269437E+03</pdfrwt>
<totfact> 0.31363508E+01</totfact>
</mgrwt>
</event>
<event>
 4    1  0.3365401E-008  0.1904308E+03  0.7818608E-02  0.1158073E+00
         -2   -1    0    0    0  501 -0.00000000000E+00  0.00000000000E+00  0.14904392316E+03  0.14904392319E+03  0.25500000000E-02 0.  1.
          2   -1    0    0  501    0  0.00000000000E+00 -0.00000000000E+00 -0.11327559661E+04  0.11327559661E+04  0.25500000000E-02 0. -1.
    8880022    1    1    2    0    0 -0.69829937948E+02  0.89420540790E+02 -0.10597689973E+04  0.10767424177E+04  0.15294330000E+03 0. -1.
    8880022    1    1    2    0    0  0.69829937948E+02 -0.89420540790E+02  0.76056954360E+02  0.20505747163E+03  0.15294330000E+03 0.  0.
<mgrwt>
<rscale>  0 0.19043084E+03</rscale>
<asrwt>0</asrwt>
<pdfrwt beam="1">  1        2 0.17427014E+00 0.19043084E+03</pdfrwt>
<pdfrwt beam="2">  1       -2 0.22929835E-01 0.19043084E+03</pdfrwt>
<totfact> 0.36866151E+02</totfact>
</mgrwt>
</event>
<event>
 4    1  0.3365401E-008  0.2163242E+03  0.7818608E-02  0.1136654E+00
         -2   -1    0    0    0  501 -0.00000000000E+00  0.00000000000E+00  0.24937578637E+03  0.24937578638E+03  0.25500000000E-02 0.  1.
          2   -1    0    0  501    0  0.00000000000E+00 -0.00000000000E+00 -0.78616026028E+03  0.78616026028E+03  0.25500000000E-02 0. -1.
    8880022    1    1    2    0    0 -0.14155816382E+03  0.58015280990E+02  0.18337461007E+03  0.28358841163E+03  0.15294330000E+03 0.  1.
    8880022    1    1    2    0    0  0.14155816382E+03 -0.58015280990E+02 -0.72015908399E+03  0.75194763504E+03  0.15294330000E+03 0.  0.
<mgrwt>
<rscale>  0 0.21632415E+03</rscale>
<asrwt>0</asrwt>
<pdfrwt beam="1">  1        2 0.12094773E+00 0.21632415E+03</pdfrwt>
<pdfrwt beam="2">  1       -2 0.38365506E-01 0.21632415E+03</pdfrwt>
<totfact> 0.23798900E+02</totfact>
</mgrwt>
</event>
<event>
 4    1  0.3365401E-008  0.6227123E+03  0.7818608E-02  0.9859374E-01
          2   -1    0    0  501    0  0.00000000000E+00  0.00000000000E+00  0.33915429037E+04  0.33915429037E+04  0.25500000000E-02 0. -1.
         -2   -1    0    0    0  501 -0.00000000000E+00 -0.00000000000E+00 -0.21826204358E+03  0.21826204359E+03  0.25500000000E-02 0.  1.
    8880022    1    1    2    0    0  0.53933503409E+03  0.27110268438E+03  0.28321005269E+04  0.28997524019E+04  0.15294330000E+03 0.  0.
    8880022    1    1    2    0    0 -0.53933503409E+03 -0.27110268438E+03  0.34118033316E+03  0.71005254539E+03  0.15294330000E+03 0.  0.
<mgrwt>
<rscale>  0 0.62271229E+03</rscale>
<asrwt>0</asrwt>
<pdfrwt beam="1">  1        2 0.52177585E+00 0.62271229E+03</pdfrwt>
<pdfrwt beam="2">  1       -2 0.33578775E-01 0.62271229E+03</pdfrwt>
<totfact> 0.88612097E+00</totfact>
</mgrwt>
</event>
<event>
 4    1  0.3365401E-008  0.1059150E+04  0.7818608E-02  0.9245948E-01
          2   -1    0    0  501    0  0.00000000000E+00  0.00000000000E+00  0.13317967575E+04  0.13317967575E+04  0.25500000000E-02 0. -1.
         -2   -1    0    0    0  501 -0.00000000000E+00 -0.00000000000E+00 -0.96789486963E+03  0.96789486964E+03  0.25500000000E-02 0.  1.
    8880022    1    1    2    0    0 -0.60257796343E+03 -0.85749981688E+03  0.59612082214E+03  0.12153838182E+04  0.15294330000E+03 0.  0.
    8880022    1    1    2    0    0  0.60257796343E+03  0.85749981688E+03 -0.23221893430E+03  0.10843078089E+04  0.15294330000E+03 0.  0.
<mgrwt>
<rscale>  0 0.10591496E+04</rscale>
<asrwt>0</asrwt>
<pdfrwt beam="1">  1        2 0.20489181E+00 0.10591496E+04</pdfrwt>
<pdfrwt beam="2">  1       -2 0.14890690E+00 0.10591496E+04</pdfrwt>
<totfact> 0.47699860E+00</totfact>
</mgrwt>
</event>
<event>
 4    1  0.3365401E-008  0.1035750E+04  0.7818608E-02  0.9270182E-01
          2   -1    0    0  501    0  0.00000000000E+00  0.00000000000E+00  0.10145607465E+04  0.10145607465E+04  0.25500000000E-02 0. -1.
         -2   -1    0    0    0  501 -0.00000000000E+00 -0.00000000000E+00 -0.12850172510E+04  0.12850172510E+04  0.25500000000E-02 0.  1.
    8880022    1    1    2    0    0  0.36480213801E+02 -0.10237454413E+04 -0.61916037079E+03  0.12067049152E+04  0.15294330000E+03 0.  0.
    8880022    1    1    2    0    0 -0.36480213801E+02  0.10237454413E+04  0.34870386630E+03  0.10928730823E+04  0.15294330000E+03 0.  0.
<mgrwt>
<rscale>  0 0.10357496E+04</rscale>
<asrwt>0</asrwt>
<pdfrwt beam="1">  1        2 0.15608627E+00 0.10357496E+04</pdfrwt>
<pdfrwt beam="2">  1       -2 0.19769496E+00 0.10357496E+04</pdfrwt>
<totfact> 0.33554553E+00</totfact>
</mgrwt>
</event>
<event>
 4    1  0.3365401E-008  0.8738745E+03  0.7818608E-02  0.9458842E-01
         -2   -1    0    0    0  501 -0.00000000000E+00  0.00000000000E+00  0.48444912837E+03  0.48444912837E+03  0.25500000000E-02 0.  1.
          2   -1    0    0  501    0  0.00000000000E+00 -0.00000000000E+00 -0.17544136000E+04  0.17544136000E+04  0.25500000000E-02 0. -1.
    8880022    1    1    2    0    0 -0.84955076335E+03  0.13611954277E+03 -0.99162292179E+03  0.13217309490E+04  0.15294330000E+03 0.  0.
    8880022    1    1    2    0    0  0.84955076335E+03 -0.13611954277E+03 -0.27834154986E+03  0.91713177942E+03  0.15294330000E+03 0.  1.
<mgrwt>
<rscale>  0 0.87387452E+03</rscale>
<asrwt>0</asrwt>
<pdfrwt beam="1">  1        2 0.26990978E+00 0.87387452E+03</pdfrwt>
<pdfrwt beam="2">  1       -2 0.74530636E-01 0.87387452E+03</pdfrwt>
<totfact> 0.15008989E+01</totfact>
</mgrwt>
</event>
<event>
 4    1  0.3365401E-008  0.4300469E+03  0.7818608E-02  0.1033845E+00
         -2   -1    0    0    0  501 -0.00000000000E+00  0.00000000000E+00  0.22341277048E+03  0.22341277049E+03  0.25500000000E-02 0.  1.
          2   -1    0    0  501    0  0.00000000000E+00 -0.00000000000E+00 -0.11284979164E+04  0.11284979164E+04  0.25500000000E-02 0. -1.
    8880022    1    1    2    0    0  0.37790189326E+03 -0.13688999322E+03 -0.80147006159E+03  0.90955737797E+03  0.15294330000E+03 0.  0.
    8880022    1    1    2    0    0 -0.37790189326E+03  0.13688999322E+03 -0.10361508428E+03  0.44235330888E+03  0.15294330000E+03 0.  0.
<mgrwt>
<rscale>  0 0.43004693E+03</rscale>
<asrwt>0</asrwt>
<pdfrwt beam="1">  1        2 0.17361506E+00 0.43004693E+03</pdfrwt>
<pdfrwt beam="2">  1       -2 0.34371196E-01 0.43004693E+03</pdfrwt>
<totfact> 0.17262055E+02</totfact>
</mgrwt>
</event>
<event>
 4    1  0.3365401E-008  0.4683213E+03  0.7818608E-02  0.1022395E+00
         -2   -1    0    0    0  501 -0.00000000000E+00  0.00000000000E+00  0.17516231082E+04  0.17516231082E+04  0.25500000000E-02 0.  1.
          2   -1    0    0  501    0  0.00000000000E+00 -0.00000000000E+00 -0.21759549451E+03  0.21759549452E+03  0.25500000000E-02 0. -1.
    8880022    1    1    2    0    0  0.44037095312E+03 -0.44795039271E+02  0.14085710064E+04  0.14843844195E+04  0.15294330000E+03 0.  0.
    8880022    1    1    2    0    0 -0.44037095312E+03  0.44795039271E+02  0.12545660734E+03  0.48483418324E+03  0.15294330000E+03 0.  0.
<mgrwt>
<rscale>  0 0.46832128E+03</rscale>
<asrwt>0</asrwt>
<pdfrwt beam="1">  1        2 0.33476231E-01 0.46832128E+03</pdfrwt>
<pdfrwt beam="2">  1       -2 0.26948047E+00 0.46832128E+03</pdfrwt>
<totfact> 0.82331887E+00</totfact>
</mgrwt>
</event>
<event>
 4    1  0.3365401E-008  0.1798200E+03  0.7818608E-02  0.1167977E+00
         -2   -1    0    0    0  501 -0.00000000000E+00  0.00000000000E+00  0.10446518607E+04  0.10446518607E+04  0.25500000000E-02 0.  1.
          2   -1    0    0  501    0  0.00000000000E+00 -0.00000000000E+00 -0.27112947702E+03  0.27112947703E+03  0.25500000000E-02 0. -1.
    8880022    1    1    2    0    0  0.47853158977E+02 -0.81569973645E+02  0.10059605273E+04  0.10219059746E+04  0.15294330000E+03 0.  0.
    8880022    1    1    2    0    0 -0.47853158977E+02  0.81569973645E+02 -0.23243814363E+03  0.29387536313E+03  0.15294330000E+03 0.  0.
<mgrwt>
<rscale>  0 0.17982002E+03</rscale>
<asrwt>0</asrwt>
<pdfrwt beam="1">  1        2 0.41712227E-01 0.17982002E+03</pdfrwt>
<pdfrwt beam="2">  1       -2 0.16071567E+00 0.17982002E+03</pdfrwt>
<totfact> 0.33220203E+01</totfact>
</mgrwt>
</event>
<event>
 4    1  0.3365401E-008  0.7370741E+03  0.7818608E-02  0.9655850E-01
         -2   -1    0    0    0  501 -0.00000000000E+00  0.00000000000E+00  0.49475221311E+03  0.49475221312E+03  0.25500000000E-02 0.  1.
          2   -1    0    0  501    0  0.00000000000E+00 -0.00000000000E+00 -0.17186448566E+04  0.17186448566E+04  0.25500000000E-02 0. -1.
    8880022    1    1    2    0    0 -0.65822610023E+03 -0.29432131346E+03 -0.12769580467E+04  0.14744151859E+04  0.15294330000E+03 0.  0.
    8880022    1    1    2    0    0  0.65822610023E+03  0.29432131346E+03  0.53065403143E+02  0.73898188381E+03  0.15294330000E+03 0.  0.
<mgrwt>
<rscale>  0 0.73707414E+03</rscale>
<asrwt>0</asrwt>
<pdfrwt beam="1">  1        2 0.26440690E+00 0.73707414E+03</pdfrwt>
<pdfrwt beam="2">  1       -2 0.76115726E-01 0.73707414E+03</pdfrwt>
<totfact> 0.15245264E+01</totfact>
</mgrwt>
</event>
<event>
 4    1  0.3365401E-008  0.6855037E+03  0.7818608E-02  0.9742349E-01
          2   -1    0    0  501    0  0.00000000000E+00  0.00000000000E+00  0.87858800085E+03  0.87858800085E+03  0.25500000000E-02 0. -1.
         -2   -1    0    0    0  501 -0.00000000000E+00 -0.00000000000E+00 -0.97434689881E+03  0.97434689881E+03  0.25500000000E-02 0.  1.
    8880022    1    1    2    0    0  0.45095130455E+03 -0.49311924467E+03 -0.67010787420E+03  0.95862395371E+03  0.15294330000E+03 0.  0.
    8880022    1    1    2    0    0 -0.45095130455E+03  0.49311924467E+03  0.57434897624E+03  0.89431094596E+03  0.15294330000E+03 0.  0.
<mgrwt>
<rscale>  0 0.68550370E+03</rscale>
<asrwt>0</asrwt>
<pdfrwt beam="1">  1        2 0.13516739E+00 0.68550370E+03</pdfrwt>
<pdfrwt beam="2">  1       -2 0.14989952E+00 0.68550370E+03</pdfrwt>
<totfact> 0.93303350E+00</totfact>
</mgrwt>
</event>
<event>
 4    1  0.3365401E-008  0.3735434E+03  0.7818608E-02  0.1053346E+00
         -2   -1    0    0    0  501 -0.00000000000E+00  0.00000000000E+00  0.36408470942E+03  0.36408470943E+03  0.25500000000E-02 0.  1.
          2   -1    0    0  501    0  0.00000000000E+00 -0.00000000000E+00 -0.12614487558E+04  0.12614487558E+04  0.25500000000E-02 0. -1.
    8880022    1    1    2    0    0  0.33434571883E+03 -0.65999601150E+02 -0.11268356179E+04  0.11871365422E+04  0.15294330000E+03 0.  0.
    8880022    1    1    2    0    0 -0.33434571883E+03  0.65999601150E+02  0.22947157146E+03  0.43839692309E+03  0.15294330000E+03 0.  1.
<mgrwt>
<rscale>  0 0.37354338E+03</rscale>
<asrwt>0</asrwt>
<pdfrwt beam="1">  1        2 0.19406904E+00 0.37354338E+03</pdfrwt>
<pdfrwt beam="2">  1       -2 0.56013033E-01 0.37354338E+03</pdfrwt>
<totfact> 0.55788897E+01</totfact>
</mgrwt>
</event>
<event>
 4    1  0.3365401E-008  0.4826223E+03  0.7818608E-02  0.1018417E+00
          2   -1    0    0  501    0  0.00000000000E+00  0.00000000000E+00  0.58071546185E+03  0.58071546186E+03  0.25500000000E-02 0. -1.
         -2   -1    0    0    0  501 -0.00000000000E+00 -0.00000000000E+00 -0.61220522280E+03  0.61220522280E+03  0.25500000000E-02 0.  1.
    8880022    1    1    2    0    0  0.34393710959E+03  0.30205948730E+03 -0.36599935955E+03  0.60570607841E+03  0.15294330000E+03 0.  0.
    8880022    1    1    2    0    0 -0.34393710959E+03 -0.30205948730E+03  0.33450959860E+03  0.58721460625E+03  0.15294330000E+03 0.  0.
<mgrwt>
<rscale>  0 0.48262234E+03</rscale>
<asrwt>0</asrwt>
<pdfrwt beam="1">  1        2 0.89340840E-01 0.48262234E+03</pdfrwt>
<pdfrwt beam="2">  1       -2 0.94185419E-01 0.48262234E+03</pdfrwt>
<totfact> 0.50817117E+01</totfact>
</mgrwt>
</event>
<event>
 4    1  0.3365401E-008  0.1660560E+03  0.7818608E-02  0.1182024E+00
         -2   -1    0    0    0  501 -0.00000000000E+00  0.00000000000E+00  0.93497268393E+02  0.93497268428E+02  0.25500000000E-02 0.  1.
          2   -1    0    0  501    0  0.00000000000E+00 -0.00000000000E+00 -0.20534654667E+04  0.20534654667E+04  0.25500000000E-02 0. -1.
    8880022    1    1    2    0    0  0.46105192616E+02 -0.45356982902E+02 -0.19733908418E+04  0.19803651210E+04  0.15294330000E+03 0.  0.
    8880022    1    1    2    0    0 -0.46105192616E+02  0.45356982902E+02  0.13422643491E+02  0.16659761420E+03  0.15294330000E+03 0.  1.
<mgrwt>
<rscale>  0 0.16605601E+03</rscale>
<asrwt>0</asrwt>
<pdfrwt beam="1">  1        2 0.31591773E+00 0.16605601E+03</pdfrwt>
<pdfrwt beam="2">  1       -2 0.14384197E-01 0.16605601E+03</pdfrwt>
<totfact> 0.26457089E+02</totfact>
</mgrwt>
</event>
<event>
 4    1  0.3365401E-008  0.1133488E+04  0.7818608E-02  0.9173153E-01
          2   -1    0    0  501    0  0.00000000000E+00  0.00000000000E+00  0.44990873081E+04  0.44990873081E+04  0.25500000000E-02 0. -1.
         -2   -1    0    0    0  501 -0.00000000000E+00 -0.00000000000E+00 -0.30829713466E+03  0.30829713467E+03  0.25500000000E-02 0.  1.
    8880022    1    1    2    0    0 -0.27830106926E+03 -0.10880952632E+04  0.27480558851E+04  0.29726428625E+04  0.15294330000E+03 0.  0.
    8880022    1    1    2    0    0  0.27830106926E+03  0.10880952632E+04  0.14427342883E+04  0.18347415803E+04  0.15294330000E+03 0.  0.
<mgrwt>
<rscale>  0 0.11334877E+04</rscale>
<asrwt>0</asrwt>
<pdfrwt beam="1">  1        2 0.69216731E+00 0.11334877E+04</pdfrwt>
<pdfrwt beam="2">  1       -2 0.47430326E-01 0.11334877E+04</pdfrwt>
<totfact> 0.54538133E-01</totfact>
</mgrwt>
</event>
<event>
 4    1  0.3365401E-008  0.7183299E+03  0.7818608E-02  0.9686389E-01
          2   -1    0    0  501    0  0.00000000000E+00  0.00000000000E+00  0.22401734079E+04  0.22401734079E+04  0.25500000000E-02 0. -1.
         -2   -1    0    0    0  501 -0.00000000000E+00 -0.00000000000E+00 -0.37736384432E+03  0.37736384433E+03  0.25500000000E-02 0.  1.
    8880022    1    1    2    0    0  0.22441110087E+03  0.66501563585E+03  0.17483239611E+04  0.18901413873E+04  0.15294330000E+03 0.  0.
    8880022    1    1    2    0    0 -0.22441110087E+03 -0.66501563585E+03  0.11448560251E+03  0.72739586493E+03  0.15294330000E+03 0.  0.
<mgrwt>
<rscale>  0 0.71832986E+03</rscale>
<asrwt>0</asrwt>
<pdfrwt beam="1">  1        2 0.34464206E+00 0.71832986E+03</pdfrwt>
<pdfrwt beam="2">  1       -2 0.58055977E-01 0.71832986E+03</pdfrwt>
<totfact> 0.14230611E+01</totfact>
</mgrwt>
</event>
<event>
 4    1  0.3365401E-008  0.1817337E+04  0.7818608E-02  0.8697134E-01
         -2   -1    0    0    0  501 -0.00000000000E+00  0.00000000000E+00  0.16991145311E+04  0.16991145311E+04  0.25500000000E-02 0.  1.
          2   -1    0    0  501    0  0.00000000000E+00 -0.00000000000E+00 -0.28584784764E+04  0.28584784764E+04  0.25500000000E-02 0. -1.
    8880022    1    1    2    0    0  0.13079115611E+03  0.18061602359E+04  0.70938639251E+03  0.19508823212E+04  0.15294330000E+03 0.  0.
    8880022    1    1    2    0    0 -0.13079115611E+03 -0.18061602359E+04 -0.18687503378E+04  0.26067106863E+04  0.15294330000E+03 0.  0.
<mgrwt>
<rscale>  0 0.18173367E+04</rscale>
<asrwt>0</asrwt>
<pdfrwt beam="1">  1        2 0.43976592E+00 0.18173367E+04</pdfrwt>
<pdfrwt beam="2">  1       -2 0.26140224E+00 0.18173367E+04</pdfrwt>
<totfact> 0.10539157E-01</totfact>
</mgrwt>
</event>
<event>
 4    1  0.3365401E-008  0.5904417E+03  0.7818608E-02  0.9925437E-01
          2   -1    0    0  501    0  0.00000000000E+00  0.00000000000E+00  0.17083469908E+04  0.17083469908E+04  0.25500000000E-02 0. -1.
         -2   -1    0    0    0  501 -0.00000000000E+00 -0.00000000000E+00 -0.23466189715E+03  0.23466189716E+03  0.25500000000E-02 0.  1.
    8880022    1    1    2    0    0 -0.33692453209E+03 -0.46012134217E+03  0.10876191047E+04  0.12375527301E+04  0.15294330000E+03 0.  0.
    8880022    1    1    2    0    0  0.33692453209E+03  0.46012134217E+03  0.38606598898E+03  0.70545615789E+03  0.15294330000E+03 0.  0.
<mgrwt>
<rscale>  0 0.59044174E+03</rscale>
<asrwt>0</asrwt>
<pdfrwt beam="1">  1        2 0.26282261E+00 0.59044174E+03</pdfrwt>
<pdfrwt beam="2">  1       -2 0.36101831E-01 0.59044174E+03</pdfrwt>
<totfact> 0.72987941E+01</totfact>
</mgrwt>
</event>
<event>
 4    1  0.4766212E-008  0.1338165E+04  0.7818608E-02  0.8999836E-01
         -2   -1    0    0    0  501 -0.00000000000E+00  0.00000000000E+00  0.23417793745E+04  0.23417793745E+04  0.25500000000E-02 0.  1.
          2   -1    0    0  501    0  0.00000000000E+00 -0.00000000000E+00 -0.22063758666E+04  0.22063758666E+04  0.25500000000E-02 0. -1.
    8880022    1    1    2    0    0  0.84871446608E+03 -0.10232190306E+04  0.19059496748E+04  0.23288042523E+04  0.15294330000E+03 0.  0.
    8880022    1    1    2    0    0 -0.84871446608E+03  0.10232190306E+04 -0.17705461669E+04  0.22193509888E+04  0.15294330000E+03 0.  0.
<mgrwt>
<rscale>  0 0.13381648E+04</rscale>
<asrwt>0</asrwt>
<pdfrwt beam="1">  1        2 0.33944244E+00 0.13381648E+04</pdfrwt>
<pdfrwt beam="2">  1       -2 0.36027375E+00 0.13381648E+04</pdfrwt>
<totfact> 0.65969993E-02</totfact>
</mgrwt>
</event>
<event>
 4    1  0.3365401E-008  0.6477801E+03  0.7818608E-02  0.9810954E-01
          2   -1    0    0  501    0  0.00000000000E+00  0.00000000000E+00  0.13416173277E+04  0.13416173277E+04  0.25500000000E-02 0. -1.
         -2   -1    0    0    0  501 -0.00000000000E+00 -0.00000000000E+00 -0.42500936104E+03  0.42500936105E+03  0.25500000000E-02 0.  1.
    8880022    1    1    2    0    0  0.27966899845E+03  0.56392613961E+03  0.43769387964E+01  0.64779491371E+03  0.15294330000E+03 0.  0.
    8880022    1    1    2    0    0 -0.27966899845E+03 -0.56392613961E+03  0.91223102784E+03  0.11188317750E+04  0.15294330000E+03 0.  0.
<mgrwt>
<rscale>  0 0.64778013E+03</rscale>
<asrwt>0</asrwt>
<pdfrwt beam="1">  1        2 0.20640266E+00 0.64778013E+03</pdfrwt>
<pdfrwt beam="2">  1       -2 0.65386057E-01 0.64778013E+03</pdfrwt>
<totfact> 0.34797898E+01</totfact>
</mgrwt>
</event>
<event>
 4    1  0.3365401E-008  0.7294896E+03  0.7818608E-02  0.9668089E-01
          2   -1    0    0  501    0  0.00000000000E+00  0.00000000000E+00  0.80014146838E+03  0.80014146838E+03  0.25500000000E-02 0. -1.
         -2   -1    0    0    0  501 -0.00000000000E+00 -0.00000000000E+00 -0.71089814746E+03  0.71089814747E+03  0.25500000000E-02 0.  1.
    8880022    1    1    2    0    0  0.55979971763E+03 -0.44202676191E+03  0.23643508856E+03  0.76684847670E+03  0.15294330000E+03 0. -1.
    8880022    1    1    2    0    0 -0.55979971763E+03  0.44202676191E+03 -0.14719176764E+03  0.74419113915E+03  0.15294330000E+03 0.  0.
<mgrwt>
<rscale>  0 0.72948957E+03</rscale>
<asrwt>0</asrwt>
<pdfrwt beam="1">  1        2 0.12309869E+00 0.72948957E+03</pdfrwt>
<pdfrwt beam="2">  1       -2 0.10936895E+00 0.72948957E+03</pdfrwt>
<totfact> 0.23320545E+01</totfact>
</mgrwt>
</event>
<event>
 4    1  0.3365401E-008  0.4741937E+03  0.7818608E-02  0.1020743E+00
          2   -1    0    0  501    0  0.00000000000E+00  0.00000000000E+00  0.16014931802E+04  0.16014931802E+04  0.25500000000E-02 0. -1.
         -2   -1    0    0    0  501 -0.00000000000E+00 -0.00000000000E+00 -0.18507441693E+03  0.18507441695E+03  0.25500000000E-02 0.  1.
    8880022    1    1    2    0    0  0.89065422781E+02 -0.43992657823E+03  0.26936030269E+03  0.54535737773E+03  0.15294330000E+03 0.  0.
    8880022    1    1    2    0    0 -0.89065422781E+02  0.43992657823E+03  0.11470584605E+04  0.12412102194E+04  0.15294330000E+03 0.  0.
<mgrwt>
<rscale>  0 0.47419373E+03</rscale>
<asrwt>0</asrwt>
<pdfrwt beam="1">  1        2 0.24638356E+00 0.47419373E+03</pdfrwt>
<pdfrwt beam="2">  1       -2 0.28472988E-01 0.47419373E+03</pdfrwt>
<totfact> 0.13196389E+02</totfact>
</mgrwt>
</event>
<event>
 4    1  0.3365401E-008  0.2910532E+03  0.7818608E-02  0.1089801E+00
         -2   -1    0    0    0  501 -0.00000000000E+00  0.00000000000E+00  0.62743780080E+03  0.62743780081E+03  0.25500000000E-02 0.  1.
          2   -1    0    0  501    0  0.00000000000E+00 -0.00000000000E+00 -0.71563017070E+03  0.71563017070E+03  0.25500000000E-02 0. -1.
    8880022    1    1    2    0    0 -0.92881356318E+02  0.22955040753E+03  0.56078318802E+03  0.63181466660E+03  0.15294330000E+03 0.  1.
    8880022    1    1    2    0    0  0.92881356318E+02 -0.22955040753E+03 -0.64897555792E+03  0.71125330490E+03  0.15294330000E+03 0.  0.
<mgrwt>
<rscale>  0 0.29105324E+03</rscale>
<asrwt>0</asrwt>
<pdfrwt beam="1">  1        2 0.11009695E+00 0.29105324E+03</pdfrwt>
<pdfrwt beam="2">  1       -2 0.96528892E-01 0.29105324E+03</pdfrwt>
<totfact> 0.38395305E+01</totfact>
</mgrwt>
</event>
<event>
 4    1  0.3365401E-008  0.4054928E+03  0.7818608E-02  0.1041894E+00
          2   -1    0    0  501    0  0.00000000000E+00  0.00000000000E+00  0.27420599457E+04  0.27420599457E+04  0.25500000000E-02 0. -1.
         -2   -1    0    0    0  501 -0.00000000000E+00 -0.00000000000E+00 -0.30364100145E+03  0.30364100146E+03  0.25500000000E-02 0.  1.
    8880022    1    1    2    0    0  0.35345321470E+03 -0.12689987433E+03 -0.14501074381E+03  0.43064198811E+03  0.15294330000E+03 0.  1.
    8880022    1    1    2    0    0 -0.35345321470E+03  0.12689987433E+03  0.25834296880E+04  0.26150589590E+04  0.15294330000E+03 0.  0.
<mgrwt>
<rscale>  0 0.40549279E+03</rscale>
<asrwt>0</asrwt>
<pdfrwt beam="1">  1        2 0.42185537E+00 0.40549279E+03</pdfrwt>
<pdfrwt beam="2">  1       -2 0.46714001E-01 0.40549279E+03</pdfrwt>
<totfact> 0.12438802E+01</totfact>
</mgrwt>
</event>
<event>
 4    1  0.3365401E-008  0.8416130E+03  0.7818608E-02  0.9501663E-01
          2   -1    0    0  501    0  0.00000000000E+00  0.00000000000E+00  0.14483172440E+04  0.14483172440E+04  0.25500000000E-02 0. -1.
         -2   -1    0    0    0  501 -0.00000000000E+00 -0.00000000000E+00 -0.75840294406E+03  0.75840294406E+03  0.25500000000E-02 0.  1.
    8880022    1    1    2    0    0 -0.57470509775E+03  0.59551219955E+03  0.10024953475E+04  0.13089344155E+04  0.15294330000E+03 0.  0.
    8880022    1    1    2    0    0  0.57470509775E+03 -0.59551219955E+03 -0.31258104755E+03  0.89778577261E+03  0.15294330000E+03 0.  0.
<mgrwt>
<rscale>  0 0.84161296E+03</rscale>
<asrwt>0</asrwt>
<pdfrwt beam="1">  1        2 0.22281804E+00 0.84161296E+03</pdfrwt>
<pdfrwt beam="2">  1       -2 0.11667738E+00 0.84161296E+03</pdfrwt>
<totfact> 0.78197214E+00</totfact>
</mgrwt>
</event>
<event>
 4    1  0.3365401E-008  0.2230613E+03  0.7818608E-02  0.1131621E+00
          2   -1    0    0  501    0  0.00000000000E+00  0.00000000000E+00  0.21313976285E+04  0.21313976285E+04  0.25500000000E-02 0. -1.
         -2   -1    0    0    0  501 -0.00000000000E+00 -0.00000000000E+00 -0.28335814740E+03  0.28335814741E+03  0.25500000000E-02 0.  1.
    8880022    1    1    2    0    0  0.80100302795E+02 -0.14123959288E+03  0.20805938547E+04  0.20925169348E+04  0.15294330000E+03 0. -1.
    8880022    1    1    2    0    0 -0.80100302795E+02  0.14123959288E+03 -0.23255437354E+03  0.32223884120E+03  0.15294330000E+03 0.  0.
<mgrwt>
<rscale>  0 0.22306128E+03</rscale>
<asrwt>0</asrwt>
<pdfrwt beam="1">  1        2 0.32790732E+00 0.22306128E+03</pdfrwt>
<pdfrwt beam="2">  1       -2 0.43593562E-01 0.22306128E+03</pdfrwt>
<totfact> 0.33044621E+01</totfact>
</mgrwt>
</event>
<event>
 4    1  0.3365401E-008  0.6163430E+03  0.7818608E-02  0.9872068E-01
          2   -1    0    0  501    0  0.00000000000E+00  0.00000000000E+00  0.87642827877E+03  0.87642827877E+03  0.25500000000E-02 0. -1.
         -2   -1    0    0    0  501 -0.00000000000E+00 -0.00000000000E+00 -0.82316973570E+03  0.82316973571E+03  0.25500000000E-02 0.  1.
    8880022    1    1    2    0    0 -0.37547001121E+03 -0.46422983391E+03  0.61135676867E+03  0.86812200734E+03  0.15294330000E+03 0.  0.
    8880022    1    1    2    0    0  0.37547001121E+03  0.46422983391E+03 -0.55809822560E+03  0.83147600714E+03  0.15294330000E+03 0.  1.
<mgrwt>
<rscale>  0 0.61634302E+03</rscale>
<asrwt>0</asrwt>
<pdfrwt beam="1">  1        2 0.13483512E+00 0.61634302E+03</pdfrwt>
<pdfrwt beam="2">  1       -2 0.12664150E+00 0.61634302E+03</pdfrwt>
<totfact> 0.14568985E+01</totfact>
</mgrwt>
</event>
<event>
 4    1  0.3365401E-008  0.2623874E+03  0.7818608E-02  0.1105717E+00
          2   -1    0    0  501    0  0.00000000000E+00  0.00000000000E+00  0.20050572440E+04  0.20050572440E+04  0.25500000000E-02 0. -1.
         -2   -1    0    0    0  501 -0.00000000000E+00 -0.00000000000E+00 -0.58504327754E+02  0.58504327810E+02  0.25500000000E-02 0.  1.
    8880022    1    1    2    0    0  0.15389591287E+03 -0.14755182918E+03  0.16364237658E+04  0.16573261262E+04  0.15294330000E+03 0.  0.
    8880022    1    1    2    0    0 -0.15389591287E+03  0.14755182918E+03  0.31012915041E+03  0.40623544557E+03  0.15294330000E+03 0.  1.
<mgrwt>
<rscale>  0 0.26238740E+03</rscale>
<asrwt>0</asrwt>
<pdfrwt beam="1">  1        2 0.30847037E+00 0.26238740E+03</pdfrwt>
<pdfrwt beam="2">  1       -2 0.90006651E-02 0.26238740E+03</pdfrwt>
<totfact> 0.58122432E+02</totfact>
</mgrwt>
</event>
<event>
 4    1  0.3365401E-008  0.5100296E+03  0.7818608E-02  0.1011194E+00
         -2   -1    0    0    0  501 -0.00000000000E+00  0.00000000000E+00  0.24699166414E+03  0.24699166415E+03  0.25500000000E-02 0.  1.
          2   -1    0    0  501    0  0.00000000000E+00 -0.00000000000E+00 -0.13440746779E+04  0.13440746779E+04  0.25500000000E-02 0. -1.
    8880022    1    1    2    0    0 -0.42834061667E+03 -0.23078743497E+03 -0.91862857881E+03  0.10507181558E+04  0.15294330000E+03 0.  0.
    8880022    1    1    2    0    0  0.42834061667E+03  0.23078743497E+03 -0.17845443493E+03  0.54034818626E+03  0.15294330000E+03 0.  0.
<mgrwt>
<rscale>  0 0.51002958E+03</rscale>
<asrwt>0</asrwt>
<pdfrwt beam="1">  1        2 0.20678072E+00 0.51002958E+03</pdfrwt>
<pdfrwt beam="2">  1       -2 0.37998718E-01 0.51002958E+03</pdfrwt>
<totfact> 0.10610215E+02</totfact>
</mgrwt>
</event>
<event>
 4    1  0.3365401E-008  0.6683763E+03  0.7818608E-02  0.9772896E-01
          2   -1    0    0  501    0  0.00000000000E+00  0.00000000000E+00  0.98273973332E+03  0.98273973332E+03  0.25500000000E-02 0. -1.
         -2   -1    0    0    0  501 -0.00000000000E+00 -0.00000000000E+00 -0.60342858632E+03  0.60342858632E+03  0.25500000000E-02 0.  1.
    8880022    1    1    2    0    0  0.27379249626E+03  0.59023120001E+03 -0.20424720666E+03  0.69888752666E+03  0.15294330000E+03 0.  0.
    8880022    1    1    2    0    0 -0.27379249626E+03 -0.59023120001E+03  0.58355835366E+03  0.88728079299E+03  0.15294330000E+03 0.  0.
<mgrwt>
<rscale>  0 0.66837628E+03</rscale>
<asrwt>0</asrwt>
<pdfrwt beam="1">  1        2 0.15119073E+00 0.66837628E+03</pdfrwt>
<pdfrwt beam="2">  1       -2 0.92835169E-01 0.66837628E+03</pdfrwt>
<totfact> 0.26048233E+01</totfact>
</mgrwt>
</event>
<event>
 4    1  0.3365401E-008  0.4388578E+03  0.7818608E-02  0.1031098E+00
          2   -1    0    0  501    0  0.00000000000E+00  0.00000000000E+00  0.12187619232E+04  0.12187619232E+04  0.25500000000E-02 0. -1.
         -2   -1    0    0    0  501 -0.00000000000E+00 -0.00000000000E+00 -0.39242405351E+03  0.39242405352E+03  0.25500000000E-02 0.  1.
    8880022    1    1    2    0    0 -0.11874391871E+03  0.39383292413E+03 -0.20943923303E+03  0.48627249121E+03  0.15294330000E+03 0.  0.
    8880022    1    1    2    0    0  0.11874391871E+03 -0.39383292413E+03  0.10357771027E+04  0.11249134855E+04  0.15294330000E+03 0.  0.
<mgrwt>
<rscale>  0 0.43885777E+03</rscale>
<asrwt>0</asrwt>
<pdfrwt beam="1">  1        2 0.18750183E+00 0.43885777E+03</pdfrwt>
<pdfrwt beam="2">  1       -2 0.60372932E-01 0.43885777E+03</pdfrwt>
<totfact> 0.49921511E+01</totfact>
</mgrwt>
</event>
<event>
 4    1  0.3365401E-008  0.3638258E+03  0.7818608E-02  0.1057079E+00
         -2   -1    0    0    0  501 -0.00000000000E+00  0.00000000000E+00  0.20972704643E+04  0.20972704643E+04  0.25500000000E-02 0.  1.
          2   -1    0    0  501    0  0.00000000000E+00 -0.00000000000E+00 -0.16253502528E+03  0.16253502530E+03  0.25500000000E-02 0. -1.
    8880022    1    1    2    0    0  0.32989273457E+03 -0.12180185753E+02  0.18510670292E+04  0.18864830699E+04  0.15294330000E+03 0.  1.
    8880022    1    1    2    0    0 -0.32989273457E+03  0.12180185753E+02  0.83668409775E+02  0.37332241971E+03  0.15294330000E+03 0.  0.
<mgrwt>
<rscale>  0 0.36382582E+03</rscale>
<asrwt>0</asrwt>
<pdfrwt beam="1">  1        2 0.25005390E-01 0.36382582E+03</pdfrwt>
<pdfrwt beam="2">  1       -2 0.32265698E+00 0.36382582E+03</pdfrwt>
<totfact> 0.56504613E+00</totfact>
</mgrwt>
</event>
<event>
 4    1  0.3365401E-008  0.4284470E+03  0.7818608E-02  0.1034352E+00
         -2   -1    0    0    0  501 -0.00000000000E+00  0.00000000000E+00  0.53560087270E+03  0.53560087271E+03  0.25500000000E-02 0.  1.
          2   -1    0    0  501    0  0.00000000000E+00 -0.00000000000E+00 -0.93864452723E+03  0.93864452723E+03  0.25500000000E-02 0. -1.
    8880022    1    1    2    0    0 -0.36429148766E+03 -0.16573130807E+03 -0.78885019545E+03  0.89769228488E+03  0.15294330000E+03 0.  0.
    8880022    1    1    2    0    0  0.36429148766E+03  0.16573130807E+03  0.38580654092E+03  0.57655311506E+03  0.15294330000E+03 0.  0.
<mgrwt>
<rscale>  0 0.42844697E+03</rscale>
<asrwt>0</asrwt>
<pdfrwt beam="1">  1        2 0.14440685E+00 0.42844697E+03</pdfrwt>
<pdfrwt beam="2">  1       -2 0.82400134E-01 0.42844697E+03</pdfrwt>
<totfact> 0.37671130E+01</totfact>
</mgrwt>
</event>
<event>
 4    1  0.3365401E-008  0.2526836E+03  0.7818608E-02  0.1111620E+00
          2   -1    0    0  501    0  0.00000000000E+00  0.00000000000E+00  0.15896030049E+04  0.15896030049E+04  0.25500000000E-02 0. -1.
         -2   -1    0    0    0  501 -0.00000000000E+00 -0.00000000000E+00 -0.31255499419E+03  0.31255499420E+03  0.25500000000E-02 0.  1.
    8880022    1    1    2    0    0  0.19282487282E+03 -0.57235764355E+02 -0.24934242494E+03  0.35499389036E+03  0.15294330000E+03 0.  0.
    8880022    1    1    2    0    0 -0.19282487282E+03  0.57235764355E+02  0.15263904357E+04  0.15471641088E+04  0.15294330000E+03 0.  0.
<mgrwt>
<rscale>  0 0.25268363E+03</rscale>
<asrwt>0</asrwt>
<pdfrwt beam="1">  1        2 0.24455430E+00 0.25268363E+03</pdfrwt>
<pdfrwt beam="2">  1       -2 0.48085385E-01 0.25268363E+03</pdfrwt>
<totfact> 0.51817881E+01</totfact>
</mgrwt>
</event>
<event>
 4    1  0.3365401E-008  0.5856943E+03  0.7818608E-02  0.9935538E-01
         -2   -1    0    0    0  501 -0.00000000000E+00  0.00000000000E+00  0.61148673169E+03  0.61148673169E+03  0.25500000000E-02 0.  1.
          2   -1    0    0  501    0  0.00000000000E+00 -0.00000000000E+00 -0.31943273898E+04  0.31943273898E+04  0.25500000000E-02 0. -1.
    8880022    1    1    2    0    0 -0.20963087022E+03  0.52507242765E+03  0.43633060152E+03  0.73035758562E+03  0.15294330000E+03 0.  0.
    8880022    1    1    2    0    0  0.20963087022E+03 -0.52507242765E+03 -0.30191712596E+04  0.30754565358E+04  0.15294330000E+03 0.  0.
<mgrwt>
<rscale>  0 0.58569430E+03</rscale>
<asrwt>0</asrwt>
<pdfrwt beam="1">  1        2 0.49143498E+00 0.58569430E+03</pdfrwt>
<pdfrwt beam="2">  1       -2 0.94074883E-01 0.58569430E+03</pdfrwt>
<totfact> 0.13984395E+00</totfact>
</mgrwt>
</event>
<event>
 4    1  0.3365401E-008  0.1479021E+04  0.7818608E-02  0.8898525E-01
         -2   -1    0    0    0  501 -0.00000000000E+00  0.00000000000E+00  0.39475168360E+04  0.39475168360E+04  0.25500000000E-02 0.  1.
          2   -1    0    0  501    0  0.00000000000E+00 -0.00000000000E+00 -0.12395677402E+04  0.12395677402E+04  0.25500000000E-02 0. -1.
    8880022    1    1    2    0    0 -0.73465114981E+03 -0.12745189574E+04  0.32825515712E+04  0.36003676694E+04  0.15294330000E+03 0.  0.
    8880022    1    1    2    0    0  0.73465114981E+03  0.12745189574E+04 -0.57460247536E+03  0.15867169068E+04  0.15294330000E+03 0.  0.
<mgrwt>
<rscale>  0 0.14790208E+04</rscale>
<asrwt>0</asrwt>
<pdfrwt beam="1">  1        2 0.19070273E+00 0.14790208E+04</pdfrwt>
<pdfrwt beam="2">  1       -2 0.60731028E+00 0.14790208E+04</pdfrwt>
<totfact> 0.78099007E-03</totfact>
</mgrwt>
</event>
<event>
 4    1  0.3365401E-008  0.1312401E+04  0.7818608E-02  0.9019788E-01
          2   -1    0    0  501    0  0.00000000000E+00  0.00000000000E+00  0.21458499284E+04  0.21458499284E+04  0.25500000000E-02 0. -1.
         -2   -1    0    0    0  501 -0.00000000000E+00 -0.00000000000E+00 -0.10972309640E+04  0.10972309640E+04  0.25500000000E-02 0.  1.
    8880022    1    1    2    0    0 -0.12846915003E+04 -0.22039293694E+03  0.13644861531E+04  0.18932034789E+04  0.15294330000E+03 0.  0.
    8880022    1    1    2    0    0  0.12846915003E+04  0.22039293694E+03 -0.31586718872E+03  0.13498774135E+04  0.15294330000E+03 0.  0.
<mgrwt>
<rscale>  0 0.13124012E+04</rscale>
<asrwt>0</asrwt>
<pdfrwt beam="1">  1        2 0.33013076E+00 0.13124012E+04</pdfrwt>
<pdfrwt beam="2">  1       -2 0.16880476E+00 0.13124012E+04</pdfrwt>
<totfact> 0.11562792E+00</totfact>
</mgrwt>
</event>
<event>
 4    1  0.3365401E-008  0.3137646E+03  0.7818608E-02  0.1078555E+00
         -2   -1    0    0    0  501 -0.00000000000E+00  0.00000000000E+00  0.27165730505E+03  0.27165730507E+03  0.25500000000E-02 0.  1.
          2   -1    0    0  501    0  0.00000000000E+00 -0.00000000000E+00 -0.51226969627E+03  0.51226969628E+03  0.25500000000E-02 0. -1.
    8880022    1    1    2    0    0 -0.27394570478E+03 -0.32156958249E+01 -0.33231561295E+03  0.45703600459E+03  0.15294330000E+03 0.  0.
    8880022    1    1    2    0    0  0.27394570478E+03  0.32156958249E+01  0.91703221734E+02  0.32689099675E+03  0.15294330000E+03 0.  0.
<mgrwt>
<rscale>  0 0.31376463E+03</rscale>
<asrwt>0</asrwt>
<pdfrwt beam="1">  1        2 0.78810723E-01 0.31376463E+03</pdfrwt>
<pdfrwt beam="2">  1       -2 0.41793432E-01 0.31376463E+03</pdfrwt>
<totfact> 0.33303918E+02</totfact>
</mgrwt>
</event>
<event>
 4    1  0.3365401E-008  0.5073355E+03  0.7818608E-02  0.1011882E+00
         -2   -1    0    0    0  501 -0.00000000000E+00  0.00000000000E+00  0.14968123428E+04  0.14968123428E+04  0.25500000000E-02 0.  1.
          2   -1    0    0  501    0  0.00000000000E+00 -0.00000000000E+00 -0.32061568696E+03  0.32061568697E+03  0.25500000000E-02 0. -1.
    8880022    1    1    2    0    0 -0.47780170893E+03 -0.75519643174E+02  0.12068666244E+04  0.13091662964E+04  0.15294330000E+03 0.  0.
    8880022    1    1    2    0    0  0.47780170893E+03  0.75519643174E+02 -0.30669968599E+02  0.50826173331E+03  0.15294330000E+03 0. -1.
<mgrwt>
<rscale>  0 0.50733553E+03</rscale>
<asrwt>0</asrwt>
<pdfrwt beam="1">  1        2 0.49325490E-01 0.50733553E+03</pdfrwt>
<pdfrwt beam="2">  1       -2 0.23027882E+00 0.50733553E+03</pdfrwt>
<totfact> 0.91650528E+00</totfact>
</mgrwt>
</event>
<event>
 4    1  0.3365401E-008  0.1308129E+04  0.7818608E-02  0.9023144E-01
         -2   -1    0    0    0  501 -0.00000000000E+00  0.00000000000E+00  0.13479000443E+04  0.13479000443E+04  0.25500000000E-02 0.  1.
          2   -1    0    0  501    0  0.00000000000E+00 -0.00000000000E+00 -0.15240557177E+04  0.15240557177E+04  0.25500000000E-02 0. -1.
    8880022    1    1    2    0    0  0.88356030060E+03  0.95243379644E+03  0.49875242046E+03  0.13999837754E+04  0.15294330000E+03 0.  0.
    8880022    1    1    2    0    0 -0.88356030060E+03 -0.95243379644E+03 -0.67490809381E+03  0.14719719867E+04  0.15294330000E+03 0.  0.
<mgrwt>
<rscale>  0 0.13081287E+04</rscale>
<asrwt>0</asrwt>
<pdfrwt beam="1">  1        2 0.23447011E+00 0.13081287E+04</pdfrwt>
<pdfrwt beam="2">  1       -2 0.20736924E+00 0.13081287E+04</pdfrwt>
<totfact> 0.14048109E+00</totfact>
</mgrwt>
</event>
<event>
 4    1  0.3365401E-008  0.9063393E+03  0.7818608E-02  0.9417692E-01
         -2   -1    0    0    0  501 -0.00000000000E+00  0.00000000000E+00  0.69487393508E+03  0.69487393508E+03  0.25500000000E-02 0.  1.
          2   -1    0    0  501    0  0.00000000000E+00 -0.00000000000E+00 -0.19705433777E+04  0.19705433777E+04  0.25500000000E-02 0. -1.
    8880022    1    1    2    0    0  0.85235163207E+03 -0.26749933577E+03 -0.14808034638E+04  0.17361537232E+04  0.15294330000E+03 0.  0.
    8880022    1    1    2    0    0 -0.85235163207E+03  0.26749933577E+03  0.20513402111E+03  0.92926358960E+03  0.15294330000E+03 0.  0.
<mgrwt>
<rscale>  0 0.90633926E+03</rscale>
<asrwt>0</asrwt>
<pdfrwt beam="1">  1        2 0.30316052E+00 0.90633926E+03</pdfrwt>
<pdfrwt beam="2">  1       -2 0.10690368E+00 0.90633926E+03</pdfrwt>
<totfact> 0.49410481E+00</totfact>
</mgrwt>
</event>
<event>
 4    1  0.3365401E-008  0.1144830E+04  0.7818608E-02  0.9162566E-01
         -2   -1    0    0    0  501 -0.00000000000E+00  0.00000000000E+00  0.95248028663E+03  0.95248028663E+03  0.25500000000E-02 0.  1.
          2   -1    0    0  501    0  0.00000000000E+00 -0.00000000000E+00 -0.21290223183E+04  0.21290223183E+04  0.25500000000E-02 0. -1.
    8880022    1    1    2    0    0 -0.16044409588E+03 -0.11231658987E+04  0.32803277038E+03  0.11908992801E+04  0.15294330000E+03 0.  0.
    8880022    1    1    2    0    0  0.16044409588E+03  0.11231658987E+04 -0.15045748021E+04  0.18906033249E+04  0.15294330000E+03 0.  0.
<mgrwt>
<rscale>  0 0.11448299E+04</rscale>
<asrwt>0</asrwt>
<pdfrwt beam="1">  1        2 0.32754189E+00 0.11448299E+04</pdfrwt>
<pdfrwt beam="2">  1       -2 0.14653543E+00 0.11448299E+04</pdfrwt>
<totfact> 0.17695430E+00</totfact>
</mgrwt>
</event>
<event>
 4    1  0.3365401E-008  0.5236900E+03  0.7818608E-02  0.1007774E+00
         -2   -1    0    0    0  501 -0.00000000000E+00  0.00000000000E+00  0.38341194614E+03  0.38341194615E+03  0.25500000000E-02 0.  1.
          2   -1    0    0  501    0  0.00000000000E+00 -0.00000000000E+00 -0.12679291973E+04  0.12679291973E+04  0.25500000000E-02 0. -1.
    8880022    1    1    2    0    0  0.11329850971E+03  0.48787605143E+03  0.10284568752E+03  0.53369324740E+03  0.15294330000E+03 0.  0.
    8880022    1    1    2    0    0 -0.11329850971E+03 -0.48787605143E+03 -0.98736293869E+03  0.11176478961E+04  0.15294330000E+03 0.  0.
<mgrwt>
<rscale>  0 0.52369003E+03</rscale>
<asrwt>0</asrwt>
<pdfrwt beam="1">  1        2 0.19506603E+00 0.52369003E+03</pdfrwt>
<pdfrwt beam="2">  1       -2 0.58986454E-01 0.52369003E+03</pdfrwt>
<totfact> 0.48477627E+01</totfact>
</mgrwt>
</event>
<event>
 4    1  0.3365401E-008  0.2461480E+03  0.7818608E-02  0.1115764E+00
          2   -1    0    0  501    0  0.00000000000E+00  0.00000000000E+00  0.10519822824E+04  0.10519822824E+04  0.25500000000E-02 0. -1.
         -2   -1    0    0    0  501 -0.00000000000E+00 -0.00000000000E+00 -0.63932777285E+03  0.63932777286E+03  0.25500000000E-02 0.  1.
    8880022    1    1    2    0    0 -0.16490698440E+03  0.10001434306E+03 -0.60033780328E+03  0.64884074578E+03  0.15294330000E+03 0.  0.
    8880022    1    1    2    0    0  0.16490698440E+03 -0.10001434306E+03  0.10129923128E+04  0.10424693094E+04  0.15294330000E+03 0. -1.
<mgrwt>
<rscale>  0 0.24614799E+03</rscale>
<asrwt>0</asrwt>
<pdfrwt beam="1">  1        2 0.16184343E+00 0.24614799E+03</pdfrwt>
<pdfrwt beam="2">  1       -2 0.98358120E-01 0.24614799E+03</pdfrwt>
<totfact> 0.22298372E+01</totfact>
</mgrwt>
</event>
<event>
 4    1  0.3365401E-008  0.3284461E+03  0.7818608E-02  0.1071827E+00
         -2   -1    0    0    0  501 -0.00000000000E+00  0.00000000000E+00  0.52711187895E+03  0.52711187895E+03  0.25500000000E-02 0.  1.
          2   -1    0    0  501    0  0.00000000000E+00 -0.00000000000E+00 -0.45794522948E+03  0.45794522949E+03  0.25500000000E-02 0. -1.
    8880022    1    1    2    0    0 -0.23046691572E+03 -0.17711626920E+03  0.40087972742E+03  0.51824837764E+03  0.15294330000E+03 0.  0.
    8880022    1    1    2    0    0  0.23046691572E+03  0.17711626920E+03 -0.33171307795E+03  0.46680873080E+03  0.15294330000E+03 0.  0.
<mgrwt>
<rscale>  0 0.32844608E+03</rscale>
<asrwt>0</asrwt>
<pdfrwt beam="1">  1        2 0.70453112E-01 0.32844608E+03</pdfrwt>
<pdfrwt beam="2">  1       -2 0.81094135E-01 0.32844608E+03</pdfrwt>
<totfact> 0.95341798E+01</totfact>
</mgrwt>
</event>
<event>
 4    1  0.3365401E-008  0.7717446E+03  0.7818608E-02  0.9601841E-01
          2   -1    0    0  501    0  0.00000000000E+00  0.00000000000E+00  0.45306032467E+03  0.45306032468E+03  0.25500000000E-02 0. -1.
         -2   -1    0    0    0  501 -0.00000000000E+00 -0.00000000000E+00 -0.16705485903E+04  0.16705485903E+04  0.25500000000E-02 0.  1.
    8880022    1    1    2    0    0 -0.70493460520E+03 -0.27434516565E+03 -0.11861199389E+03  0.78080633042E+03  0.15294330000E+03 0.  0.
    8880022    1    1    2    0    0  0.70493460520E+03  0.27434516565E+03 -0.10988762718E+04  0.13428025846E+04  0.15294330000E+03 0.  0.
<mgrwt>
<rscale>  0 0.77174460E+03</rscale>
<asrwt>0</asrwt>
<pdfrwt beam="1">  1        2 0.69701590E-01 0.77174460E+03</pdfrwt>
<pdfrwt beam="2">  1       -2 0.25700747E+00 0.77174460E+03</pdfrwt>
<totfact> 0.41267927E+00</totfact>
</mgrwt>
</event>
<event>
 4    1  0.3365401E-008  0.8212067E+03  0.7818608E-02  0.9529819E-01
         -2   -1    0    0    0  501 -0.00000000000E+00  0.00000000000E+00  0.77962444350E+03  0.77962444351E+03  0.25500000000E-02 0.  1.
          2   -1    0    0  501    0  0.00000000000E+00 -0.00000000000E+00 -0.10400443935E+04  0.10400443935E+04  0.25500000000E-02 0. -1.
    8880022    1    1    2    0    0 -0.40372250032E+03 -0.69856771762E+03  0.24304208686E+03  0.85641685081E+03  0.15294330000E+03 0.  0.
    8880022    1    1    2    0    0  0.40372250032E+03  0.69856771762E+03 -0.50346203687E+03  0.96325198621E+03  0.15294330000E+03 0.  0.
<mgrwt>
<rscale>  0 0.82120665E+03</rscale>
<asrwt>0</asrwt>
<pdfrwt beam="1">  1        2 0.16000683E+00 0.82120665E+03</pdfrwt>
<pdfrwt beam="2">  1       -2 0.11994222E+00 0.82120665E+03</pdfrwt>
<totfact> 0.12746472E+01</totfact>
</mgrwt>
</event>
<event>
 4    1  0.3365401E-008  0.3198587E+03  0.7818608E-02  0.1075714E+00
         -2   -1    0    0    0  501 -0.00000000000E+00  0.00000000000E+00  0.36862389183E+03  0.36862389184E+03  0.25500000000E-02 0.  1.
          2   -1    0    0  501    0  0.00000000000E+00 -0.00000000000E+00 -0.55017131591E+03  0.55017131591E+03  0.25500000000E-02 0. -1.
    8880022    1    1    2    0    0 -0.13993772386E+03  0.24358854611E+03 -0.41416170989E+03  0.52329678129E+03  0.15294330000E+03 0. -1.
    8880022    1    1    2    0    0  0.13993772386E+03 -0.24358854611E+03  0.23261428581E+03  0.39549842646E+03  0.15294330000E+03 0.  0.
<mgrwt>
<rscale>  0 0.31985872E+03</rscale>
<asrwt>0</asrwt>
<pdfrwt beam="1">  1        2 0.84641741E-01 0.31985872E+03</pdfrwt>
<pdfrwt beam="2">  1       -2 0.56711368E-01 0.31985872E+03</pdfrwt>
<totfact> 0.16671808E+02</totfact>
</mgrwt>
</event>
<event>
 4    1  0.3365401E-008  0.8290408E+03  0.7818608E-02  0.9518908E-01
         -2   -1    0    0    0  501 -0.00000000000E+00  0.00000000000E+00  0.38237220827E+03  0.38237220827E+03  0.25500000000E-02 0.  1.
          2   -1    0    0  501    0  0.00000000000E+00 -0.00000000000E+00 -0.22166060524E+04  0.22166060524E+04  0.25500000000E-02 0. -1.
    8880022    1    1    2    0    0 -0.32064676547E+03  0.74906788399E+03 -0.35205296426E+03  0.90069416879E+03  0.15294330000E+03 0.  0.
    8880022    1    1    2    0    0  0.32064676547E+03 -0.74906788399E+03 -0.14821808798E+04  0.16982840918E+04  0.15294330000E+03 0.  0.
<mgrwt>
<rscale>  0 0.82904083E+03</rscale>
<asrwt>0</asrwt>
<pdfrwt beam="1">  1        2 0.34101631E+00 0.82904083E+03</pdfrwt>
<pdfrwt beam="2">  1       -2 0.58826495E-01 0.82904083E+03</pdfrwt>
<totfact> 0.14033390E+01</totfact>
</mgrwt>
</event>
<event>
 4    1  0.3365401E-008  0.6273337E+03  0.7818608E-02  0.9850266E-01
          2   -1    0    0  501    0  0.00000000000E+00  0.00000000000E+00  0.20652477733E+04  0.20652477733E+04  0.25500000000E-02 0. -1.
         -2   -1    0    0    0  501 -0.00000000000E+00 -0.00000000000E+00 -0.36470439957E+03  0.36470439958E+03  0.25500000000E-02 0.  1.
    8880022    1    1    2    0    0 -0.57092870601E+03 -0.21022935635E+03  0.16898391576E+04  0.18025271153E+04  0.15294330000E+03 0.  0.
    8880022    1    1    2    0    0  0.57092870601E+03  0.21022935635E+03  0.10704216067E+02  0.62742505758E+03  0.15294330000E+03 0.  0.
<mgrwt>
<rscale>  0 0.62733374E+03</rscale>
<asrwt>0</asrwt>
<pdfrwt beam="1">  1        2 0.31773042E+00 0.62733374E+03</pdfrwt>
<pdfrwt beam="2">  1       -2 0.56108370E-01 0.62733374E+03</pdfrwt>
<totfact> 0.19341697E+01</totfact>
</mgrwt>
</event>
<event>
 4    1  0.3365401E-008  0.8410962E+03  0.7818608E-02  0.9502366E-01
         -2   -1    0    0    0  501 -0.00000000000E+00  0.00000000000E+00  0.26237479575E+04  0.26237479575E+04  0.25500000000E-02 0.  1.
          2   -1    0    0  501    0  0.00000000000E+00 -0.00000000000E+00 -0.11267637227E+04  0.11267637227E+04  0.25500000000E-02 0. -1.
    8880022    1    1    2    0    0 -0.78154525639E+02 -0.82337300109E+03 -0.88707444656E+03  0.12224336201E+04  0.15294330000E+03 0.  0.
    8880022    1    1    2    0    0  0.78154525639E+02  0.82337300109E+03  0.23840586814E+04  0.25280780601E+04  0.15294330000E+03 0.  0.
<mgrwt>
<rscale>  0 0.84109624E+03</rscale>
<asrwt>0</asrwt>
<pdfrwt beam="1">  1        2 0.17334827E+00 0.84109624E+03</pdfrwt>
<pdfrwt beam="2">  1       -2 0.40365353E+00 0.84109624E+03</pdfrwt>
<totfact> 0.15458377E-01</totfact>
</mgrwt>
</event>
<event>
 4    1  0.3365401E-008  0.6015116E+03  0.7818608E-02  0.9902275E-01
          2   -1    0    0  501    0  0.00000000000E+00  0.00000000000E+00  0.19410017485E+04  0.19410017485E+04  0.25500000000E-02 0. -1.
         -2   -1    0    0    0  501 -0.00000000000E+00 -0.00000000000E+00 -0.47729653649E+03  0.47729653650E+03  0.25500000000E-02 0.  1.
    8880022    1    1    2    0    0 -0.27386155578E+03 -0.51324892083E+03 -0.21209915527E+03  0.63781056055E+03  0.15294330000E+03 0.  0.
    8880022    1    1    2    0    0  0.27386155578E+03  0.51324892083E+03  0.16758043672E+04  0.17804877244E+04  0.15294330000E+03 0.  0.
<mgrwt>
<rscale>  0 0.60151165E+03</rscale>
<asrwt>0</asrwt>
<pdfrwt beam="1">  1        2 0.29861566E+00 0.60151165E+03</pdfrwt>
<pdfrwt beam="2">  1       -2 0.73430235E-01 0.60151165E+03</pdfrwt>
<totfact> 0.12769163E+01</totfact>
</mgrwt>
</event>
<event>
 4    1  0.3365401E-008  0.2985201E+03  0.7818608E-02  0.1085983E+00
         -2   -1    0    0    0  501 -0.00000000000E+00  0.00000000000E+00  0.89562310479E+02  0.89562310516E+02  0.25500000000E-02 0.  1.
          2   -1    0    0  501    0  0.00000000000E+00 -0.00000000000E+00 -0.18540794595E+04  0.18540794595E+04  0.25500000000E-02 0. -1.
    8880022    1    1    2    0    0  0.68799413709E+02 -0.24695997294E+03 -0.22074394430E+03  0.37127096509E+03  0.15294330000E+03 0.  0.
    8880022    1    1    2    0    0 -0.68799413709E+02  0.24695997294E+03 -0.15437732048E+04  0.15723708050E+04  0.15294330000E+03 0.  0.
<mgrwt>
<rscale>  0 0.29852008E+03</rscale>
<asrwt>0</asrwt>
<pdfrwt beam="1">  1        2 0.28524297E+00 0.29852008E+03</pdfrwt>
<pdfrwt beam="2">  1       -2 0.13778818E-01 0.29852008E+03</pdfrwt>
<totfact> 0.34897760E+02</totfact>
</mgrwt>
</event>
<event>
 4    1  0.3365401E-008  0.1986446E+03  0.7818608E-02  0.1150888E+00
          2   -1    0    0  501    0  0.00000000000E+00  0.00000000000E+00  0.11759003121E+04  0.11759003121E+04  0.25500000000E-02 0. -1.
         -2   -1    0    0    0  501 -0.00000000000E+00 -0.00000000000E+00 -0.14842163319E+03  0.14842163321E+03  0.25500000000E-02 0.  1.
    8880022    1    1    2    0    0  0.12551251924E+03  0.17738175317E+02  0.10962557162E+04  0.11141078420E+04  0.15294330000E+03 0.  0.
    8880022    1    1    2    0    0 -0.12551251924E+03 -0.17738175317E+02 -0.68777037289E+02  0.21021410329E+03  0.15294330000E+03 0.  1.
<mgrwt>
<rscale>  0 0.19864463E+03</rscale>
<asrwt>0</asrwt>
<pdfrwt beam="1">  1        2 0.18090774E+00 0.19864463E+03</pdfrwt>
<pdfrwt beam="2">  1       -2 0.22834098E-01 0.19864463E+03</pdfrwt>
<totfact> 0.35040915E+02</totfact>
</mgrwt>
</event>
<event>
 4    1  0.3365401E-008  0.5062183E+03  0.7818608E-02  0.1012168E+00
          2   -1    0    0  501    0  0.00000000000E+00  0.00000000000E+00  0.31473383712E+04  0.31473383712E+04  0.25500000000E-02 0. -1.
         -2   -1    0    0    0  501 -0.00000000000E+00 -0.00000000000E+00 -0.22535378429E+03  0.22535378431E+03  0.25500000000E-02 0.  1.
    8880022    1    1    2    0    0  0.46958797312E+03 -0.11114144774E+03  0.28086988467E+04  0.28539527239E+04  0.15294330000E+03 0.  0.
    8880022    1    1    2    0    0 -0.46958797312E+03  0.11114144774E+03  0.11328574017E+03  0.51873943155E+03  0.15294330000E+03 0.  0.
<mgrwt>
<rscale>  0 0.50621827E+03</rscale>
<asrwt>0</asrwt>
<pdfrwt beam="1">  1        2 0.48420588E+00 0.50621827E+03</pdfrwt>
<pdfrwt beam="2">  1       -2 0.34669815E-01 0.50621827E+03</pdfrwt>
<totfact> 0.12320217E+01</totfact>
</mgrwt>
</event>
<event>
 4    1  0.3365401E-008  0.8639377E+03  0.7818608E-02  0.9471819E-01
         -2   -1    0    0    0  501 -0.00000000000E+00  0.00000000000E+00  0.62646844390E+03  0.62646844390E+03  0.25500000000E-02 0.  1.
          2   -1    0    0  501    0  0.00000000000E+00 -0.00000000000E+00 -0.25842336100E+04  0.25842336100E+04  0.25500000000E-02 0. -1.
    8880022    1    1    2    0    0 -0.85020204309E+03 -0.12378445978E+02 -0.21574387576E+04  0.23239901862E+04  0.15294330000E+03 0.  0.
    8880022    1    1    2    0    0  0.85020204309E+03  0.12378445978E+02  0.19967359153E+03  0.88671186762E+03  0.15294330000E+03 0.  1.
<mgrwt>
<rscale>  0 0.86393773E+03</rscale>
<asrwt>0</asrwt>
<pdfrwt beam="1">  1        2 0.39757439E+00 0.86393773E+03</pdfrwt>
<pdfrwt beam="2">  1       -2 0.96379762E-01 0.86393773E+03</pdfrwt>
<totfact> 0.28900979E+00</totfact>
</mgrwt>
</event>
<event>
 4    1  0.3365401E-008  0.9961852E+03  0.7818608E-02  0.9312739E-01
         -2   -1    0    0    0  501 -0.00000000000E+00  0.00000000000E+00  0.79169030237E+03  0.79169030237E+03  0.25500000000E-02 0.  1.
          2   -1    0    0  501    0  0.00000000000E+00 -0.00000000000E+00 -0.14357493328E+04  0.14357493328E+04  0.25500000000E-02 0. -1.
    8880022    1    1    2    0    0  0.41072536347E+03 -0.89459373356E+03 -0.71882608298E+03  0.12284526295E+04  0.15294330000E+03 0.  0.
    8880022    1    1    2    0    0 -0.41072536347E+03  0.89459373356E+03  0.74767052559E+02  0.99898700567E+03  0.15294330000E+03 0.  0.
<mgrwt>
<rscale>  0 0.99618519E+03</rscale>
<asrwt>0</asrwt>
<pdfrwt beam="1">  1        2 0.22088451E+00 0.99618519E+03</pdfrwt>
<pdfrwt beam="2">  1       -2 0.12179851E+00 0.99618519E+03</pdfrwt>
<totfact> 0.70209478E+00</totfact>
</mgrwt>
</event>
<event>
 4    1  0.3365401E-008  0.1139109E+04  0.7818608E-02  0.9167890E-01
          2   -1    0    0  501    0  0.00000000000E+00  0.00000000000E+00  0.32753109227E+04  0.32753109227E+04  0.25500000000E-02 0. -1.
         -2   -1    0    0    0  501 -0.00000000000E+00 -0.00000000000E+00 -0.54421298181E+03  0.54421298182E+03  0.25500000000E-02 0.  1.
    8880022    1    1    2    0    0 -0.43496216188E+03 -0.10416262616E+04  0.36947041075E+03  0.11975297025E+04  0.15294330000E+03 0.  0.
    8880022    1    1    2    0    0  0.43496216188E+03  0.10416262616E+04  0.23616275301E+04  0.26219942019E+04  0.15294330000E+03 0.  0.
<mgrwt>
<rscale>  0 0.11391089E+04</rscale>
<asrwt>0</asrwt>
<pdfrwt beam="1">  1        2 0.50389399E+00 0.11391089E+04</pdfrwt>
<pdfrwt beam="2">  1       -2 0.83725073E-01 0.11391089E+04</pdfrwt>
<totfact> 0.14521181E+00</totfact>
</mgrwt>
</event>
<event>
 4    1  0.3365401E-008  0.3453546E+03  0.7818608E-02  0.1064538E+00
          2   -1    0    0  501    0  0.00000000000E+00  0.00000000000E+00  0.13250847714E+04  0.13250847714E+04  0.25500000000E-02 0. -1.
         -2   -1    0    0    0  501 -0.00000000000E+00 -0.00000000000E+00 -0.42067850826E+03  0.42067850826E+03  0.25500000000E-02 0.  1.
    8880022    1    1    2    0    0 -0.18598362884E+03 -0.24756454966E+03 -0.32168317938E+03  0.47196380937E+03  0.15294330000E+03 0.  0.
    8880022    1    1    2    0    0  0.18598362884E+03  0.24756454966E+03  0.12260894425E+04  0.12737994703E+04  0.15294330000E+03 0. -1.
<mgrwt>
<rscale>  0 0.34535456E+03</rscale>
<asrwt>0</asrwt>
<pdfrwt beam="1">  1        2 0.20385920E+00 0.34535456E+03</pdfrwt>
<pdfrwt beam="2">  1       -2 0.64719770E-01 0.34535456E+03</pdfrwt>
<totfact> 0.38209899E+01</totfact>
</mgrwt>
</event>
<event>
 4    1  0.3365401E-008  0.3766618E+03  0.7818608E-02  0.1052174E+00
          2   -1    0    0  501    0  0.00000000000E+00  0.00000000000E+00  0.17596395305E+04  0.17596395305E+04  0.25500000000E-02 0. -1.
         -2   -1    0    0    0  501 -0.00000000000E+00 -0.00000000000E+00 -0.18259373309E+03  0.18259373310E+03  0.25500000000E-02 0.  1.
    8880022    1    1    2    0    0  0.23298191489E+02 -0.34342347020E+03  0.15142245235E+04  0.15603685610E+04  0.15294330000E+03 0. -1.
    8880022    1    1    2    0    0 -0.23298191489E+02  0.34342347020E+03  0.62821273901E+02  0.38186470258E+03  0.15294330000E+03 0.  0.
<mgrwt>
<rscale>  0 0.37666184E+03</rscale>
<asrwt>0</asrwt>
<pdfrwt beam="1">  1        2 0.27071378E+00 0.37666184E+03</pdfrwt>
<pdfrwt beam="2">  1       -2 0.28091343E-01 0.37666184E+03</pdfrwt>
<totfact> 0.11300530E+02</totfact>
</mgrwt>
</event>
<event>
 4    1  0.3365401E-008  0.3850950E+03  0.7818608E-02  0.1049067E+00
          2   -1    0    0  501    0  0.00000000000E+00  0.00000000000E+00  0.13472887357E+04  0.13472887357E+04  0.25500000000E-02 0. -1.
         -2   -1    0    0    0  501 -0.00000000000E+00 -0.00000000000E+00 -0.36141057024E+03  0.36141057025E+03  0.25500000000E-02 0.  1.
    8880022    1    1    2    0    0 -0.18990258683E+03  0.29806628461E+03 -0.21952862286E+03  0.44327302171E+03  0.15294330000E+03 0.  1.
    8880022    1    1    2    0    0  0.18990258683E+03 -0.29806628461E+03  0.12054067883E+04  0.12654262842E+04  0.15294330000E+03 0.  0.
<mgrwt>
<rscale>  0 0.38509500E+03</rscale>
<asrwt>0</asrwt>
<pdfrwt beam="1">  1        2 0.20727519E+00 0.38509500E+03</pdfrwt>
<pdfrwt beam="2">  1       -2 0.55601625E-01 0.38509500E+03</pdfrwt>
<totfact> 0.50571600E+01</totfact>
</mgrwt>
</event>
<event>
 4    1  0.3365401E-008  0.5330805E+03  0.7818608E-02  0.1005488E+00
         -2   -1    0    0    0  501 -0.00000000000E+00  0.00000000000E+00  0.78957028793E+03  0.78957028793E+03  0.25500000000E-02 0.  1.
          2   -1    0    0  501    0  0.00000000000E+00 -0.00000000000E+00 -0.86666537496E+03  0.86666537497E+03  0.25500000000E-02 0. -1.
    8880022    1    1    2    0    0 -0.33223972001E+03  0.38781431553E+03  0.59468799050E+03  0.79864174317E+03  0.15294330000E+03 0.  0.
    8880022    1    1    2    0    0  0.33223972001E+03 -0.38781431553E+03 -0.67178307753E+03  0.85759391973E+03  0.15294330000E+03 0.  0.
<mgrwt>
<rscale>  0 0.53308051E+03</rscale>
<asrwt>0</asrwt>
<pdfrwt beam="1">  1        2 0.13333314E+00 0.53308051E+03</pdfrwt>
<pdfrwt beam="2">  1       -2 0.12147235E+00 0.53308051E+03</pdfrwt>
<totfact> 0.16602431E+01</totfact>
</mgrwt>
</event>
<event>
 4    1  0.3365401E-008  0.1172171E+04  0.7818608E-02  0.9137570E-01
         -2   -1    0    0    0  501 -0.00000000000E+00  0.00000000000E+00  0.11811783051E+04  0.11811783051E+04  0.25500000000E-02 0.  1.
          2   -1    0    0  501    0  0.00000000000E+00 -0.00000000000E+00 -0.28472369277E+04  0.28472369277E+04  0.25500000000E-02 0. -1.
    8880022    1    1    2    0    0  0.51011431924E+03 -0.10442105178E+04 -0.23820747823E+04  0.26548567091E+04  0.15294330000E+03 0.  0.
    8880022    1    1    2    0    0 -0.51011431924E+03  0.10442105178E+04  0.71601615971E+03  0.13735585238E+04  0.15294330000E+03 0.  0.
<mgrwt>
<rscale>  0 0.11721706E+04</rscale>
<asrwt>0</asrwt>
<pdfrwt beam="1">  1        2 0.43803645E+00 0.11721706E+04</pdfrwt>
<pdfrwt beam="2">  1       -2 0.18171974E+00 0.11721706E+04</pdfrwt>
<totfact> 0.37611888E-01</totfact>
</mgrwt>
</event>
<event>
 4    1  0.3365401E-008  0.3680768E+03  0.7818608E-02  0.1055431E+00
          2   -1    0    0  501    0  0.00000000000E+00  0.00000000000E+00  0.58430432786E+03  0.58430432787E+03  0.25500000000E-02 0. -1.
         -2   -1    0    0    0  501 -0.00000000000E+00 -0.00000000000E+00 -0.12521839562E+04  0.12521839562E+04  0.25500000000E-02 0.  1.
    8880022    1    1    2    0    0  0.62814221339E+02 -0.32885143296E+03 -0.11628200369E+04  0.12196847882E+04  0.15294330000E+03 0.  1.
    8880022    1    1    2    0    0 -0.62814221339E+02  0.32885143296E+03  0.49494040861E+03  0.61680349581E+03  0.15294330000E+03 0.  0.
<mgrwt>
<rscale>  0 0.36807682E+03</rscale>
<asrwt>0</asrwt>
<pdfrwt beam="1">  1        2 0.89892974E-01 0.36807682E+03</pdfrwt>
<pdfrwt beam="2">  1       -2 0.19264369E+00 0.36807682E+03</pdfrwt>
<totfact> 0.82567236E+00</totfact>
</mgrwt>
</event>
<event>
 4    1  0.3365401E-008  0.3590831E+03  0.7818608E-02  0.1058948E+00
         -2   -1    0    0    0  501 -0.00000000000E+00  0.00000000000E+00  0.78558978717E+03  0.78558978718E+03  0.25500000000E-02 0.  1.
          2   -1    0    0  501    0  0.00000000000E+00 -0.00000000000E+00 -0.43754640431E+03  0.43754640431E+03  0.25500000000E-02 0. -1.
    8880022    1    1    2    0    0  0.62249236572E+02  0.31886363473E+03  0.65746242411E+03  0.74913114815E+03  0.15294330000E+03 0.  0.
    8880022    1    1    2    0    0 -0.62249236572E+02 -0.31886363473E+03 -0.30941904124E+03  0.47400504333E+03  0.15294330000E+03 0. -1.
<mgrwt>
<rscale>  0 0.35908305E+03</rscale>
<asrwt>0</asrwt>
<pdfrwt beam="1">  1        2 0.67314832E-01 0.35908305E+03</pdfrwt>
<pdfrwt beam="2">  1       -2 0.12085997E+00 0.35908305E+03</pdfrwt>
<totfact> 0.39370263E+01</totfact>
</mgrwt>
</event>
<event>
 4    1  0.3365401E-008  0.8006051E+03  0.7818608E-02  0.9559142E-01
          2   -1    0    0  501    0  0.00000000000E+00  0.00000000000E+00  0.22877353360E+04  0.22877353360E+04  0.25500000000E-02 0. -1.
         -2   -1    0    0    0  501 -0.00000000000E+00 -0.00000000000E+00 -0.33845851665E+03  0.33845851666E+03  0.25500000000E-02 0.  1.
    8880022    1    1    2    0    0 -0.42503384042E+03  0.66100159128E+03  0.15195339222E+04  0.17175423904E+04  0.15294330000E+03 0.  0.
    8880022    1    1    2    0    0  0.42503384042E+03 -0.66100159128E+03  0.42974289716E+03  0.90865146225E+03  0.15294330000E+03 0.  0.
<mgrwt>
<rscale>  0 0.80060510E+03</rscale>
<asrwt>0</asrwt>
<pdfrwt beam="1">  1        2 0.35195930E+00 0.80060510E+03</pdfrwt>
<pdfrwt beam="2">  1       -2 0.52070539E-01 0.80060510E+03</pdfrwt>
<totfact> 0.16581758E+01</totfact>
</mgrwt>
</event>
<event>
 4    1  0.3365401E-008  0.1022183E+04  0.7818608E-02  0.9284545E-01
         -2   -1    0    0    0  501 -0.00000000000E+00  0.00000000000E+00  0.13429031600E+04  0.13429031600E+04  0.25500000000E-02 0.  1.
          2   -1    0    0  501    0  0.00000000000E+00 -0.00000000000E+00 -0.12438720776E+04  0.12438720776E+04  0.25500000000E-02 0. -1.
    8880022    1    1    2    0    0  0.73448295754E+03 -0.69426236499E+03  0.84100831234E+03  0.13236888157E+04  0.15294330000E+03 0.  0.
    8880022    1    1    2    0    0 -0.73448295754E+03  0.69426236499E+03 -0.74197723001E+03  0.12630864219E+04  0.15294330000E+03 0.  0.
<mgrwt>
<rscale>  0 0.10221825E+04</rscale>
<asrwt>0</asrwt>
<pdfrwt beam="1">  1        2 0.19136493E+00 0.10221825E+04</pdfrwt>
<pdfrwt beam="2">  1       -2 0.20660049E+00 0.10221825E+04</pdfrwt>
<totfact> 0.21269838E+00</totfact>
</mgrwt>
</event>
<event>
 4    1  0.3365401E-008  0.1904183E+03  0.7818608E-02  0.1158085E+00
         -2   -1    0    0    0  501 -0.00000000000E+00  0.00000000000E+00  0.75756662312E+02  0.75756662355E+02  0.25500000000E-02 0.  1.
          2   -1    0    0  501    0  0.00000000000E+00 -0.00000000000E+00 -0.28150030764E+04  0.28150030764E+04  0.25500000000E-02 0. -1.
    8880022    1    1    2    0    0  0.26391623230E+02 -0.11032198248E+03 -0.52840755360E+02  0.19761390649E+03  0.15294330000E+03 0.  0.
    8880022    1    1    2    0    0 -0.26391623230E+02  0.11032198248E+03 -0.26864056587E+04  0.26931458322E+04  0.15294330000E+03 0. -1.
<mgrwt>
<rscale>  0 0.19041825E+03</rscale>
<asrwt>0</asrwt>
<pdfrwt beam="1">  1        2 0.43307732E+00 0.19041825E+03</pdfrwt>
<pdfrwt beam="2">  1       -2 0.11654873E-01 0.19041825E+03</pdfrwt>
<totfact> 0.14340616E+02</totfact>
</mgrwt>
</event>
<event>
 4    1  0.3365401E-008  0.2832485E+03  0.7818608E-02  0.1093928E+00
          2   -1    0    0  501    0  0.00000000000E+00  0.00000000000E+00  0.52045436715E+03  0.52045436716E+03  0.25500000000E-02 0. -1.
         -2   -1    0    0    0  501 -0.00000000000E+00 -0.00000000000E+00 -0.57425351050E+03  0.57425351050E+03  0.25500000000E-02 0.  1.
    8880022    1    1    2    0    0  0.19479838659E+02 -0.23761021799E+03  0.44125890688E+03  0.52434640814E+03  0.15294330000E+03 0. -1.
    8880022    1    1    2    0    0 -0.19479838659E+02  0.23761021799E+03 -0.49505805023E+03  0.57036146953E+03  0.15294330000E+03 0.  0.
<mgrwt>
<rscale>  0 0.28324854E+03</rscale>
<asrwt>0</asrwt>
<pdfrwt beam="1">  1        2 0.80069902E-01 0.28324854E+03</pdfrwt>
<pdfrwt beam="2">  1       -2 0.88346695E-01 0.28324854E+03</pdfrwt>
<totfact> 0.68516673E+01</totfact>
</mgrwt>
</event>
<event>
 4    1  0.3365401E-008  0.7925211E+03  0.7818608E-02  0.9570906E-01
         -2   -1    0    0    0  501 -0.00000000000E+00  0.00000000000E+00  0.87720092907E+03  0.87720092908E+03  0.25500000000E-02 0.  1.
          2   -1    0    0  501    0  0.00000000000E+00 -0.00000000000E+00 -0.16771188290E+04  0.16771188290E+04  0.25500000000E-02 0. -1.
    8880022    1    1    2    0    0 -0.73735251274E+03 -0.24700055516E+03 -0.13667849936E+04  0.15799338195E+04  0.15294330000E+03 0.  0.
    8880022    1    1    2    0    0  0.73735251274E+03  0.24700055516E+03  0.56686709370E+03  0.97438593854E+03  0.15294330000E+03 0.  0.
<mgrwt>
<rscale>  0 0.79252108E+03</rscale>
<asrwt>0</asrwt>
<pdfrwt beam="1">  1        2 0.25801828E+00 0.79252108E+03</pdfrwt>
<pdfrwt beam="2">  1       -2 0.13495399E+00 0.79252108E+03</pdfrwt>
<totfact> 0.40777074E+00</totfact>
</mgrwt>
</event>
<event>
 4    1  0.3365401E-008  0.3603506E+03  0.7818608E-02  0.1058445E+00
          2   -1    0    0  501    0  0.00000000000E+00  0.00000000000E+00  0.16509545501E+04  0.16509545501E+04  0.25500000000E-02 0. -1.
         -2   -1    0    0    0  501 -0.00000000000E+00 -0.00000000000E+00 -0.16945429892E+03  0.16945429894E+03  0.25500000000E-02 0.  1.
    8880022    1    1    2    0    0  0.77375729705E+02 -0.31697620762E+03  0.14070329421E+04  0.14524442409E+04  0.15294330000E+03 0.  0.
    8880022    1    1    2    0    0 -0.77375729705E+02  0.31697620762E+03  0.74467309145E+02  0.36796460821E+03  0.15294330000E+03 0.  1.
<mgrwt>
<rscale>  0 0.36035062E+03</rscale>
<asrwt>0</asrwt>
<pdfrwt beam="1">  1        2 0.25399299E+00 0.36035062E+03</pdfrwt>
<pdfrwt beam="2">  1       -2 0.26069894E-01 0.36035062E+03</pdfrwt>
<totfact> 0.14822295E+02</totfact>
</mgrwt>
</event>
<event>
 4    1  0.3365401E-008  0.7811635E+03  0.7818608E-02  0.9587690E-01
         -2   -1    0    0    0  501 -0.00000000000E+00  0.00000000000E+00  0.54370554799E+03  0.54370554800E+03  0.25500000000E-02 0.  1.
          2   -1    0    0  501    0  0.00000000000E+00 -0.00000000000E+00 -0.14374794445E+04  0.14374794445E+04  0.25500000000E-02 0. -1.
    8880022    1    1    2    0    0  0.57526998842E+03 -0.50585493676E+03 -0.91071100342E+03  0.11998378896E+04  0.15294330000E+03 0.  0.
    8880022    1    1    2    0    0 -0.57526998842E+03  0.50585493676E+03  0.16937106870E+02  0.78134710291E+03  0.15294330000E+03 0.  0.
<mgrwt>
<rscale>  0 0.78116351E+03</rscale>
<asrwt>0</asrwt>
<pdfrwt beam="1">  1        2 0.22115068E+00 0.78116351E+03</pdfrwt>
<pdfrwt beam="2">  1       -2 0.83647008E-01 0.78116351E+03</pdfrwt>
<totfact> 0.17544470E+01</totfact>
</mgrwt>
</event>
<event>
 4    1  0.3365401E-008  0.5331134E+03  0.7818608E-02  0.1005480E+00
          2   -1    0    0  501    0  0.00000000000E+00  0.00000000000E+00  0.40282891300E+04  0.40282891300E+04  0.25500000000E-02 0. -1.
         -2   -1    0    0    0  501 -0.00000000000E+00 -0.00000000000E+00 -0.35244230071E+03  0.35244230072E+03  0.25500000000E-02 0.  1.
    8880022    1    1    2    0    0  0.21460581038E+03  0.46342483460E+03  0.37968201059E+04  0.38340647883E+04  0.15294330000E+03 0.  0.
    8880022    1    1    2    0    0 -0.21460581038E+03 -0.46342483460E+03 -0.12097327670E+03  0.54666664236E+03  0.15294330000E+03 0.  1.
<mgrwt>
<rscale>  0 0.53311339E+03</rscale>
<asrwt>0</asrwt>
<pdfrwt beam="1">  1        2 0.61973683E+00 0.53311339E+03</pdfrwt>
<pdfrwt beam="2">  1       -2 0.54221889E-01 0.53311339E+03</pdfrwt>
<totfact> 0.12341952E+00</totfact>
</mgrwt>
</event>
<event>
 4    1  0.3365401E-008  0.2945692E+03  0.7818608E-02  0.1087987E+00
         -2   -1    0    0    0  501 -0.00000000000E+00  0.00000000000E+00  0.27085099984E+03  0.27085099985E+03  0.25500000000E-02 0.  1.
          2   -1    0    0  501    0  0.00000000000E+00 -0.00000000000E+00 -0.80502244242E+03  0.80502244242E+03  0.25500000000E-02 0. -1.
    8880022    1    1    2    0    0  0.21364764445E+03  0.13316933812E+03 -0.68447844182E+03  0.74517231492E+03  0.15294330000E+03 0.  0.
    8880022    1    1    2    0    0 -0.21364764445E+03 -0.13316933812E+03  0.15030699924E+03  0.33070112735E+03  0.15294330000E+03 0.  0.
<mgrwt>
<rscale>  0 0.29456925E+03</rscale>
<asrwt>0</asrwt>
<pdfrwt beam="1">  1        2 0.12384961E+00 0.29456925E+03</pdfrwt>
<pdfrwt beam="2">  1       -2 0.41669385E-01 0.29456925E+03</pdfrwt>
<totfact> 0.19510932E+02</totfact>
</mgrwt>
</event>
<event>
 4    1  0.3365401E-008  0.1679918E+04  0.7818608E-02  0.8772901E-01
         -2   -1    0    0    0  501 -0.00000000000E+00  0.00000000000E+00  0.12560800750E+04  0.12560800750E+04  0.25500000000E-02 0.  1.
          2   -1    0    0  501    0  0.00000000000E+00 -0.00000000000E+00 -0.25714881610E+04  0.25714881610E+04  0.25500000000E-02 0. -1.
    8880022    1    1    2    0    0 -0.27198815877E+03 -0.16506835598E+04  0.22364513305E+02  0.16800671408E+04  0.15294330000E+03 0.  0.
    8880022    1    1    2    0    0  0.27198815877E+03  0.16506835598E+04 -0.13377725994E+04  0.21475010952E+04  0.15294330000E+03 0.  0.
<mgrwt>
<rscale>  0 0.16799183E+04</rscale>
<asrwt>0</asrwt>
<pdfrwt beam="1">  1        2 0.39561356E+00 0.16799183E+04</pdfrwt>
<pdfrwt beam="2">  1       -2 0.19324309E+00 0.16799183E+04</pdfrwt>
<totfact> 0.43031718E-01</totfact>
</mgrwt>
</event>
<event>
 4    1  0.3365401E-008  0.4153436E+03  0.7818608E-02  0.1038593E+00
          2   -1    0    0  501    0  0.00000000000E+00  0.00000000000E+00  0.29462185448E+03  0.29462185449E+03  0.25500000000E-02 0. -1.
         -2   -1    0    0    0  501 -0.00000000000E+00 -0.00000000000E+00 -0.12541781949E+04  0.12541781949E+04  0.25500000000E-02 0.  1.
    8880022    1    1    2    0    0  0.23890183143E+03  0.30338848110E+03  0.85658748411E+02  0.42408457850E+03  0.15294330000E+03 0.  0.
    8880022    1    1    2    0    0 -0.23890183143E+03 -0.30338848110E+03 -0.10452150889E+04  0.11247154709E+04  0.15294330000E+03 0.  1.
<mgrwt>
<rscale>  0 0.41534360E+03</rscale>
<asrwt>0</asrwt>
<pdfrwt beam="1">  1        2 0.45326440E-01 0.41534360E+03</pdfrwt>
<pdfrwt beam="2">  1       -2 0.19295049E+00 0.41534360E+03</pdfrwt>
<totfact> 0.17518185E+01</totfact>
</mgrwt>
</event>
<event>
 4    1  0.3365401E-008  0.7217995E+03  0.7818608E-02  0.9680662E-01
          2   -1    0    0  501    0  0.00000000000E+00  0.00000000000E+00  0.20579156981E+04  0.20579156981E+04  0.25500000000E-02 0. -1.
         -2   -1    0    0    0  501 -0.00000000000E+00 -0.00000000000E+00 -0.10162125426E+04  0.10162125426E+04  0.25500000000E-02 0.  1.
    8880022    1    1    2    0    0  0.33883449700E+03  0.61870354566E+03 -0.81105936748E+03  0.10857310184E+04  0.15294330000E+03 0.  0.
    8880022    1    1    2    0    0 -0.33883449700E+03 -0.61870354566E+03  0.18527625230E+04  0.19883972222E+04  0.15294330000E+03 0.  0.
<mgrwt>
<rscale>  0 0.72179952E+03</rscale>
<asrwt>0</asrwt>
<pdfrwt beam="1">  1        2 0.31660241E+00 0.72179952E+03</pdfrwt>
<pdfrwt beam="2">  1       -2 0.15634039E+00 0.72179952E+03</pdfrwt>
<totfact> 0.17396484E+00</totfact>
</mgrwt>
</event>
<event>
 4    1  0.3365401E-008  0.4406252E+03  0.7818608E-02  0.1030555E+00
          2   -1    0    0  501    0  0.00000000000E+00  0.00000000000E+00  0.17848440366E+04  0.17848440366E+04  0.25500000000E-02 0. -1.
         -2   -1    0    0    0  501 -0.00000000000E+00 -0.00000000000E+00 -0.22028487783E+03  0.22028487784E+03  0.25500000000E-02 0.  1.
    8880022    1    1    2    0    0 -0.29970835377E+03 -0.28448875393E+03  0.14955793079E+04  0.15591369624E+04  0.15294330000E+03 0.  0.
    8880022    1    1    2    0    0  0.29970835377E+03  0.28448875393E+03  0.68979850915E+02  0.44599195203E+03  0.15294330000E+03 0.  0.
<mgrwt>
<rscale>  0 0.44062524E+03</rscale>
<asrwt>0</asrwt>
<pdfrwt beam="1">  1        2 0.27459138E+00 0.44062524E+03</pdfrwt>
<pdfrwt beam="2">  1       -2 0.33889982E-01 0.44062524E+03</pdfrwt>
<totfact> 0.76562512E+01</totfact>
</mgrwt>
</event>
<event>
 4    1  0.3365401E-008  0.7858200E+03  0.7818608E-02  0.9580772E-01
         -2   -1    0    0    0  501 -0.00000000000E+00  0.00000000000E+00  0.56192892872E+03  0.56192892872E+03  0.25500000000E-02 0.  1.
          2   -1    0    0  501    0  0.00000000000E+00 -0.00000000000E+00 -0.18708657908E+04  0.18708657908E+04  0.25500000000E-02 0. -1.
    8880022    1    1    2    0    0 -0.72365026067E+03  0.26542755270E+03 -0.14358235371E+04  0.16367963735E+04  0.15294330000E+03 0.  0.
    8880022    1    1    2    0    0  0.72365026067E+03 -0.26542755270E+03  0.12688667508E+03  0.79599834599E+03  0.15294330000E+03 0.  0.
<mgrwt>
<rscale>  0 0.78582004E+03</rscale>
<asrwt>0</asrwt>
<pdfrwt beam="1">  1        2 0.28782550E+00 0.78582004E+03</pdfrwt>
<pdfrwt beam="2">  1       -2 0.86450605E-01 0.78582004E+03</pdfrwt>
<totfact> 0.93839573E+00</totfact>
</mgrwt>
</event>
<event>
 4    1  0.3365401E-008  0.5256613E+03  0.7818608E-02  0.1007290E+00
          2   -1    0    0  501    0  0.00000000000E+00  0.00000000000E+00  0.11985632111E+04  0.11985632111E+04  0.25500000000E-02 0. -1.
         -2   -1    0    0    0  501 -0.00000000000E+00 -0.00000000000E+00 -0.64938232252E+03  0.64938232252E+03  0.25500000000E-02 0.  1.
    8880022    1    1    2    0    0  0.15566670517E+03 -0.47822174425E+03  0.10166399842E+04  0.11444984362E+04  0.15294330000E+03 0.  0.
    8880022    1    1    2    0    0 -0.15566670517E+03  0.47822174425E+03 -0.46745909568E+03  0.70344709746E+03  0.15294330000E+03 0.  0.
<mgrwt>
<rscale>  0 0.52566131E+03</rscale>
<asrwt>0</asrwt>
<pdfrwt beam="1">  1        2 0.18439434E+00 0.52566131E+03</pdfrwt>
<pdfrwt beam="2">  1       -2 0.99904972E-01 0.52566131E+03</pdfrwt>
<totfact> 0.16521083E+01</totfact>
</mgrwt>
</event>
<event>
 4    1  0.3365401E-008  0.9689079E+03  0.7818608E-02  0.9343319E-01
         -2   -1    0    0    0  501 -0.00000000000E+00  0.00000000000E+00  0.13682133009E+04  0.13682133009E+04  0.25500000000E-02 0.  1.
          2   -1    0    0  501    0  0.00000000000E+00 -0.00000000000E+00 -0.10554788536E+04  0.10554788536E+04  0.25500000000E-02 0. -1.
    8880022    1    1    2    0    0 -0.95547689228E+03 -0.49544734684E+02  0.87323106225E+03  0.13043446299E+04  0.15294330000E+03 0.  0.
    8880022    1    1    2    0    0  0.95547689228E+03  0.49544734684E+02 -0.56049661500E+03  0.11193475246E+04  0.15294330000E+03 0.  0.
<mgrwt>
<rscale>  0 0.96890785E+03</rscale>
<asrwt>0</asrwt>
<pdfrwt beam="1">  1        2 0.16238136E+00 0.96890785E+03</pdfrwt>
<pdfrwt beam="2">  1       -2 0.21049436E+00 0.96890785E+03</pdfrwt>
<totfact> 0.26305811E+00</totfact>
</mgrwt>
</event>
<event>
 4    1  0.3365401E-008  0.2735184E+03  0.7818608E-02  0.1099283E+00
         -2   -1    0    0    0  501 -0.00000000000E+00  0.00000000000E+00  0.39911123986E+03  0.39911123987E+03  0.25500000000E-02 0.  1.
          2   -1    0    0  501    0  0.00000000000E+00 -0.00000000000E+00 -0.92539643533E+03  0.92539643534E+03  0.25500000000E-02 0. -1.
    8880022    1    1    2    0    0 -0.11072427929E+03 -0.19789082721E+03 -0.85453236484E+03  0.89723902116E+03  0.15294330000E+03 0.  0.
    8880022    1    1    2    0    0  0.11072427929E+03  0.19789082721E+03  0.32824716937E+03  0.42726865405E+03  0.15294330000E+03 0.  0.
<mgrwt>
<rscale>  0 0.27351837E+03</rscale>
<asrwt>0</asrwt>
<pdfrwt beam="1">  1        2 0.14236868E+00 0.27351837E+03</pdfrwt>
<pdfrwt beam="2">  1       -2 0.61401729E-01 0.27351837E+03</pdfrwt>
<totfact> 0.74698195E+01</totfact>
</mgrwt>
</event>
<event>
 4    1  0.3365401E-008  0.9398199E+03  0.7818608E-02  0.9377129E-01
         -2   -1    0    0    0  501 -0.00000000000E+00  0.00000000000E+00  0.59760211605E+03  0.59760211606E+03  0.25500000000E-02 0.  1.
          2   -1    0    0  501    0  0.00000000000E+00 -0.00000000000E+00 -0.20232231576E+04  0.20232231576E+04  0.25500000000E-02 0. -1.
    8880022    1    1    2    0    0  0.68857385029E+03  0.62107636710E+03 -0.32558810296E+02  0.94038371436E+03  0.15294330000E+03 0.  0.
    8880022    1    1    2    0    0 -0.68857385029E+03 -0.62107636710E+03 -0.13930622313E+04  0.16804415593E+04  0.15294330000E+03 0.  0.
<mgrwt>
<rscale>  0 0.93981991E+03</rscale>
<asrwt>0</asrwt>
<pdfrwt beam="1">  1        2 0.31126510E+00 0.93981991E+03</pdfrwt>
<pdfrwt beam="2">  1       -2 0.91938788E-01 0.93981991E+03</pdfrwt>
<totfact> 0.65815286E+00</totfact>
</mgrwt>
</event>
<event>
 4    1  0.3365401E-008  0.9539902E+03  0.7818608E-02  0.9360499E-01
         -2   -1    0    0    0  501 -0.00000000000E+00  0.00000000000E+00  0.67793623430E+03  0.67793623431E+03  0.25500000000E-02 0.  1.
          2   -1    0    0  501    0  0.00000000000E+00 -0.00000000000E+00 -0.25015234029E+04  0.25015234029E+04  0.25500000000E-02 0. -1.
    8880022    1    1    2    0    0  0.73748923422E+03 -0.58550425656E+03 -0.19939150670E+04  0.22103833497E+04  0.15294330000E+03 0.  0.
    8880022    1    1    2    0    0 -0.73748923422E+03  0.58550425656E+03  0.17032789843E+03  0.96907628752E+03  0.15294330000E+03 0.  0.
<mgrwt>
<rscale>  0 0.95399018E+03</rscale>
<asrwt>0</asrwt>
<pdfrwt beam="1">  1        2 0.38484975E+00 0.95399018E+03</pdfrwt>
<pdfrwt beam="2">  1       -2 0.10429788E+00 0.95399018E+03</pdfrwt>
<totfact> 0.26343039E+00</totfact>
</mgrwt>
</event>
<event>
 4    1  0.3365401E-008  0.2774585E+03  0.7818608E-02  0.1097085E+00
         -2   -1    0    0    0  501 -0.00000000000E+00  0.00000000000E+00  0.63348301131E+03  0.63348301131E+03  0.25500000000E-02 0.  1.
          2   -1    0    0  501    0  0.00000000000E+00 -0.00000000000E+00 -0.34614888369E+03  0.34614888370E+03  0.25500000000E-02 0. -1.
    8880022    1    1    2    0    0 -0.22402718320E+03 -0.58338609216E+02  0.53824303717E+03  0.60554834011E+03  0.15294330000E+03 0.  0.
    8880022    1    1    2    0    0  0.22402718320E+03  0.58338609216E+02 -0.25090890955E+03  0.37408355490E+03  0.15294330000E+03 0.  0.
<mgrwt>
<rscale>  0 0.27745851E+03</rscale>
<asrwt>0</asrwt>
<pdfrwt beam="1">  1        2 0.53253674E-01 0.27745851E+03</pdfrwt>
<pdfrwt beam="2">  1       -2 0.97458925E-01 0.27745851E+03</pdfrwt>
<totfact> 0.85943269E+01</totfact>
</mgrwt>
</event>
<event>
 4    1  0.3365401E-008  0.4552616E+03  0.7818608E-02  0.1026164E+00
          2   -1    0    0  501    0  0.00000000000E+00  0.00000000000E+00  0.38832096750E+03  0.38832096751E+03  0.25500000000E-02 0. -1.
         -2   -1    0    0    0  501 -0.00000000000E+00 -0.00000000000E+00 -0.93113017494E+03  0.93113017495E+03  0.25500000000E-02 0.  1.
    8880022    1    1    2    0    0 -0.38670756382E+03 -0.18528018316E+03 -0.70239310818E+03  0.83702999804E+03  0.15294330000E+03 0.  0.
    8880022    1    1    2    0    0  0.38670756382E+03  0.18528018316E+03  0.15958390074E+03  0.48242114441E+03  0.15294330000E+03 0. -1.
<mgrwt>
<rscale>  0 0.45526162E+03</rscale>
<asrwt>0</asrwt>
<pdfrwt beam="1">  1        2 0.59741688E-01 0.45526162E+03</pdfrwt>
<pdfrwt beam="2">  1       -2 0.14325080E+00 0.45526162E+03</pdfrwt>
<totfact> 0.28951110E+01</totfact>
</mgrwt>
</event>
<event>
 4    1  0.5101231E-008  0.9402558E+03  0.7818608E-02  0.9376613E-01
         -2   -1    0    0    0  501 -0.00000000000E+00  0.00000000000E+00  0.12909908957E+04  0.12909908957E+04  0.25500000000E-02 0.  1.
          2   -1    0    0  501    0  0.00000000000E+00 -0.00000000000E+00 -0.14919755086E+04  0.14919755086E+04  0.25500000000E-02 0. -1.
    8880022    1    1    2    0    0 -0.92229143429E+03 -0.10033812420E+03 -0.11239713606E+04  0.14653984105E+04  0.15294330000E+03 0.  0.
    8880022    1    1    2    0    0  0.92229143429E+03  0.10033812420E+03  0.92298674774E+03  0.13175679939E+04  0.15294330000E+03 0.  0.
<mgrwt>
<rscale>  0 0.94025575E+03</rscale>
<asrwt>0</asrwt>
<pdfrwt beam="1">  1        2 0.22953469E+00 0.94025575E+03</pdfrwt>
<pdfrwt beam="2">  1       -2 0.19861398E+00 0.94025575E+03</pdfrwt>
<totfact> 0.17449705E+00</totfact>
</mgrwt>
</event>
<event>
 4    1  0.3365401E-008  0.7876137E+03  0.7818608E-02  0.9578121E-01
         -2   -1    0    0    0  501 -0.00000000000E+00  0.00000000000E+00  0.20300153590E+04  0.20300153590E+04  0.25500000000E-02 0.  1.
          2   -1    0    0  501    0  0.00000000000E+00 -0.00000000000E+00 -0.67289348858E+03  0.67289348859E+03  0.25500000000E-02 0. -1.
    8880022    1    1    2    0    0  0.69731526139E+03 -0.33270875777E+03  0.16770555642E+04  0.18527953772E+04  0.15294330000E+03 0.  0.
    8880022    1    1    2    0    0 -0.69731526139E+03  0.33270875777E+03 -0.31993369373E+03  0.85011347046E+03  0.15294330000E+03 0.  0.
<mgrwt>
<rscale>  0 0.78761370E+03</rscale>
<asrwt>0</asrwt>
<pdfrwt beam="1">  1        2 0.10352208E+00 0.78761370E+03</pdfrwt>
<pdfrwt beam="2">  1       -2 0.31231005E+00 0.78761370E+03</pdfrwt>
<totfact> 0.11953758E+00</totfact>
</mgrwt>
</event>
<event>
 4    1  0.3365401E-008  0.9906236E+03  0.7818608E-02  0.9318889E-01
          2   -1    0    0  501    0  0.00000000000E+00  0.00000000000E+00  0.35368192518E+04  0.35368192518E+04  0.25500000000E-02 0. -1.
         -2   -1    0    0    0  501 -0.00000000000E+00 -0.00000000000E+00 -0.33381902993E+03  0.33381902994E+03  0.25500000000E-02 0.  1.
    8880022    1    1    2    0    0 -0.92910171462E+03  0.30775557572E+03  0.80631416053E+03  0.12772931022E+04  0.15294330000E+03 0.  0.
    8880022    1    1    2    0    0  0.92910171462E+03 -0.30775557572E+03  0.23966860614E+04  0.25933451795E+04  0.15294330000E+03 0.  0.
<mgrwt>
<rscale>  0 0.99062361E+03</rscale>
<asrwt>0</asrwt>
<pdfrwt beam="1">  1        2 0.54412606E+00 0.99062361E+03</pdfrwt>
<pdfrwt beam="2">  1       -2 0.51356772E-01 0.99062361E+03</pdfrwt>
<totfact> 0.28529783E+00</totfact>
</mgrwt>
</event>
<event>
 4    1  0.3365401E-008  0.5485575E+03  0.7818608E-02  0.1001828E+00
          2   -1    0    0  501    0  0.00000000000E+00  0.00000000000E+00  0.51028860667E+03  0.51028860668E+03  0.25500000000E-02 0. -1.
         -2   -1    0    0    0  501 -0.00000000000E+00 -0.00000000000E+00 -0.15795206135E+04  0.15795206135E+04  0.25500000000E-02 0.  1.
    8880022    1    1    2    0    0  0.13905417613E+03  0.50812169938E+03 -0.13617826661E+04  0.14681169599E+04  0.15294330000E+03 0.  1.
    8880022    1    1    2    0    0 -0.13905417613E+03 -0.50812169938E+03  0.29255065923E+03  0.62169226030E+03  0.15294330000E+03 0.  0.
<mgrwt>
<rscale>  0 0.54855754E+03</rscale>
<asrwt>0</asrwt>
<pdfrwt beam="1">  1        2 0.78505940E-01 0.54855754E+03</pdfrwt>
<pdfrwt beam="2">  1       -2 0.24300317E+00 0.54855754E+03</pdfrwt>
<totfact> 0.45240030E+00</totfact>
</mgrwt>
</event>
<event>
 4    1  0.3365401E-008  0.4258492E+03  0.7818608E-02  0.1035179E+00
         -2   -1    0    0    0  501 -0.00000000000E+00  0.00000000000E+00  0.20492154842E+04  0.20492154842E+04  0.25500000000E-02 0.  1.
          2   -1    0    0  501    0  0.00000000000E+00 -0.00000000000E+00 -0.32441393825E+03  0.32441393826E+03  0.25500000000E-02 0. -1.
    8880022    1    1    2    0    0 -0.23682895651E+03 -0.31916762216E+03 -0.14967623387E+03  0.45138736544E+03  0.15294330000E+03 0.  0.
    8880022    1    1    2    0    0  0.23682895651E+03  0.31916762216E+03  0.18744777798E+04  0.19222420570E+04  0.15294330000E+03 0.  0.
<mgrwt>
<rscale>  0 0.42584924E+03</rscale>
<asrwt>0</asrwt>
<pdfrwt beam="1">  1        2 0.49909836E-01 0.42584924E+03</pdfrwt>
<pdfrwt beam="2">  1       -2 0.31526392E+00 0.42584924E+03</pdfrwt>
<totfact> 0.28637104E+00</totfact>
</mgrwt>
</event>
<event>
 4    1  0.3365401E-008  0.1174816E+04  0.7818608E-02  0.9135190E-01
         -2   -1    0    0    0  501 -0.00000000000E+00  0.00000000000E+00  0.50158116388E+03  0.50158116388E+03  0.25500000000E-02 0.  1.
          2   -1    0    0  501    0  0.00000000000E+00 -0.00000000000E+00 -0.41820014973E+04  0.41820014973E+04  0.25500000000E-02 0. -1.
    8880022    1    1    2    0    0 -0.49309999385E+03 -0.10552982216E+04 -0.32097419219E+04  0.34179872438E+04  0.15294330000E+03 0.  0.
    8880022    1    1    2    0    0  0.49309999385E+03  0.10552982216E+04 -0.47067841155E+03  0.12655954174E+04  0.15294330000E+03 0.  0.
<mgrwt>
<rscale>  0 0.11748164E+04</rscale>
<asrwt>0</asrwt>
<pdfrwt beam="1">  1        2 0.64338482E+00 0.11748164E+04</pdfrwt>
<pdfrwt beam="2">  1       -2 0.77166336E-01 0.11748164E+04</pdfrwt>
<totfact> 0.37095597E-01</totfact>
</mgrwt>
</event>
<event>
 4    1  0.3365401E-008  0.3911780E+03  0.7818608E-02  0.1046878E+00
          2   -1    0    0  501    0  0.00000000000E+00  0.00000000000E+00  0.18658901166E+04  0.18658901166E+04  0.25500000000E-02 0. -1.
         -2   -1    0    0    0  501 -0.00000000000E+00 -0.00000000000E+00 -0.15105468773E+03  0.15105468775E+03  0.25500000000E-02 0.  1.
    8880022    1    1    2    0    0  0.25280226469E+03 -0.25635826180E+03  0.17560594079E+03  0.42878624381E+03  0.15294330000E+03 0.  0.
    8880022    1    1    2    0    0 -0.25280226469E+03  0.25635826180E+03  0.15392294881E+04  0.15881585606E+04  0.15294330000E+03 0.  0.
<mgrwt>
<rscale>  0 0.39117796E+03</rscale>
<asrwt>0</asrwt>
<pdfrwt beam="1">  1        2 0.28705999E+00 0.39117796E+03</pdfrwt>
<pdfrwt beam="2">  1       -2 0.23239185E-01 0.39117796E+03</pdfrwt>
<totfact> 0.13889500E+02</totfact>
</mgrwt>
</event>
<event>
 4    1  0.3365401E-008  0.1081630E+04  0.7818608E-02  0.9223284E-01
          2   -1    0    0  501    0  0.00000000000E+00  0.00000000000E+00  0.28117712410E+04  0.28117712410E+04  0.25500000000E-02 0. -1.
         -2   -1    0    0    0  501 -0.00000000000E+00 -0.00000000000E+00 -0.82034072503E+03  0.82034072503E+03  0.25500000000E-02 0.  1.
    8880022    1    1    2    0    0  0.10646044967E+04 -0.11467029130E+03  0.22705753060E+04  0.25150419248E+04  0.15294330000E+03 0.  0.
    8880022    1    1    2    0    0 -0.10646044967E+04  0.11467029130E+03 -0.27914479008E+03  0.11170700412E+04  0.15294330000E+03 0.  0.
<mgrwt>
<rscale>  0 0.10816301E+04</rscale>
<asrwt>0</asrwt>
<pdfrwt beam="1">  1        2 0.43258018E+00 0.10816301E+04</pdfrwt>
<pdfrwt beam="2">  1       -2 0.12620627E+00 0.10816301E+04</pdfrwt>
<totfact> 0.10652680E+00</totfact>
</mgrwt>
</event>
<event>
 4    1  0.3365401E-008  0.4731897E+03  0.7818608E-02  0.1021024E+00
          2   -1    0    0  501    0  0.00000000000E+00  0.00000000000E+00  0.29292981237E+04  0.29292981237E+04  0.25500000000E-02 0. -1.
         -2   -1    0    0    0  501 -0.00000000000E+00 -0.00000000000E+00 -0.17345566360E+03  0.17345566362E+03  0.25500000000E-02 0.  1.
    8880022    1    1    2    0    0  0.44637440848E+03  0.35590929702E+02  0.21767702811E+03  0.52085676381E+03  0.15294330000E+03 0.  0.
    8880022    1    1    2    0    0 -0.44637440848E+03 -0.35590929702E+02  0.25381654320E+04  0.25818970236E+04  0.15294330000E+03 0.  0.
<mgrwt>
<rscale>  0 0.47318969E+03</rscale>
<asrwt>0</asrwt>
<pdfrwt beam="1">  1        2 0.45066124E+00 0.47318969E+03</pdfrwt>
<pdfrwt beam="2">  1       -2 0.26685487E-01 0.47318969E+03</pdfrwt>
<totfact> 0.27364237E+01</totfact>
</mgrwt>
</event>
<event>
 4    1  0.3365401E-008  0.1741030E+03  0.7818608E-02  0.1173635E+00
          2   -1    0    0  501    0  0.00000000000E+00  0.00000000000E+00  0.73479575256E+03  0.73479575256E+03  0.25500000000E-02 0. -1.
         -2   -1    0    0    0  501 -0.00000000000E+00 -0.00000000000E+00 -0.51698266222E+03  0.51698266222E+03  0.25500000000E-02 0.  1.
    8880022    1    1    2    0    0  0.76108132994E+02 -0.33582143163E+02 -0.49149251516E+03  0.52141802206E+03  0.15294330000E+03 0.  0.
    8880022    1    1    2    0    0 -0.76108132994E+02  0.33582143163E+02  0.70930560551E+03  0.73036039273E+03  0.15294330000E+03 0.  0.
<mgrwt>
<rscale>  0 0.17410302E+03</rscale>
<asrwt>0</asrwt>
<pdfrwt beam="1">  1        2 0.11304550E+00 0.17410302E+03</pdfrwt>
<pdfrwt beam="2">  1       -2 0.79535794E-01 0.17410302E+03</pdfrwt>
<totfact> 0.59172022E+01</totfact>
</mgrwt>
</event>
<event>
 4    1  0.3365401E-008  0.5381458E+03  0.7818608E-02  0.1004276E+00
          2   -1    0    0  501    0  0.00000000000E+00  0.00000000000E+00  0.74359781134E+03  0.74359781135E+03  0.25500000000E-02 0. -1.
         -2   -1    0    0    0  501 -0.00000000000E+00 -0.00000000000E+00 -0.86629741654E+03  0.86629741655E+03  0.25500000000E-02 0.  1.
    8880022    1    1    2    0    0  0.14954766212E+03 -0.49380641924E+03  0.53585003342E+03  0.75943149412E+03  0.15294330000E+03 0.  0.
    8880022    1    1    2    0    0 -0.14954766212E+03  0.49380641924E+03 -0.65854963862E+03  0.85046373378E+03  0.15294330000E+03 0.  0.
<mgrwt>
<rscale>  0 0.53814583E+03</rscale>
<asrwt>0</asrwt>
<pdfrwt beam="1">  1        2 0.11439966E+00 0.53814583E+03</pdfrwt>
<pdfrwt beam="2">  1       -2 0.13327653E+00 0.53814583E+03</pdfrwt>
<totfact> 0.16084021E+01</totfact>
</mgrwt>
</event>
<event>
 4    1  0.3365401E-008  0.7494162E+03  0.7818608E-02  0.9636267E-01
          2   -1    0    0  501    0  0.00000000000E+00  0.00000000000E+00  0.30225433128E+04  0.30225433128E+04  0.25500000000E-02 0. -1.
         -2   -1    0    0    0  501 -0.00000000000E+00 -0.00000000000E+00 -0.24029219154E+03  0.24029219155E+03  0.25500000000E-02 0.  1.
    8880022    1    1    2    0    0 -0.49806244535E+03  0.53867127695E+03  0.61431529024E+03  0.96902418593E+03  0.15294330000E+03 0.  0.
    8880022    1    1    2    0    0  0.49806244535E+03 -0.53867127695E+03  0.21679358310E+04  0.22938113184E+04  0.15294330000E+03 0.  0.
<mgrwt>
<rscale>  0 0.74941617E+03</rscale>
<asrwt>0</asrwt>
<pdfrwt beam="1">  1        2 0.46500670E+00 0.74941617E+03</pdfrwt>
<pdfrwt beam="2">  1       -2 0.36968026E-01 0.74941617E+03</pdfrwt>
<totfact> 0.12349986E+01</totfact>
</mgrwt>
</event>
<event>
 4    1  0.3365401E-008  0.5927617E+03  0.7818608E-02  0.9920538E-01
         -2   -1    0    0    0  501 -0.00000000000E+00  0.00000000000E+00  0.75537472677E+03  0.75537472677E+03  0.25500000000E-02 0.  1.
          2   -1    0    0  501    0  0.00000000000E+00 -0.00000000000E+00 -0.11438695586E+04  0.11438695586E+04  0.25500000000E-02 0. -1.
    8880022    1    1    2    0    0 -0.56993681130E+03  0.56096035652E+02 -0.92573362088E+03  0.10992493457E+04  0.15294330000E+03 0.  0.
    8880022    1    1    2    0    0  0.56993681130E+03 -0.56096035652E+02  0.53723878905E+03  0.79999493971E+03  0.15294330000E+03 0.  0.
<mgrwt>
<rscale>  0 0.59276166E+03</rscale>
<asrwt>0</asrwt>
<pdfrwt beam="1">  1        2 0.17597993E+00 0.59276166E+03</pdfrwt>
<pdfrwt beam="2">  1       -2 0.11621150E+00 0.59276166E+03</pdfrwt>
<totfact> 0.12248316E+01</totfact>
</mgrwt>
</event>
<event>
 4    1  0.3365401E-008  0.3577245E+03  0.7818608E-02  0.1059489E+00
          2   -1    0    0  501    0  0.00000000000E+00  0.00000000000E+00  0.46659442467E+03  0.46659442467E+03  0.25500000000E-02 0. -1.
         -2   -1    0    0    0  501 -0.00000000000E+00 -0.00000000000E+00 -0.76685258906E+03  0.76685258906E+03  0.25500000000E-02 0.  1.
    8880022    1    1    2    0    0 -0.32142284234E+03 -0.35532066356E+02 -0.64441675805E+03  0.73704801905E+03  0.15294330000E+03 0.  0.
    8880022    1    1    2    0    0  0.32142284234E+03  0.35532066356E+02  0.34415859366E+03  0.49639899468E+03  0.15294330000E+03 0. -1.
<mgrwt>
<rscale>  0 0.35772451E+03</rscale>
<asrwt>0</asrwt>
<pdfrwt beam="1">  1        2 0.71783758E-01 0.35772451E+03</pdfrwt>
<pdfrwt beam="2">  1       -2 0.11797732E+00 0.35772451E+03</pdfrwt>
<totfact> 0.38876744E+01</totfact>
</mgrwt>
</event>
<event>
 4    1  0.3365401E-008  0.5613543E+03  0.7818608E-02  0.9988995E-01
         -2   -1    0    0    0  501 -0.00000000000E+00  0.00000000000E+00  0.97466298359E+03  0.97466298359E+03  0.25500000000E-02 0.  1.
          2   -1    0    0  501    0  0.00000000000E+00 -0.00000000000E+00 -0.60933383868E+03  0.60933383868E+03  0.25500000000E-02 0. -1.
    8880022    1    1    2    0    0 -0.53736124890E+03 -0.54496306131E+02 -0.35995758750E+03  0.66684936606E+03  0.15294330000E+03 0.  0.
    8880022    1    1    2    0    0  0.53736124890E+03  0.54496306131E+02  0.72528673241E+03  0.91714745621E+03  0.15294330000E+03 0.  1.
<mgrwt>
<rscale>  0 0.56135427E+03</rscale>
<asrwt>0</asrwt>
<pdfrwt beam="1">  1        2 0.93743668E-01 0.56135427E+03</pdfrwt>
<pdfrwt beam="2">  1       -2 0.14994815E+00 0.56135427E+03</pdfrwt>
<totfact> 0.15126769E+01</totfact>
</mgrwt>
</event>
<event>
 4    1  0.3365401E-008  0.7385080E+03  0.7818608E-02  0.9653554E-01
         -2   -1    0    0    0  501 -0.00000000000E+00  0.00000000000E+00  0.15928803908E+04  0.15928803908E+04  0.25500000000E-02 0.  1.
          2   -1    0    0  501    0  0.00000000000E+00 -0.00000000000E+00 -0.49589567290E+03  0.49589567291E+03  0.25500000000E-02 0. -1.
    8880022    1    1    2    0    0 -0.67897115831E+03 -0.24698309300E+03  0.11295537223E+04  0.13495502016E+04  0.15294330000E+03 0.  0.
    8880022    1    1    2    0    0  0.67897115831E+03  0.24698309300E+03 -0.32569004470E+02  0.73922586205E+03  0.15294330000E+03 0. -1.
<mgrwt>
<rscale>  0 0.73850805E+03</rscale>
<asrwt>0</asrwt>
<pdfrwt beam="1">  1        2 0.76291643E-01 0.73850805E+03</pdfrwt>
<pdfrwt beam="2">  1       -2 0.24505852E+00 0.73850805E+03</pdfrwt>
<totfact> 0.44123716E+00</totfact>
</mgrwt>
</event>
<event>
 4    1  0.3365401E-008  0.3918613E+03  0.7818608E-02  0.1046635E+00
         -2   -1    0    0    0  501 -0.00000000000E+00  0.00000000000E+00  0.13907341011E+03  0.13907341014E+03  0.25500000000E-02 0.  1.
          2   -1    0    0  501    0  0.00000000000E+00 -0.00000000000E+00 -0.15146012604E+04  0.15146012604E+04  0.25500000000E-02 0. -1.
    8880022    1    1    2    0    0  0.34170880143E+03  0.11575277491E+03 -0.11182030820E+04  0.11848769537E+04  0.15294330000E+03 0.  0.
    8880022    1    1    2    0    0 -0.34170880143E+03 -0.11575277491E+03 -0.25732476825E+03  0.46879771677E+03  0.15294330000E+03 0.  0.
<mgrwt>
<rscale>  0 0.39186128E+03</rscale>
<asrwt>0</asrwt>
<pdfrwt beam="1">  1        2 0.23301557E+00 0.39186128E+03</pdfrwt>
<pdfrwt beam="2">  1       -2 0.21395910E-01 0.39186128E+03</pdfrwt>
<totfact> 0.24771827E+02</totfact>
</mgrwt>
</event>
<event>
 4    1  0.3365401E-008  0.6561187E+03  0.7818608E-02  0.9795365E-01
         -2   -1    0    0    0  501 -0.00000000000E+00  0.00000000000E+00  0.17011035299E+04  0.17011035299E+04  0.25500000000E-02 0.  1.
          2   -1    0    0  501    0  0.00000000000E+00 -0.00000000000E+00 -0.26463209092E+03  0.26463209093E+03  0.25500000000E-02 0. -1.
    8880022    1    1    2    0    0 -0.84469532488E+02  0.63242786276E+03  0.51275837172E+03  0.83271417923E+03  0.15294330000E+03 0.  0.
    8880022    1    1    2    0    0  0.84469532488E+02 -0.63242786276E+03  0.92371306730E+03  0.11330214416E+04  0.15294330000E+03 0.  0.
<mgrwt>
<rscale>  0 0.65611871E+03</rscale>
<asrwt>0</asrwt>
<pdfrwt beam="1">  1        2 0.40712630E-01 0.65611871E+03</pdfrwt>
<pdfrwt beam="2">  1       -2 0.26170823E+00 0.65611871E+03</pdfrwt>
<totfact> 0.71633242E+00</totfact>
</mgrwt>
</event>
<event>
 4    1  0.3365401E-008  0.4507873E+03  0.7818608E-02  0.1027488E+00
          2   -1    0    0  501    0  0.00000000000E+00  0.00000000000E+00  0.32765572270E+04  0.32765572270E+04  0.25500000000E-02 0. -1.
         -2   -1    0    0    0  501 -0.00000000000E+00 -0.00000000000E+00 -0.90932407573E+02  0.90932407609E+02  0.25500000000E-02 0.  1.
    8880022    1    1    2    0    0 -0.41981825402E+03 -0.59750556720E+02  0.64337623769E+03  0.78558394312E+03  0.15294330000E+03 0.  0.
    8880022    1    1    2    0    0  0.41981825402E+03  0.59750556720E+02  0.25422485817E+04  0.25819056914E+04  0.15294330000E+03 0.  0.
<mgrwt>
<rscale>  0 0.45078725E+03</rscale>
<asrwt>0</asrwt>
<pdfrwt beam="1">  1        2 0.50408569E+00 0.45078725E+03</pdfrwt>
<pdfrwt beam="2">  1       -2 0.13989602E-01 0.45078725E+03</pdfrwt>
<totfact> 0.51419608E+01</totfact>
</mgrwt>
</event>
<event>
 4    1  0.3365401E-008  0.5104759E+03  0.7818608E-02  0.1011080E+00
          2   -1    0    0  501    0  0.00000000000E+00  0.00000000000E+00  0.12393922454E+04  0.12393922454E+04  0.25500000000E-02 0. -1.
         -2   -1    0    0    0  501 -0.00000000000E+00 -0.00000000000E+00 -0.49874147068E+03  0.49874147069E+03  0.25500000000E-02 0.  1.
    8880022    1    1    2    0    0 -0.45511422029E+03 -0.17339276553E+03  0.10312924960E+04  0.11507171112E+04  0.15294330000E+03 0.  0.
    8880022    1    1    2    0    0  0.45511422029E+03  0.17339276553E+03 -0.29064172123E+03  0.58741660496E+03  0.15294330000E+03 0.  0.
<mgrwt>
<rscale>  0 0.51047591E+03</rscale>
<asrwt>0</asrwt>
<pdfrwt beam="1">  1        2 0.19067573E+00 0.51047591E+03</pdfrwt>
<pdfrwt beam="2">  1       -2 0.76729458E-01 0.51047591E+03</pdfrwt>
<totfact> 0.28637267E+01</totfact>
</mgrwt>
</event>
<event>
 4    1  0.3365401E-008  0.2171596E+03  0.7818608E-02  0.1136019E+00
         -2   -1    0    0    0  501 -0.00000000000E+00  0.00000000000E+00  0.22473836875E+03  0.22473836876E+03  0.25500000000E-02 0.  1.
          2   -1    0    0  501    0  0.00000000000E+00 -0.00000000000E+00 -0.62214216604E+03  0.62214216605E+03  0.25500000000E-02 0. -1.
    8880022    1    1    2    0    0 -0.15476033673E+02 -0.15338562976E+03 -0.54341436512E+03  0.58519867077E+03  0.15294330000E+03 0.  0.
    8880022    1    1    2    0    0  0.15476033673E+02  0.15338562976E+03  0.14601056783E+03  0.26168186404E+03  0.15294330000E+03 0.  1.
<mgrwt>
<rscale>  0 0.21715965E+03</rscale>
<asrwt>0</asrwt>
<pdfrwt beam="1">  1        2 0.95714179E-01 0.21715965E+03</pdfrwt>
<pdfrwt beam="2">  1       -2 0.34575134E-01 0.21715965E+03</pdfrwt>
<totfact> 0.38403245E+02</totfact>
</mgrwt>
</event>
<event>
 4    1  0.3365401E-008  0.8557899E+03  0.7818608E-02  0.9482599E-01
         -2   -1    0    0    0  501 -0.00000000000E+00  0.00000000000E+00  0.16440256122E+04  0.16440256122E+04  0.25500000000E-02 0.  1.
          2   -1    0    0  501    0  0.00000000000E+00 -0.00000000000E+00 -0.45652059069E+03  0.45652059070E+03  0.25500000000E-02 0. -1.
    8880022    1    1    2    0    0  0.77873617644E+03  0.32024166543E+03  0.75710189264E+03  0.11426196592E+04  0.15294330000E+03 0.  0.
    8880022    1    1    2    0    0 -0.77873617644E+03 -0.32024166543E+03  0.43040312888E+03  0.95792654371E+03  0.15294330000E+03 0.  0.
<mgrwt>
<rscale>  0 0.85578993E+03</rscale>
<asrwt>0</asrwt>
<pdfrwt beam="1">  1        2 0.70233938E-01 0.85578993E+03</pdfrwt>
<pdfrwt beam="2">  1       -2 0.25292701E+00 0.85578993E+03</pdfrwt>
<totfact> 0.42861733E+00</totfact>
</mgrwt>
</event>
<event>
 4    1  0.3365401E-008  0.5074165E+03  0.7818608E-02  0.1011861E+00
         -2   -1    0    0    0  501 -0.00000000000E+00  0.00000000000E+00  0.29669318730E+03  0.29669318731E+03  0.25500000000E-02 0.  1.
          2   -1    0    0  501    0  0.00000000000E+00 -0.00000000000E+00 -0.31286494548E+04  0.31286494548E+04  0.25500000000E-02 0. -1.
    8880022    1    1    2    0    0  0.32092505196E+03 -0.36205929228E+03 -0.28718764056E+04  0.29163582705E+04  0.15294330000E+03 0.  0.
    8880022    1    1    2    0    0 -0.32092505196E+03  0.36205929228E+03  0.39920138063E+02  0.50898437160E+03  0.15294330000E+03 0.  0.
<mgrwt>
<rscale>  0 0.50741647E+03</rscale>
<asrwt>0</asrwt>
<pdfrwt beam="1">  1        2 0.48133066E+00 0.50741647E+03</pdfrwt>
<pdfrwt beam="2">  1       -2 0.45645108E-01 0.50741647E+03</pdfrwt>
<totfact> 0.74257842E+00</totfact>
</mgrwt>
</event>
<event>
 4    1  0.3365401E-008  0.7249508E+03  0.7818608E-02  0.9675489E-01
         -2   -1    0    0    0  501 -0.00000000000E+00  0.00000000000E+00  0.31318957055E+03  0.31318957056E+03  0.25500000000E-02 0.  1.
          2   -1    0    0  501    0  0.00000000000E+00 -0.00000000000E+00 -0.37534586817E+04  0.37534586817E+04  0.25500000000E-02 0. -1.
    8880022    1    1    2    0    0 -0.23135171599E+03 -0.66980477946E+03 -0.32320956626E+04  0.33124003509E+04  0.15294330000E+03 0.  0.
    8880022    1    1    2    0    0  0.23135171599E+03  0.66980477946E+03 -0.20817344854E+03  0.75424790141E+03  0.15294330000E+03 0.  1.
<mgrwt>
<rscale>  0 0.72495083E+03</rscale>
<asrwt>0</asrwt>
<pdfrwt beam="1">  1        2 0.57745515E+00 0.72495083E+03</pdfrwt>
<pdfrwt beam="2">  1       -2 0.48183014E-01 0.72495083E+03</pdfrwt>
<totfact> 0.23991131E+00</totfact>
</mgrwt>
</event>
<event>
 4    1  0.3365401E-008  0.3918659E+03  0.7818608E-02  0.1046633E+00
         -2   -1    0    0    0  501 -0.00000000000E+00  0.00000000000E+00  0.14958156191E+04  0.14958156191E+04  0.25500000000E-02 0.  1.
          2   -1    0    0  501    0  0.00000000000E+00 -0.00000000000E+00 -0.11310594402E+03  0.11310594405E+03  0.25500000000E-02 0. -1.
    8880022    1    1    2    0    0  0.89710137028E+02 -0.34945580564E+03  0.93584252270E+03  0.10145738756E+04  0.15294330000E+03 0. -1.
    8880022    1    1    2    0    0 -0.89710137028E+02  0.34945580564E+03  0.44686715237E+03  0.59434768752E+03  0.15294330000E+03 0.  0.
<mgrwt>
<rscale>  0 0.39186595E+03</rscale>
<asrwt>0</asrwt>
<pdfrwt beam="1">  1        2 0.17400914E-01 0.39186595E+03</pdfrwt>
<pdfrwt beam="2">  1       -2 0.23012549E+00 0.39186595E+03</pdfrwt>
<totfact> 0.30263491E+01</totfact>
</mgrwt>
</event>
<event>
 4    1  0.3365401E-008  0.5902057E+03  0.7818608E-02  0.9925937E-01
         -2   -1    0    0    0  501 -0.00000000000E+00  0.00000000000E+00  0.20264798329E+03  0.20264798331E+03  0.25500000000E-02 0.  1.
          2   -1    0    0  501    0  0.00000000000E+00 -0.00000000000E+00 -0.26521076675E+04  0.26521076675E+04  0.25500000000E-02 0. -1.
    8880022    1    1    2    0    0  0.54394746866E+03 -0.17050579876E+03 -0.20714107391E+04  0.21538535650E+04  0.15294330000E+03 0.  0.
    8880022    1    1    2    0    0 -0.54394746866E+03  0.17050579876E+03 -0.37804894508E+03  0.70090208586E+03  0.15294330000E+03 0.  0.
<mgrwt>
<rscale>  0 0.59020567E+03</rscale>
<asrwt>0</asrwt>
<pdfrwt beam="1">  1        2 0.40801654E+00 0.59020567E+03</pdfrwt>
<pdfrwt beam="2">  1       -2 0.31176615E-01 0.59020567E+03</pdfrwt>
<totfact> 0.29107053E+01</totfact>
</mgrwt>
</event>
<event>
 4    1  0.3365401E-008  0.7908476E+03  0.7818608E-02  0.9573360E-01
         -2   -1    0    0    0  501 -0.00000000000E+00  0.00000000000E+00  0.77556653503E+03  0.77556653504E+03  0.25500000000E-02 0.  1.
          2   -1    0    0  501    0  0.00000000000E+00 -0.00000000000E+00 -0.19220625324E+04  0.19220625324E+04  0.25500000000E-02 0. -1.
    8880022    1    1    2    0    0 -0.73518114801E+03  0.24810667798E+03 -0.16008598911E+04  0.17855509760E+04  0.15294330000E+03 0.  0.
    8880022    1    1    2    0    0  0.73518114801E+03 -0.24810667798E+03  0.45436389367E+03  0.91207809147E+03  0.15294330000E+03 0.  1.
<mgrwt>
<rscale>  0 0.79084758E+03</rscale>
<asrwt>0</asrwt>
<pdfrwt beam="1">  1        2 0.29570193E+00 0.79084758E+03</pdfrwt>
<pdfrwt beam="2">  1       -2 0.11931793E+00 0.79084758E+03</pdfrwt>
<totfact> 0.40857601E+00</totfact>
</mgrwt>
</event>
<event>
 4    1  0.3365401E-008  0.2355973E+03  0.7818608E-02  0.1122761E+00
          2   -1    0    0  501    0  0.00000000000E+00  0.00000000000E+00  0.46317039889E+03  0.46317039889E+03  0.25500000000E-02 0. -1.
         -2   -1    0    0    0  501 -0.00000000000E+00 -0.00000000000E+00 -0.40304512903E+03  0.40304512904E+03  0.25500000000E-02 0.  1.
    8880022    1    1    2    0    0 -0.79271110225E+02 -0.16071870781E+03 -0.33299046063E+03  0.40790772467E+03  0.15294330000E+03 0.  0.
    8880022    1    1    2    0    0  0.79271110225E+02  0.16071870781E+03  0.39311573049E+03  0.45830780326E+03  0.15294330000E+03 0. -1.
<mgrwt>
<rscale>  0 0.23559725E+03</rscale>
<asrwt>0</asrwt>
<pdfrwt beam="1">  1        2 0.71256984E-01 0.23559725E+03</pdfrwt>
<pdfrwt beam="2">  1       -2 0.62006943E-01 0.23559725E+03</pdfrwt>
<totfact> 0.16969059E+02</totfact>
</mgrwt>
</event>
<event>
 4    1  0.3365401E-008  0.3202450E+03  0.7818608E-02  0.1075537E+00
          2   -1    0    0  501    0  0.00000000000E+00  0.00000000000E+00  0.30375047296E+03  0.30375047297E+03  0.25500000000E-02 0. -1.
         -2   -1    0    0    0  501 -0.00000000000E+00 -0.00000000000E+00 -0.41730437282E+03  0.41730437282E+03  0.25500000000E-02 0.  1.
    8880022    1    1    2    0    0 -0.60660755721E+02  0.27474622917E+03  0.10075070922E+03  0.33571949028E+03  0.15294330000E+03 0.  0.
    8880022    1    1    2    0    0  0.60660755721E+02 -0.27474622917E+03 -0.21430460907E+03  0.38533535552E+03  0.15294330000E+03 0.  1.
<mgrwt>
<rscale>  0 0.32024502E+03</rscale>
<asrwt>0</asrwt>
<pdfrwt beam="1">  1        2 0.46730842E-01 0.32024502E+03</pdfrwt>
<pdfrwt beam="2">  1       -2 0.64200673E-01 0.32024502E+03</pdfrwt>
<totfact> 0.24856213E+02</totfact>
</mgrwt>
</event>
<event>
 4    1  0.3365401E-008  0.4291080E+03  0.7818608E-02  0.1034142E+00
         -2   -1    0    0    0  501 -0.00000000000E+00  0.00000000000E+00  0.93259205315E+03  0.93259205315E+03  0.25500000000E-02 0.  1.
          2   -1    0    0  501    0  0.00000000000E+00 -0.00000000000E+00 -0.48715149374E+03  0.48715149375E+03  0.25500000000E-02 0. -1.
    8880022    1    1    2    0    0 -0.35463303360E+03 -0.18702249505E+03  0.77015028382E+03  0.88162640322E+03  0.15294330000E+03 0.  0.
    8880022    1    1    2    0    0  0.35463303360E+03  0.18702249505E+03 -0.32470972442E+03  0.53811714368E+03  0.15294330000E+03 0.  0.
<mgrwt>
<rscale>  0 0.42910798E+03</rscale>
<asrwt>0</asrwt>
<pdfrwt beam="1">  1        2 0.74946384E-01 0.42910798E+03</pdfrwt>
<pdfrwt beam="2">  1       -2 0.14347570E+00 0.42910798E+03</pdfrwt>
<totfact> 0.22440181E+01</totfact>
</mgrwt>
</event>
<event>
 4    1  0.3365401E-008  0.4682549E+03  0.7818608E-02  0.1022414E+00
         -2   -1    0    0    0  501 -0.00000000000E+00  0.00000000000E+00  0.57929958431E+03  0.57929958431E+03  0.25500000000E-02 0.  1.
          2   -1    0    0  501    0  0.00000000000E+00 -0.00000000000E+00 -0.16917151997E+04  0.16917151997E+04  0.25500000000E-02 0. -1.
    8880022    1    1    2    0    0 -0.23732849573E+03 -0.37355881369E+03 -0.15566567493E+04  0.16255592547E+04  0.15294330000E+03 0. -1.
    8880022    1    1    2    0    0  0.23732849573E+03  0.37355881369E+03  0.44424113398E+03  0.64545552930E+03  0.15294330000E+03 0.  0.
<mgrwt>
<rscale>  0 0.46825490E+03</rscale>
<asrwt>0</asrwt>
<pdfrwt beam="1">  1        2 0.26026388E+00 0.46825490E+03</pdfrwt>
<pdfrwt beam="2">  1       -2 0.89123013E-01 0.46825490E+03</pdfrwt>
<totfact> 0.11582533E+01</totfact>
</mgrwt>
</event>
<event>
 4    1  0.3365401E-008  0.3971871E+03  0.7818608E-02  0.1044758E+00
          2   -1    0    0  501    0  0.00000000000E+00  0.00000000000E+00  0.15479643919E+04  0.15479643920E+04  0.25500000000E-02 0. -1.
         -2   -1    0    0    0  501 -0.00000000000E+00 -0.00000000000E+00 -0.25070863501E+03  0.25070863503E+03  0.25500000000E-02 0.  1.
    8880022    1    1    2    0    0 -0.31562677205E+03 -0.18640190641E+03  0.13414676047E+04  0.13990328508E+04  0.15294330000E+03 0. -1.
    8880022    1    1    2    0    0  0.31562677205E+03  0.18640190641E+03 -0.44211847794E+02  0.39964017622E+03  0.15294330000E+03 0.  0.
<mgrwt>
<rscale>  0 0.39718709E+03</rscale>
<asrwt>0</asrwt>
<pdfrwt beam="1">  1        2 0.23814836E+00 0.39718709E+03</pdfrwt>
<pdfrwt beam="2">  1       -2 0.38570561E-01 0.39718709E+03</pdfrwt>
<totfact> 0.80952758E+01</totfact>
</mgrwt>
</event>
<event>
 4    1  0.3365401E-008  0.2100656E+03  0.7818608E-02  0.1141514E+00
          2   -1    0    0  501    0  0.00000000000E+00  0.00000000000E+00  0.10884525089E+04  0.10884525089E+04  0.25500000000E-02 0. -1.
         -2   -1    0    0    0  501 -0.00000000000E+00 -0.00000000000E+00 -0.10491474567E+03  0.10491474571E+03  0.25500000000E-02 0.  1.
    8880022    1    1    2    0    0 -0.14014341390E+03 -0.33101720405E+02  0.95915777178E+03  0.98189163584E+03  0.15294330000E+03 0.  0.
    8880022    1    1    2    0    0  0.14014341390E+03  0.33101720405E+02  0.24379991488E+02  0.21147561881E+03  0.15294330000E+03 0.  0.
<mgrwt>
<rscale>  0 0.21006559E+03</rscale>
<asrwt>0</asrwt>
<pdfrwt beam="1">  1        2 0.16745423E+00 0.21006559E+03</pdfrwt>
<pdfrwt beam="2">  1       -2 0.16140730E-01 0.21006559E+03</pdfrwt>
<totfact> 0.70843593E+02</totfact>
</mgrwt>
</event>
<event>
 4    1  0.3365401E-008  0.3191118E+03  0.7818608E-02  0.1076059E+00
         -2   -1    0    0    0  501 -0.00000000000E+00  0.00000000000E+00  0.69777557433E+03  0.69777557433E+03  0.25500000000E-02 0.  1.
          2   -1    0    0  501    0  0.00000000000E+00 -0.00000000000E+00 -0.44977553280E+03  0.44977553281E+03  0.25500000000E-02 0. -1.
    8880022    1    1    2    0    0 -0.10999524647E+03  0.25756885217E+03 -0.34758986284E+03  0.47185912476E+03  0.15294330000E+03 0.  0.
    8880022    1    1    2    0    0  0.10999524647E+03 -0.25756885217E+03  0.59558990437E+03  0.67569198238E+03  0.15294330000E+03 0.  1.
<mgrwt>
<rscale>  0 0.31911177E+03</rscale>
<asrwt>0</asrwt>
<pdfrwt beam="1">  1        2 0.69196236E-01 0.31911177E+03</pdfrwt>
<pdfrwt beam="2">  1       -2 0.10735009E+00 0.31911177E+03</pdfrwt>
<totfact> 0.51094010E+01</totfact>
</mgrwt>
</event>
<event>
 4    1  0.3365401E-008  0.2926992E+03  0.7818608E-02  0.1088948E+00
          2   -1    0    0  501    0  0.00000000000E+00  0.00000000000E+00  0.10048413349E+04  0.10048413349E+04  0.25500000000E-02 0. -1.
         -2   -1    0    0    0  501 -0.00000000000E+00 -0.00000000000E+00 -0.27111571629E+03  0.27111571630E+03  0.25500000000E-02 0.  1.
    8880022    1    1    2    0    0 -0.25032810294E+02 -0.24830324954E+03 -0.16135938475E+03  0.33422993490E+03  0.15294330000E+03 0.  0.
    8880022    1    1    2    0    0  0.25032810294E+02  0.24830324954E+03  0.89508500332E+03  0.94172711626E+03  0.15294330000E+03 0.  0.
<mgrwt>
<rscale>  0 0.29269916E+03</rscale>
<asrwt>0</asrwt>
<pdfrwt beam="1">  1        2 0.15459098E+00 0.29269916E+03</pdfrwt>
<pdfrwt beam="2">  1       -2 0.41710110E-01 0.29269916E+03</pdfrwt>
<totfact> 0.14439056E+02</totfact>
</mgrwt>
</event>
<event>
 4    1  0.3365401E-008  0.3451190E+03  0.7818608E-02  0.1064636E+00
          2   -1    0    0  501    0  0.00000000000E+00  0.00000000000E+00  0.52330458725E+03  0.52330458726E+03  0.25500000000E-02 0. -1.
         -2   -1    0    0    0  501 -0.00000000000E+00 -0.00000000000E+00 -0.14839103882E+04  0.14839103882E+04  0.25500000000E-02 0.  1.
    8880022    1    1    2    0    0  0.23401100582E+03  0.20237171845E+03 -0.14037404759E+04  0.14455429569E+04  0.15294330000E+03 0.  0.
    8880022    1    1    2    0    0 -0.23401100582E+03 -0.20237171845E+03  0.44313467500E+03  0.56167201860E+03  0.15294330000E+03 0.  0.
<mgrwt>
<rscale>  0 0.34511899E+03</rscale>
<asrwt>0</asrwt>
<pdfrwt beam="1">  1        2 0.80508399E-01 0.34511899E+03</pdfrwt>
<pdfrwt beam="2">  1       -2 0.22829390E+00 0.34511899E+03</pdfrwt>
<totfact> 0.56440868E+00</totfact>
</mgrwt>
</event>
<event>
 4    1  0.3365401E-008  0.1971873E+03  0.7818608E-02  0.1152134E+00
         -2   -1    0    0    0  501 -0.00000000000E+00  0.00000000000E+00  0.20917121519E+03  0.20917121520E+03  0.25500000000E-02 0.  1.
          2   -1    0    0  501    0  0.00000000000E+00 -0.00000000000E+00 -0.41140251288E+04  0.41140251288E+04  0.25500000000E-02 0. -1.
    8880022    1    1    2    0    0 -0.88734757595E+02  0.87277189228E+02 -0.40646253555E+04  0.40694056198E+04  0.15294330000E+03 0.  0.
    8880022    1    1    2    0    0  0.88734757595E+02 -0.87277189228E+02  0.15977144196E+03  0.25379072411E+03  0.15294330000E+03 0.  1.
<mgrwt>
<rscale>  0 0.19718727E+03</rscale>
<asrwt>0</asrwt>
<pdfrwt beam="1">  1        2 0.63292688E+00 0.19718727E+03</pdfrwt>
<pdfrwt beam="2">  1       -2 0.32180190E-01 0.19718727E+03</pdfrwt>
<totfact> 0.35206719E+00</totfact>
</mgrwt>
</event>
<event>
 4    1  0.3365401E-008  0.1916455E+03  0.7818608E-02  0.1156986E+00
          2   -1    0    0  501    0  0.00000000000E+00  0.00000000000E+00  0.21915862608E+04  0.21915862608E+04  0.25500000000E-02 0. -1.
         -2   -1    0    0    0  501 -0.00000000000E+00 -0.00000000000E+00 -0.20877159199E+02  0.20877159354E+02  0.25500000000E-02 0.  1.
    8880022    1    1    2    0    0 -0.95174205638E+02 -0.65407951564E+02  0.59401525775E+03  0.62416512959E+03  0.15294330000E+03 0.  0.
    8880022    1    1    2    0    0  0.95174205638E+02  0.65407951564E+02  0.15766938439E+04  0.15882982906E+04  0.15294330000E+03 0.  0.
<mgrwt>
<rscale>  0 0.19164546E+03</rscale>
<asrwt>0</asrwt>
<pdfrwt beam="1">  1        2 0.33716712E+00 0.19164546E+03</pdfrwt>
<pdfrwt beam="2">  1       -2 0.32118707E-02 0.19164546E+03</pdfrwt>
<totfact> 0.22610853E+03</totfact>
</mgrwt>
</event>
<event>
 4    1  0.3365401E-008  0.9616607E+03  0.7818608E-02  0.9351624E-01
          2   -1    0    0  501    0  0.00000000000E+00  0.00000000000E+00  0.15088654690E+04  0.15088654690E+04  0.25500000000E-02 0. -1.
         -2   -1    0    0    0  501 -0.00000000000E+00 -0.00000000000E+00 -0.11154478591E+04  0.11154478591E+04  0.25500000000E-02 0.  1.
    8880022    1    1    2    0    0  0.91889226878E+03 -0.23882346972E+03 -0.68403089675E+03  0.11801226936E+04  0.15294330000E+03 0.  0.
    8880022    1    1    2    0    0 -0.91889226878E+03  0.23882346972E+03  0.10774485067E+04  0.14441906345E+04  0.15294330000E+03 0. -1.
<mgrwt>
<rscale>  0 0.96166070E+03</rscale>
<asrwt>0</asrwt>
<pdfrwt beam="1">  1        2 0.23213315E+00 0.96166070E+03</pdfrwt>
<pdfrwt beam="2">  1       -2 0.17160736E+00 0.96166070E+03</pdfrwt>
<totfact> 0.25985176E+00</totfact>
</mgrwt>
</event>
<event>
 4    1  0.3365401E-008  0.7864511E+03  0.7818608E-02  0.9579838E-01
          2   -1    0    0  501    0  0.00000000000E+00  0.00000000000E+00  0.99026070753E+03  0.99026070753E+03  0.25500000000E-02 0. -1.
         -2   -1    0    0    0  501 -0.00000000000E+00 -0.00000000000E+00 -0.80977717519E+03  0.80977717520E+03  0.25500000000E-02 0.  1.
    8880022    1    1    2    0    0  0.77142987321E+03 -0.30932935788E+01 -0.34016224329E+03  0.85686382963E+03  0.15294330000E+03 0.  0.
    8880022    1    1    2    0    0 -0.77142987321E+03  0.30932935788E+01  0.52064577562E+03  0.94317405310E+03  0.15294330000E+03 0.  0.
<mgrwt>
<rscale>  0 0.78645106E+03</rscale>
<asrwt>0</asrwt>
<pdfrwt beam="1">  1        2 0.15234780E+00 0.78645106E+03</pdfrwt>
<pdfrwt beam="2">  1       -2 0.12458110E+00 0.78645106E+03</pdfrwt>
<totfact> 0.12516141E+01</totfact>
</mgrwt>
</event>
<event>
 4    1  0.3365401E-008  0.8045688E+03  0.7818608E-02  0.9553427E-01
          2   -1    0    0  501    0  0.00000000000E+00  0.00000000000E+00  0.32064295604E+03  0.32064295605E+03  0.25500000000E-02 0. -1.
         -2   -1    0    0    0  501 -0.00000000000E+00 -0.00000000000E+00 -0.23803929857E+04  0.23803929857E+04  0.25500000000E-02 0.  1.
    8880022    1    1    2    0    0  0.54144498675E+03  0.57513189014E+03 -0.15562002097E+04  0.17518818769E+04  0.15294330000E+03 0.  0.
    8880022    1    1    2    0    0 -0.54144498675E+03 -0.57513189014E+03 -0.50354981993E+03  0.94915406489E+03  0.15294330000E+03 0.  0.
<mgrwt>
<rscale>  0 0.80456884E+03</rscale>
<asrwt>0</asrwt>
<pdfrwt beam="1">  1        2 0.49329687E-01 0.80456884E+03</pdfrwt>
<pdfrwt beam="2">  1       -2 0.36621429E+00 0.80456884E+03</pdfrwt>
<totfact> 0.13098042E+00</totfact>
</mgrwt>
</event>
<event>
 4    1  0.3365401E-008  0.4440278E+03  0.7818608E-02  0.1029518E+00
          2   -1    0    0  501    0  0.00000000000E+00  0.00000000000E+00  0.58586065122E+03  0.58586065123E+03  0.25500000000E-02 0. -1.
         -2   -1    0    0    0  501 -0.00000000000E+00 -0.00000000000E+00 -0.90520833115E+03  0.90520833116E+03  0.25500000000E-02 0.  1.
    8880022    1    1    2    0    0 -0.35492504784E+03  0.21862580102E+03  0.43124271670E+03  0.61897573795E+03  0.15294330000E+03 0.  0.
    8880022    1    1    2    0    0  0.35492504784E+03 -0.21862580102E+03 -0.75059039663E+03  0.87209324443E+03  0.15294330000E+03 0.  0.
<mgrwt>
<rscale>  0 0.44402780E+03</rscale>
<asrwt>0</asrwt>
<pdfrwt beam="1">  1        2 0.90132408E-01 0.44402780E+03</pdfrwt>
<pdfrwt beam="2">  1       -2 0.13926282E+00 0.44402780E+03</pdfrwt>
<totfact> 0.19526257E+01</totfact>
</mgrwt>
</event>
<event>
 4    1  0.3365401E-008  0.2090066E+03  0.7818608E-02  0.1142355E+00
         -2   -1    0    0    0  501 -0.00000000000E+00  0.00000000000E+00  0.24212658495E+03  0.24212658496E+03  0.25500000000E-02 0.  1.
          2   -1    0    0  501    0  0.00000000000E+00 -0.00000000000E+00 -0.11988323881E+04  0.11988323881E+04  0.25500000000E-02 0. -1.
    8880022    1    1    2    0    0  0.11775901666E+03 -0.80155541107E+02 -0.11424091458E+04  0.11613709167E+04  0.15294330000E+03 0. -1.
    8880022    1    1    2    0    0 -0.11775901666E+03  0.80155541107E+02  0.18570334263E+03  0.27958805635E+03  0.15294330000E+03 0.  0.
<mgrwt>
<rscale>  0 0.20900658E+03</rscale>
<asrwt>0</asrwt>
<pdfrwt beam="1">  1        2 0.18443575E+00 0.20900658E+03</pdfrwt>
<pdfrwt beam="2">  1       -2 0.37250244E-01 0.20900658E+03</pdfrwt>
<totfact> 0.14017098E+02</totfact>
</mgrwt>
</event>
<event>
 4    1  0.3365401E-008  0.3755884E+03  0.7818608E-02  0.1052576E+00
          2   -1    0    0  501    0  0.00000000000E+00  0.00000000000E+00  0.97812379723E+03  0.97812379723E+03  0.25500000000E-02 0. -1.
         -2   -1    0    0    0  501 -0.00000000000E+00 -0.00000000000E+00 -0.27180171501E+03  0.27180171502E+03  0.25500000000E-02 0.  1.
    8880022    1    1    2    0    0  0.23143099944E+03  0.25320880145E+03 -0.75012077783E+02  0.38300583476E+03  0.15294330000E+03 0.  0.
    8880022    1    1    2    0    0 -0.23143099944E+03 -0.25320880145E+03  0.78133416000E+03  0.86691967749E+03  0.15294330000E+03 0.  0.
<mgrwt>
<rscale>  0 0.37558842E+03</rscale>
<asrwt>0</asrwt>
<pdfrwt beam="1">  1        2 0.15048058E+00 0.37558842E+03</pdfrwt>
<pdfrwt beam="2">  1       -2 0.41815649E-01 0.37558842E+03</pdfrwt>
<totfact> 0.14753302E+02</totfact>
</mgrwt>
</event>
<event>
 4    1  0.3365401E-008  0.6700699E+03  0.7818608E-02  0.9769831E-01
          2   -1    0    0  501    0  0.00000000000E+00  0.00000000000E+00  0.21111409238E+04  0.21111409238E+04  0.25500000000E-02 0. -1.
         -2   -1    0    0    0  501 -0.00000000000E+00 -0.00000000000E+00 -0.28566119306E+03  0.28566119307E+03  0.25500000000E-02 0.  1.
    8880022    1    1    2    0    0 -0.57071884743E+03 -0.31604125571E+03  0.30699842763E+03  0.73704936449E+03  0.15294330000E+03 0.  0.
    8880022    1    1    2    0    0  0.57071884743E+03  0.31604125571E+03  0.15184813031E+04  0.16597527524E+04  0.15294330000E+03 0.  0.
<mgrwt>
<rscale>  0 0.67006994E+03</rscale>
<asrwt>0</asrwt>
<pdfrwt beam="1">  1        2 0.32479091E+00 0.67006994E+03</pdfrwt>
<pdfrwt beam="2">  1       -2 0.43947876E-01 0.67006994E+03</pdfrwt>
<totfact> 0.29767938E+01</totfact>
</mgrwt>
</event>
<event>
 4    1  0.3365401E-008  0.2910786E+03  0.7818608E-02  0.1089787E+00
         -2   -1    0    0    0  501 -0.00000000000E+00  0.00000000000E+00  0.95051991124E+03  0.95051991124E+03  0.25500000000E-02 0.  1.
          2   -1    0    0  501    0  0.00000000000E+00 -0.00000000000E+00 -0.12982687117E+03  0.12982687119E+03  0.25500000000E-02 0. -1.
    8880022    1    1    2    0    0 -0.23147882196E+03 -0.88049183051E+02  0.10793901106E+03  0.31044739776E+03  0.15294330000E+03 0.  0.
    8880022    1    1    2    0    0  0.23147882196E+03  0.88049183051E+02  0.71275402901E+03  0.76989938468E+03  0.15294330000E+03 0.  0.
<mgrwt>
<rscale>  0 0.29107861E+03</rscale>
<asrwt>0</asrwt>
<pdfrwt beam="1">  1        2 0.19973365E-01 0.29107861E+03</pdfrwt>
<pdfrwt beam="2">  1       -2 0.14623383E+00 0.29107861E+03</pdfrwt>
<totfact> 0.94437148E+01</totfact>
</mgrwt>
</event>
<event>
 4    1  0.3365401E-008  0.4887041E+03  0.7818608E-02  0.1016770E+00
         -2   -1    0    0    0  501 -0.00000000000E+00  0.00000000000E+00  0.30996590954E+03  0.30996590955E+03  0.25500000000E-02 0.  1.
          2   -1    0    0  501    0  0.00000000000E+00 -0.00000000000E+00 -0.23927212552E+04  0.23927212552E+04  0.25500000000E-02 0. -1.
    8880022    1    1    2    0    0 -0.24439703115E+03  0.39460128428E+03  0.71310513278E+02  0.49387946375E+03  0.15294330000E+03 0.  0.
    8880022    1    1    2    0    0  0.24439703115E+03 -0.39460128428E+03 -0.21540658589E+04  0.22088077010E+04  0.15294330000E+03 0.  0.
<mgrwt>
<rscale>  0 0.48870414E+03</rscale>
<asrwt>0</asrwt>
<pdfrwt beam="1">  1        2 0.36811095E+00 0.48870414E+03</pdfrwt>
<pdfrwt beam="2">  1       -2 0.47687065E-01 0.48870414E+03</pdfrwt>
<totfact> 0.18341551E+01</totfact>
</mgrwt>
</event>
<event>
 4    1  0.3365401E-008  0.1126768E+04  0.7818608E-02  0.9179488E-01
          2   -1    0    0  501    0  0.00000000000E+00  0.00000000000E+00  0.31325634095E+04  0.31325634096E+04  0.25500000000E-02 0. -1.
         -2   -1    0    0    0  501 -0.00000000000E+00 -0.00000000000E+00 -0.90024274483E+03  0.90024274484E+03  0.25500000000E-02 0.  1.
    8880022    1    1    2    0    0  0.11156608889E+04  0.38929070700E+02  0.26112871924E+04  0.28440160242E+04  0.15294330000E+03 0.  0.
    8880022    1    1    2    0    0 -0.11156608889E+04 -0.38929070700E+02 -0.37896652766E+03  0.11887901302E+04  0.15294330000E+03 0.  0.
<mgrwt>
<rscale>  0 0.11267681E+04</rscale>
<asrwt>0</asrwt>
<pdfrwt beam="1">  1        2 0.48193284E+00 0.11267681E+04</pdfrwt>
<pdfrwt beam="2">  1       -2 0.13849888E+00 0.11267681E+04</pdfrwt>
<totfact> 0.52930676E-01</totfact>
</mgrwt>
</event>
<event>
 4    1  0.3365401E-008  0.6825031E+03  0.7818608E-02  0.9747631E-01
          2   -1    0    0  501    0  0.00000000000E+00  0.00000000000E+00  0.22248383162E+04  0.22248383162E+04  0.25500000000E-02 0. -1.
         -2   -1    0    0    0  501 -0.00000000000E+00 -0.00000000000E+00 -0.30316764044E+03  0.30316764045E+03  0.25500000000E-02 0.  1.
    8880022    1    1    2    0    0  0.36093037891E+03 -0.55870210282E+03  0.16639186018E+04  0.17984536537E+04  0.15294330000E+03 0.  0.
    8880022    1    1    2    0    0 -0.36093037891E+03  0.55870210282E+03  0.25775207400E+03  0.72955230298E+03  0.15294330000E+03 0.  0.
<mgrwt>
<rscale>  0 0.68250306E+03</rscale>
<asrwt>0</asrwt>
<pdfrwt beam="1">  1        2 0.34228281E+00 0.68250306E+03</pdfrwt>
<pdfrwt beam="2">  1       -2 0.46641176E-01 0.68250306E+03</pdfrwt>
<totfact> 0.22860662E+01</totfact>
</mgrwt>
</event>
<event>
 4    1  0.3365401E-008  0.1641417E+04  0.7818608E-02  0.8795501E-01
          2   -1    0    0  501    0  0.00000000000E+00  0.00000000000E+00  0.28785669612E+04  0.28785669612E+04  0.25500000000E-02 0. -1.
         -2   -1    0    0    0  501 -0.00000000000E+00 -0.00000000000E+00 -0.10540234145E+04  0.10540234145E+04  0.25500000000E-02 0.  1.
    8880022    1    1    2    0    0 -0.16341181724E+04  0.22678265880E+02  0.25421172934E+03  0.16609851779E+04  0.15294330000E+03 0.  0.
    8880022    1    1    2    0    0  0.16341181724E+04 -0.22678265880E+02  0.15703318173E+04  0.22716051977E+04  0.15294330000E+03 0.  0.
<mgrwt>
<rscale>  0 0.16414165E+04</rscale>
<asrwt>0</asrwt>
<pdfrwt beam="1">  1        2 0.44285644E+00 0.16414165E+04</pdfrwt>
<pdfrwt beam="2">  1       -2 0.16215745E+00 0.16414165E+04</pdfrwt>
<totfact> 0.46820306E-01</totfact>
</mgrwt>
</event>
<event>
 4    1  0.3365401E-008  0.7488457E+03  0.7818608E-02  0.9637163E-01
          2   -1    0    0  501    0  0.00000000000E+00  0.00000000000E+00  0.13054514404E+04  0.13054514404E+04  0.25500000000E-02 0. -1.
         -2   -1    0    0    0  501 -0.00000000000E+00 -0.00000000000E+00 -0.10865734790E+04  0.10865734790E+04  0.25500000000E-02 0.  1.
    8880022    1    1    2    0    0  0.39172048266E+03  0.61962352656E+03 -0.82058307265E+03  0.11109124553E+04  0.15294330000E+03 0.  0.
    8880022    1    1    2    0    0 -0.39172048266E+03 -0.61962352656E+03  0.10394610341E+04  0.12811124640E+04  0.15294330000E+03 0.  0.
<mgrwt>
<rscale>  0 0.74884571E+03</rscale>
<asrwt>0</asrwt>
<pdfrwt beam="1">  1        2 0.20083868E+00 0.74884571E+03</pdfrwt>
<pdfrwt beam="2">  1       -2 0.16716515E+00 0.74884571E+03</pdfrwt>
<totfact> 0.37555175E+00</totfact>
</mgrwt>
</event>
<event>
 4    1  0.3365401E-008  0.5809367E+03  0.7818608E-02  0.9945765E-01
         -2   -1    0    0    0  501 -0.00000000000E+00  0.00000000000E+00  0.29123942505E+03  0.29123942506E+03  0.25500000000E-02 0.  1.
          2   -1    0    0  501    0  0.00000000000E+00 -0.00000000000E+00 -0.24718360445E+04  0.24718360445E+04  0.25500000000E-02 0. -1.
    8880022    1    1    2    0    0  0.23283184458E+03  0.50978933906E+03 -0.20972106740E+04  0.21761847583E+04  0.15294330000E+03 0.  0.
    8880022    1    1    2    0    0 -0.23283184458E+03 -0.50978933906E+03 -0.83385945453E+02  0.58689071128E+03  0.15294330000E+03 0.  1.
<mgrwt>
<rscale>  0 0.58093674E+03</rscale>
<asrwt>0</asrwt>
<pdfrwt beam="1">  1        2 0.38028245E+00 0.58093674E+03</pdfrwt>
<pdfrwt beam="2">  1       -2 0.44806067E-01 0.58093674E+03</pdfrwt>
<totfact> 0.18390449E+01</totfact>
</mgrwt>
</event>
<event>
 4    1  0.3365401E-008  0.2248406E+03  0.7818608E-02  0.1130325E+00
         -2   -1    0    0    0  501 -0.00000000000E+00  0.00000000000E+00  0.32101993295E+03  0.32101993296E+03  0.25500000000E-02 0.  1.
          2   -1    0    0  501    0  0.00000000000E+00 -0.00000000000E+00 -0.66087630306E+03  0.66087630307E+03  0.25500000000E-02 0. -1.
    8880022    1    1    2    0    0 -0.14205806498E+03  0.83553382931E+02  0.25855297965E+03  0.34264115037E+03  0.15294330000E+03 0.  0.
    8880022    1    1    2    0    0  0.14205806498E+03 -0.83553382931E+02 -0.59840934977E+03  0.63925508565E+03  0.15294330000E+03 0. -1.
<mgrwt>
<rscale>  0 0.22484064E+03</rscale>
<asrwt>0</asrwt>
<pdfrwt beam="1">  1        2 0.10167328E+00 0.22484064E+03</pdfrwt>
<pdfrwt beam="2">  1       -2 0.49387682E-01 0.22484064E+03</pdfrwt>
<totfact> 0.17999478E+02</totfact>
</mgrwt>
</event>
<event>
 4    1  0.3365401E-008  0.3803500E+03  0.7818608E-02  0.1050804E+00
         -2   -1    0    0    0  501 -0.00000000000E+00  0.00000000000E+00  0.76388869549E+02  0.76388869591E+02  0.25500000000E-02 0.  1.
          2   -1    0    0  501    0  0.00000000000E+00 -0.00000000000E+00 -0.24373628302E+04  0.24373628302E+04  0.25500000000E-02 0. -1.
    8880022    1    1    2    0    0  0.34801809602E+03 -0.12566175841E+02 -0.58694372245E+03  0.69940624123E+03  0.15294330000E+03 0.  0.
    8880022    1    1    2    0    0 -0.34801809602E+03  0.12566175841E+02 -0.17740302382E+04  0.18143454585E+04  0.15294330000E+03 0.  0.
<mgrwt>
<rscale>  0 0.38035005E+03</rscale>
<asrwt>0</asrwt>
<pdfrwt beam="1">  1        2 0.37497884E+00 0.38035005E+03</pdfrwt>
<pdfrwt beam="2">  1       -2 0.11752136E-01 0.38035005E+03</pdfrwt>
<totfact> 0.21712388E+02</totfact>
</mgrwt>
</event>
<event>
 4    1  0.3365401E-008  0.4766296E+03  0.7818608E-02  0.1020066E+00
         -2   -1    0    0    0  501 -0.00000000000E+00  0.00000000000E+00  0.75979094767E+03  0.75979094767E+03  0.25500000000E-02 0.  1.
          2   -1    0    0  501    0  0.00000000000E+00 -0.00000000000E+00 -0.61099472572E+03  0.61099472573E+03  0.25500000000E-02 0. -1.
    8880022    1    1    2    0    0 -0.39072440072E+03 -0.22609414879E+03 -0.41537623261E+03  0.63222874742E+03  0.15294330000E+03 0.  0.
    8880022    1    1    2    0    0  0.39072440072E+03  0.22609414879E+03  0.56417245455E+03  0.73855692599E+03  0.15294330000E+03 0.  0.
<mgrwt>
<rscale>  0 0.47662960E+03</rscale>
<asrwt>0</asrwt>
<pdfrwt beam="1">  1        2 0.93999189E-01 0.47662960E+03</pdfrwt>
<pdfrwt beam="2">  1       -2 0.11689091E+00 0.47662960E+03</pdfrwt>
<totfact> 0.28639102E+01</totfact>
</mgrwt>
</event>
<event>
 4    1  0.3365401E-008  0.5950012E+03  0.7818608E-02  0.9915832E-01
          2   -1    0    0  501    0  0.00000000000E+00  0.00000000000E+00  0.18157161816E+04  0.18157161816E+04  0.25500000000E-02 0. -1.
         -2   -1    0    0    0  501 -0.00000000000E+00 -0.00000000000E+00 -0.37012539957E+03  0.37012539958E+03  0.25500000000E-02 0.  1.
    8880022    1    1    2    0    0 -0.30130156186E+03  0.48974699886E+03 -0.29026437262E+02  0.59570877209E+03  0.15294330000E+03 0.  0.
    8880022    1    1    2    0    0  0.30130156186E+03 -0.48974699886E+03  0.14746172193E+04  0.15901328091E+04  0.15294330000E+03 0. -1.
<mgrwt>
<rscale>  0 0.59500118E+03</rscale>
<asrwt>0</asrwt>
<pdfrwt beam="1">  1        2 0.27934096E+00 0.59500118E+03</pdfrwt>
<pdfrwt beam="2">  1       -2 0.56942368E-01 0.59500118E+03</pdfrwt>
<totfact> 0.25743836E+01</totfact>
</mgrwt>
</event>
<event>
 4    1  0.3365401E-008  0.8955860E+03  0.7818608E-02  0.9431116E-01
         -2   -1    0    0    0  501 -0.00000000000E+00  0.00000000000E+00  0.91596497620E+03  0.91596497621E+03  0.25500000000E-02 0.  1.
          2   -1    0    0  501    0  0.00000000000E+00 -0.00000000000E+00 -0.14211423822E+04  0.14211423822E+04  0.25500000000E-02 0. -1.
    8880022    1    1    2    0    0  0.41520323658E+03  0.77864555312E+03  0.47138045890E+03  0.10120641359E+04  0.15294330000E+03 0.  0.
    8880022    1    1    2    0    0 -0.41520323658E+03 -0.77864555312E+03 -0.97655786488E+03  0.13250432225E+04  0.15294330000E+03 0.  0.
<mgrwt>
<rscale>  0 0.89558600E+03</rscale>
<asrwt>0</asrwt>
<pdfrwt beam="1">  1        2 0.21863729E+00 0.89558600E+03</pdfrwt>
<pdfrwt beam="2">  1       -2 0.14091769E+00 0.89558600E+03</pdfrwt>
<totfact> 0.49920540E+00</totfact>
</mgrwt>
</event>
<event>
 4    1  0.3365401E-008  0.8574106E+03  0.7818608E-02  0.9480444E-01
          2   -1    0    0  501    0  0.00000000000E+00  0.00000000000E+00  0.10885066231E+04  0.10885066231E+04  0.25500000000E-02 0. -1.
         -2   -1    0    0    0  501 -0.00000000000E+00 -0.00000000000E+00 -0.85867610361E+03  0.85867610361E+03  0.25500000000E-02 0.  1.
    8880022    1    1    2    0    0  0.42866988566E+03  0.72663844266E+03 -0.33490760595E+03  0.92049772121E+03  0.15294330000E+03 0.  0.
    8880022    1    1    2    0    0 -0.42866988566E+03 -0.72663844266E+03  0.56473812549E+03  0.10266850055E+04  0.15294330000E+03 0.  0.
<mgrwt>
<rscale>  0 0.85741061E+03</rscale>
<asrwt>0</asrwt>
<pdfrwt beam="1">  1        2 0.16746256E+00 0.85741061E+03</pdfrwt>
<pdfrwt beam="2">  1       -2 0.13210402E+00 0.85741061E+03</pdfrwt>
<totfact> 0.92896256E+00</totfact>
</mgrwt>
</event>
<event>
 4    1  0.3365401E-008  0.1895545E+03  0.7818608E-02  0.1158864E+00
          2   -1    0    0  501    0  0.00000000000E+00  0.00000000000E+00  0.16657637182E+04  0.16657637182E+04  0.25500000000E-02 0. -1.
         -2   -1    0    0    0  501 -0.00000000000E+00 -0.00000000000E+00 -0.73694311436E+02  0.73694311480E+02  0.25500000000E-02 0.  1.
    8880022    1    1    2    0    0 -0.49127086761E+02 -0.10062690392E+03  0.15274873338E+04  0.15392038372E+04  0.15294330000E+03 0.  0.
    8880022    1    1    2    0    0  0.49127086761E+02  0.10062690392E+03  0.64582072945E+02  0.20025419249E+03  0.15294330000E+03 0.  1.
<mgrwt>
<rscale>  0 0.18955447E+03</rscale>
<asrwt>0</asrwt>
<pdfrwt beam="1">  1        2 0.25627134E+00 0.18955447E+03</pdfrwt>
<pdfrwt beam="2">  1       -2 0.11337586E-01 0.18955447E+03</pdfrwt>
<totfact> 0.61305688E+02</totfact>
</mgrwt>
</event>
<event>
 4    1  0.3365401E-008  0.1132300E+04  0.7818608E-02  0.9174270E-01
          2   -1    0    0  501    0  0.00000000000E+00  0.00000000000E+00  0.14983364576E+04  0.14983364576E+04  0.25500000000E-02 0. -1.
         -2   -1    0    0    0  501 -0.00000000000E+00 -0.00000000000E+00 -0.10661993313E+04  0.10661993313E+04  0.25500000000E-02 0.  1.
    8880022    1    1    2    0    0 -0.94968723637E+03  0.59733139695E+03  0.78584120544E+03  0.13782774386E+04  0.15294330000E+03 0.  0.
    8880022    1    1    2    0    0  0.94968723637E+03 -0.59733139695E+03 -0.35370407914E+03  0.11862583502E+04  0.15294330000E+03 0.  0.
<mgrwt>
<rscale>  0 0.11322996E+04</rscale>
<asrwt>0</asrwt>
<pdfrwt beam="1">  1        2 0.23051330E+00 0.11322996E+04</pdfrwt>
<pdfrwt beam="2">  1       -2 0.16403066E+00 0.11322996E+04</pdfrwt>
<totfact> 0.29271686E+00</totfact>
</mgrwt>
</event>
<event>
 4    1  0.3365401E-008  0.5269449E+03  0.7818608E-02  0.1006976E+00
         -2   -1    0    0    0  501 -0.00000000000E+00  0.00000000000E+00  0.19700737597E+03  0.19700737599E+03  0.25500000000E-02 0.  1.
          2   -1    0    0  501    0  0.00000000000E+00 -0.00000000000E+00 -0.31561165051E+04  0.31561165051E+04  0.25500000000E-02 0. -1.
    8880022    1    1    2    0    0  0.49855953293E+03 -0.75615234711E+02 -0.23231811702E+03  0.57588421763E+03  0.15294330000E+03 0.  1.
    8880022    1    1    2    0    0 -0.49855953293E+03  0.75615234711E+02 -0.27267910121E+04  0.27772396635E+04  0.15294330000E+03 0.  0.
<mgrwt>
<rscale>  0 0.52694490E+03</rscale>
<asrwt>0</asrwt>
<pdfrwt beam="1">  1        2 0.48555635E+00 0.52694490E+03</pdfrwt>
<pdfrwt beam="2">  1       -2 0.30308830E-01 0.52694490E+03</pdfrwt>
<totfact> 0.15555565E+01</totfact>
</mgrwt>
</event>
<event>
 4    1  0.3365401E-008  0.4860375E+03  0.7818608E-02  0.1017489E+00
          2   -1    0    0  501    0  0.00000000000E+00  0.00000000000E+00  0.50449879167E+04  0.50449879167E+04  0.25500000000E-02 0. -1.
         -2   -1    0    0    0  501 -0.00000000000E+00 -0.00000000000E+00 -0.11687787971E+03  0.11687787974E+03  0.25500000000E-02 0.  1.
    8880022    1    1    2    0    0 -0.19855845886E+03  0.41643164070E+03  0.46592835539E+03  0.67329165919E+03  0.15294330000E+03 0.  0.
    8880022    1    1    2    0    0  0.19855845886E+03 -0.41643164070E+03  0.44621816816E+04  0.44885741373E+04  0.15294330000E+03 0.  0.
<mgrwt>
<rscale>  0 0.48603747E+03</rscale>
<asrwt>0</asrwt>
<pdfrwt beam="1">  1        2 0.77615206E+00 0.48603747E+03</pdfrwt>
<pdfrwt beam="2">  1       -2 0.17981211E-01 0.48603747E+03</pdfrwt>
<totfact> 0.99651433E-01</totfact>
</mgrwt>
</event>
<event>
 4    1  0.3365401E-008  0.6623650E+03  0.7818608E-02  0.9783850E-01
         -2   -1    0    0    0  501 -0.00000000000E+00  0.00000000000E+00  0.25592659150E+03  0.25592659152E+03  0.25500000000E-02 0.  1.
          2   -1    0    0  501    0  0.00000000000E+00 -0.00000000000E+00 -0.17695275577E+04  0.17695275577E+04  0.25500000000E-02 0. -1.
    8880022    1    1    2    0    0  0.42544931033E+03 -0.48407499827E+03 -0.93576137926E+03  0.11464627039E+04  0.15294330000E+03 0.  0.
    8880022    1    1    2    0    0 -0.42544931033E+03  0.48407499827E+03 -0.57783958692E+03  0.87899144525E+03  0.15294330000E+03 0.  0.
<mgrwt>
<rscale>  0 0.66236498E+03</rscale>
<asrwt>0</asrwt>
<pdfrwt beam="1">  1        2 0.27223500E+00 0.66236498E+03</pdfrwt>
<pdfrwt beam="2">  1       -2 0.39373323E-01 0.66236498E+03</pdfrwt>
<totfact> 0.56693489E+01</totfact>
</mgrwt>
</event>
<event>
 4    1  0.3365401E-008  0.1115342E+04  0.7818608E-02  0.9190366E-01
          2   -1    0    0  501    0  0.00000000000E+00  0.00000000000E+00  0.29577727134E+04  0.29577727134E+04  0.25500000000E-02 0. -1.
         -2   -1    0    0    0  501 -0.00000000000E+00 -0.00000000000E+00 -0.11748113710E+04  0.11748113710E+04  0.25500000000E-02 0.  1.
    8880022    1    1    2    0    0 -0.11032945200E+04 -0.57776800400E+02 -0.76413334770E+03  0.13519942243E+04  0.15294330000E+03 0.  0.
    8880022    1    1    2    0    0  0.11032945200E+04  0.57776800400E+02  0.25470946902E+04  0.27805898601E+04  0.15294330000E+03 0.  0.
<mgrwt>
<rscale>  0 0.11153424E+04</rscale>
<asrwt>0</asrwt>
<pdfrwt beam="1">  1        2 0.45504195E+00 0.11153424E+04</pdfrwt>
<pdfrwt beam="2">  1       -2 0.18074021E+00 0.11153424E+04</pdfrwt>
<totfact> 0.33014241E-01</totfact>
</mgrwt>
</event>
<event>
 4    1  0.3365401E-008  0.9973878E+03  0.7818608E-02  0.9311414E-01
          2   -1    0    0  501    0  0.00000000000E+00  0.00000000000E+00  0.81017555170E+03  0.81017555170E+03  0.25500000000E-02 0. -1.
         -2   -1    0    0    0  501 -0.00000000000E+00 -0.00000000000E+00 -0.15091769108E+04  0.15091769108E+04  0.25500000000E-02 0.  1.
    8880022    1    1    2    0    0 -0.76119980284E+03  0.62607166471E+03 -0.85018529589E+03  0.13105714630E+04  0.15294330000E+03 0.  0.
    8880022    1    1    2    0    0  0.76119980284E+03 -0.62607166471E+03  0.15118393682E+03  0.10087809995E+04  0.15294330000E+03 0.  0.
<mgrwt>
<rscale>  0 0.99738785E+03</rscale>
<asrwt>0</asrwt>
<pdfrwt beam="1">  1        2 0.12464239E+00 0.99738785E+03</pdfrwt>
<pdfrwt beam="2">  1       -2 0.23218106E+00 0.99738785E+03</pdfrwt>
<totfact> 0.27942137E+00</totfact>
</mgrwt>
</event>
<event>
 4    1  0.3365401E-008  0.2603642E+03  0.7818608E-02  0.1106925E+00
          2   -1    0    0  501    0  0.00000000000E+00  0.00000000000E+00  0.24173490687E+04  0.24173490687E+04  0.25500000000E-02 0. -1.
         -2   -1    0    0    0  501 -0.00000000000E+00 -0.00000000000E+00 -0.67057267256E+02  0.67057267304E+02  0.25500000000E-02 0.  1.
    8880022    1    1    2    0    0  0.11601257060E+03 -0.17589472823E+03  0.21226517143E+04  0.21385602225E+04  0.15294330000E+03 0.  0.
    8880022    1    1    2    0    0 -0.11601257060E+03  0.17589472823E+03  0.22764008719E+03  0.34584611356E+03  0.15294330000E+03 0.  1.
<mgrwt>
<rscale>  0 0.26036422E+03</rscale>
<asrwt>0</asrwt>
<pdfrwt beam="1">  1        2 0.37189975E+00 0.26036422E+03</pdfrwt>
<pdfrwt beam="2">  1       -2 0.10316506E-01 0.26036422E+03</pdfrwt>
<totfact> 0.28228869E+02</totfact>
</mgrwt>
</event>
<event>
 4    1  0.3365401E-008  0.5893116E+03  0.7818608E-02  0.9927833E-01
         -2   -1    0    0    0  501 -0.00000000000E+00  0.00000000000E+00  0.15840439807E+03  0.15840439809E+03  0.25500000000E-02 0.  1.
          2   -1    0    0  501    0  0.00000000000E+00 -0.00000000000E+00 -0.24113678411E+04  0.24113678411E+04  0.25500000000E-02 0. -1.
    8880022    1    1    2    0    0  0.35846555612E+03 -0.44203956047E+03 -0.15136575013E+04  0.16243297732E+04  0.15294330000E+03 0.  0.
    8880022    1    1    2    0    0 -0.35846555612E+03  0.44203956047E+03 -0.73930594176E+03  0.94544246598E+03  0.15294330000E+03 0.  0.
<mgrwt>
<rscale>  0 0.58931162E+03</rscale>
<asrwt>0</asrwt>
<pdfrwt beam="1">  1        2 0.37097964E+00 0.58931162E+03</pdfrwt>
<pdfrwt beam="2">  1       -2 0.24369909E-01 0.58931162E+03</pdfrwt>
<totfact> 0.62415066E+01</totfact>
</mgrwt>
</event>
<event>
 4    1  0.3365401E-008  0.8590182E+03  0.7818608E-02  0.9478312E-01
          2   -1    0    0  501    0  0.00000000000E+00  0.00000000000E+00  0.28132961263E+04  0.28132961263E+04  0.25500000000E-02 0. -1.
         -2   -1    0    0    0  501 -0.00000000000E+00 -0.00000000000E+00 -0.40378543992E+03  0.40378543993E+03  0.25500000000E-02 0.  1.
    8880022    1    1    2    0    0 -0.10140137470E+03 -0.83918908989E+03  0.25257107964E+03  0.89537945625E+03  0.15294330000E+03 0.  0.
    8880022    1    1    2    0    0  0.10140137470E+03  0.83918908989E+03  0.21569396067E+04  0.23217021100E+04  0.15294330000E+03 0.  0.
<mgrwt>
<rscale>  0 0.85901817E+03</rscale>
<asrwt>0</asrwt>
<pdfrwt beam="1">  1        2 0.43281479E+00 0.85901817E+03</pdfrwt>
<pdfrwt beam="2">  1       -2 0.62120837E-01 0.85901817E+03</pdfrwt>
<totfact> 0.56769792E+00</totfact>
</mgrwt>
</event>
<event>
 4    1  0.3365401E-008  0.7124288E+03  0.7818608E-02  0.9696210E-01
          2   -1    0    0  501    0  0.00000000000E+00  0.00000000000E+00  0.10210055904E+04  0.10210055904E+04  0.25500000000E-02 0. -1.
         -2   -1    0    0    0  501 -0.00000000000E+00 -0.00000000000E+00 -0.88474884253E+03  0.88474884254E+03  0.25500000000E-02 0.  1.
    8880022    1    1    2    0    0 -0.67780207831E+03  0.15731331086E+03  0.69885200752E+03  0.99797240271E+03  0.15294330000E+03 0.  0.
    8880022    1    1    2    0    0  0.67780207831E+03 -0.15731331086E+03 -0.56259525968E+03  0.90778203021E+03  0.15294330000E+03 0.  0.
<mgrwt>
<rscale>  0 0.71242880E+03</rscale>
<asrwt>0</asrwt>
<pdfrwt beam="1">  1        2 0.15707778E+00 0.71242880E+03</pdfrwt>
<pdfrwt beam="2">  1       -2 0.13611521E+00 0.71242880E+03</pdfrwt>
<totfact> 0.96464882E+00</totfact>
</mgrwt>
</event>
<event>
 4    1  0.3365401E-008  0.6443780E+03  0.7818608E-02  0.9817386E-01
          2   -1    0    0  501    0  0.00000000000E+00  0.00000000000E+00  0.16503226734E+04  0.16503226734E+04  0.25500000000E-02 0. -1.
         -2   -1    0    0    0  501 -0.00000000000E+00 -0.00000000000E+00 -0.35047973124E+03  0.35047973125E+03  0.25500000000E-02 0.  1.
    8880022    1    1    2    0    0  0.16831661751E+03 -0.60291032776E+03  0.11855521155E+03  0.65519335944E+03  0.15294330000E+03 0.  0.
    8880022    1    1    2    0    0 -0.16831661751E+03  0.60291032776E+03  0.11812877306E+04  0.13456090452E+04  0.15294330000E+03 0.  0.
<mgrwt>
<rscale>  0 0.64437799E+03</rscale>
<asrwt>0</asrwt>
<pdfrwt beam="1">  1        2 0.25389579E+00 0.64437799E+03</pdfrwt>
<pdfrwt beam="2">  1       -2 0.53919960E-01 0.64437799E+03</pdfrwt>
<totfact> 0.35189799E+01</totfact>
</mgrwt>
</event>
<event>
 4    1  0.3365401E-008  0.5261277E+03  0.7818608E-02  0.1007176E+00
          2   -1    0    0  501    0  0.00000000000E+00  0.00000000000E+00  0.12874439177E+04  0.12874439177E+04  0.25500000000E-02 0. -1.
         -2   -1    0    0    0  501 -0.00000000000E+00 -0.00000000000E+00 -0.25277449770E+03  0.25277449771E+03  0.25500000000E-02 0.  1.
    8880022    1    1    2    0    0 -0.29406027781E+03 -0.40859173932E+03  0.21966066072E+03  0.57014131170E+03  0.15294330000E+03 0.  0.
    8880022    1    1    2    0    0  0.29406027781E+03  0.40859173932E+03  0.81500875927E+03  0.97007710370E+03  0.15294330000E+03 0.  0.
<mgrwt>
<rscale>  0 0.52612766E+03</rscale>
<asrwt>0</asrwt>
<pdfrwt beam="1">  1        2 0.19806830E+00 0.52612766E+03</pdfrwt>
<pdfrwt beam="2">  1       -2 0.38888384E-01 0.52612766E+03</pdfrwt>
<totfact> 0.10906037E+02</totfact>
</mgrwt>
</event>
<event>
 4    1  0.3365401E-008  0.2610392E+03  0.7818608E-02  0.1106520E+00
         -2   -1    0    0    0  501 -0.00000000000E+00  0.00000000000E+00  0.12588243826E+04  0.12588243826E+04  0.25500000000E-02 0.  1.
          2   -1    0    0  501    0  0.00000000000E+00 -0.00000000000E+00 -0.91260710243E+03  0.91260710244E+03  0.25500000000E-02 0. -1.
    8880022    1    1    2    0    0  0.19132515393E+03  0.90246900016E+02  0.12261327340E+04  0.12536119622E+04  0.15294330000E+03 0.  0.
    8880022    1    1    2    0    0 -0.19132515393E+03 -0.90246900016E+02 -0.87991545384E+03  0.91781952279E+03  0.15294330000E+03 0. -1.
<mgrwt>
<rscale>  0 0.26103921E+03</rscale>
<asrwt>0</asrwt>
<pdfrwt beam="1">  1        2 0.14040109E+00 0.26103921E+03</pdfrwt>
<pdfrwt beam="2">  1       -2 0.19366529E+00 0.26103921E+03</pdfrwt>
<totfact> 0.48160750E+00</totfact>
</mgrwt>
</event>
<event>
 4    1  0.3365401E-008  0.2787587E+03  0.7818608E-02  0.1096369E+00
         -2   -1    0    0    0  501 -0.00000000000E+00  0.00000000000E+00  0.21822331646E+03  0.21822331648E+03  0.25500000000E-02 0.  1.
          2   -1    0    0  501    0  0.00000000000E+00 -0.00000000000E+00 -0.14189898776E+04  0.14189898776E+04  0.25500000000E-02 0. -1.
    8880022    1    1    2    0    0  0.57715090789E+02  0.22579575668E+03 -0.13088712102E+04  0.13382265329E+04  0.15294330000E+03 0. -1.
    8880022    1    1    2    0    0 -0.57715090789E+02 -0.22579575668E+03  0.10810464902E+03  0.29898666123E+03  0.15294330000E+03 0.  0.
<mgrwt>
<rscale>  0 0.27875869E+03</rscale>
<asrwt>0</asrwt>
<pdfrwt beam="1">  1        2 0.21830613E+00 0.27875869E+03</pdfrwt>
<pdfrwt beam="2">  1       -2 0.33572819E-01 0.27875869E+03</pdfrwt>
<totfact> 0.12656601E+02</totfact>
</mgrwt>
</event>
<event>
 4    1  0.3365401E-008  0.8832945E+03  0.7818608E-02  0.9446708E-01
          2   -1    0    0  501    0  0.00000000000E+00  0.00000000000E+00  0.14960476928E+04  0.14960476928E+04  0.25500000000E-02 0. -1.
         -2   -1    0    0    0  501 -0.00000000000E+00 -0.00000000000E+00 -0.72038104264E+03  0.72038104265E+03  0.25500000000E-02 0.  1.
    8880022    1    1    2    0    0  0.12483076860E+03  0.86094997471E+03 -0.19443675213E+03  0.90444175232E+03  0.15294330000E+03 0.  0.
    8880022    1    1    2    0    0 -0.12483076860E+03 -0.86094997471E+03  0.97010340228E+03  0.13119869831E+04  0.15294330000E+03 0.  0.
<mgrwt>
<rscale>  0 0.88329453E+03</rscale>
<asrwt>0</asrwt>
<pdfrwt beam="1">  1        2 0.23016118E+00 0.88329453E+03</pdfrwt>
<pdfrwt beam="2">  1       -2 0.11082785E+00 0.88329453E+03</pdfrwt>
<totfact> 0.82935451E+00</totfact>
</mgrwt>
</event>
<event>
 4    1  0.3897535E-008  0.6671128E+03  0.7818608E-02  0.9775188E-01
         -2   -1    0    0    0  501 -0.00000000000E+00  0.00000000000E+00  0.24033215228E+04  0.24033215228E+04  0.25500000000E-02 0.  1.
          2   -1    0    0  501    0  0.00000000000E+00 -0.00000000000E+00 -0.67410899157E+03  0.67410899158E+03  0.25500000000E-02 0. -1.
    8880022    1    1    2    0    0  0.26046228987E+03  0.59481701371E+03  0.21750473151E+04  0.22750539247E+04  0.15294330000E+03 0.  0.
    8880022    1    1    2    0    0 -0.26046228987E+03 -0.59481701371E+03 -0.44583478385E+03  0.80237658973E+03  0.15294330000E+03 0.  0.
<mgrwt>
<rscale>  0 0.66711284E+03</rscale>
<asrwt>0</asrwt>
<pdfrwt beam="1">  1        2 0.10370908E+00 0.66711284E+03</pdfrwt>
<pdfrwt beam="2">  1       -2 0.36974177E+00 0.66711284E+03</pdfrwt>
<totfact> 0.54018788E-01</totfact>
</mgrwt>
</event>
<event>
 4    1  0.3365401E-008  0.9060191E+03  0.7818608E-02  0.9418088E-01
          2   -1    0    0  501    0  0.00000000000E+00  0.00000000000E+00  0.23615497234E+04  0.23615497234E+04  0.25500000000E-02 0. -1.
         -2   -1    0    0    0  501 -0.00000000000E+00 -0.00000000000E+00 -0.61920575374E+03  0.61920575374E+03  0.25500000000E-02 0.  1.
    8880022    1    1    2    0    0  0.40261689344E+02  0.89210867264E+03 -0.11590209814E+03  0.91340234113E+03  0.15294330000E+03 0.  0.
    8880022    1    1    2    0    0 -0.40261689344E+02 -0.89210867264E+03  0.18582460678E+04  0.20673531360E+04  0.15294330000E+03 0.  0.
<mgrwt>
<rscale>  0 0.90601906E+03</rscale>
<asrwt>0</asrwt>
<pdfrwt beam="1">  1        2 0.36331534E+00 0.90601906E+03</pdfrwt>
<pdfrwt beam="2">  1       -2 0.95262424E-01 0.90601906E+03</pdfrwt>
<totfact> 0.39492107E+00</totfact>
</mgrwt>
</event>
<event>
 4    1  0.3365401E-008  0.6045776E+03  0.7818608E-02  0.9895954E-01
         -2   -1    0    0    0  501 -0.00000000000E+00  0.00000000000E+00  0.60938949272E+03  0.60938949273E+03  0.25500000000E-02 0.  1.
          2   -1    0    0  501    0  0.00000000000E+00 -0.00000000000E+00 -0.33087092615E+04  0.33087092615E+04  0.25500000000E-02 0. -1.
    8880022    1    1    2    0    0  0.22339953077E+03 -0.54056924855E+03 -0.31222691110E+04  0.31802639069E+04  0.15294330000E+03 0.  0.
    8880022    1    1    2    0    0 -0.22339953077E+03  0.54056924855E+03  0.42294934224E+03  0.73783484734E+03  0.15294330000E+03 0.  0.
<mgrwt>
<rscale>  0 0.60457763E+03</rscale>
<asrwt>0</asrwt>
<pdfrwt beam="1">  1        2 0.50903219E+00 0.60457763E+03</pdfrwt>
<pdfrwt beam="2">  1       -2 0.93752231E-01 0.60457763E+03</pdfrwt>
<totfact> 0.11846029E+00</totfact>
</mgrwt>
</event>
<event>
 4    1  0.3365401E-008  0.1071191E+04  0.7818608E-02  0.9233735E-01
         -2   -1    0    0    0  501 -0.00000000000E+00  0.00000000000E+00  0.76268717223E+03  0.76268717224E+03  0.25500000000E-02 0.  1.
          2   -1    0    0  501    0  0.00000000000E+00 -0.00000000000E+00 -0.21605172864E+04  0.21605172864E+04  0.25500000000E-02 0. -1.
    8880022    1    1    2    0    0 -0.89578382511E+02 -0.10564252349E+04 -0.15043184389E+04  0.18467333815E+04  0.15294330000E+03 0.  0.
    8880022    1    1    2    0    0  0.89578382511E+02  0.10564252349E+04  0.10648832478E+03  0.10764710771E+04  0.15294330000E+03 0.  0.
<mgrwt>
<rscale>  0 0.10711910E+04</rscale>
<asrwt>0</asrwt>
<pdfrwt beam="1">  1        2 0.33238727E+00 0.10711910E+04</pdfrwt>
<pdfrwt beam="2">  1       -2 0.11733649E+00 0.10711910E+04</pdfrwt>
<totfact> 0.30273202E+00</totfact>
</mgrwt>
</event>
<event>
 4    1  0.3365401E-008  0.8004668E+03  0.7818608E-02  0.9559342E-01
         -2   -1    0    0    0  501 -0.00000000000E+00  0.00000000000E+00  0.28809450517E+03  0.28809450518E+03  0.25500000000E-02 0.  1.
          2   -1    0    0  501    0  0.00000000000E+00 -0.00000000000E+00 -0.25877762189E+04  0.25877762189E+04  0.25500000000E-02 0. -1.
    8880022    1    1    2    0    0 -0.52453756750E+03  0.58499208630E+03 -0.16889064494E+04  0.18689976053E+04  0.15294330000E+03 0.  0.
    8880022    1    1    2    0    0  0.52453756750E+03 -0.58499208630E+03 -0.61077526428E+03  0.10068731187E+04  0.15294330000E+03 0.  0.
<mgrwt>
<rscale>  0 0.80046677E+03</rscale>
<asrwt>0</asrwt>
<pdfrwt beam="1">  1        2 0.39811940E+00 0.80046677E+03</pdfrwt>
<pdfrwt beam="2">  1       -2 0.44322233E-01 0.80046677E+03</pdfrwt>
<totfact> 0.15549939E+01</totfact>
</mgrwt>
</event>
<event>
 4    1  0.3390110E-008  0.8120385E+03  0.7818608E-02  0.9542753E-01
         -2   -1    0    0    0  501 -0.00000000000E+00  0.00000000000E+00  0.12463418823E+04  0.12463418824E+04  0.25500000000E-02 0.  1.
          2   -1    0    0  501    0  0.00000000000E+00 -0.00000000000E+00 -0.16515479939E+04  0.16515479939E+04  0.25500000000E-02 0. -1.
    8880022    1    1    2    0    0 -0.63567858175E+03 -0.48158870197E+03 -0.13971260201E+04  0.16159726812E+04  0.15294330000E+03 0.  0.
    8880022    1    1    2    0    0  0.63567858175E+03  0.48158870197E+03  0.99191990854E+03  0.12819171951E+04  0.15294330000E+03 0.  0.
<mgrwt>
<rscale>  0 0.81203854E+03</rscale>
<asrwt>0</asrwt>
<pdfrwt beam="1">  1        2 0.25408431E+00 0.81203854E+03</pdfrwt>
<pdfrwt beam="2">  1       -2 0.19174490E+00 0.81203854E+03</pdfrwt>
<totfact> 0.16108926E+00</totfact>
</mgrwt>
</event>
<event>
 4    1  0.3365401E-008  0.9109832E+03  0.7818608E-02  0.9411955E-01
         -2   -1    0    0    0  501 -0.00000000000E+00  0.00000000000E+00  0.47456669378E+03  0.47456669378E+03  0.25500000000E-02 0.  1.
          2   -1    0    0  501    0  0.00000000000E+00 -0.00000000000E+00 -0.18091703039E+04  0.18091703039E+04  0.25500000000E-02 0. -1.
    8880022    1    1    2    0    0 -0.68407566537E+03 -0.58184122127E+03 -0.45859847433E+03  0.10199033956E+04  0.15294330000E+03 0.  0.
    8880022    1    1    2    0    0  0.68407566537E+03  0.58184122127E+03 -0.87600513574E+03  0.12638336020E+04  0.15294330000E+03 0.  0.
<mgrwt>
<rscale>  0 0.91098319E+03</rscale>
<asrwt>0</asrwt>
<pdfrwt beam="1">  1        2 0.27833389E+00 0.91098319E+03</pdfrwt>
<pdfrwt beam="2">  1       -2 0.73010261E-01 0.91098319E+03</pdfrwt>
<totfact> 0.14597849E+01</totfact>
</mgrwt>
</event>
<event>
 4    1  0.3365401E-008  0.4200513E+03  0.7818608E-02  0.1037050E+00
         -2   -1    0    0    0  501 -0.00000000000E+00  0.00000000000E+00  0.11962100264E+04  0.11962100264E+04  0.25500000000E-02 0.  1.
          2   -1    0    0  501    0  0.00000000000E+00 -0.00000000000E+00 -0.75215082914E+03  0.75215082914E+03  0.25500000000E-02 0. -1.
    8880022    1    1    2    0    0  0.31153251235E+03  0.23664100940E+03 -0.65142153378E+03  0.77510847065E+03  0.15294330000E+03 0.  0.
    8880022    1    1    2    0    0 -0.31153251235E+03 -0.23664100940E+03  0.10954807310E+04  0.11732523849E+04  0.15294330000E+03 0.  0.
<mgrwt>
<rscale>  0 0.42005134E+03</rscale>
<asrwt>0</asrwt>
<pdfrwt beam="1">  1        2 0.11571551E+00 0.42005134E+03</pdfrwt>
<pdfrwt beam="2">  1       -2 0.18403231E+00 0.42005134E+03</pdfrwt>
<totfact> 0.68375996E+00</totfact>
</mgrwt>
</event>
<event>
 4    1  0.3365401E-008  0.4438357E+03  0.7818608E-02  0.1029576E+00
          2   -1    0    0  501    0  0.00000000000E+00  0.00000000000E+00  0.11268333532E+04  0.11268333532E+04  0.25500000000E-02 0. -1.
         -2   -1    0    0    0  501 -0.00000000000E+00 -0.00000000000E+00 -0.32100423737E+03  0.32100423738E+03  0.25500000000E-02 0.  1.
    8880022    1    1    2    0    0 -0.14696478266E+03  0.38987157645E+03 -0.85612377080E+02  0.45201728461E+03  0.15294330000E+03 0.  0.
    8880022    1    1    2    0    0  0.14696478266E+03 -0.38987157645E+03  0.89144149289E+03  0.99582030594E+03  0.15294330000E+03 0. -1.
<mgrwt>
<rscale>  0 0.44383572E+03</rscale>
<asrwt>0</asrwt>
<pdfrwt beam="1">  1        2 0.17335898E+00 0.44383572E+03</pdfrwt>
<pdfrwt beam="2">  1       -2 0.49385268E-01 0.44383572E+03</pdfrwt>
<totfact> 0.85338274E+01</totfact>
</mgrwt>
</event>
<event>
 4    1  0.3365401E-008  0.8591116E+03  0.7818608E-02  0.9478189E-01
         -2   -1    0    0    0  501 -0.00000000000E+00  0.00000000000E+00  0.38952491167E+03  0.38952491167E+03  0.25500000000E-02 0.  1.
          2   -1    0    0  501    0  0.00000000000E+00 -0.00000000000E+00 -0.19628226137E+04  0.19628226137E+04  0.25500000000E-02 0. -1.
    8880022    1    1    2    0    0  0.68505092864E+03 -0.49536486561E+03 -0.56769649356E+03  0.10297339883E+04  0.15294330000E+03 0.  0.
    8880022    1    1    2    0    0 -0.68505092864E+03  0.49536486561E+03 -0.10056012085E+04  0.13226135371E+04  0.15294330000E+03 0. -1.
<mgrwt>
<rscale>  0 0.85911162E+03</rscale>
<asrwt>0</asrwt>
<pdfrwt beam="1">  1        2 0.30197270E+00 0.85911162E+03</pdfrwt>
<pdfrwt beam="2">  1       -2 0.59926911E-01 0.85911162E+03</pdfrwt>
<totfact> 0.18539090E+01</totfact>
</mgrwt>
</event>
<event>
 4    1  0.3365401E-008  0.4324631E+03  0.7818608E-02  0.1033085E+00
          2   -1    0    0  501    0  0.00000000000E+00  0.00000000000E+00  0.19703147139E+04  0.19703147139E+04  0.25500000000E-02 0. -1.
         -2   -1    0    0    0  501 -0.00000000000E+00 -0.00000000000E+00 -0.40472685756E+03  0.40472685756E+03  0.25500000000E-02 0.  1.
    8880022    1    1    2    0    0 -0.36270281138E+03 -0.17910712220E+03  0.18217686566E+04  0.18723956264E+04  0.15294330000E+03 0.  0.
    8880022    1    1    2    0    0  0.36270281138E+03  0.17910712220E+03 -0.25618080028E+03  0.50264594503E+03  0.15294330000E+03 0.  0.
<mgrwt>
<rscale>  0 0.43246311E+03</rscale>
<asrwt>0</asrwt>
<pdfrwt beam="1">  1        2 0.30312534E+00 0.43246311E+03</pdfrwt>
<pdfrwt beam="2">  1       -2 0.62265670E-01 0.43246311E+03</pdfrwt>
<totfact> 0.18211686E+01</totfact>
</mgrwt>
</event>
<event>
 4    1  0.3365401E-008  0.1034593E+04  0.7818608E-02  0.9271397E-01
         -2   -1    0    0    0  501 -0.00000000000E+00  0.00000000000E+00  0.12176978597E+04  0.12176978597E+04  0.25500000000E-02 0.  1.
          2   -1    0    0  501    0  0.00000000000E+00 -0.00000000000E+00 -0.13653900564E+04  0.13653900564E+04  0.25500000000E-02 0. -1.
    8880022    1    1    2    0    0 -0.98261105894E+03  0.28542194847E+03  0.69699320383E+03  0.12474699840E+04  0.15294330000E+03 0.  0.
    8880022    1    1    2    0    0  0.98261105894E+03 -0.28542194847E+03 -0.84468540048E+03  0.13356179321E+04  0.15294330000E+03 0.  0.
<mgrwt>
<rscale>  0 0.10345926E+04</rscale>
<asrwt>0</asrwt>
<pdfrwt beam="1">  1        2 0.21006001E+00 0.10345926E+04</pdfrwt>
<pdfrwt beam="2">  1       -2 0.18733813E+00 0.10345926E+04</pdfrwt>
<totfact> 0.24179992E+00</totfact>
</mgrwt>
</event>
<event>
 4    1  0.3365401E-008  0.5274194E+03  0.7818608E-02  0.1006860E+00
         -2   -1    0    0    0  501 -0.00000000000E+00  0.00000000000E+00  0.95007172431E+02  0.95007172465E+02  0.25500000000E-02 0.  1.
          2   -1    0    0  501    0  0.00000000000E+00 -0.00000000000E+00 -0.52434628932E+04  0.52434628932E+04  0.25500000000E-02 0. -1.
    8880022    1    1    2    0    0  0.48311958443E+03 -0.14620209503E+03 -0.43480344575E+04  0.43799058074E+04  0.15294330000E+03 0.  0.
    8880022    1    1    2    0    0 -0.48311958443E+03  0.14620209503E+03 -0.80042126333E+03  0.95856425829E+03  0.15294330000E+03 0.  0.
<mgrwt>
<rscale>  0 0.52741941E+03</rscale>
<asrwt>0</asrwt>
<pdfrwt beam="1">  1        2 0.80668637E+00 0.52741941E+03</pdfrwt>
<pdfrwt beam="2">  1       -2 0.14616492E-01 0.52741941E+03</pdfrwt>
<totfact> 0.75378816E-01</totfact>
</mgrwt>
</event>
<event>
 4    1  0.3365401E-008  0.4967063E+03  0.7818608E-02  0.1014642E+00
          2   -1    0    0  501    0  0.00000000000E+00  0.00000000000E+00  0.22666385339E+04  0.22666385339E+04  0.25500000000E-02 0. -1.
         -2   -1    0    0    0  501 -0.00000000000E+00 -0.00000000000E+00 -0.22122022722E+03  0.22122022724E+03  0.25500000000E-02 0.  1.
    8880022    1    1    2    0    0 -0.24202542681E+03  0.40589304766E+03  0.13613623521E+03  0.51502446632E+03  0.15294330000E+03 0.  0.
    8880022    1    1    2    0    0  0.24202542681E+03 -0.40589304766E+03  0.19092820715E+04  0.19728342948E+04  0.15294330000E+03 0.  0.
<mgrwt>
<rscale>  0 0.49670628E+03</rscale>
<asrwt>0</asrwt>
<pdfrwt beam="1">  1        2 0.34871363E+00 0.49670628E+03</pdfrwt>
<pdfrwt beam="2">  1       -2 0.34033880E-01 0.49670628E+03</pdfrwt>
<totfact> 0.41329747E+01</totfact>
</mgrwt>
</event>
<event>
 4    1  0.3365401E-008  0.7904687E+03  0.7818608E-02  0.9573917E-01
         -2   -1    0    0    0  501 -0.00000000000E+00  0.00000000000E+00  0.59231948929E+03  0.59231948929E+03  0.25500000000E-02 0.  1.
          2   -1    0    0  501    0  0.00000000000E+00 -0.00000000000E+00 -0.36377271376E+04  0.36377271376E+04  0.25500000000E-02 0. -1.
    8880022    1    1    2    0    0 -0.49678827244E+03  0.59552536550E+03 -0.33048665727E+04  0.33980853087E+04  0.15294330000E+03 0.  0.
    8880022    1    1    2    0    0  0.49678827244E+03 -0.59552536550E+03  0.25945892438E+03  0.83196131824E+03  0.15294330000E+03 0.  0.
<mgrwt>
<rscale>  0 0.79046866E+03</rscale>
<asrwt>0</asrwt>
<pdfrwt beam="1">  1        2 0.55965032E+00 0.79046866E+03</pdfrwt>
<pdfrwt beam="2">  1       -2 0.91126077E-01 0.79046866E+03</pdfrwt>
<totfact> 0.72206551E-01</totfact>
</mgrwt>
</event>
<event>
 4    1  0.3365401E-008  0.5284989E+03  0.7818608E-02  0.1006597E+00
          2   -1    0    0  501    0  0.00000000000E+00  0.00000000000E+00  0.22874036141E+04  0.22874036141E+04  0.25500000000E-02 0. -1.
         -2   -1    0    0    0  501 -0.00000000000E+00 -0.00000000000E+00 -0.20170578021E+03  0.20170578023E+03  0.25500000000E-02 0.  1.
    8880022    1    1    2    0    0 -0.51147670056E+01 -0.50585890196E+03  0.18246646140E+04  0.18996610213E+04  0.15294330000E+03 0.  0.
    8880022    1    1    2    0    0  0.51147670056E+01  0.50585890196E+03  0.26103321997E+03  0.58944837304E+03  0.15294330000E+03 0.  1.
<mgrwt>
<rscale>  0 0.52849886E+03</rscale>
<asrwt>0</asrwt>
<pdfrwt beam="1">  1        2 0.35190824E+00 0.52849886E+03</pdfrwt>
<pdfrwt beam="2">  1       -2 0.31031659E-01 0.52849886E+03</pdfrwt>
<totfact> 0.47554598E+01</totfact>
</mgrwt>
</event>
<event>
 4    1  0.3538726E-008  0.8340421E+03  0.7818608E-02  0.9512009E-01
          2   -1    0    0  501    0  0.00000000000E+00  0.00000000000E+00  0.26260079765E+04  0.26260079765E+04  0.25500000000E-02 0. -1.
         -2   -1    0    0    0  501 -0.00000000000E+00 -0.00000000000E+00 -0.10152806849E+04  0.10152806849E+04  0.25500000000E-02 0.  1.
    8880022    1    1    2    0    0  0.81801364797E+03  0.55572102303E+02 -0.75984859292E+03  0.11282712989E+04  0.15294330000E+03 0.  0.
    8880022    1    1    2    0    0 -0.81801364797E+03 -0.55572102303E+02  0.23705758846E+04  0.25130173625E+04  0.15294330000E+03 0.  0.
<mgrwt>
<rscale>  0 0.83404211E+03</rscale>
<asrwt>0</asrwt>
<pdfrwt beam="1">  1        2 0.40400123E+00 0.83404211E+03</pdfrwt>
<pdfrwt beam="2">  1       -2 0.15619703E+00 0.83404211E+03</pdfrwt>
<totfact> 0.82042219E-01</totfact>
</mgrwt>
</event>
<event>
 4    1  0.3365401E-008  0.4161377E+03  0.7818608E-02  0.1038331E+00
         -2   -1    0    0    0  501 -0.00000000000E+00  0.00000000000E+00  0.17428103903E+04  0.17428103903E+04  0.25500000000E-02 0.  1.
          2   -1    0    0  501    0  0.00000000000E+00 -0.00000000000E+00 -0.61305428396E+03  0.61305428396E+03  0.25500000000E-02 0. -1.
    8880022    1    1    2    0    0 -0.38701125062E+03 -0.10982697003E+01 -0.51337836073E+03  0.66085392379E+03  0.15294330000E+03 0. -1.
    8880022    1    1    2    0    0  0.38701125062E+03  0.10982697003E+01  0.16431344671E+04  0.16950107504E+04  0.15294330000E+03 0.  0.
<mgrwt>
<rscale>  0 0.41613768E+03</rscale>
<asrwt>0</asrwt>
<pdfrwt beam="1">  1        2 0.94316044E-01 0.41613768E+03</pdfrwt>
<pdfrwt beam="2">  1       -2 0.26812467E+00 0.41613768E+03</pdfrwt>
<totfact> 0.26614530E+00</totfact>
</mgrwt>
</event>
<event>
 4    1  0.3365401E-008  0.9670570E+03  0.7818608E-02  0.9345433E-01
         -2   -1    0    0    0  501 -0.00000000000E+00  0.00000000000E+00  0.54810590909E+03  0.54810590909E+03  0.25500000000E-02 0.  1.
          2   -1    0    0  501    0  0.00000000000E+00 -0.00000000000E+00 -0.28923660853E+04  0.28923660853E+04  0.25500000000E-02 0. -1.
    8880022    1    1    2    0    0 -0.83052329385E+03 -0.47120980598E+03 -0.70521920950E+02  0.96962498793E+03  0.15294330000E+03 0.  0.
    8880022    1    1    2    0    0  0.83052329385E+03  0.47120980598E+03 -0.22737382553E+04  0.24708470065E+04  0.15294330000E+03 0.  0.
<mgrwt>
<rscale>  0 0.96705702E+03</rscale>
<asrwt>0</asrwt>
<pdfrwt beam="1">  1        2 0.44497939E+00 0.96705702E+03</pdfrwt>
<pdfrwt beam="2">  1       -2 0.84323988E-01 0.96705702E+03</pdfrwt>
<totfact> 0.25503047E+00</totfact>
</mgrwt>
</event>
<event>
 4    1  0.3365401E-008  0.4057875E+03  0.7818608E-02  0.1041794E+00
          2   -1    0    0  501    0  0.00000000000E+00  0.00000000000E+00  0.25853000816E+03  0.25853000817E+03  0.25500000000E-02 0. -1.
         -2   -1    0    0    0  501 -0.00000000000E+00 -0.00000000000E+00 -0.13604232531E+04  0.13604232532E+04  0.25500000000E-02 0.  1.
    8880022    1    1    2    0    0 -0.19385589212E+03  0.32201201230E+03  0.39372541568E+02  0.40769313585E+03  0.15294330000E+03 0.  0.
    8880022    1    1    2    0    0  0.19385589212E+03 -0.32201201230E+03 -0.11412657866E+04  0.12112601255E+04  0.15294330000E+03 0.  0.
<mgrwt>
<rscale>  0 0.40578750E+03</rscale>
<asrwt>0</asrwt>
<pdfrwt beam="1">  1        2 0.39773848E-01 0.40578750E+03</pdfrwt>
<pdfrwt beam="2">  1       -2 0.20929588E+00 0.40578750E+03</pdfrwt>
<totfact> 0.15913006E+01</totfact>
</mgrwt>
</event>
<event>
 4    1  0.3365401E-008  0.3576286E+03  0.7818608E-02  0.1059527E+00
         -2   -1    0    0    0  501 -0.00000000000E+00  0.00000000000E+00  0.19028964187E+03  0.19028964189E+03  0.25500000000E-02 0.  1.
          2   -1    0    0  501    0  0.00000000000E+00 -0.00000000000E+00 -0.12108660905E+04  0.12108660905E+04  0.25500000000E-02 0. -1.
    8880022    1    1    2    0    0  0.25140207017E+03  0.20323284942E+03 -0.42984990281E+02  0.36020265736E+03  0.15294330000E+03 0.  1.
    8880022    1    1    2    0    0 -0.25140207017E+03 -0.20323284942E+03 -0.97759145837E+03  0.10409530751E+04  0.15294330000E+03 0.  0.
<mgrwt>
<rscale>  0 0.35762864E+03</rscale>
<asrwt>0</asrwt>
<pdfrwt beam="1">  1        2 0.18628709E+00 0.35762864E+03</pdfrwt>
<pdfrwt beam="2">  1       -2 0.29275330E-01 0.35762864E+03</pdfrwt>
<totfact> 0.20990077E+02</totfact>
</mgrwt>
</event>
<event>
 4    1  0.3365401E-008  0.8652625E+03  0.7818608E-02  0.9470078E-01
          2   -1    0    0  501    0  0.00000000000E+00  0.00000000000E+00  0.45450353727E+04  0.45450353727E+04  0.25500000000E-02 0. -1.
         -2   -1    0    0    0  501 -0.00000000000E+00 -0.00000000000E+00 -0.27073201855E+03  0.27073201856E+03  0.25500000000E-02 0.  1.
    8880022    1    1    2    0    0 -0.82569899820E+02  0.84762590498E+03  0.63042723753E+03  0.10705688292E+04  0.15294330000E+03 0.  0.
    8880022    1    1    2    0    0  0.82569899820E+02 -0.84762590498E+03  0.36438761166E+04  0.37451985620E+04  0.15294330000E+03 0.  0.
<mgrwt>
<rscale>  0 0.86526246E+03</rscale>
<asrwt>0</asrwt>
<pdfrwt beam="1">  1        2 0.69923615E+00 0.86526246E+03</pdfrwt>
<pdfrwt beam="2">  1       -2 0.41651084E-01 0.86526246E+03</pdfrwt>
<totfact> 0.67366279E-01</totfact>
</mgrwt>
</event>
<event>
 4    1  0.3365401E-008  0.3801764E+03  0.7818608E-02  0.1050869E+00
         -2   -1    0    0    0  501 -0.00000000000E+00  0.00000000000E+00  0.50437584109E+03  0.50437584109E+03  0.25500000000E-02 0.  1.
          2   -1    0    0  501    0  0.00000000000E+00 -0.00000000000E+00 -0.40649287254E+04  0.40649287254E+04  0.25500000000E-02 0. -1.
    8880022    1    1    2    0    0 -0.78625471481E+02  0.33905817495E+03  0.42237510545E+03  0.56827351995E+03  0.15294330000E+03 0.  0.
    8880022    1    1    2    0    0  0.78625471481E+02 -0.33905817495E+03 -0.39829279897E+04  0.40010310465E+04  0.15294330000E+03 0.  0.
<mgrwt>
<rscale>  0 0.38017636E+03</rscale>
<asrwt>0</asrwt>
<pdfrwt beam="1">  1        2 0.62537363E+00 0.38017636E+03</pdfrwt>
<pdfrwt beam="2">  1       -2 0.77596286E-01 0.38017636E+03</pdfrwt>
<totfact> 0.57547045E-01</totfact>
</mgrwt>
</event>
<event>
 4    1  0.3365401E-008  0.5953715E+03  0.7818608E-02  0.9915056E-01
          2   -1    0    0  501    0  0.00000000000E+00  0.00000000000E+00  0.61260864429E+03  0.61260864429E+03  0.25500000000E-02 0. -1.
         -2   -1    0    0    0  501 -0.00000000000E+00 -0.00000000000E+00 -0.47922072753E+04  0.47922072753E+04  0.25500000000E-02 0.  1.
    8880022    1    1    2    0    0  0.32697829869E+02  0.57446185524E+03  0.44421546676E+03  0.74282878588E+03  0.15294330000E+03 0.  0.
    8880022    1    1    2    0    0 -0.32697829869E+02 -0.57446185524E+03 -0.46238140978E+04  0.46619871337E+04  0.15294330000E+03 0.  0.
<mgrwt>
<rscale>  0 0.59537150E+03</rscale>
<asrwt>0</asrwt>
<pdfrwt beam="1">  1        2 0.94247487E-01 0.59537150E+03</pdfrwt>
<pdfrwt beam="2">  1       -2 0.73726263E+00 0.59537150E+03</pdfrwt>
<totfact> 0.90215979E-03</totfact>
</mgrwt>
</event>
<event>
 4    1  0.3365401E-008  0.8782856E+03  0.7818608E-02  0.9453140E-01
          2   -1    0    0  501    0  0.00000000000E+00  0.00000000000E+00  0.40894777243E+04  0.40894777243E+04  0.25500000000E-02 0. -1.
         -2   -1    0    0    0  501 -0.00000000000E+00 -0.00000000000E+00 -0.46180691983E+03  0.46180691984E+03  0.25500000000E-02 0.  1.
    8880022    1    1    2    0    0  0.61205925292E+03  0.61104616734E+03  0.35640779278E+04  0.36706998074E+04  0.15294330000E+03 0.  0.
    8880022    1    1    2    0    0 -0.61205925292E+03 -0.61104616734E+03  0.63592876680E+02  0.88058483673E+03  0.15294330000E+03 0.  0.
<mgrwt>
<rscale>  0 0.87828560E+03</rscale>
<asrwt>0</asrwt>
<pdfrwt beam="1">  1        2 0.62915041E+00 0.87828560E+03</pdfrwt>
<pdfrwt beam="2">  1       -2 0.71047220E-01 0.87828560E+03</pdfrwt>
<totfact> 0.56338129E-01</totfact>
</mgrwt>
</event>
<event>
 4    1  0.3365401E-008  0.9370975E+03  0.7818608E-02  0.9380360E-01
         -2   -1    0    0    0  501 -0.00000000000E+00  0.00000000000E+00  0.37960173662E+03  0.37960173663E+03  0.25500000000E-02 0.  1.
          2   -1    0    0  501    0  0.00000000000E+00 -0.00000000000E+00 -0.26203505487E+04  0.26203505487E+04  0.25500000000E-02 0. -1.
    8880022    1    1    2    0    0 -0.80656823745E+03  0.45189358264E+03 -0.16337958811E+04  0.18834650955E+04  0.15294330000E+03 0.  0.
    8880022    1    1    2    0    0  0.80656823745E+03 -0.45189358264E+03 -0.60695293095E+03  0.11164871898E+04  0.15294330000E+03 0.  0.
<mgrwt>
<rscale>  0 0.93709753E+03</rscale>
<asrwt>0</asrwt>
<pdfrwt beam="1">  1        2 0.40313084E+00 0.93709753E+03</pdfrwt>
<pdfrwt beam="2">  1       -2 0.58400269E-01 0.93709753E+03</pdfrwt>
<totfact> 0.83019614E+00</totfact>
</mgrwt>
</event>
<event>
 4    1  0.3365401E-008  0.6616803E+03  0.7818608E-02  0.9785105E-01
          2   -1    0    0  501    0  0.00000000000E+00  0.00000000000E+00  0.19648442464E+04  0.19648442464E+04  0.25500000000E-02 0. -1.
         -2   -1    0    0    0  501 -0.00000000000E+00 -0.00000000000E+00 -0.26361260102E+03  0.26361260103E+03  0.25500000000E-02 0.  1.
    8880022    1    1    2    0    0 -0.64180072268E+03 -0.50210200630E+02  0.41234442303E+03  0.77964659180E+03  0.15294330000E+03 0.  0.
    8880022    1    1    2    0    0  0.64180072268E+03  0.50210200630E+02  0.12888872224E+04  0.14488102557E+04  0.15294330000E+03 0.  0.
<mgrwt>
<rscale>  0 0.66168035E+03</rscale>
<asrwt>0</asrwt>
<pdfrwt beam="1">  1        2 0.30228374E+00 0.66168035E+03</pdfrwt>
<pdfrwt beam="2">  1       -2 0.40555784E-01 0.66168035E+03</pdfrwt>
<totfact> 0.41930636E+01</totfact>
</mgrwt>
</event>
<event>
 4    1  0.3365401E-008  0.1592401E+04  0.7818608E-02  0.8825230E-01
          2   -1    0    0  501    0  0.00000000000E+00  0.00000000000E+00  0.12086312563E+04  0.12086312563E+04  0.25500000000E-02 0. -1.
         -2   -1    0    0    0  501 -0.00000000000E+00 -0.00000000000E+00 -0.31482522459E+04  0.31482522459E+04  0.25500000000E-02 0.  1.
    8880022    1    1    2    0    0 -0.15443464467E+04  0.35685082283E+03 -0.22280188699E+04  0.27385777686E+04  0.15294330000E+03 0.  0.
    8880022    1    1    2    0    0  0.15443464467E+04 -0.35685082283E+03  0.28839788022E+03  0.16183057336E+04  0.15294330000E+03 0.  0.
<mgrwt>
<rscale>  0 0.15924007E+04</rscale>
<asrwt>0</asrwt>
<pdfrwt beam="1">  1        2 0.18594327E+00 0.15924007E+04</pdfrwt>
<pdfrwt beam="2">  1       -2 0.48434650E+00 0.15924007E+04</pdfrwt>
<totfact> 0.36040336E-02</totfact>
</mgrwt>
</event>
<event>
 4    1  0.3365401E-008  0.9054682E+03  0.7818608E-02  0.9418772E-01
          2   -1    0    0  501    0  0.00000000000E+00  0.00000000000E+00  0.16524481746E+04  0.16524481746E+04  0.25500000000E-02 0. -1.
         -2   -1    0    0    0  501 -0.00000000000E+00 -0.00000000000E+00 -0.73538155048E+03  0.73538155049E+03  0.25500000000E-02 0.  1.
    8880022    1    1    2    0    0  0.79159339705E+03 -0.41214179473E+03 -0.22242492462E+03  0.93238697187E+03  0.15294330000E+03 0.  0.
    8880022    1    1    2    0    0 -0.79159339705E+03  0.41214179473E+03  0.11394915487E+04  0.14554427532E+04  0.15294330000E+03 0.  0.
<mgrwt>
<rscale>  0 0.90546818E+03</rscale>
<asrwt>0</asrwt>
<pdfrwt beam="1">  1        2 0.25422279E+00 0.90546818E+03</pdfrwt>
<pdfrwt beam="2">  1       -2 0.11313562E+00 0.90546818E+03</pdfrwt>
<totfact> 0.64393691E+00</totfact>
</mgrwt>
</event>
<event>
 4    1  0.3365401E-008  0.2793253E+03  0.7818608E-02  0.1096058E+00
          2   -1    0    0  501    0  0.00000000000E+00  0.00000000000E+00  0.53042630344E+03  0.53042630345E+03  0.25500000000E-02 0. -1.
         -2   -1    0    0    0  501 -0.00000000000E+00 -0.00000000000E+00 -0.15272875494E+03  0.15272875496E+03  0.25500000000E-02 0.  1.
    8880022    1    1    2    0    0  0.96976483216E+02  0.21266533490E+03  0.12324052288E+03  0.30530454052E+03  0.15294330000E+03 0.  1.
    8880022    1    1    2    0    0 -0.96976483216E+02 -0.21266533490E+03  0.25445702562E+03  0.37785051789E+03  0.15294330000E+03 0. -1.
<mgrwt>
<rscale>  0 0.27932532E+03</rscale>
<asrwt>0</asrwt>
<pdfrwt beam="1">  1        2 0.81604045E-01 0.27932532E+03</pdfrwt>
<pdfrwt beam="2">  1       -2 0.23496732E-01 0.27932532E+03</pdfrwt>
<totfact> 0.92560144E+02</totfact>
</mgrwt>
</event>
<event>
 4    1  0.3365401E-008  0.1052964E+04  0.7818608E-02  0.9252289E-01
         -2   -1    0    0    0  501 -0.00000000000E+00  0.00000000000E+00  0.13306783287E+04  0.13306783287E+04  0.25500000000E-02 0.  1.
          2   -1    0    0  501    0  0.00000000000E+00 -0.00000000000E+00 -0.12760566964E+04  0.12760566964E+04  0.25500000000E-02 0. -1.
    8880022    1    1    2    0    0 -0.84313347998E+02  0.10383803814E+04 -0.74050793519E+03  0.12872786071E+04  0.15294330000E+03 0.  0.
    8880022    1    1    2    0    0  0.84313347998E+02 -0.10383803814E+04  0.79512956742E+03  0.13194564180E+04  0.15294330000E+03 0.  0.
<mgrwt>
<rscale>  0 0.10529645E+04</rscale>
<asrwt>0</asrwt>
<pdfrwt beam="1">  1        2 0.19631641E+00 0.10529645E+04</pdfrwt>
<pdfrwt beam="2">  1       -2 0.20471974E+00 0.10529645E+04</pdfrwt>
<totfact> 0.20863301E+00</totfact>
</mgrwt>
</event>
<event>
 4    1  0.3365401E-008  0.1052688E+04  0.7818608E-02  0.9252573E-01
          2   -1    0    0  501    0  0.00000000000E+00  0.00000000000E+00  0.19593768636E+04  0.19593768636E+04  0.25500000000E-02 0. -1.
         -2   -1    0    0    0  501 -0.00000000000E+00 -0.00000000000E+00 -0.12423023053E+04  0.12423023053E+04  0.25500000000E-02 0.  1.
    8880022    1    1    2    0    0 -0.10278702013E+04 -0.16805999775E+03 -0.82299218720E+03  0.13362144689E+04  0.15294330000E+03 0.  0.
    8880022    1    1    2    0    0  0.10278702013E+04  0.16805999775E+03  0.15400667454E+04  0.18654647000E+04  0.15294330000E+03 0.  0.
<mgrwt>
<rscale>  0 0.10526884E+04</rscale>
<asrwt>0</asrwt>
<pdfrwt beam="1">  1        2 0.30144259E+00 0.10526884E+04</pdfrwt>
<pdfrwt beam="2">  1       -2 0.19112343E+00 0.10526884E+04</pdfrwt>
<totfact> 0.10614656E+00</totfact>
</mgrwt>
</event>
<event>
 4    1  0.3365401E-008  0.4992716E+03  0.7818608E-02  0.1013969E+00
         -2   -1    0    0    0  501 -0.00000000000E+00  0.00000000000E+00  0.20317076654E+03  0.20317076656E+03  0.25500000000E-02 0.  1.
          2   -1    0    0  501    0  0.00000000000E+00 -0.00000000000E+00 -0.34624832701E+04  0.34624832701E+04  0.25500000000E-02 0. -1.
    8880022    1    1    2    0    0  0.38636308300E+03 -0.27677437637E+03 -0.15692961873E+03  0.52335365248E+03  0.15294330000E+03 0.  0.
    8880022    1    1    2    0    0 -0.38636308300E+03  0.27677437637E+03 -0.31023828848E+04  0.31423003842E+04  0.15294330000E+03 0.  0.
<mgrwt>
<rscale>  0 0.49927161E+03</rscale>
<asrwt>0</asrwt>
<pdfrwt beam="1">  1        2 0.53268969E+00 0.49927161E+03</pdfrwt>
<pdfrwt beam="2">  1       -2 0.31257044E-01 0.49927161E+03</pdfrwt>
<totfact> 0.93897130E+00</totfact>
</mgrwt>
</event>
<event>
 4    1  0.3365401E-008  0.2312173E+03  0.7818608E-02  0.1125786E+00
         -2   -1    0    0    0  501 -0.00000000000E+00  0.00000000000E+00  0.61848682776E+03  0.61848682776E+03  0.25500000000E-02 0.  1.
          2   -1    0    0  501    0  0.00000000000E+00 -0.00000000000E+00 -0.26120381245E+03  0.26120381247E+03  0.25500000000E-02 0. -1.
    8880022    1    1    2    0    0 -0.90157413745E+02 -0.14812639352E+03 -0.18113856176E+03  0.29372201021E+03  0.15294330000E+03 0.  0.
    8880022    1    1    2    0    0  0.90157413745E+02  0.14812639352E+03  0.53842157706E+03  0.58596863002E+03  0.15294330000E+03 0.  1.
<mgrwt>
<rscale>  0 0.23121730E+03</rscale>
<asrwt>0</asrwt>
<pdfrwt beam="1">  1        2 0.40185202E-01 0.23121730E+03</pdfrwt>
<pdfrwt beam="2">  1       -2 0.95151819E-01 0.23121730E+03</pdfrwt>
<totfact> 0.12375356E+02</totfact>
</mgrwt>
</event>
<event>
 4    1  0.3365401E-008  0.3120894E+03  0.7818608E-02  0.1079349E+00
          2   -1    0    0  501    0  0.00000000000E+00  0.00000000000E+00  0.63920899971E+03  0.63920899971E+03  0.25500000000E-02 0. -1.
         -2   -1    0    0    0  501 -0.00000000000E+00 -0.00000000000E+00 -0.20160004228E+03  0.20160004230E+03  0.25500000000E-02 0.  1.
    8880022    1    1    2    0    0  0.69042677394E+02 -0.26313733427E+03  0.11067963446E+02  0.31228560776E+03  0.15294330000E+03 0.  0.
    8880022    1    1    2    0    0 -0.69042677394E+02  0.26313733427E+03  0.42654099398E+03  0.52852343425E+03  0.15294330000E+03 0.  0.
<mgrwt>
<rscale>  0 0.31208941E+03</rscale>
<asrwt>0</asrwt>
<pdfrwt beam="1">  1        2 0.98339846E-01 0.31208941E+03</pdfrwt>
<pdfrwt beam="2">  1       -2 0.31015391E-01 0.31208941E+03</pdfrwt>
<totfact> 0.45205628E+02</totfact>
</mgrwt>
</event>
<event>
 4    1  0.3365401E-008  0.4761344E+03  0.7818608E-02  0.1020203E+00
          2   -1    0    0  501    0  0.00000000000E+00  0.00000000000E+00  0.22541445935E+04  0.22541445935E+04  0.25500000000E-02 0. -1.
         -2   -1    0    0    0  501 -0.00000000000E+00 -0.00000000000E+00 -0.14870777841E+03  0.14870777843E+03  0.25500000000E-02 0.  1.
    8880022    1    1    2    0    0  0.44631792907E+03  0.64129500301E+02  0.36917825496E+03  0.60249192822E+03  0.15294330000E+03 0.  0.
    8880022    1    1    2    0    0 -0.44631792907E+03 -0.64129500301E+02  0.17362585601E+04  0.18003604437E+04  0.15294330000E+03 0.  0.
<mgrwt>
<rscale>  0 0.47613437E+03</rscale>
<asrwt>0</asrwt>
<pdfrwt beam="1">  1        2 0.34679149E+00 0.47613437E+03</pdfrwt>
<pdfrwt beam="2">  1       -2 0.22878119E-01 0.47613437E+03</pdfrwt>
<totfact> 0.86939475E+01</totfact>
</mgrwt>
</event>
<event>
 4    1  0.3365401E-008  0.4150103E+03  0.7818608E-02  0.1038703E+00
          2   -1    0    0  501    0  0.00000000000E+00  0.00000000000E+00  0.31829332626E+04  0.31829332626E+04  0.25500000000E-02 0. -1.
         -2   -1    0    0    0  501 -0.00000000000E+00 -0.00000000000E+00 -0.15125742267E+03  0.15125742270E+03  0.25500000000E-02 0.  1.
    8880022    1    1    2    0    0  0.19307034871E+03 -0.33401455070E+03  0.17981407052E+03  0.45229042948E+03  0.15294330000E+03 0.  0.
    8880022    1    1    2    0    0 -0.19307034871E+03  0.33401455070E+03  0.28518617695E+04  0.28819002559E+04  0.15294330000E+03 0.  0.
<mgrwt>
<rscale>  0 0.41501028E+03</rscale>
<asrwt>0</asrwt>
<pdfrwt beam="1">  1        2 0.48968207E+00 0.41501028E+03</pdfrwt>
<pdfrwt beam="2">  1       -2 0.23270372E-01 0.41501028E+03</pdfrwt>
<totfact> 0.24893218E+01</totfact>
</mgrwt>
</event>
<event>
 4    1  0.3365401E-008  0.6249734E+03  0.7818608E-02  0.9854907E-01
          2   -1    0    0  501    0  0.00000000000E+00  0.00000000000E+00  0.22380653140E+04  0.22380653140E+04  0.25500000000E-02 0. -1.
         -2   -1    0    0    0  501 -0.00000000000E+00 -0.00000000000E+00 -0.54780677191E+03  0.54780677192E+03  0.25500000000E-02 0.  1.
    8880022    1    1    2    0    0  0.40116437608E+03 -0.45416648022E+03 -0.30471121762E+03  0.69529894834E+03  0.15294330000E+03 0.  0.
    8880022    1    1    2    0    0 -0.40116437608E+03  0.45416648022E+03  0.19949697597E+04  0.20905731376E+04  0.15294330000E+03 0.  0.
<mgrwt>
<rscale>  0 0.62497336E+03</rscale>
<asrwt>0</asrwt>
<pdfrwt beam="1">  1        2 0.34431774E+00 0.62497336E+03</pdfrwt>
<pdfrwt beam="2">  1       -2 0.84277965E-01 0.62497336E+03</pdfrwt>
<totfact> 0.64387491E+00</totfact>
</mgrwt>
</event>
<event>
 4    1  0.3365401E-008  0.1413193E+04  0.7818608E-02  0.8944324E-01
         -2   -1    0    0    0  501 -0.00000000000E+00  0.00000000000E+00  0.10708881818E+04  0.10708881818E+04  0.25500000000E-02 0.  1.
          2   -1    0    0  501    0  0.00000000000E+00 -0.00000000000E+00 -0.32734293583E+04  0.32734293583E+04  0.25500000000E-02 0. -1.
    8880022    1    1    2    0    0  0.36760630898E+03  0.13559453065E+04 -0.25261265526E+04  0.28945516208E+04  0.15294330000E+03 0.  0.
    8880022    1    1    2    0    0 -0.36760630898E+03 -0.13559453065E+04  0.32358537608E+03  0.14497659194E+04  0.15294330000E+03 0.  0.
<mgrwt>
<rscale>  0 0.14131927E+04</rscale>
<asrwt>0</asrwt>
<pdfrwt beam="1">  1        2 0.50360451E+00 0.14131927E+04</pdfrwt>
<pdfrwt beam="2">  1       -2 0.16475203E+00 0.14131927E+04</pdfrwt>
<totfact> 0.25868756E-01</totfact>
</mgrwt>
</event>
<event>
 4    1  0.3601073E-008  0.5883699E+03  0.7818608E-02  0.9929833E-01
         -2   -1    0    0    0  501 -0.00000000000E+00  0.00000000000E+00  0.14986614989E+04  0.14986614989E+04  0.25500000000E-02 0.  1.
          2   -1    0    0  501    0  0.00000000000E+00 -0.00000000000E+00 -0.14836913905E+04  0.14836913905E+04  0.25500000000E-02 0. -1.
    8880022    1    1    2    0    0  0.52100099478E+03 -0.22659537495E+03 -0.13627044630E+04  0.14842986920E+04  0.15294330000E+03 0.  0.
    8880022    1    1    2    0    0 -0.52100099478E+03  0.22659537495E+03  0.13776745715E+04  0.14980541974E+04  0.15294330000E+03 0.  0.
<mgrwt>
<rscale>  0 0.58836991E+03</rscale>
<asrwt>0</asrwt>
<pdfrwt beam="1">  1        2 0.22826021E+00 0.58836991E+03</pdfrwt>
<pdfrwt beam="2">  1       -2 0.23056331E+00 0.58836991E+03</pdfrwt>
<totfact> 0.11819322E+00</totfact>
</mgrwt>
</event>
<event>
 4    1  0.3365401E-008  0.8383130E+03  0.7818608E-02  0.9506159E-01
         -2   -1    0    0    0  501 -0.00000000000E+00  0.00000000000E+00  0.75679378959E+03  0.75679378960E+03  0.25500000000E-02 0.  1.
          2   -1    0    0  501    0  0.00000000000E+00 -0.00000000000E+00 -0.11948291495E+04  0.11948291495E+04  0.25500000000E-02 0. -1.
    8880022    1    1    2    0    0 -0.79065340762E+03 -0.23290379983E+03 -0.67962423338E+03  0.10791930979E+04  0.15294330000E+03 0.  0.
    8880022    1    1    2    0    0  0.79065340762E+03  0.23290379983E+03  0.24158887350E+03  0.87242984117E+03  0.15294330000E+03 0.  0.
<mgrwt>
<rscale>  0 0.83831297E+03</rscale>
<asrwt>0</asrwt>
<pdfrwt beam="1">  1        2 0.18381987E+00 0.83831297E+03</pdfrwt>
<pdfrwt beam="2">  1       -2 0.11642981E+00 0.83831297E+03</pdfrwt>
<totfact> 0.11013412E+01</totfact>
</mgrwt>
</event>
<event>
 4    1  0.3365401E-008  0.6471735E+03  0.7818608E-02  0.9812097E-01
         -2   -1    0    0    0  501 -0.00000000000E+00  0.00000000000E+00  0.23115352552E+03  0.23115352553E+03  0.25500000000E-02 0.  1.
          2   -1    0    0  501    0  0.00000000000E+00 -0.00000000000E+00 -0.25581933917E+04  0.25581933917E+04  0.25500000000E-02 0. -1.
    8880022    1    1    2    0    0  0.61085373583E+03  0.14933042870E+03 -0.19167931683E+04  0.20230990007E+04  0.15294330000E+03 0.  0.
    8880022    1    1    2    0    0 -0.61085373583E+03 -0.14933042870E+03 -0.41024669793E+03  0.76624791660E+03  0.15294330000E+03 0.  0.
<mgrwt>
<rscale>  0 0.64717348E+03</rscale>
<asrwt>0</asrwt>
<pdfrwt beam="1">  1        2 0.39356819E+00 0.64717348E+03</pdfrwt>
<pdfrwt beam="2">  1       -2 0.35562083E-01 0.64717348E+03</pdfrwt>
<totfact> 0.25441228E+01</totfact>
</mgrwt>
</event>
<event>
 4    1  0.3365401E-008  0.5130321E+03  0.7818608E-02  0.1010432E+00
          2   -1    0    0  501    0  0.00000000000E+00  0.00000000000E+00  0.96224536851E+03  0.96224536852E+03  0.25500000000E-02 0. -1.
         -2   -1    0    0    0  501 -0.00000000000E+00 -0.00000000000E+00 -0.36202675554E+03  0.36202675555E+03  0.25500000000E-02 0.  1.
    8880022    1    1    2    0    0  0.10700999005E+03  0.47786934406E+03 -0.27264043385E+02  0.51375600146E+03  0.15294330000E+03 0.  0.
    8880022    1    1    2    0    0 -0.10700999005E+03 -0.47786934406E+03  0.62748265636E+03  0.81051612261E+03  0.15294330000E+03 0.  0.
<mgrwt>
<rscale>  0 0.51303207E+03</rscale>
<asrwt>0</asrwt>
<pdfrwt beam="1">  1        2 0.14803775E+00 0.51303207E+03</pdfrwt>
<pdfrwt beam="2">  1       -2 0.55696425E-01 0.51303207E+03</pdfrwt>
<totfact> 0.83622014E+01</totfact>
</mgrwt>
</event>
<event>
 4    1  0.3365401E-008  0.6681125E+03  0.7818608E-02  0.9773374E-01
          2   -1    0    0  501    0  0.00000000000E+00  0.00000000000E+00  0.70202452061E+03  0.70202452061E+03  0.25500000000E-02 0. -1.
         -2   -1    0    0    0  501 -0.00000000000E+00 -0.00000000000E+00 -0.14170654066E+04  0.14170654066E+04  0.25500000000E-02 0.  1.
    8880022    1    1    2    0    0  0.56919082963E+03  0.31464979441E+03 -0.11442273965E+04  0.13250021440E+04  0.15294330000E+03 0.  0.
    8880022    1    1    2    0    0 -0.56919082963E+03 -0.31464979441E+03  0.42918651051E+03  0.79408778323E+03  0.15294330000E+03 0.  0.
<mgrwt>
<rscale>  0 0.66811253E+03</rscale>
<asrwt>0</asrwt>
<pdfrwt beam="1">  1        2 0.10800377E+00 0.66811253E+03</pdfrwt>
<pdfrwt beam="2">  1       -2 0.21801006E+00 0.66811253E+03</pdfrwt>
<totfact> 0.43043722E+00</totfact>
</mgrwt>
</event>
<event>
 4    1  0.3365401E-008  0.5284190E+03  0.7818608E-02  0.1006616E+00
         -2   -1    0    0    0  501 -0.00000000000E+00  0.00000000000E+00  0.50912495220E+03  0.50912495221E+03  0.25500000000E-02 0.  1.
          2   -1    0    0  501    0  0.00000000000E+00 -0.00000000000E+00 -0.21247410494E+04  0.21247410494E+04  0.25500000000E-02 0. -1.
    8880022    1    1    2    0    0  0.49870509837E+03  0.84428726125E+02  0.32649650969E+03  0.62114942549E+03  0.15294330000E+03 0.  0.
    8880022    1    1    2    0    0 -0.49870509837E+03 -0.84428726125E+02 -0.19421126069E+04  0.20127165761E+04  0.15294330000E+03 0.  0.
<mgrwt>
<rscale>  0 0.52841900E+03</rscale>
<asrwt>0</asrwt>
<pdfrwt beam="1">  1        2 0.32688323E+00 0.52841900E+03</pdfrwt>
<pdfrwt beam="2">  1       -2 0.78326917E-01 0.52841900E+03</pdfrwt>
<totfact> 0.89365330E+00</totfact>
</mgrwt>
</event>
<event>
 4    1  0.3365401E-008  0.9350084E+03  0.7818608E-02  0.9382847E-01
          2   -1    0    0  501    0  0.00000000000E+00  0.00000000000E+00  0.25963494667E+04  0.25963494667E+04  0.25500000000E-02 0. -1.
         -2   -1    0    0    0  501 -0.00000000000E+00 -0.00000000000E+00 -0.55390222789E+03  0.55390222790E+03  0.25500000000E-02 0.  1.
    8880022    1    1    2    0    0  0.77269023337E+03  0.50378462749E+03  0.34917764529E+02  0.93566022195E+03  0.15294330000E+03 0.  0.
    8880022    1    1    2    0    0 -0.77269023337E+03 -0.50378462749E+03  0.20075294743E+04  0.22145914727E+04  0.15294330000E+03 0. -1.
<mgrwt>
<rscale>  0 0.93500845E+03</rscale>
<asrwt>0</asrwt>
<pdfrwt beam="1">  1        2 0.39943839E+00 0.93500845E+03</pdfrwt>
<pdfrwt beam="2">  1       -2 0.85215726E-01 0.93500845E+03</pdfrwt>
<totfact> 0.37414143E+00</totfact>
</mgrwt>
</event>
<event>
 4    1  0.3365401E-008  0.4309943E+03  0.7818608E-02  0.1033546E+00
          2   -1    0    0  501    0  0.00000000000E+00  0.00000000000E+00  0.27782264646E+03  0.27782264648E+03  0.25500000000E-02 0. -1.
         -2   -1    0    0    0  501 -0.00000000000E+00 -0.00000000000E+00 -0.88389763867E+03  0.88389763868E+03  0.25500000000E-02 0.  1.
    8880022    1    1    2    0    0 -0.20814960551E+01 -0.40293929360E+03 -0.16371429169E+02  0.43130509348E+03  0.15294330000E+03 0.  0.
    8880022    1    1    2    0    0  0.20814960551E+01  0.40293929360E+03 -0.58970356304E+03  0.73041519168E+03  0.15294330000E+03 0.  0.
<mgrwt>
<rscale>  0 0.43099427E+03</rscale>
<asrwt>0</asrwt>
<pdfrwt beam="1">  1        2 0.42741946E-01 0.43099427E+03</pdfrwt>
<pdfrwt beam="2">  1       -2 0.13598425E+00 0.43099427E+03</pdfrwt>
<totfact> 0.47952984E+01</totfact>
</mgrwt>
</event>
<event>
 4    1  0.3365401E-008  0.9097316E+03  0.7818608E-02  0.9413498E-01
          2   -1    0    0  501    0  0.00000000000E+00  0.00000000000E+00  0.10994076242E+04  0.10994076242E+04  0.25500000000E-02 0. -1.
         -2   -1    0    0    0  501 -0.00000000000E+00 -0.00000000000E+00 -0.11448747138E+04  0.11448747138E+04  0.25500000000E-02 0.  1.
    8880022    1    1    2    0    0 -0.60155658948E+03  0.66509370538E+03 -0.67942933935E+03  0.11354452199E+04  0.15294330000E+03 0.  1.
    8880022    1    1    2    0    0  0.60155658948E+03 -0.66509370538E+03  0.63396224981E+03  0.11088371181E+04  0.15294330000E+03 0.  0.
<mgrwt>
<rscale>  0 0.90973162E+03</rscale>
<asrwt>0</asrwt>
<pdfrwt beam="1">  1        2 0.16913963E+00 0.90973162E+03</pdfrwt>
<pdfrwt beam="2">  1       -2 0.17613457E+00 0.90973162E+03</pdfrwt>
<totfact> 0.42117444E+00</totfact>
</mgrwt>
</event>
<event>
 4    1  0.3365401E-008  0.1607510E+03  0.7818608E-02  0.1187851E+00
         -2   -1    0    0    0  501 -0.00000000000E+00  0.00000000000E+00  0.85719095417E+02  0.85719095455E+02  0.25500000000E-02 0.  1.
          2   -1    0    0  501    0  0.00000000000E+00 -0.00000000000E+00 -0.13117382078E+04  0.13117382078E+04  0.25500000000E-02 0. -1.
    8880022    1    1    2    0    0  0.40566947541E+02  0.28347268757E+02 -0.12262141669E+04  0.12367061417E+04  0.15294330000E+03 0.  0.
    8880022    1    1    2    0    0 -0.40566947541E+02 -0.28347268757E+02  0.19505449012E+00  0.16075116155E+03  0.15294330000E+03 0.  1.
<mgrwt>
<rscale>  0 0.16075104E+03</rscale>
<asrwt>0</asrwt>
<pdfrwt beam="1">  1        2 0.20180586E+00 0.16075104E+03</pdfrwt>
<pdfrwt beam="2">  1       -2 0.13187554E-01 0.16075104E+03</pdfrwt>
<totfact> 0.74294783E+02</totfact>
</mgrwt>
</event>
<event>
 4    1  0.3365401E-008  0.5221081E+03  0.7818608E-02  0.1008164E+00
          2   -1    0    0  501    0  0.00000000000E+00  0.00000000000E+00  0.16276516452E+04  0.16276516452E+04  0.25500000000E-02 0. -1.
         -2   -1    0    0    0  501 -0.00000000000E+00 -0.00000000000E+00 -0.38932252092E+03  0.38932252093E+03  0.25500000000E-02 0.  1.
    8880022    1    1    2    0    0  0.74841049082E+02  0.49356254834E+03  0.13804356555E+04  0.14758724280E+04  0.15294330000E+03 0.  0.
    8880022    1    1    2    0    0 -0.74841049082E+02 -0.49356254834E+03 -0.14210653123E+03  0.54110173811E+03  0.15294330000E+03 0.  0.
<mgrwt>
<rscale>  0 0.52210806E+03</rscale>
<asrwt>0</asrwt>
<pdfrwt beam="1">  1        2 0.25040795E+00 0.52210806E+03</pdfrwt>
<pdfrwt beam="2">  1       -2 0.59895772E-01 0.52210806E+03</pdfrwt>
<totfact> 0.29643646E+01</totfact>
</mgrwt>
</event>
<event>
 4    1  0.3365401E-008  0.6188965E+03  0.7818608E-02  0.9866959E-01
          2   -1    0    0  501    0  0.00000000000E+00  0.00000000000E+00  0.25296956673E+04  0.25296956673E+04  0.25500000000E-02 0. -1.
         -2   -1    0    0    0  501 -0.00000000000E+00 -0.00000000000E+00 -0.29219259561E+03  0.29219259562E+03  0.25500000000E-02 0.  1.
    8880022    1    1    2    0    0 -0.22522742920E+03 -0.55580015509E+03  0.20981120754E+04  0.21874887751E+04  0.15294330000E+03 0.  0.
    8880022    1    1    2    0    0  0.22522742920E+03  0.55580015509E+03  0.13939099627E+03  0.63439948780E+03  0.15294330000E+03 0.  1.
<mgrwt>
<rscale>  0 0.61889649E+03</rscale>
<asrwt>0</asrwt>
<pdfrwt beam="1">  1        2 0.38918396E+00 0.61889649E+03</pdfrwt>
<pdfrwt beam="2">  1       -2 0.44952706E-01 0.61889649E+03</pdfrwt>
<totfact> 0.16824876E+01</totfact>
</mgrwt>
</event>
<event>
 4    1  0.3365401E-008  0.1533454E+04  0.7818608E-02  0.8862506E-01
         -2   -1    0    0    0  501 -0.00000000000E+00  0.00000000000E+00  0.14769173718E+04  0.14769173718E+04  0.25500000000E-02 0.  1.
          2   -1    0    0  501    0  0.00000000000E+00 -0.00000000000E+00 -0.17917009803E+04  0.17917009803E+04  0.25500000000E-02 0. -1.
    8880022    1    1    2    0    0  0.15218219542E+04  0.11021697102E+03 -0.70280150727E+03  0.16868347437E+04  0.15294330000E+03 0.  0.
    8880022    1    1    2    0    0 -0.15218219542E+04 -0.11021697102E+03  0.38801789879E+03  0.15817836084E+04  0.15294330000E+03 0.  0.
<mgrwt>
<rscale>  0 0.15334541E+04</rscale>
<asrwt>0</asrwt>
<pdfrwt beam="1">  1        2 0.27564630E+00 0.15334541E+04</pdfrwt>
<pdfrwt beam="2">  1       -2 0.22721806E+00 0.15334541E+04</pdfrwt>
<totfact> 0.72626948E-01</totfact>
</mgrwt>
</event>
<event>
 4    1  0.3365401E-008  0.7767893E+03  0.7818608E-02  0.9594235E-01
          2   -1    0    0  501    0  0.00000000000E+00  0.00000000000E+00  0.17407201399E+04  0.17407201399E+04  0.25500000000E-02 0. -1.
         -2   -1    0    0    0  501 -0.00000000000E+00 -0.00000000000E+00 -0.41859280971E+03  0.41859280972E+03  0.25500000000E-02 0.  1.
    8880022    1    1    2    0    0  0.68796574615E+03  0.32666960402E+03  0.11086908974E+04  0.13537344854E+04  0.15294330000E+03 0.  0.
    8880022    1    1    2    0    0 -0.68796574615E+03 -0.32666960402E+03  0.21343643277E+03  0.80557846416E+03  0.15294330000E+03 0.  0.
<mgrwt>
<rscale>  0 0.77678926E+03</rscale>
<asrwt>0</asrwt>
<pdfrwt beam="1">  1        2 0.26780310E+00 0.77678926E+03</pdfrwt>
<pdfrwt beam="2">  1       -2 0.64398894E-01 0.77678926E+03</pdfrwt>
<totfact> 0.21249294E+01</totfact>
</mgrwt>
</event>
<event>
 4    1  0.3365401E-008  0.1666299E+03  0.7818608E-02  0.1181409E+00
         -2   -1    0    0    0  501 -0.00000000000E+00  0.00000000000E+00  0.43210097747E+03  0.43210097747E+03  0.25500000000E-02 0.  1.
          2   -1    0    0  501    0  0.00000000000E+00 -0.00000000000E+00 -0.13811489040E+03  0.13811489043E+03  0.25500000000E-02 0. -1.
    8880022    1    1    2    0    0 -0.25853259444E+02  0.60872671268E+02 -0.61498002391E+02  0.17761624488E+03  0.15294330000E+03 0. -1.
    8880022    1    1    2    0    0  0.25853259444E+02 -0.60872671268E+02  0.35548408945E+03  0.39259962302E+03  0.15294330000E+03 0.  0.
<mgrwt>
<rscale>  0 0.16662991E+03</rscale>
<asrwt>0</asrwt>
<pdfrwt beam="1">  1        2 0.21248445E-01 0.16662991E+03</pdfrwt>
<pdfrwt beam="2">  1       -2 0.66477072E-01 0.16662991E+03</pdfrwt>
<totfact> 0.54955234E+02</totfact>
</mgrwt>
</event>
<event>
 4    1  0.3365401E-008  0.3995130E+03  0.7818608E-02  0.1043948E+00
          2   -1    0    0  501    0  0.00000000000E+00  0.00000000000E+00  0.26813956836E+03  0.26813956837E+03  0.25500000000E-02 0. -1.
         -2   -1    0    0    0  501 -0.00000000000E+00 -0.00000000000E+00 -0.11251441005E+04  0.11251441005E+04  0.25500000000E-02 0.  1.
    8880022    1    1    2    0    0 -0.27926495137E+02  0.36802049809E+03  0.49576194381E+02  0.40257723260E+03  0.15294330000E+03 0.  0.
    8880022    1    1    2    0    0  0.27926495137E+02 -0.36802049809E+03 -0.90658072649E+03  0.99070643624E+03  0.15294330000E+03 0.  0.
<mgrwt>
<rscale>  0 0.39951299E+03</rscale>
<asrwt>0</asrwt>
<pdfrwt beam="1">  1        2 0.41252242E-01 0.39951299E+03</pdfrwt>
<pdfrwt beam="2">  1       -2 0.17309909E+00 0.39951299E+03</pdfrwt>
<totfact> 0.26454798E+01</totfact>
</mgrwt>
</event>
<event>
 4    1  0.3365401E-008  0.3645263E+03  0.7818608E-02  0.1056806E+00
         -2   -1    0    0    0  501 -0.00000000000E+00  0.00000000000E+00  0.44936157682E+03  0.44936157682E+03  0.25500000000E-02 0.  1.
          2   -1    0    0  501    0  0.00000000000E+00 -0.00000000000E+00 -0.46788722170E+03  0.46788722171E+03  0.25500000000E-02 0. -1.
    8880022    1    1    2    0    0 -0.17792041189E+03 -0.27898405563E+03 -0.28747620163E+03  0.46424346606E+03  0.15294330000E+03 0.  0.
    8880022    1    1    2    0    0  0.17792041189E+03  0.27898405563E+03  0.26895055675E+03  0.45300533247E+03  0.15294330000E+03 0.  0.
<mgrwt>
<rscale>  0 0.36452631E+03</rscale>
<asrwt>0</asrwt>
<pdfrwt beam="1">  1        2 0.71982649E-01 0.36452631E+03</pdfrwt>
<pdfrwt beam="2">  1       -2 0.69132550E-01 0.36452631E+03</pdfrwt>
<totfact> 0.13154471E+02</totfact>
</mgrwt>
</event>
<event>
 4    1  0.3365401E-008  0.5250875E+03  0.7818608E-02  0.1007431E+00
         -2   -1    0    0    0  501 -0.00000000000E+00  0.00000000000E+00  0.16362959311E+03  0.16362959313E+03  0.25500000000E-02 0.  1.
          2   -1    0    0  501    0  0.00000000000E+00 -0.00000000000E+00 -0.37324698546E+04  0.37324698546E+04  0.25500000000E-02 0. -1.
    8880022    1    1    2    0    0  0.24065311650E+03 -0.44092094110E+03 -0.32272329814E+04  0.32696711713E+04  0.15294330000E+03 0.  0.
    8880022    1    1    2    0    0 -0.24065311650E+03  0.44092094110E+03 -0.34160728011E+03  0.62642827652E+03  0.15294330000E+03 0.  0.
<mgrwt>
<rscale>  0 0.52508747E+03</rscale>
<asrwt>0</asrwt>
<pdfrwt beam="1">  1        2 0.57422607E+00 0.52508747E+03</pdfrwt>
<pdfrwt beam="2">  1       -2 0.25173786E-01 0.52508747E+03</pdfrwt>
<totfact> 0.89925047E+00</totfact>
</mgrwt>
</event>
<event>
 4    1  0.3365401E-008  0.3836403E+03  0.7818608E-02  0.1049596E+00
          2   -1    0    0  501    0  0.00000000000E+00  0.00000000000E+00  0.53674868284E+03  0.53674868285E+03  0.25500000000E-02 0. -1.
         -2   -1    0    0    0  501 -0.00000000000E+00 -0.00000000000E+00 -0.87226240554E+03  0.87226240554E+03  0.25500000000E-02 0.  1.
    8880022    1    1    2    0    0  0.20169191819E+03  0.28828558508E+03  0.41559663886E+03  0.56559740776E+03  0.15294330000E+03 0.  0.
    8880022    1    1    2    0    0 -0.20169191819E+03 -0.28828558508E+03 -0.75111036155E+03  0.84341368063E+03  0.15294330000E+03 0.  0.
<mgrwt>
<rscale>  0 0.38364028E+03</rscale>
<asrwt>0</asrwt>
<pdfrwt beam="1">  1        2 0.82576721E-01 0.38364028E+03</pdfrwt>
<pdfrwt beam="2">  1       -2 0.13419422E+00 0.38364028E+03</pdfrwt>
<totfact> 0.23989873E+01</totfact>
</mgrwt>
</event>
<event>
 4    1  0.3365401E-008  0.9035203E+03  0.7818608E-02  0.9421192E-01
         -2   -1    0    0    0  501 -0.00000000000E+00  0.00000000000E+00  0.98424698163E+03  0.98424698163E+03  0.25500000000E-02 0.  1.
          2   -1    0    0  501    0  0.00000000000E+00 -0.00000000000E+00 -0.27507046737E+04  0.27507046737E+04  0.25500000000E-02 0. -1.
    8880022    1    1    2    0    0 -0.70397819123E+03  0.54531822924E+03  0.67750721261E+03  0.11293205661E+04  0.15294330000E+03 0.  0.
    8880022    1    1    2    0    0  0.70397819123E+03 -0.54531822924E+03 -0.24439649046E+04  0.26056310892E+04  0.15294330000E+03 0.  0.
<mgrwt>
<rscale>  0 0.90352029E+03</rscale>
<asrwt>0</asrwt>
<pdfrwt beam="1">  1        2 0.42318533E+00 0.90352029E+03</pdfrwt>
<pdfrwt beam="2">  1       -2 0.15142261E+00 0.90352029E+03</pdfrwt>
<totfact> 0.74391436E-01</totfact>
</mgrwt>
</event>
<event>
 4    1  0.3365401E-008  0.3504695E+03  0.7818608E-02  0.1062422E+00
          2   -1    0    0  501    0  0.00000000000E+00  0.00000000000E+00  0.25388094430E+04  0.25388094430E+04  0.25500000000E-02 0. -1.
         -2   -1    0    0    0  501 -0.00000000000E+00 -0.00000000000E+00 -0.15851831029E+03  0.15851831032E+03  0.25500000000E-02 0.  1.
    8880022    1    1    2    0    0  0.26502606896E+03 -0.17087549167E+03  0.65975024050E+02  0.35662530433E+03  0.15294330000E+03 0.  0.
    8880022    1    1    2    0    0 -0.26502606896E+03  0.17087549167E+03  0.23143161087E+04  0.23407024490E+04  0.15294330000E+03 0.  0.
<mgrwt>
<rscale>  0 0.35046955E+03</rscale>
<asrwt>0</asrwt>
<pdfrwt beam="1">  1        2 0.39058608E+00 0.35046955E+03</pdfrwt>
<pdfrwt beam="2">  1       -2 0.24387432E-01 0.35046955E+03</pdfrwt>
<totfact> 0.55741241E+01</totfact>
</mgrwt>
</event>
<event>
 4    1  0.3365401E-008  0.3889573E+03  0.7818608E-02  0.1047672E+00
         -2   -1    0    0    0  501 -0.00000000000E+00  0.00000000000E+00  0.33747209566E+03  0.33747209567E+03  0.25500000000E-02 0.  1.
          2   -1    0    0  501    0  0.00000000000E+00 -0.00000000000E+00 -0.28733211299E+04  0.28733211299E+04  0.25500000000E-02 0. -1.
    8880022    1    1    2    0    0 -0.35662719842E+03  0.26704519576E+02 -0.27427759933E+04  0.27702180226E+04  0.15294330000E+03 0.  0.
    8880022    1    1    2    0    0  0.35662719842E+03 -0.26704519576E+02  0.20692695913E+03  0.44057520295E+03  0.15294330000E+03 0.  1.
<mgrwt>
<rscale>  0 0.38895725E+03</rscale>
<asrwt>0</asrwt>
<pdfrwt beam="1">  1        2 0.44204939E+00 0.38895725E+03</pdfrwt>
<pdfrwt beam="2">  1       -2 0.51918786E-01 0.38895725E+03</pdfrwt>
<totfact> 0.84900969E+00</totfact>
</mgrwt>
</event>
<event>
 4    1  0.3365401E-008  0.2871669E+03  0.7818608E-02  0.1091838E+00
         -2   -1    0    0    0  501 -0.00000000000E+00  0.00000000000E+00  0.22626056357E+03  0.22626056359E+03  0.25500000000E-02 0.  1.
          2   -1    0    0  501    0  0.00000000000E+00 -0.00000000000E+00 -0.12701899303E+04  0.12701899303E+04  0.25500000000E-02 0. -1.
    8880022    1    1    2    0    0 -0.33089161729E+02 -0.24078674997E+03  0.10985826181E+03  0.30746323729E+03  0.15294330000E+03 0.  0.
    8880022    1    1    2    0    0  0.33089161729E+02  0.24078674997E+03 -0.11537876285E+04  0.11889872566E+04  0.15294330000E+03 0. -1.
<mgrwt>
<rscale>  0 0.28716686E+03</rscale>
<asrwt>0</asrwt>
<pdfrwt beam="1">  1        2 0.19541383E+00 0.28716686E+03</pdfrwt>
<pdfrwt beam="2">  1       -2 0.34809318E-01 0.28716686E+03</pdfrwt>
<totfact> 0.14265598E+02</totfact>
</mgrwt>
</event>
<event>
 4    1  0.5866201E-008  0.7757868E+03  0.7818608E-02  0.9595741E-01
         -2   -1    0    0    0  501 -0.00000000000E+00  0.00000000000E+00  0.12251887331E+04  0.12251887331E+04  0.25500000000E-02 0.  1.
          2   -1    0    0  501    0  0.00000000000E+00 -0.00000000000E+00 -0.14490605923E+04  0.14490605923E+04  0.25500000000E-02 0. -1.
    8880022    1    1    2    0    0 -0.55467888310E+03  0.52036991814E+03  0.97517477638E+03  0.12461183782E+04  0.15294330000E+03 0.  0.
    8880022    1    1    2    0    0  0.55467888310E+03 -0.52036991814E+03 -0.11990466355E+04  0.14281309472E+04  0.15294330000E+03 0.  0.
<mgrwt>
<rscale>  0 0.77578681E+03</rscale>
<asrwt>0</asrwt>
<pdfrwt beam="1">  1        2 0.22293240E+00 0.77578681E+03</pdfrwt>
<pdfrwt beam="2">  1       -2 0.18849057E+00 0.77578681E+03</pdfrwt>
<totfact> 0.22069974E+00</totfact>
</mgrwt>
</event>
<event>
 4    1  0.3365401E-008  0.6356317E+03  0.7818608E-02  0.9834120E-01
          2   -1    0    0  501    0  0.00000000000E+00  0.00000000000E+00  0.18591257895E+04  0.18591257895E+04  0.25500000000E-02 0. -1.
         -2   -1    0    0    0  501 -0.00000000000E+00 -0.00000000000E+00 -0.74373680228E+03  0.74373680228E+03  0.25500000000E-02 0.  1.
    8880022    1    1    2    0    0  0.57747870132E+03 -0.21715055297E+03 -0.53720924297E+03  0.83223881001E+03  0.15294330000E+03 0.  0.
    8880022    1    1    2    0    0 -0.57747870132E+03  0.21715055297E+03  0.16525982302E+04  0.17706237817E+04  0.15294330000E+03 0.  0.
<mgrwt>
<rscale>  0 0.63563171E+03</rscale>
<asrwt>0</asrwt>
<pdfrwt beam="1">  1        2 0.28601935E+00 0.63563171E+03</pdfrwt>
<pdfrwt beam="2">  1       -2 0.11442105E+00 0.63563171E+03</pdfrwt>
<totfact> 0.50330763E+00</totfact>
</mgrwt>
</event>
<event>
 4    1  0.3365401E-008  0.1592993E+03  0.7818608E-02  0.1189490E+00
         -2   -1    0    0    0  501 -0.00000000000E+00  0.00000000000E+00  0.66144893599E+03  0.66144893599E+03  0.25500000000E-02 0.  1.
          2   -1    0    0  501    0  0.00000000000E+00 -0.00000000000E+00 -0.19176695843E+03  0.19176695845E+03  0.25500000000E-02 0. -1.
    8880022    1    1    2    0    0  0.34859636945E+02 -0.27738291867E+02 -0.14671475199E+03  0.21656749200E+03  0.15294330000E+03 0.  0.
    8880022    1    1    2    0    0 -0.34859636945E+02  0.27738291867E+02  0.61639672955E+03  0.63664840244E+03  0.15294330000E+03 0.  1.
<mgrwt>
<rscale>  0 0.15929928E+03</rscale>
<asrwt>0</asrwt>
<pdfrwt beam="1">  1        2 0.29502609E-01 0.15929928E+03</pdfrwt>
<pdfrwt beam="2">  1       -2 0.10176138E+00 0.15929928E+03</pdfrwt>
<totfact> 0.14906126E+02</totfact>
</mgrwt>
</event>
<event>
 4    1  0.3365401E-008  0.3047218E+03  0.7818608E-02  0.1082904E+00
          2   -1    0    0  501    0  0.00000000000E+00  0.00000000000E+00  0.23579210350E+03  0.23579210352E+03  0.25500000000E-02 0. -1.
         -2   -1    0    0    0  501 -0.00000000000E+00 -0.00000000000E+00 -0.46039688164E+03  0.46039688164E+03  0.25500000000E-02 0.  1.
    8880022    1    1    2    0    0  0.20684028957E+03  0.16334260923E+03 -0.24469138329E+03  0.39080588461E+03  0.15294330000E+03 0.  0.
    8880022    1    1    2    0    0 -0.20684028957E+03 -0.16334260923E+03  0.20086605153E+02  0.30538310055E+03  0.15294330000E+03 0.  0.
<mgrwt>
<rscale>  0 0.30472179E+03</rscale>
<asrwt>0</asrwt>
<pdfrwt beam="1">  1        2 0.36275708E-01 0.30472179E+03</pdfrwt>
<pdfrwt beam="2">  1       -2 0.70830289E-01 0.30472179E+03</pdfrwt>
<totfact> 0.26565709E+02</totfact>
</mgrwt>
</event>
<event>
 4    1  0.3365401E-008  0.2422186E+03  0.7818608E-02  0.1118324E+00
          2   -1    0    0  501    0  0.00000000000E+00  0.00000000000E+00  0.15664487486E+04  0.15664487486E+04  0.25500000000E-02 0. -1.
         -2   -1    0    0    0  501 -0.00000000000E+00 -0.00000000000E+00 -0.15595484676E+03  0.15595484678E+03  0.25500000000E-02 0.  1.
    8880022    1    1    2    0    0  0.95378520278E+02  0.16180585454E+03  0.14559464478E+04  0.14759572855E+04  0.15294330000E+03 0.  0.
    8880022    1    1    2    0    0 -0.95378520278E+02 -0.16180585454E+03 -0.45452545986E+02  0.24644630987E+03  0.15294330000E+03 0.  1.
<mgrwt>
<rscale>  0 0.24221860E+03</rscale>
<asrwt>0</asrwt>
<pdfrwt beam="1">  1        2 0.24099210E+00 0.24221860E+03</pdfrwt>
<pdfrwt beam="2">  1       -2 0.23993055E-01 0.24221860E+03</pdfrwt>
<totfact> 0.19517699E+02</totfact>
</mgrwt>
</event>
<event>
 4    1  0.3365401E-008  0.6743705E+03  0.7818608E-02  0.9762095E-01
          2   -1    0    0  501    0  0.00000000000E+00  0.00000000000E+00  0.15440492820E+04  0.15440492820E+04  0.25500000000E-02 0. -1.
         -2   -1    0    0    0  501 -0.00000000000E+00 -0.00000000000E+00 -0.50688371593E+03  0.50688371594E+03  0.25500000000E-02 0.  1.
    8880022    1    1    2    0    0 -0.50737703824E+03  0.41707606487E+03  0.11823148324E+04  0.13611186278E+04  0.15294330000E+03 0.  0.
    8880022    1    1    2    0    0  0.50737703824E+03 -0.41707606487E+03 -0.14514926633E+03  0.68981437022E+03  0.15294330000E+03 0.  0.
<mgrwt>
<rscale>  0 0.67437049E+03</rscale>
<asrwt>0</asrwt>
<pdfrwt beam="1">  1        2 0.23754604E+00 0.67437049E+03</pdfrwt>
<pdfrwt beam="2">  1       -2 0.77982112E-01 0.67437049E+03</pdfrwt>
<totfact> 0.18168173E+01</totfact>
</mgrwt>
</event>
<event>
 4    1  0.3365401E-008  0.7512614E+03  0.7818608E-02  0.9633373E-01
         -2   -1    0    0    0  501 -0.00000000000E+00  0.00000000000E+00  0.80724057340E+03  0.80724057340E+03  0.25500000000E-02 0.  1.
          2   -1    0    0  501    0  0.00000000000E+00 -0.00000000000E+00 -0.15846041967E+04  0.15846041967E+04  0.25500000000E-02 0. -1.
    8880022    1    1    2    0    0 -0.61945080441E+03 -0.39658891518E+03  0.50528657057E+03  0.90537740094E+03  0.15294330000E+03 0.  0.
    8880022    1    1    2    0    0  0.61945080441E+03  0.39658891518E+03 -0.12826501938E+04  0.14864673691E+04  0.15294330000E+03 0.  0.
<mgrwt>
<rscale>  0 0.75126142E+03</rscale>
<asrwt>0</asrwt>
<pdfrwt beam="1">  1        2 0.24378526E+00 0.75126142E+03</pdfrwt>
<pdfrwt beam="2">  1       -2 0.12419086E+00 0.75126142E+03</pdfrwt>
<totfact> 0.56923216E+00</totfact>
</mgrwt>
</event>
<event>
 4    1  0.3365401E-008  0.5572370E+03  0.7818608E-02  0.9998326E-01
         -2   -1    0    0    0  501 -0.00000000000E+00  0.00000000000E+00  0.26384133864E+03  0.26384133865E+03  0.25500000000E-02 0.  1.
          2   -1    0    0  501    0  0.00000000000E+00 -0.00000000000E+00 -0.14442098949E+04  0.14442098949E+04  0.25500000000E-02 0. -1.
    8880022    1    1    2    0    0 -0.47587220497E+03  0.24630686148E+03 -0.22275921502E+03  0.60011227814E+03  0.15294330000E+03 0.  1.
    8880022    1    1    2    0    0  0.47587220497E+03 -0.24630686148E+03 -0.95760934126E+03  0.11079389554E+04  0.15294330000E+03 0.  0.
<mgrwt>
<rscale>  0 0.55723700E+03</rscale>
<asrwt>0</asrwt>
<pdfrwt beam="1">  1        2 0.22218613E+00 0.55723700E+03</pdfrwt>
<pdfrwt beam="2">  1       -2 0.40590976E-01 0.55723700E+03</pdfrwt>
<totfact> 0.81612597E+01</totfact>
</mgrwt>
</event>
<event>
 4    1  0.3365401E-008  0.8668128E+03  0.7818608E-02  0.9468045E-01
          2   -1    0    0  501    0  0.00000000000E+00  0.00000000000E+00  0.30108659357E+04  0.30108659357E+04  0.25500000000E-02 0. -1.
         -2   -1    0    0    0  501 -0.00000000000E+00 -0.00000000000E+00 -0.52114048103E+03  0.52114048104E+03  0.25500000000E-02 0.  1.
    8880022    1    1    2    0    0  0.20313498575E+03 -0.82867907556E+03  0.25197464841E+04  0.26646738693E+04  0.15294330000E+03 0. -1.
    8880022    1    1    2    0    0 -0.20313498575E+03  0.82867907556E+03 -0.30021029360E+02  0.86733254748E+03  0.15294330000E+03 0.  0.
<mgrwt>
<rscale>  0 0.86681283E+03</rscale>
<asrwt>0</asrwt>
<pdfrwt beam="1">  1        2 0.46321015E+00 0.86681283E+03</pdfrwt>
<pdfrwt beam="2">  1       -2 0.80175458E-01 0.86681283E+03</pdfrwt>
<totfact> 0.24613389E+00</totfact>
</mgrwt>
</event>
<event>
 4    1  0.3365401E-008  0.3326860E+03  0.7818608E-02  0.1069955E+00
         -2   -1    0    0    0  501 -0.00000000000E+00  0.00000000000E+00  0.64525850226E+03  0.64525850227E+03  0.25500000000E-02 0.  1.
          2   -1    0    0  501    0  0.00000000000E+00 -0.00000000000E+00 -0.11324201677E+04  0.11324201677E+04  0.25500000000E-02 0. -1.
    8880022    1    1    2    0    0  0.23813759435E+03 -0.17486788521E+03  0.57517947306E+03  0.66446321972E+03  0.15294330000E+03 0.  1.
    8880022    1    1    2    0    0 -0.23813759435E+03  0.17486788521E+03 -0.10623411385E+04  0.11132154502E+04  0.15294330000E+03 0.  0.
<mgrwt>
<rscale>  0 0.33268595E+03</rscale>
<asrwt>0</asrwt>
<pdfrwt beam="1">  1        2 0.17421849E+00 0.33268595E+03</pdfrwt>
<pdfrwt beam="2">  1       -2 0.99270539E-01 0.33268595E+03</pdfrwt>
<totfact> 0.19074626E+01</totfact>
</mgrwt>
</event>
<event>
 4    1  0.3365401E-008  0.4785418E+03  0.7818608E-02  0.1019537E+00
          2   -1    0    0  501    0  0.00000000000E+00  0.00000000000E+00  0.25038355783E+04  0.25038355783E+04  0.25500000000E-02 0. -1.
         -2   -1    0    0    0  501 -0.00000000000E+00 -0.00000000000E+00 -0.14860139579E+03  0.14860139581E+03  0.25500000000E-02 0.  1.
    8880022    1    1    2    0    0 -0.37197475552E+03  0.25931708631E+03  0.20000053453E+04  0.20564589965E+04  0.15294330000E+03 0. -1.
    8880022    1    1    2    0    0  0.37197475552E+03 -0.25931708631E+03  0.35522883717E+03  0.59597797759E+03  0.15294330000E+03 0.  0.
<mgrwt>
<rscale>  0 0.47854177E+03</rscale>
<asrwt>0</asrwt>
<pdfrwt beam="1">  1        2 0.38520542E+00 0.47854177E+03</pdfrwt>
<pdfrwt beam="2">  1       -2 0.22861757E-01 0.47854177E+03</pdfrwt>
<totfact> 0.63357343E+01</totfact>
</mgrwt>
</event>
<event>
 4    1  0.3365401E-008  0.5128695E+03  0.7818608E-02  0.1010473E+00
         -2   -1    0    0    0  501 -0.00000000000E+00  0.00000000000E+00  0.30611776583E+03  0.30611776585E+03  0.25500000000E-02 0.  1.
          2   -1    0    0  501    0  0.00000000000E+00 -0.00000000000E+00 -0.12192974578E+04  0.12192974578E+04  0.25500000000E-02 0. -1.
    8880022    1    1    2    0    0 -0.10009046723E+03 -0.47919237147E+03 -0.42135750458E+02  0.51459742031E+03  0.15294330000E+03 0.  0.
    8880022    1    1    2    0    0  0.10009046723E+03  0.47919237147E+03 -0.87104394152E+03  0.10108178034E+04  0.15294330000E+03 0. -1.
<mgrwt>
<rscale>  0 0.51286946E+03</rscale>
<asrwt>0</asrwt>
<pdfrwt beam="1">  1        2 0.18758422E+00 0.51286946E+03</pdfrwt>
<pdfrwt beam="2">  1       -2 0.47095042E-01 0.51286946E+03</pdfrwt>
<totfact> 0.82089804E+01</totfact>
</mgrwt>
</event>
<event>
 4    1  0.3365401E-008  0.3352737E+03  0.7818608E-02  0.1068827E+00
         -2   -1    0    0    0  501 -0.00000000000E+00  0.00000000000E+00  0.94437377012E+02  0.94437377047E+02  0.25500000000E-02 0.  1.
          2   -1    0    0  501    0  0.00000000000E+00 -0.00000000000E+00 -0.24680345875E+04  0.24680345875E+04  0.25500000000E-02 0. -1.
    8880022    1    1    2    0    0 -0.29280718487E+03 -0.57278152024E+02 -0.21086786458E+04  0.21351660634E+04  0.15294330000E+03 0. -1.
    8880022    1    1    2    0    0  0.29280718487E+03  0.57278152024E+02 -0.26491856476E+03  0.42730590118E+03  0.15294330000E+03 0.  0.
<mgrwt>
<rscale>  0 0.33527375E+03</rscale>
<asrwt>0</asrwt>
<pdfrwt beam="1">  1        2 0.37969758E+00 0.33527375E+03</pdfrwt>
<pdfrwt beam="2">  1       -2 0.14528829E-01 0.33527375E+03</pdfrwt>
<totfact> 0.14878442E+02</totfact>
</mgrwt>
</event>
<event>
 4    1  0.3365401E-008  0.2850417E+03  0.7818608E-02  0.1092967E+00
          2   -1    0    0  501    0  0.00000000000E+00  0.00000000000E+00  0.29363477247E+04  0.29363477247E+04  0.25500000000E-02 0. -1.
         -2   -1    0    0    0  501 -0.00000000000E+00 -0.00000000000E+00 -0.31062431947E+02  0.31062432052E+02  0.25500000000E-02 0.  1.
    8880022    1    1    2    0    0  0.17875957536E+03 -0.16094145546E+03  0.96231728679E+03  0.10036450325E+04  0.15294330000E+03 0. -1.
    8880022    1    1    2    0    0 -0.17875957536E+03  0.16094145546E+03  0.19429680060E+04  0.19637651242E+04  0.15294330000E+03 0.  0.
<mgrwt>
<rscale>  0 0.28504174E+03</rscale>
<asrwt>0</asrwt>
<pdfrwt beam="1">  1        2 0.45174581E+00 0.28504174E+03</pdfrwt>
<pdfrwt beam="2">  1       -2 0.47788356E-02 0.28504174E+03</pdfrwt>
<totfact> 0.47507971E+02</totfact>
</mgrwt>
</event>
<event>
 4    1  0.3365401E-008  0.9345365E+03  0.7818608E-02  0.9383410E-01
         -2   -1    0    0    0  501 -0.00000000000E+00  0.00000000000E+00  0.50502833686E+03  0.50502833687E+03  0.25500000000E-02 0.  1.
          2   -1    0    0  501    0  0.00000000000E+00 -0.00000000000E+00 -0.20488710591E+04  0.20488710591E+04  0.25500000000E-02 0. -1.
    8880022    1    1    2    0    0 -0.66944139854E+03  0.63388886197E+03 -0.12762140487E+04  0.15817967083E+04  0.15294330000E+03 0.  0.
    8880022    1    1    2    0    0  0.66944139854E+03 -0.63388886197E+03 -0.26762867356E+03  0.97210268765E+03  0.15294330000E+03 0.  0.
<mgrwt>
<rscale>  0 0.93453653E+03</rscale>
<asrwt>0</asrwt>
<pdfrwt beam="1">  1        2 0.31521093E+00 0.93453653E+03</pdfrwt>
<pdfrwt beam="2">  1       -2 0.77696668E-01 0.93453653E+03</pdfrwt>
<totfact> 0.93618433E+00</totfact>
</mgrwt>
</event>
<event>
 4    1  0.3365401E-008  0.2354119E+03  0.7818608E-02  0.1122888E+00
         -2   -1    0    0    0  501 -0.00000000000E+00  0.00000000000E+00  0.32420803801E+03  0.32420803802E+03  0.25500000000E-02 0.  1.
          2   -1    0    0  501    0  0.00000000000E+00 -0.00000000000E+00 -0.18342283957E+04  0.18342283957E+04  0.25500000000E-02 0. -1.
    8880022    1    1    2    0    0  0.12422284030E+03 -0.12882457887E+03  0.27269109980E+03  0.36024876835E+03  0.15294330000E+03 0.  0.
    8880022    1    1    2    0    0 -0.12422284030E+03  0.12882457887E+03 -0.17827114575E+04  0.17981876654E+04  0.15294330000E+03 0. -1.
<mgrwt>
<rscale>  0 0.23541185E+03</rscale>
<asrwt>0</asrwt>
<pdfrwt beam="1">  1        2 0.28218898E+00 0.23541185E+03</pdfrwt>
<pdfrwt beam="2">  1       -2 0.49878161E-01 0.23541185E+03</pdfrwt>
<totfact> 0.36062849E+01</totfact>
</mgrwt>
</event>
<event>
 4    1  0.3365401E-008  0.2454963E+03  0.7818608E-02  0.1116185E+00
         -2   -1    0    0    0  501 -0.00000000000E+00  0.00000000000E+00  0.15305962235E+04  0.15305962235E+04  0.25500000000E-02 0.  1.
          2   -1    0    0  501    0  0.00000000000E+00 -0.00000000000E+00 -0.13158930650E+04  0.13158930651E+04  0.25500000000E-02 0. -1.
    8880022    1    1    2    0    0  0.16937780380E+03 -0.90487322621E+02 -0.12944372858E+04  0.13175114177E+04  0.15294330000E+03 0.  0.
    8880022    1    1    2    0    0 -0.16937780380E+03  0.90487322621E+02  0.15091404442E+04  0.15289778708E+04  0.15294330000E+03 0.  0.
<mgrwt>
<rscale>  0 0.24549633E+03</rscale>
<asrwt>0</asrwt>
<pdfrwt beam="1">  1        2 0.20244509E+00 0.24549633E+03</pdfrwt>
<pdfrwt beam="2">  1       -2 0.23547634E+00 0.24549633E+03</pdfrwt>
<totfact> 0.15527342E+00</totfact>
</mgrwt>
</event>
<event>
 4    1  0.3365401E-008  0.6996718E+03  0.7818608E-02  0.9717794E-01
         -2   -1    0    0    0  501 -0.00000000000E+00  0.00000000000E+00  0.32275993934E+03  0.32275993935E+03  0.25500000000E-02 0.  1.
          2   -1    0    0  501    0  0.00000000000E+00 -0.00000000000E+00 -0.27916334190E+04  0.27916334190E+04  0.25500000000E-02 0. -1.
    8880022    1    1    2    0    0  0.60548937222E+03  0.31548632558E+03 -0.18210564181E+03  0.72298210164E+03  0.15294330000E+03 0.  0.
    8880022    1    1    2    0    0 -0.60548937222E+03 -0.31548632558E+03 -0.22867678378E+04  0.23914112567E+04  0.15294330000E+03 0. -1.
<mgrwt>
<rscale>  0 0.69967182E+03</rscale>
<asrwt>0</asrwt>
<pdfrwt beam="1">  1        2 0.42948205E+00 0.69967182E+03</pdfrwt>
<pdfrwt beam="2">  1       -2 0.49655377E-01 0.69967182E+03</pdfrwt>
<totfact> 0.95797037E+00</totfact>
</mgrwt>
</event>
<event>
 4    1  0.3365401E-008  0.6037457E+03  0.7818608E-02  0.9897665E-01
          2   -1    0    0  501    0  0.00000000000E+00  0.00000000000E+00  0.48138745240E+04  0.48138745240E+04  0.25500000000E-02 0. -1.
         -2   -1    0    0    0  501 -0.00000000000E+00 -0.00000000000E+00 -0.30334060952E+03  0.30334060953E+03  0.25500000000E-02 0.  1.
    8880022    1    1    2    0    0  0.35467657411E+03 -0.46402774839E+03  0.38889429880E+02  0.60499691261E+03  0.15294330000E+03 0.  0.
    8880022    1    1    2    0    0 -0.35467657411E+03  0.46402774839E+03  0.44716444846E+04  0.45122182210E+04  0.15294330000E+03 0.  0.
<mgrwt>
<rscale>  0 0.60374571E+03</rscale>
<asrwt>0</asrwt>
<pdfrwt beam="1">  1        2 0.74059599E+00 0.60374571E+03</pdfrwt>
<pdfrwt beam="2">  1       -2 0.46667792E-01 0.60374571E+03</pdfrwt>
<totfact> 0.30575488E-01</totfact>
</mgrwt>
</event>
<event>
 4    1  0.3365401E-008  0.1786938E+03  0.7818608E-02  0.1169073E+00
          2   -1    0    0  501    0  0.00000000000E+00  0.00000000000E+00  0.19770490521E+04  0.19770490521E+04  0.25500000000E-02 0. -1.
         -2   -1    0    0    0  501 -0.00000000000E+00 -0.00000000000E+00 -0.33876069714E+02  0.33876069810E+02  0.25500000000E-02 0.  1.
    8880022    1    1    2    0    0 -0.90398938872E+02  0.19179804742E+02  0.16988843977E+04  0.17082563282E+04  0.15294330000E+03 0. -1.
    8880022    1    1    2    0    0  0.90398938872E+02 -0.19179804742E+02  0.24428858463E+03  0.30266879366E+03  0.15294330000E+03 0.  0.
<mgrwt>
<rscale>  0 0.17869383E+03</rscale>
<asrwt>0</asrwt>
<pdfrwt beam="1">  1        2 0.30416136E+00 0.17869383E+03</pdfrwt>
<pdfrwt beam="2">  1       -2 0.52117036E-02 0.17869383E+03</pdfrwt>
<totfact> 0.14170349E+03</totfact>
</mgrwt>
</event>
<event>
 4    1  0.3365401E-008  0.6355289E+03  0.7818608E-02  0.9834319E-01
          2   -1    0    0  501    0  0.00000000000E+00  0.00000000000E+00  0.28589108243E+04  0.28589108243E+04  0.25500000000E-02 0. -1.
         -2   -1    0    0    0  501 -0.00000000000E+00 -0.00000000000E+00 -0.16849390319E+03  0.16849390321E+03  0.25500000000E-02 0.  1.
    8880022    1    1    2    0    0  0.57512678015E+03  0.22301232494E+03  0.19535838012E+04  0.20543579610E+04  0.15294330000E+03 0.  0.
    8880022    1    1    2    0    0 -0.57512678015E+03 -0.22301232494E+03  0.73683311990E+03  0.97304676657E+03  0.15294330000E+03 0.  0.
<mgrwt>
<rscale>  0 0.63552888E+03</rscale>
<asrwt>0</asrwt>
<pdfrwt beam="1">  1        2 0.43983241E+00 0.63552888E+03</pdfrwt>
<pdfrwt beam="2">  1       -2 0.25922140E-01 0.63552888E+03</pdfrwt>
<totfact> 0.30669291E+01</totfact>
</mgrwt>
</event>
<event>
 4    1  0.3365401E-008  0.4031753E+03  0.7818608E-02  0.1042686E+00
         -2   -1    0    0    0  501 -0.00000000000E+00  0.00000000000E+00  0.40979865802E+03  0.40979865803E+03  0.25500000000E-02 0.  1.
          2   -1    0    0  501    0  0.00000000000E+00 -0.00000000000E+00 -0.16116564564E+04  0.16116564564E+04  0.25500000000E-02 0. -1.
    8880022    1    1    2    0    0  0.79838553965E+02 -0.36439598838E+03  0.27664878932E+03  0.48896302181E+03  0.15294330000E+03 0.  1.
    8880022    1    1    2    0    0 -0.79838553965E+02  0.36439598838E+03 -0.14785065877E+04  0.15324920927E+04  0.15294330000E+03 0.  0.
<mgrwt>
<rscale>  0 0.40317525E+03</rscale>
<asrwt>0</asrwt>
<pdfrwt beam="1">  1        2 0.24794714E+00 0.40317525E+03</pdfrwt>
<pdfrwt beam="2">  1       -2 0.63045948E-01 0.40317525E+03</pdfrwt>
<totfact> 0.27793099E+01</totfact>
</mgrwt>
</event>
<event>
 4    1  0.3365401E-008  0.9460009E+03  0.7818608E-02  0.9369837E-01
         -2   -1    0    0    0  501 -0.00000000000E+00  0.00000000000E+00  0.59355157525E+03  0.59355157525E+03  0.25500000000E-02 0.  1.
          2   -1    0    0  501    0  0.00000000000E+00 -0.00000000000E+00 -0.20053906073E+04  0.20053906073E+04  0.25500000000E-02 0. -1.
    8880022    1    1    2    0    0  0.75406593783E+03 -0.55037323057E+03 -0.58580028760E+02  0.94781295850E+03  0.15294330000E+03 0.  0.
    8880022    1    1    2    0    0 -0.75406593783E+03  0.55037323057E+03 -0.13532590033E+04  0.16511292241E+04  0.15294330000E+03 0.  0.
<mgrwt>
<rscale>  0 0.94600094E+03</rscale>
<asrwt>0</asrwt>
<pdfrwt beam="1">  1        2 0.30852163E+00 0.94600094E+03</pdfrwt>
<pdfrwt beam="2">  1       -2 0.91315628E-01 0.94600094E+03</pdfrwt>
<totfact> 0.68338830E+00</totfact>
</mgrwt>
</event>
<event>
 4    1  0.3365401E-008  0.3427599E+03  0.7818608E-02  0.1065626E+00
          2   -1    0    0  501    0  0.00000000000E+00  0.00000000000E+00  0.56186635300E+03  0.56186635300E+03  0.25500000000E-02 0. -1.
         -2   -1    0    0    0  501 -0.00000000000E+00 -0.00000000000E+00 -0.65548438531E+03  0.65548438531E+03  0.25500000000E-02 0.  1.
    8880022    1    1    2    0    0 -0.26642546122E+03 -0.15202039263E+03  0.45548808676E+03  0.57004717029E+03  0.15294330000E+03 0.  0.
    8880022    1    1    2    0    0  0.26642546122E+03  0.15202039263E+03 -0.54910611907E+03  0.64730356802E+03  0.15294330000E+03 0.  0.
<mgrwt>
<rscale>  0 0.34275994E+03</rscale>
<asrwt>0</asrwt>
<pdfrwt beam="1">  1        2 0.86440978E-01 0.34275994E+03</pdfrwt>
<pdfrwt beam="2">  1       -2 0.10084375E+00 0.34275994E+03</pdfrwt>
<totfact> 0.45854500E+01</totfact>
</mgrwt>
</event>
<event>
 4    1  0.3365401E-008  0.4145382E+03  0.7818608E-02  0.1038859E+00
          2   -1    0    0  501    0  0.00000000000E+00  0.00000000000E+00  0.31812446138E+04  0.31812446138E+04  0.25500000000E-02 0. -1.
         -2   -1    0    0    0  501 -0.00000000000E+00 -0.00000000000E+00 -0.62585800333E+03  0.62585800333E+03  0.25500000000E-02 0.  1.
    8880022    1    1    2    0    0  0.68481092127E+02 -0.37915778380E+03  0.30972443824E+04  0.31248623494E+04  0.15294330000E+03 0.  0.
    8880022    1    1    2    0    0 -0.68481092127E+02  0.37915778380E+03 -0.54185777192E+03  0.68224026780E+03  0.15294330000E+03 0.  0.
<mgrwt>
<rscale>  0 0.41453822E+03</rscale>
<asrwt>0</asrwt>
<pdfrwt beam="1">  1        2 0.48942226E+00 0.41453822E+03</pdfrwt>
<pdfrwt beam="2">  1       -2 0.96285844E-01 0.41453822E+03</pdfrwt>
<totfact> 0.14334679E+00</totfact>
</mgrwt>
</event>
<event>
 4    1  0.3365401E-008  0.2556791E+03  0.7818608E-02  0.1109767E+00
         -2   -1    0    0    0  501 -0.00000000000E+00  0.00000000000E+00  0.86049643785E+02  0.86049643823E+02  0.25500000000E-02 0.  1.
          2   -1    0    0  501    0  0.00000000000E+00 -0.00000000000E+00 -0.14969358190E+04  0.14969358190E+04  0.25500000000E-02 0. -1.
    8880022    1    1    2    0    0  0.13535367560E+03 -0.15381658869E+03 -0.12608981125E+04  0.12865597007E+04  0.15294330000E+03 0.  0.
    8880022    1    1    2    0    0 -0.13535367560E+03  0.15381658869E+03 -0.14998806271E+03  0.29642576208E+03  0.15294330000E+03 0.  1.
<mgrwt>
<rscale>  0 0.25567912E+03</rscale>
<asrwt>0</asrwt>
<pdfrwt beam="1">  1        2 0.23029780E+00 0.25567912E+03</pdfrwt>
<pdfrwt beam="2">  1       -2 0.13238408E-01 0.25567912E+03</pdfrwt>
<totfact> 0.57982407E+02</totfact>
</mgrwt>
</event>
<event>
 4    1  0.3365401E-008  0.2914704E+03  0.7818608E-02  0.1089584E+00
         -2   -1    0    0    0  501 -0.00000000000E+00  0.00000000000E+00  0.18871967968E+03  0.18871967970E+03  0.25500000000E-02 0.  1.
          2   -1    0    0  501    0  0.00000000000E+00 -0.00000000000E+00 -0.15506300884E+04  0.15506300884E+04  0.25500000000E-02 0. -1.
    8880022    1    1    2    0    0  0.20986457542E+03 -0.13236391167E+03 -0.14135957600E+04  0.14433322455E+04  0.15294330000E+03 0. -1.
    8880022    1    1    2    0    0 -0.20986457542E+03  0.13236391167E+03  0.51685351308E+02  0.29601752259E+03  0.15294330000E+03 0.  0.
<mgrwt>
<rscale>  0 0.29147041E+03</rscale>
<asrwt>0</asrwt>
<pdfrwt beam="1">  1        2 0.23855847E+00 0.29147041E+03</pdfrwt>
<pdfrwt beam="2">  1       -2 0.29033798E-01 0.29147041E+03</pdfrwt>
<totfact> 0.13999022E+02</totfact>
</mgrwt>
</event>
<event>
 4    1  0.3365401E-008  0.9279385E+03  0.7818608E-02  0.9391315E-01
         -2   -1    0    0    0  501 -0.00000000000E+00  0.00000000000E+00  0.12364830892E+04  0.12364830892E+04  0.25500000000E-02 0.  1.
          2   -1    0    0  501    0  0.00000000000E+00 -0.00000000000E+00 -0.99798123933E+03  0.99798123933E+03  0.25500000000E-02 0. -1.
    8880022    1    1    2    0    0 -0.79449341656E+03 -0.45437696021E+03  0.73342895621E+03  0.11827881880E+04  0.15294330000E+03 0.  0.
    8880022    1    1    2    0    0  0.79449341656E+03  0.45437696021E+03 -0.49492710633E+03  0.10516761405E+04  0.15294330000E+03 0.  0.
<mgrwt>
<rscale>  0 0.92793850E+03</rscale>
<asrwt>0</asrwt>
<pdfrwt beam="1">  1        2 0.15353558E+00 0.92793850E+03</pdfrwt>
<pdfrwt beam="2">  1       -2 0.19022817E+00 0.92793850E+03</pdfrwt>
<totfact> 0.39007469E+00</totfact>
</mgrwt>
</event>
<event>
 4    1  0.3365401E-008  0.4385568E+03  0.7818608E-02  0.1031191E+00
          2   -1    0    0  501    0  0.00000000000E+00  0.00000000000E+00  0.13029590947E+04  0.13029590947E+04  0.25500000000E-02 0. -1.
         -2   -1    0    0    0  501 -0.00000000000E+00 -0.00000000000E+00 -0.24078520496E+03  0.24078520498E+03  0.25500000000E-02 0.  1.
    8880022    1    1    2    0    0 -0.26329105112E+03 -0.31562352933E+03  0.50937286177E+02  0.44150498299E+03  0.15294330000E+03 0.  1.
    8880022    1    1    2    0    0  0.26329105112E+03  0.31562352933E+03  0.10112366036E+04  0.11022393167E+04  0.15294330000E+03 0.  0.
<mgrwt>
<rscale>  0 0.43855677E+03</rscale>
<asrwt>0</asrwt>
<pdfrwt beam="1">  1        2 0.20045525E+00 0.43855677E+03</pdfrwt>
<pdfrwt beam="2">  1       -2 0.37043877E-01 0.43855677E+03</pdfrwt>
<totfact> 0.11861205E+02</totfact>
</mgrwt>
</event>
<event>
 4    1  0.3365401E-008  0.6490025E+03  0.7818608E-02  0.9808653E-01
          2   -1    0    0  501    0  0.00000000000E+00  0.00000000000E+00  0.32251692092E+04  0.32251692092E+04  0.25500000000E-02 0. -1.
         -2   -1    0    0    0  501 -0.00000000000E+00 -0.00000000000E+00 -0.27119701723E+03  0.27119701724E+03  0.25500000000E-02 0.  1.
    8880022    1    1    2    0    0 -0.13014662546E+03 -0.61715029166E+03  0.27357198261E+04  0.28116484927E+04  0.15294330000E+03 0.  0.
    8880022    1    1    2    0    0  0.13014662546E+03  0.61715029166E+03  0.21825236582E+03  0.68471773368E+03  0.15294330000E+03 0.  0.
<mgrwt>
<rscale>  0 0.64900253E+03</rscale>
<asrwt>0</asrwt>
<pdfrwt beam="1">  1        2 0.49617985E+00 0.64900253E+03</pdfrwt>
<pdfrwt beam="2">  1       -2 0.41722620E-01 0.64900253E+03</pdfrwt>
<totfact> 0.74399115E+00</totfact>
</mgrwt>
</event>
<event>
 4    1  0.3365401E-008  0.2919788E+03  0.7818608E-02  0.1089321E+00
         -2   -1    0    0    0  501 -0.00000000000E+00  0.00000000000E+00  0.69311098907E+03  0.69311098908E+03  0.25500000000E-02 0.  1.
          2   -1    0    0  501    0  0.00000000000E+00 -0.00000000000E+00 -0.22045969171E+04  0.22045969171E+04  0.25500000000E-02 0. -1.
    8880022    1    1    2    0    0 -0.21829587642E+03  0.11919257035E+03 -0.21635997767E+04  0.21832122218E+04  0.15294330000E+03 0.  0.
    8880022    1    1    2    0    0  0.21829587642E+03 -0.11919257035E+03  0.65211384864E+03  0.71449568445E+03  0.15294330000E+03 0.  1.
<mgrwt>
<rscale>  0 0.29197879E+03</rscale>
<asrwt>0</asrwt>
<pdfrwt beam="1">  1        2 0.33916875E+00 0.29197879E+03</pdfrwt>
<pdfrwt beam="2">  1       -2 0.10663246E+00 0.29197879E+03</pdfrwt>
<totfact> 0.43062572E+00</totfact>
</mgrwt>
</event>
<event>
 4    1  0.3365401E-008  0.6631405E+03  0.7818608E-02  0.9782430E-01
          2   -1    0    0  501    0  0.00000000000E+00  0.00000000000E+00  0.90950733504E+03  0.90950733504E+03  0.25500000000E-02 0. -1.
         -2   -1    0    0    0  501 -0.00000000000E+00 -0.00000000000E+00 -0.62182102559E+03  0.62182102559E+03  0.25500000000E-02 0.  1.
    8880022    1    1    2    0    0  0.44003075278E+03 -0.47194980811E+03  0.50494938841E+03  0.83350418273E+03  0.15294330000E+03 0.  0.
    8880022    1    1    2    0    0 -0.44003075278E+03  0.47194980811E+03 -0.21726307896E+03  0.69782417790E+03  0.15294330000E+03 0.  0.
<mgrwt>
<rscale>  0 0.66314051E+03</rscale>
<asrwt>0</asrwt>
<pdfrwt beam="1">  1        2 0.13992421E+00 0.66314051E+03</pdfrwt>
<pdfrwt beam="2">  1       -2 0.95664773E-01 0.66314051E+03</pdfrwt>
<totfact> 0.27133242E+01</totfact>
</mgrwt>
</event>
<event>
 4    1  0.3365401E-008  0.9760079E+03  0.7818608E-02  0.9335258E-01
         -2   -1    0    0    0  501 -0.00000000000E+00  0.00000000000E+00  0.11904699312E+04  0.11904699312E+04  0.25500000000E-02 0.  1.
          2   -1    0    0  501    0  0.00000000000E+00 -0.00000000000E+00 -0.12299454734E+04  0.12299454734E+04  0.25500000000E-02 0. -1.
    8880022    1    1    2    0    0  0.68112498775E+03  0.68210588488E+03  0.69563478137E+03  0.11985403995E+04  0.15294330000E+03 0.  0.
    8880022    1    1    2    0    0 -0.68112498775E+03 -0.68210588488E+03 -0.73511032356E+03  0.12218750050E+04  0.15294330000E+03 0.  0.
<mgrwt>
<rscale>  0 0.97600786E+03</rscale>
<asrwt>0</asrwt>
<pdfrwt beam="1">  1        2 0.18922238E+00 0.97600786E+03</pdfrwt>
<pdfrwt beam="2">  1       -2 0.18314922E+00 0.97600786E+03</pdfrwt>
<totfact> 0.31181120E+00</totfact>
</mgrwt>
</event>
<event>
 4    1  0.3365401E-008  0.2238149E+03  0.7818608E-02  0.1131070E+00
          2   -1    0    0  501    0  0.00000000000E+00  0.00000000000E+00  0.92849687898E+03  0.92849687899E+03  0.25500000000E-02 0. -1.
         -2   -1    0    0    0  501 -0.00000000000E+00 -0.00000000000E+00 -0.12916746398E+03  0.12916746400E+03  0.25500000000E-02 0.  1.
    8880022    1    1    2    0    0 -0.82886235885E+02  0.14082375770E+03  0.80321572975E+03  0.83381569928E+03  0.15294330000E+03 0.  0.
    8880022    1    1    2    0    0  0.82886235885E+02 -0.14082375770E+03 -0.38863147430E+01  0.22384864371E+03  0.15294330000E+03 0.  1.
<mgrwt>
<rscale>  0 0.22381491E+03</rscale>
<asrwt>0</asrwt>
<pdfrwt beam="1">  1        2 0.14284567E+00 0.22381491E+03</pdfrwt>
<pdfrwt beam="2">  1       -2 0.19871918E-01 0.22381491E+03</pdfrwt>
<totfact> 0.62348971E+02</totfact>
</mgrwt>
</event>
<event>
 4    1  0.3365401E-008  0.7102719E+03  0.7818608E-02  0.9699825E-01
         -2   -1    0    0    0  501 -0.00000000000E+00  0.00000000000E+00  0.57794610762E+03  0.57794610763E+03  0.25500000000E-02 0.  1.
          2   -1    0    0  501    0  0.00000000000E+00 -0.00000000000E+00 -0.14299932296E+04  0.14299932296E+04  0.25500000000E-02 0. -1.
    8880022    1    1    2    0    0 -0.41075136524E+03 -0.55890767409E+03  0.20061856492E+03  0.73806092825E+03  0.15294330000E+03 0.  0.
    8880022    1    1    2    0    0  0.41075136524E+03  0.55890767409E+03 -0.10526656869E+04  0.12698784090E+04  0.15294330000E+03 0.  0.
<mgrwt>
<rscale>  0 0.71027187E+03</rscale>
<asrwt>0</asrwt>
<pdfrwt beam="1">  1        2 0.21999896E+00 0.71027187E+03</pdfrwt>
<pdfrwt beam="2">  1       -2 0.88914787E-01 0.71027187E+03</pdfrwt>
<totfact> 0.15544514E+01</totfact>
</mgrwt>
</event>
<event>
 4    1  0.3365401E-008  0.7996056E+03  0.7818608E-02  0.9560588E-01
         -2   -1    0    0    0  501 -0.00000000000E+00  0.00000000000E+00  0.34660884332E+03  0.34660884333E+03  0.25500000000E-02 0.  1.
          2   -1    0    0  501    0  0.00000000000E+00 -0.00000000000E+00 -0.23243640300E+04  0.23243640300E+04  0.25500000000E-02 0. -1.
    8880022    1    1    2    0    0 -0.45327578952E+03 -0.64071719931E+03 -0.15955893052E+04  0.17847336929E+04  0.15294330000E+03 0.  0.
    8880022    1    1    2    0    0  0.45327578952E+03  0.64071719931E+03 -0.38216588148E+03  0.88623918038E+03  0.15294330000E+03 0.  0.
<mgrwt>
<rscale>  0 0.79960561E+03</rscale>
<asrwt>0</asrwt>
<pdfrwt beam="1">  1        2 0.35759446E+00 0.79960561E+03</pdfrwt>
<pdfrwt beam="2">  1       -2 0.53324439E-01 0.79960561E+03</pdfrwt>
<totfact> 0.15066517E+01</totfact>
</mgrwt>
</event>
<event>
 4    1  0.3365401E-008  0.4547089E+03  0.7818608E-02  0.1026327E+00
         -2   -1    0    0    0  501 -0.00000000000E+00  0.00000000000E+00  0.33037148902E+03  0.33037148903E+03  0.25500000000E-02 0.  1.
          2   -1    0    0  501    0  0.00000000000E+00 -0.00000000000E+00 -0.39774130945E+04  0.39774130945E+04  0.25500000000E-02 0. -1.
    8880022    1    1    2    0    0  0.37657403282E+03 -0.20386398042E+03  0.15366682865E+03  0.47997257417E+03  0.15294330000E+03 0.  0.
    8880022    1    1    2    0    0 -0.37657403282E+03  0.20386398042E+03 -0.38007084341E+04  0.38278120093E+04  0.15294330000E+03 0.  0.
<mgrwt>
<rscale>  0 0.45470889E+03</rscale>
<asrwt>0</asrwt>
<pdfrwt beam="1">  1        2 0.61190967E+00 0.45470889E+03</pdfrwt>
<pdfrwt beam="2">  1       -2 0.50826386E-01 0.45470889E+03</pdfrwt>
<totfact> 0.15907887E+00</totfact>
</mgrwt>
</event>
<event>
 4    1  0.3365401E-008  0.5868392E+03  0.7818608E-02  0.9933093E-01
         -2   -1    0    0    0  501 -0.00000000000E+00  0.00000000000E+00  0.52559216035E+03  0.52559216035E+03  0.25500000000E-02 0.  1.
          2   -1    0    0  501    0  0.00000000000E+00 -0.00000000000E+00 -0.11859297314E+04  0.11859297314E+04  0.25500000000E-02 0. -1.
    8880022    1    1    2    0    0  0.42380108797E+03 -0.37600690023E+03  0.24229784914E+03  0.63489247270E+03  0.15294330000E+03 0.  0.
    8880022    1    1    2    0    0 -0.42380108797E+03  0.37600690023E+03 -0.90263542023E+03  0.10766294191E+04  0.15294330000E+03 0.  0.
<mgrwt>
<rscale>  0 0.58683916E+03</rscale>
<asrwt>0</asrwt>
<pdfrwt beam="1">  1        2 0.18245073E+00 0.58683916E+03</pdfrwt>
<pdfrwt beam="2">  1       -2 0.80860333E-01 0.58683916E+03</pdfrwt>
<totfact> 0.27068095E+01</totfact>
</mgrwt>
</event>
<event>
 4    1  0.3365401E-008  0.1110773E+04  0.7818608E-02  0.9194755E-01
         -2   -1    0    0    0  501 -0.00000000000E+00  0.00000000000E+00  0.17076212076E+04  0.17076212076E+04  0.25500000000E-02 0.  1.
          2   -1    0    0  501    0  0.00000000000E+00 -0.00000000000E+00 -0.95301786774E+03  0.95301786775E+03  0.25500000000E-02 0. -1.
    8880022    1    1    2    0    0 -0.21405180020E+02 -0.10999845549E+04 -0.27691996356E+03  0.11447709474E+04  0.15294330000E+03 0.  0.
    8880022    1    1    2    0    0  0.21405180020E+02  0.10999845549E+04  0.10315233034E+04  0.15158681279E+04  0.15294330000E+03 0.  0.
<mgrwt>
<rscale>  0 0.11107726E+04</rscale>
<asrwt>0</asrwt>
<pdfrwt beam="1">  1        2 0.14661813E+00 0.11107726E+04</pdfrwt>
<pdfrwt beam="2">  1       -2 0.26271096E+00 0.11107726E+04</pdfrwt>
<totfact> 0.14299037E+00</totfact>
</mgrwt>
</event>
<event>
 4    1  0.3365401E-008  0.4778245E+03  0.7818608E-02  0.1019735E+00
         -2   -1    0    0    0  501 -0.00000000000E+00  0.00000000000E+00  0.56154558642E+03  0.56154558642E+03  0.25500000000E-02 0.  1.
          2   -1    0    0  501    0  0.00000000000E+00 -0.00000000000E+00 -0.17119433463E+04  0.17119433463E+04  0.25500000000E-02 0. -1.
    8880022    1    1    2    0    0 -0.73328179222E+02  0.44670751455E+03  0.41742095883E+03  0.63447343152E+03  0.15294330000E+03 0.  0.
    8880022    1    1    2    0    0  0.73328179222E+02 -0.44670751455E+03 -0.15678187188E+04  0.16390155012E+04  0.15294330000E+03 0.  0.
<mgrwt>
<rscale>  0 0.47782453E+03</rscale>
<asrwt>0</asrwt>
<pdfrwt beam="1">  1        2 0.26337590E+00 0.47782453E+03</pdfrwt>
<pdfrwt beam="2">  1       -2 0.86391629E-01 0.47782453E+03</pdfrwt>
<totfact> 0.12099282E+01</totfact>
</mgrwt>
</event>
<event>
 4    1  0.3365401E-008  0.9351055E+03  0.7818608E-02  0.9382731E-01
         -2   -1    0    0    0  501 -0.00000000000E+00  0.00000000000E+00  0.58345931644E+03  0.58345931644E+03  0.25500000000E-02 0.  1.
          2   -1    0    0  501    0  0.00000000000E+00 -0.00000000000E+00 -0.24290445974E+04  0.24290445974E+04  0.25500000000E-02 0. -1.
    8880022    1    1    2    0    0  0.81460958038E+03 -0.43294561709E+03 -0.18549839710E+04  0.20773511647E+04  0.15294330000E+03 0.  0.
    8880022    1    1    2    0    0 -0.81460958038E+03  0.43294561709E+03  0.93986900518E+01  0.93515274912E+03  0.15294330000E+03 0.  0.
<mgrwt>
<rscale>  0 0.93510552E+03</rscale>
<asrwt>0</asrwt>
<pdfrwt beam="1">  1        2 0.37369917E+00 0.93510552E+03</pdfrwt>
<pdfrwt beam="2">  1       -2 0.89762973E-01 0.93510552E+03</pdfrwt>
<totfact> 0.41377527E+00</totfact>
</mgrwt>
</event>
<event>
 4    1  0.3365401E-008  0.1388391E+04  0.7818608E-02  0.8962265E-01
         -2   -1    0    0    0  501 -0.00000000000E+00  0.00000000000E+00  0.19304880272E+04  0.19304880272E+04  0.25500000000E-02 0.  1.
          2   -1    0    0  501    0  0.00000000000E+00 -0.00000000000E+00 -0.11824231988E+04  0.11824231988E+04  0.25500000000E-02 0. -1.
    8880022    1    1    2    0    0  0.48658427761E+03 -0.12913067095E+04 -0.23979477088E+03  0.14089465790E+04  0.15294330000E+03 0.  0.
    8880022    1    1    2    0    0 -0.48658427761E+03  0.12913067095E+04  0.98785959933E+03  0.17039646470E+04  0.15294330000E+03 0.  0.
<mgrwt>
<rscale>  0 0.13883908E+04</rscale>
<asrwt>0</asrwt>
<pdfrwt beam="1">  1        2 0.18191126E+00 0.13883908E+04</pdfrwt>
<pdfrwt beam="2">  1       -2 0.29699816E+00 0.13883908E+04</pdfrwt>
<totfact> 0.61489880E-01</totfact>
</mgrwt>
</event>
<event>
 4    1  0.3365401E-008  0.7088115E+03  0.7818608E-02  0.9702281E-01
          2   -1    0    0  501    0  0.00000000000E+00  0.00000000000E+00  0.14333929552E+04  0.14333929552E+04  0.25500000000E-02 0. -1.
         -2   -1    0    0    0  501 -0.00000000000E+00 -0.00000000000E+00 -0.36968164535E+03  0.36968164536E+03  0.25500000000E-02 0.  1.
    8880022    1    1    2    0    0  0.36128189121E+03 -0.59033676341E+03  0.32653271501E+03  0.78040846109E+03  0.15294330000E+03 0.  0.
    8880022    1    1    2    0    0 -0.36128189121E+03  0.59033676341E+03  0.73717859486E+03  0.10226661395E+04  0.15294330000E+03 0.  0.
<mgrwt>
<rscale>  0 0.70881151E+03</rscale>
<asrwt>0</asrwt>
<pdfrwt beam="1">  1        2 0.22052200E+00 0.70881151E+03</pdfrwt>
<pdfrwt beam="2">  1       -2 0.56874098E-01 0.70881151E+03</pdfrwt>
<totfact> 0.41188366E+01</totfact>
</mgrwt>
</event>
<event>
 4    1  0.3365401E-008  0.1405165E+04  0.7818608E-02  0.8950088E-01
         -2   -1    0    0    0  501 -0.00000000000E+00  0.00000000000E+00  0.13694693773E+04  0.13694693773E+04  0.25500000000E-02 0.  1.
          2   -1    0    0  501    0  0.00000000000E+00 -0.00000000000E+00 -0.25282401235E+04  0.25282401235E+04  0.25500000000E-02 0. -1.
    8880022    1    1    2    0    0 -0.12553064919E+04 -0.61262031276E+03 -0.18569263934E+04  0.23286617014E+04  0.15294330000E+03 0.  0.
    8880022    1    1    2    0    0  0.12553064919E+04  0.61262031276E+03  0.69815564720E+03  0.15690477994E+04  0.15294330000E+03 0.  0.
<mgrwt>
<rscale>  0 0.14051654E+04</rscale>
<asrwt>0</asrwt>
<pdfrwt beam="1">  1        2 0.38896002E+00 0.14051654E+04</pdfrwt>
<pdfrwt beam="2">  1       -2 0.21068760E+00 0.14051654E+04</pdfrwt>
<totfact> 0.36087733E-01</totfact>
</mgrwt>
</event>
<event>
 4    1  0.3365401E-008  0.3835745E+03  0.7818608E-02  0.1049620E+00
         -2   -1    0    0    0  501 -0.00000000000E+00  0.00000000000E+00  0.28614223573E+03  0.28614223574E+03  0.25500000000E-02 0.  1.
          2   -1    0    0  501    0  0.00000000000E+00 -0.00000000000E+00 -0.17503936327E+04  0.17503936327E+04  0.25500000000E-02 0. -1.
    8880022    1    1    2    0    0 -0.13233007433E+03 -0.32592407159E+03  0.12361164867E+03  0.40300029989E+03  0.15294330000E+03 0.  0.
    8880022    1    1    2    0    0  0.13233007433E+03  0.32592407159E+03 -0.15878630457E+04  0.16335355686E+04  0.15294330000E+03 0.  0.
<mgrwt>
<rscale>  0 0.38357451E+03</rscale>
<asrwt>0</asrwt>
<pdfrwt beam="1">  1        2 0.26929132E+00 0.38357451E+03</pdfrwt>
<pdfrwt beam="2">  1       -2 0.44021884E-01 0.38357451E+03</pdfrwt>
<totfact> 0.48907749E+01</totfact>
</mgrwt>
</event>
<event>
 4    1  0.3365401E-008  0.1564873E+04  0.7818608E-02  0.8842423E-01
         -2   -1    0    0    0  501 -0.00000000000E+00  0.00000000000E+00  0.87499889807E+03  0.87499889808E+03  0.25500000000E-02 0.  1.
          2   -1    0    0  501    0  0.00000000000E+00 -0.00000000000E+00 -0.32110584772E+04  0.32110584772E+04  0.25500000000E-02 0. -1.
    8880022    1    1    2    0    0  0.15567880485E+04 -0.42967003418E+02 -0.19001921908E+04  0.24616167871E+04  0.15294330000E+03 0.  0.
    8880022    1    1    2    0    0 -0.15567880485E+04  0.42967003418E+02 -0.43586738831E+03  0.16244405882E+04  0.15294330000E+03 0.  0.
<mgrwt>
<rscale>  0 0.15648728E+04</rscale>
<asrwt>0</asrwt>
<pdfrwt beam="1">  1        2 0.49400899E+00 0.15648728E+04</pdfrwt>
<pdfrwt beam="2">  1       -2 0.13461522E+00 0.15648728E+04</pdfrwt>
<totfact> 0.47900379E-01</totfact>
</mgrwt>
</event>
<event>
 4    1  0.3365401E-008  0.8883436E+03  0.7818608E-02  0.9440271E-01
          2   -1    0    0  501    0  0.00000000000E+00  0.00000000000E+00  0.32874249480E+04  0.32874249480E+04  0.25500000000E-02 0. -1.
         -2   -1    0    0    0  501 -0.00000000000E+00 -0.00000000000E+00 -0.44301221978E+03  0.44301221979E+03  0.25500000000E-02 0.  1.
    8880022    1    1    2    0    0  0.61483423959E+03  0.62268897051E+03  0.26846932703E+04  0.28278494134E+04  0.15294330000E+03 0.  0.
    8880022    1    1    2    0    0 -0.61483423959E+03 -0.62268897051E+03  0.15971945792E+03  0.90258775441E+03  0.15294330000E+03 0.  0.
<mgrwt>
<rscale>  0 0.88834360E+03</rscale>
<asrwt>0</asrwt>
<pdfrwt beam="1">  1        2 0.50575771E+00 0.88834360E+03</pdfrwt>
<pdfrwt beam="2">  1       -2 0.68155723E-01 0.88834360E+03</pdfrwt>
<totfact> 0.23479101E+00</totfact>
</mgrwt>
</event>
<event>
 4    1  0.3365401E-008  0.3810166E+03  0.7818608E-02  0.1050559E+00
         -2   -1    0    0    0  501 -0.00000000000E+00  0.00000000000E+00  0.25300967097E+03  0.25300967098E+03  0.25500000000E-02 0.  1.
          2   -1    0    0  501    0  0.00000000000E+00 -0.00000000000E+00 -0.11731621582E+04  0.11731621582E+04  0.25500000000E-02 0. -1.
    8880022    1    1    2    0    0 -0.95173584732E+01  0.34884296472E+03  0.49620927465E+02  0.38423415206E+03  0.15294330000E+03 0.  1.
    8880022    1    1    2    0    0  0.95173584732E+01 -0.34884296472E+03 -0.96977341468E+03  0.10419376771E+04  0.15294330000E+03 0.  0.
<mgrwt>
<rscale>  0 0.38101660E+03</rscale>
<asrwt>0</asrwt>
<pdfrwt beam="1">  1        2 0.18048648E+00 0.38101660E+03</pdfrwt>
<pdfrwt beam="2">  1       -2 0.38924565E-01 0.38101660E+03</pdfrwt>
<totfact> 0.12909996E+02</totfact>
</mgrwt>
</event>
<event>
 4    1  0.3365401E-008  0.2270464E+03  0.7818608E-02  0.1128736E+00
          2   -1    0    0  501    0  0.00000000000E+00  0.00000000000E+00  0.11670025253E+04  0.11670025254E+04  0.25500000000E-02 0. -1.
         -2   -1    0    0    0  501 -0.00000000000E+00 -0.00000000000E+00 -0.92480408668E+02  0.92480408703E+02  0.25500000000E-02 0.  1.
    8880022    1    1    2    0    0 -0.16296141255E+03 -0.40024929537E+02  0.82122077724E+02  0.24144172305E+03  0.15294330000E+03 0.  1.
    8880022    1    1    2    0    0  0.16296141255E+03  0.40024929537E+02  0.99240003896E+03  0.10180412110E+04  0.15294330000E+03 0.  0.
<mgrwt>
<rscale>  0 0.22704640E+03</rscale>
<asrwt>0</asrwt>
<pdfrwt beam="1">  1        2 0.17953885E+00 0.22704640E+03</pdfrwt>
<pdfrwt beam="2">  1       -2 0.14227755E-01 0.22704640E+03</pdfrwt>
<totfact> 0.78500379E+02</totfact>
</mgrwt>
</event>
<event>
 4    1  0.3365401E-008  0.8925971E+03  0.7818608E-02  0.9434883E-01
         -2   -1    0    0    0  501 -0.00000000000E+00  0.00000000000E+00  0.53319719795E+03  0.53319719796E+03  0.25500000000E-02 0.  1.
          2   -1    0    0  501    0  0.00000000000E+00 -0.00000000000E+00 -0.22259624244E+04  0.22259624244E+04  0.25500000000E-02 0. -1.
    8880022    1    1    2    0    0 -0.76442521558E+03 -0.43473211903E+03 -0.55415700597E+02  0.89431564809E+03  0.15294330000E+03 0.  1.
    8880022    1    1    2    0    0  0.76442521558E+03  0.43473211903E+03 -0.16373495258E+04  0.18648439743E+04  0.15294330000E+03 0.  0.
<mgrwt>
<rscale>  0 0.89259710E+03</rscale>
<asrwt>0</asrwt>
<pdfrwt beam="1">  1        2 0.34245575E+00 0.89259710E+03</pdfrwt>
<pdfrwt beam="2">  1       -2 0.82030339E-01 0.89259710E+03</pdfrwt>
<totfact> 0.66483917E+00</totfact>
</mgrwt>
</event>
<event>
 4    1  0.3365401E-008  0.2984388E+03  0.7818608E-02  0.1086024E+00
         -2   -1    0    0    0  501 -0.00000000000E+00  0.00000000000E+00  0.40359736436E+03  0.40359736436E+03  0.25500000000E-02 0.  1.
          2   -1    0    0  501    0  0.00000000000E+00 -0.00000000000E+00 -0.12937131708E+04  0.12937131708E+04  0.25500000000E-02 0. -1.
    8880022    1    1    2    0    0 -0.15647613838E+03 -0.20295145103E+03 -0.12179501583E+04  0.12539809865E+04  0.15294330000E+03 0. -1.
    8880022    1    1    2    0    0  0.15647613838E+03  0.20295145103E+03  0.32783435192E+03  0.44332954861E+03  0.15294330000E+03 0.  0.
<mgrwt>
<rscale>  0 0.29843882E+03</rscale>
<asrwt>0</asrwt>
<pdfrwt beam="1">  1        2 0.19903279E+00 0.29843882E+03</pdfrwt>
<pdfrwt beam="2">  1       -2 0.62091903E-01 0.29843882E+03</pdfrwt>
<totfact> 0.43914402E+01</totfact>
</mgrwt>
</event>
<event>
 4    1  0.3365401E-008  0.1066461E+04  0.7818608E-02  0.9238513E-01
         -2   -1    0    0    0  501 -0.00000000000E+00  0.00000000000E+00  0.88057759570E+03  0.88057759571E+03  0.25500000000E-02 0.  1.
          2   -1    0    0  501    0  0.00000000000E+00 -0.00000000000E+00 -0.15425100694E+04  0.15425100694E+04  0.25500000000E-02 0. -1.
    8880022    1    1    2    0    0  0.30247953904E+03  0.10111639819E+04 -0.81961836938E+03  0.13450324882E+04  0.15294330000E+03 0.  0.
    8880022    1    1    2    0    0 -0.30247953904E+03 -0.10111639819E+04  0.15768589571E+03  0.10780551769E+04  0.15294330000E+03 0.  0.
<mgrwt>
<rscale>  0 0.10664606E+04</rscale>
<asrwt>0</asrwt>
<pdfrwt beam="1">  1        2 0.23730924E+00 0.10664606E+04</pdfrwt>
<pdfrwt beam="2">  1       -2 0.13547348E+00 0.10664606E+04</pdfrwt>
<totfact> 0.46321636E+00</totfact>
</mgrwt>
</event>
<event>
 4    1  0.3365401E-008  0.3247698E+03  0.7818608E-02  0.1073475E+00
         -2   -1    0    0    0  501 -0.00000000000E+00  0.00000000000E+00  0.20226520466E+03  0.20226520467E+03  0.25500000000E-02 0.  1.
          2   -1    0    0  501    0  0.00000000000E+00 -0.00000000000E+00 -0.15811003514E+04  0.15811003514E+04  0.25500000000E-02 0. -1.
    8880022    1    1    2    0    0  0.76103691559E+01  0.28640159889E+03 -0.14193919953E+04  0.14560731722E+04  0.15294330000E+03 0.  0.
    8880022    1    1    2    0    0 -0.76103691559E+01 -0.28640159889E+03  0.40556848519E+02  0.32729238388E+03  0.15294330000E+03 0.  0.
<mgrwt>
<rscale>  0 0.32476984E+03</rscale>
<asrwt>0</asrwt>
<pdfrwt beam="1">  1        2 0.24324620E+00 0.32476984E+03</pdfrwt>
<pdfrwt beam="2">  1       -2 0.31117725E-01 0.32476984E+03</pdfrwt>
<totfact> 0.11794342E+02</totfact>
</mgrwt>
</event>
<event>
 4    1  0.3365401E-008  0.2928619E+03  0.7818608E-02  0.1088864E+00
          2   -1    0    0  501    0  0.00000000000E+00  0.00000000000E+00  0.14653971450E+04  0.14653971450E+04  0.25500000000E-02 0. -1.
         -2   -1    0    0    0  501 -0.00000000000E+00 -0.00000000000E+00 -0.88797644210E+02  0.88797644246E+02  0.25500000000E-02 0.  1.
    8880022    1    1    2    0    0 -0.24871743293E+03  0.22717234355E+02  0.23459647782E+03  0.37523805057E+03  0.15294330000E+03 0.  0.
    8880022    1    1    2    0    0  0.24871743293E+03 -0.22717234355E+02  0.11420030230E+04  0.11789567387E+04  0.15294330000E+03 0.  0.
<mgrwt>
<rscale>  0 0.29286189E+03</rscale>
<asrwt>0</asrwt>
<pdfrwt beam="1">  1        2 0.22544570E+00 0.29286189E+03</pdfrwt>
<pdfrwt beam="2">  1       -2 0.13661177E-01 0.29286189E+03</pdfrwt>
<totfact> 0.57002827E+02</totfact>
</mgrwt>
</event>
<event>
 4    1  0.3365401E-008  0.5616833E+03  0.7818608E-02  0.9988253E-01
          2   -1    0    0  501    0  0.00000000000E+00  0.00000000000E+00  0.28340076191E+04  0.28340076191E+04  0.25500000000E-02 0. -1.
         -2   -1    0    0    0  501 -0.00000000000E+00 -0.00000000000E+00 -0.74354137778E+03  0.74354137778E+03  0.25500000000E-02 0.  1.
    8880022    1    1    2    0    0 -0.53912741206E+03  0.37921878537E+02  0.26946743329E+04  0.27525911154E+04  0.15294330000E+03 0.  0.
    8880022    1    1    2    0    0  0.53912741206E+03 -0.37921878537E+02 -0.60420809156E+03  0.82495788148E+03  0.15294330000E+03 0.  0.
<mgrwt>
<rscale>  0 0.56168326E+03</rscale>
<asrwt>0</asrwt>
<pdfrwt beam="1">  1        2 0.43600118E+00 0.56168326E+03</pdfrwt>
<pdfrwt beam="2">  1       -2 0.11439098E+00 0.56168326E+03</pdfrwt>
<totfact> 0.14659638E+00</totfact>
</mgrwt>
</event>
<event>
 4    1  0.3365401E-008  0.2395028E+03  0.7818608E-02  0.1120124E+00
         -2   -1    0    0    0  501 -0.00000000000E+00  0.00000000000E+00  0.31801292273E+03  0.31801292274E+03  0.25500000000E-02 0.  1.
          2   -1    0    0  501    0  0.00000000000E+00 -0.00000000000E+00 -0.94008321510E+03  0.94008321511E+03  0.25500000000E-02 0. -1.
    8880022    1    1    2    0    0  0.17430689020E+03  0.59892108395E+02 -0.87652402689E+03  0.90865613922E+03  0.15294330000E+03 0.  0.
    8880022    1    1    2    0    0 -0.17430689020E+03 -0.59892108395E+02  0.25445373451E+03  0.34943999863E+03  0.15294330000E+03 0.  1.
<mgrwt>
<rscale>  0 0.23950284E+03</rscale>
<asrwt>0</asrwt>
<pdfrwt beam="1">  1        2 0.14462819E+00 0.23950284E+03</pdfrwt>
<pdfrwt beam="2">  1       -2 0.48925066E-01 0.23950284E+03</pdfrwt>
<totfact> 0.11698718E+02</totfact>
</mgrwt>
</event>
<event>
 4    1  0.3365401E-008  0.2872837E+03  0.7818608E-02  0.1091776E+00
          2   -1    0    0  501    0  0.00000000000E+00  0.00000000000E+00  0.10726512667E+03  0.10726512670E+03  0.25500000000E-02 0. -1.
         -2   -1    0    0    0  501 -0.00000000000E+00 -0.00000000000E+00 -0.97654246157E+03  0.97654246157E+03  0.25500000000E-02 0.  1.
    8880022    1    1    2    0    0 -0.23091273247E+03  0.76286018398E+02 -0.18506971332E+03  0.34173483642E+03  0.15294330000E+03 0.  0.
    8880022    1    1    2    0    0  0.23091273247E+03 -0.76286018398E+02 -0.68420762157E+03  0.74207275186E+03  0.15294330000E+03 0.  0.
<mgrwt>
<rscale>  0 0.28728366E+03</rscale>
<asrwt>0</asrwt>
<pdfrwt beam="1">  1        2 0.16502328E-01 0.28728366E+03</pdfrwt>
<pdfrwt beam="2">  1       -2 0.15023730E+00 0.28728366E+03</pdfrwt>
<totfact> 0.11008592E+02</totfact>
</mgrwt>
</event>
<event>
 4    1  0.3365401E-008  0.4946579E+03  0.7818608E-02  0.1015183E+00
         -2   -1    0    0    0  501 -0.00000000000E+00  0.00000000000E+00  0.23866130099E+03  0.23866130100E+03  0.25500000000E-02 0.  1.
          2   -1    0    0  501    0  0.00000000000E+00 -0.00000000000E+00 -0.11850826623E+04  0.11850826623E+04  0.25500000000E-02 0. -1.
    8880022    1    1    2    0    0 -0.13775267779E+03 -0.44979883529E+03 -0.21177410840E+03  0.53808430424E+03  0.15294330000E+03 0.  0.
    8880022    1    1    2    0    0  0.13775267779E+03  0.44979883529E+03 -0.73464725290E+03  0.88565965905E+03  0.15294330000E+03 0. -1.
<mgrwt>
<rscale>  0 0.49465791E+03</rscale>
<asrwt>0</asrwt>
<pdfrwt beam="1">  1        2 0.18232041E+00 0.49465791E+03</pdfrwt>
<pdfrwt beam="2">  1       -2 0.36717124E-01 0.49465791E+03</pdfrwt>
<totfact> 0.14004267E+02</totfact>
</mgrwt>
</event>
<event>
 4    1  0.3365401E-008  0.5746689E+03  0.7818608E-02  0.9959400E-01
          2   -1    0    0  501    0  0.00000000000E+00  0.00000000000E+00  0.81231003601E+03  0.81231003601E+03  0.25500000000E-02 0. -1.
         -2   -1    0    0    0  501 -0.00000000000E+00 -0.00000000000E+00 -0.72282941803E+03  0.72282941804E+03  0.25500000000E-02 0.  1.
    8880022    1    1    2    0    0 -0.55357754630E+03  0.20115008237E+02  0.55247358733E+03  0.79716461978E+03  0.15294330000E+03 0.  0.
    8880022    1    1    2    0    0  0.55357754630E+03 -0.20115008237E+02 -0.46299296936E+03  0.73797483427E+03  0.15294330000E+03 0.  0.
<mgrwt>
<rscale>  0 0.57466892E+03</rscale>
<asrwt>0</asrwt>
<pdfrwt beam="1">  1        2 0.12497077E+00 0.57466892E+03</pdfrwt>
<pdfrwt beam="2">  1       -2 0.11120453E+00 0.57466892E+03</pdfrwt>
<totfact> 0.22335160E+01</totfact>
</mgrwt>
</event>
<event>
 4    1  0.3365401E-008  0.3318014E+03  0.7818608E-02  0.1070343E+00
          2   -1    0    0  501    0  0.00000000000E+00  0.00000000000E+00  0.15355275783E+04  0.15355275783E+04  0.25500000000E-02 0. -1.
         -2   -1    0    0    0  501 -0.00000000000E+00 -0.00000000000E+00 -0.23647329162E+03  0.23647329164E+03  0.25500000000E-02 0.  1.
    8880022    1    1    2    0    0 -0.25075496974E+03 -0.15434535064E+03  0.13891165810E+04  0.14281936391E+04  0.15294330000E+03 0.  0.
    8880022    1    1    2    0    0  0.25075496974E+03  0.15434535064E+03 -0.90062294319E+02  0.34380723085E+03  0.15294330000E+03 0.  0.
<mgrwt>
<rscale>  0 0.33180144E+03</rscale>
<asrwt>0</asrwt>
<pdfrwt beam="1">  1        2 0.23623502E+00 0.33180144E+03</pdfrwt>
<pdfrwt beam="2">  1       -2 0.36380506E-01 0.33180144E+03</pdfrwt>
<totfact> 0.93089993E+01</totfact>
</mgrwt>
</event>
<event>
 4    1  0.3365401E-008  0.6696136E+03  0.7818608E-02  0.9770656E-01
         -2   -1    0    0    0  501 -0.00000000000E+00  0.00000000000E+00  0.27599564998E+03  0.27599564999E+03  0.25500000000E-02 0.  1.
          2   -1    0    0  501    0  0.00000000000E+00 -0.00000000000E+00 -0.28889578331E+04  0.28889578331E+04  0.25500000000E-02 0. -1.
    8880022    1    1    2    0    0  0.61279191982E+03  0.22243363923E+03 -0.25958911275E+03  0.71817046815E+03  0.15294330000E+03 0.  0.
    8880022    1    1    2    0    0 -0.61279191982E+03 -0.22243363923E+03 -0.23533730703E+04  0.24467830149E+04  0.15294330000E+03 0.  0.
<mgrwt>
<rscale>  0 0.66961356E+03</rscale>
<asrwt>0</asrwt>
<pdfrwt beam="1">  1        2 0.44445503E+00 0.66961356E+03</pdfrwt>
<pdfrwt beam="2">  1       -2 0.42460871E-01 0.66961356E+03</pdfrwt>
<totfact> 0.11535416E+01</totfact>
</mgrwt>
</event>
<event>
 4    1  0.3365401E-008  0.6342310E+03  0.7818608E-02  0.9836827E-01
          2   -1    0    0  501    0  0.00000000000E+00  0.00000000000E+00  0.14703736169E+04  0.14703736169E+04  0.25500000000E-02 0. -1.
         -2   -1    0    0    0  501 -0.00000000000E+00 -0.00000000000E+00 -0.39925713465E+03  0.39925713465E+03  0.25500000000E-02 0.  1.
    8880022    1    1    2    0    0  0.29446892815E+03  0.54050471444E+03  0.10600591940E+04  0.12353033813E+04  0.15294330000E+03 0.  0.
    8880022    1    1    2    0    0 -0.29446892815E+03 -0.54050471444E+03  0.11057288195E+02  0.63432737023E+03  0.15294330000E+03 0.  0.
<mgrwt>
<rscale>  0 0.63423099E+03</rscale>
<asrwt>0</asrwt>
<pdfrwt beam="1">  1        2 0.22621132E+00 0.63423099E+03</pdfrwt>
<pdfrwt beam="2">  1       -2 0.61424176E-01 0.63423099E+03</pdfrwt>
<totfact> 0.33715131E+01</totfact>
</mgrwt>
</event>
<event>
 4    1  0.3365401E-008  0.6650247E+03  0.7818608E-02  0.9778988E-01
          2   -1    0    0  501    0  0.00000000000E+00  0.00000000000E+00  0.16143839885E+04  0.16143839885E+04  0.25500000000E-02 0. -1.
         -2   -1    0    0    0  501 -0.00000000000E+00 -0.00000000000E+00 -0.51321314688E+03  0.51321314689E+03  0.25500000000E-02 0.  1.
    8880022    1    1    2    0    0  0.37209843145E+03 -0.52953660284E+03 -0.17577115515E+03  0.68786147474E+03  0.15294330000E+03 0.  0.
    8880022    1    1    2    0    0 -0.37209843145E+03  0.52953660284E+03  0.12769419968E+04  0.14397356607E+04  0.15294330000E+03 0.  0.
<mgrwt>
<rscale>  0 0.66502474E+03</rscale>
<asrwt>0</asrwt>
<pdfrwt beam="1">  1        2 0.24836677E+00 0.66502474E+03</pdfrwt>
<pdfrwt beam="2">  1       -2 0.78955869E-01 0.66502474E+03</pdfrwt>
<totfact> 0.16186815E+01</totfact>
</mgrwt>
</event>
<event>
 4    1  0.3365401E-008  0.1534058E+04  0.7818608E-02  0.8862115E-01
         -2   -1    0    0    0  501 -0.00000000000E+00  0.00000000000E+00  0.67157281081E+03  0.67157281081E+03  0.25500000000E-02 0.  1.
          2   -1    0    0  501    0  0.00000000000E+00 -0.00000000000E+00 -0.40420341898E+04  0.40420341898E+04  0.25500000000E-02 0. -1.
    8880022    1    1    2    0    0 -0.36128668718E+03 -0.14830421292E+04 -0.82553918589E+03  0.17420816938E+04  0.15294330000E+03 0.  0.
    8880022    1    1    2    0    0  0.36128668718E+03  0.14830421292E+04 -0.25449221931E+04  0.29715253068E+04  0.15294330000E+03 0.  0.
<mgrwt>
<rscale>  0 0.15340579E+04</rscale>
<asrwt>0</asrwt>
<pdfrwt beam="1">  1        2 0.62185140E+00 0.15340579E+04</pdfrwt>
<pdfrwt beam="2">  1       -2 0.10331890E+00 0.15340579E+04</pdfrwt>
<totfact> 0.23329758E-01</totfact>
</mgrwt>
</event>
<event>
 4    1  0.3365401E-008  0.1586493E+03  0.7818608E-02  0.1190230E+00
         -2   -1    0    0    0  501 -0.00000000000E+00  0.00000000000E+00  0.11126895362E+04  0.11126895362E+04  0.25500000000E-02 0.  1.
          2   -1    0    0  501    0  0.00000000000E+00 -0.00000000000E+00 -0.12208169042E+03  0.12208169045E+03  0.25500000000E-02 0. -1.
    8880022    1    1    2    0    0 -0.34002123096E+02 -0.24936212169E+02 -0.61956279457E+02  0.17031791635E+03  0.15294330000E+03 0.  0.
    8880022    1    1    2    0    0  0.34002123096E+02  0.24936212169E+02  0.10525641252E+04  0.10644533103E+04  0.15294330000E+03 0.  1.
<mgrwt>
<rscale>  0 0.15864934E+03</rscale>
<asrwt>0</asrwt>
<pdfrwt beam="1">  1        2 0.18781798E-01 0.15864934E+03</pdfrwt>
<pdfrwt beam="2">  1       -2 0.17118301E+00 0.15864934E+03</pdfrwt>
<totfact> 0.67907972E+01</totfact>
</mgrwt>
</event>
<event>
 4    1  0.3465168E-008  0.7609725E+03  0.7818608E-02  0.9618292E-01
          2   -1    0    0  501    0  0.00000000000E+00  0.00000000000E+00  0.27758402235E+04  0.27758402235E+04  0.25500000000E-02 0. -1.
         -2   -1    0    0    0  501 -0.00000000000E+00 -0.00000000000E+00 -0.88576616355E+03  0.88576616356E+03  0.25500000000E-02 0.  1.
    8880022    1    1    2    0    0  0.56677375971E+02 -0.74328673060E+03 -0.65571939030E+03  0.10045133452E+04  0.15294330000E+03 0.  0.
    8880022    1    1    2    0    0 -0.56677375971E+02  0.74328673060E+03  0.25457934503E+04  0.26570930419E+04  0.15294330000E+03 0. -1.
<mgrwt>
<rscale>  0 0.76097250E+03</rscale>
<asrwt>0</asrwt>
<pdfrwt beam="1">  1        2 0.42705234E+00 0.76097250E+03</pdfrwt>
<pdfrwt beam="2">  1       -2 0.13627172E+00 0.76097250E+03</pdfrwt>
<totfact> 0.97472694E-01</totfact>
</mgrwt>
</event>
<event>
 4    1  0.3365401E-008  0.1031371E+04  0.7818608E-02  0.9274792E-01
         -2   -1    0    0    0  501 -0.00000000000E+00  0.00000000000E+00  0.12276637670E+04  0.12276637670E+04  0.25500000000E-02 0.  1.
          2   -1    0    0  501    0  0.00000000000E+00 -0.00000000000E+00 -0.94554989780E+03  0.94554989781E+03  0.25500000000E-02 0. -1.
    8880022    1    1    2    0    0  0.81225708279E+03  0.61690576356E+03 -0.17319711520E+03  0.10458122123E+04  0.15294330000E+03 0.  0.
    8880022    1    1    2    0    0 -0.81225708279E+03 -0.61690576356E+03  0.45531098443E+03  0.11274014525E+04  0.15294330000E+03 0.  0.
<mgrwt>
<rscale>  0 0.10313709E+04</rscale>
<asrwt>0</asrwt>
<pdfrwt beam="1">  1        2 0.14546922E+00 0.10313709E+04</pdfrwt>
<pdfrwt beam="2">  1       -2 0.18887135E+00 0.10313709E+04</pdfrwt>
<totfact> 0.42622655E+00</totfact>
</mgrwt>
</event>
<event>
 4    1  0.3365401E-008  0.2335133E+03  0.7818608E-02  0.1124191E+00
         -2   -1    0    0    0  501 -0.00000000000E+00  0.00000000000E+00  0.14960478948E+03  0.14960478951E+03  0.25500000000E-02 0.  1.
          2   -1    0    0  501    0  0.00000000000E+00 -0.00000000000E+00 -0.75232839487E+03  0.75232839488E+03  0.25500000000E-02 0. -1.
    8880022    1    1    2    0    0 -0.10999401009E+01  0.17645286122E+03 -0.62515646958E+03  0.66734480336E+03  0.15294330000E+03 0.  0.
    8880022    1    1    2    0    0  0.10999401009E+01 -0.17645286122E+03  0.22432864188E+02  0.23458838103E+03  0.15294330000E+03 0.  0.
<mgrwt>
<rscale>  0 0.23351333E+03</rscale>
<asrwt>0</asrwt>
<pdfrwt beam="1">  1        2 0.11574283E+00 0.23351333E+03</pdfrwt>
<pdfrwt beam="2">  1       -2 0.23016122E-01 0.23351333E+03</pdfrwt>
<totfact> 0.63494085E+02</totfact>
</mgrwt>
</event>
<event>
 4    1  0.3365401E-008  0.4426939E+03  0.7818608E-02  0.1029923E+00
          2   -1    0    0  501    0  0.00000000000E+00  0.00000000000E+00  0.10892347898E+03  0.10892347901E+03  0.25500000000E-02 0. -1.
         -2   -1    0    0    0  501 -0.00000000000E+00 -0.00000000000E+00 -0.31283491296E+04  0.31283491296E+04  0.25500000000E-02 0.  1.
    8880022    1    1    2    0    0  0.41463387436E+03 -0.25788129101E+02 -0.45465973287E+03  0.63458128169E+03  0.15294330000E+03 0.  0.
    8880022    1    1    2    0    0 -0.41463387436E+03  0.25788129101E+02 -0.25647659177E+04  0.26026913269E+04  0.15294330000E+03 0.  0.
<mgrwt>
<rscale>  0 0.44269395E+03</rscale>
<asrwt>0</asrwt>
<pdfrwt beam="1">  1        2 0.16757461E-01 0.44269395E+03</pdfrwt>
<pdfrwt beam="2">  1       -2 0.48128441E+00 0.44269395E+03</pdfrwt>
<totfact> 0.85709467E-01</totfact>
</mgrwt>
</event>
<event>
 4    1  0.3365401E-008  0.3906819E+03  0.7818608E-02  0.1047055E+00
         -2   -1    0    0    0  501 -0.00000000000E+00  0.00000000000E+00  0.78878539966E+02  0.78878540007E+02  0.25500000000E-02 0.  1.
          2   -1    0    0  501    0  0.00000000000E+00 -0.00000000000E+00 -0.22276944255E+04  0.22276944255E+04  0.25500000000E-02 0. -1.
    8880022    1    1    2    0    0  0.35380753279E+03  0.63725592181E+02 -0.14924250435E+04  0.15427134811E+04  0.15294330000E+03 0.  0.
    8880022    1    1    2    0    0 -0.35380753279E+03 -0.63725592181E+02 -0.65639084202E+03  0.76385948437E+03  0.15294330000E+03 0.  0.
<mgrwt>
<rscale>  0 0.39068194E+03</rscale>
<asrwt>0</asrwt>
<pdfrwt beam="1">  1        2 0.34272217E+00 0.39068194E+03</pdfrwt>
<pdfrwt beam="2">  1       -2 0.12135162E-01 0.39068194E+03</pdfrwt>
<totfact> 0.26758089E+02</totfact>
</mgrwt>
</event>
<event>
 4    1  0.3365401E-008  0.4701961E+03  0.7818608E-02  0.1021865E+00
          2   -1    0    0  501    0  0.00000000000E+00  0.00000000000E+00  0.92615476786E+03  0.92615476786E+03  0.25500000000E-02 0. -1.
         -2   -1    0    0    0  501 -0.00000000000E+00 -0.00000000000E+00 -0.10821141339E+04  0.10821141340E+04  0.25500000000E-02 0.  1.
    8880022    1    1    2    0    0 -0.36068509207E+03 -0.25999795758E+03  0.80850790882E+03  0.93529105910E+03  0.15294330000E+03 0. -1.
    8880022    1    1    2    0    0  0.36068509207E+03  0.25999795758E+03 -0.96446727491E+03  0.10729778427E+04  0.15294330000E+03 0.  0.
<mgrwt>
<rscale>  0 0.47019605E+03</rscale>
<asrwt>0</asrwt>
<pdfrwt beam="1">  1        2 0.14248535E+00 0.47019605E+03</pdfrwt>
<pdfrwt beam="2">  1       -2 0.16647910E+00 0.47019605E+03</pdfrwt>
<totfact> 0.67802230E+00</totfact>
</mgrwt>
</event>
<event>
 4    1  0.3365401E-008  0.3588976E+03  0.7818608E-02  0.1059021E+00
          2   -1    0    0  501    0  0.00000000000E+00  0.00000000000E+00  0.92291544336E+03  0.92291544337E+03  0.25500000000E-02 0. -1.
         -2   -1    0    0    0  501 -0.00000000000E+00 -0.00000000000E+00 -0.31862819770E+03  0.31862819771E+03  0.25500000000E-02 0.  1.
    8880022    1    1    2    0    0 -0.29857765732E+03 -0.12754297728E+03 -0.16321956272E+03  0.39426907965E+03  0.15294330000E+03 0.  0.
    8880022    1    1    2    0    0  0.29857765732E+03  0.12754297728E+03  0.76750680838E+03  0.84727456142E+03  0.15294330000E+03 0.  0.
<mgrwt>
<rscale>  0 0.35889759E+03</rscale>
<asrwt>0</asrwt>
<pdfrwt beam="1">  1        2 0.14198699E+00 0.35889759E+03</pdfrwt>
<pdfrwt beam="2">  1       -2 0.49019723E-01 0.35889759E+03</pdfrwt>
<totfact> 0.11716575E+02</totfact>
</mgrwt>
</event>
<event>
 4    1  0.3365401E-008  0.1335231E+04  0.7818608E-02  0.9002084E-01
         -2   -1    0    0    0  501 -0.00000000000E+00  0.00000000000E+00  0.15156884173E+04  0.15156884173E+04  0.25500000000E-02 0.  1.
          2   -1    0    0  501    0  0.00000000000E+00 -0.00000000000E+00 -0.14765463147E+04  0.14765463147E+04  0.25500000000E-02 0. -1.
    8880022    1    1    2    0    0 -0.84325186922E+03 -0.10239019359E+04  0.69427209725E+03  0.15049432838E+04  0.15294330000E+03 0.  0.
    8880022    1    1    2    0    0  0.84325186922E+03  0.10239019359E+04 -0.65512999467E+03  0.14872914483E+04  0.15294330000E+03 0.  0.
<mgrwt>
<rscale>  0 0.13352305E+04</rscale>
<asrwt>0</asrwt>
<pdfrwt beam="1">  1        2 0.22716097E+00 0.13352305E+04</pdfrwt>
<pdfrwt beam="2">  1       -2 0.23318283E+00 0.13352305E+04</pdfrwt>
<totfact> 0.10222855E+00</totfact>
</mgrwt>
</event>
<event>
 4    1  0.3365401E-008  0.2140548E+03  0.7818608E-02  0.1138395E+00
          2   -1    0    0  501    0  0.00000000000E+00  0.00000000000E+00  0.11591710710E+04  0.11591710710E+04  0.25500000000E-02 0. -1.
         -2   -1    0    0    0  501 -0.00000000000E+00 -0.00000000000E+00 -0.19323883940E+03  0.19323883942E+03  0.25500000000E-02 0.  1.
    8880022    1    1    2    0    0 -0.79331832160E+02 -0.12702069701E+03 -0.12012607860E+03  0.24545819367E+03  0.15294330000E+03 0.  0.
    8880022    1    1    2    0    0  0.79331832160E+02  0.12702069701E+03  0.10860583102E+04  0.11069517168E+04  0.15294330000E+03 0.  0.
<mgrwt>
<rscale>  0 0.21405478E+03</rscale>
<asrwt>0</asrwt>
<pdfrwt beam="1">  1        2 0.17833402E+00 0.21405478E+03</pdfrwt>
<pdfrwt beam="2">  1       -2 0.29729051E-01 0.21405478E+03</pdfrwt>
<totfact> 0.22366029E+02</totfact>
</mgrwt>
</event>
<event>
 4    1  0.3365401E-008  0.5924605E+03  0.7818608E-02  0.9921173E-01
         -2   -1    0    0    0  501 -0.00000000000E+00  0.00000000000E+00  0.29908576781E+03  0.29908576782E+03  0.25500000000E-02 0.  1.
          2   -1    0    0  501    0  0.00000000000E+00 -0.00000000000E+00 -0.19368706911E+04  0.19368706911E+04  0.25500000000E-02 0. -1.
    8880022    1    1    2    0    0  0.56575153962E+03  0.86850455279E+02 -0.11708167158E+03  0.60391851851E+03  0.15294330000E+03 0.  0.
    8880022    1    1    2    0    0 -0.56575153962E+03 -0.86850455279E+02 -0.15207032517E+04  0.16320379404E+04  0.15294330000E+03 0.  0.
<mgrwt>
<rscale>  0 0.59246051E+03</rscale>
<asrwt>0</asrwt>
<pdfrwt beam="1">  1        2 0.29798010E+00 0.59246051E+03</pdfrwt>
<pdfrwt beam="2">  1       -2 0.46013196E-01 0.59246051E+03</pdfrwt>
<totfact> 0.34197684E+01</totfact>
</mgrwt>
</event>
<event>
 4    1  0.3365401E-008  0.2152734E+03  0.7818608E-02  0.1137457E+00
          2   -1    0    0  501    0  0.00000000000E+00  0.00000000000E+00  0.68565909564E+03  0.68565909564E+03  0.25500000000E-02 0. -1.
         -2   -1    0    0    0  501 -0.00000000000E+00 -0.00000000000E+00 -0.12180173226E+03  0.12180173228E+03  0.25500000000E-02 0.  1.
    8880022    1    1    2    0    0  0.13035767718E+03 -0.77187201868E+02  0.55127903689E+03  0.59182025789E+03  0.15294330000E+03 0.  0.
    8880022    1    1    2    0    0 -0.13035767718E+03  0.77187201868E+02  0.12578326496E+02  0.21564057003E+03  0.15294330000E+03 0.  0.
<mgrwt>
<rscale>  0 0.21527341E+03</rscale>
<asrwt>0</asrwt>
<pdfrwt beam="1">  1        2 0.10548601E+00 0.21527341E+03</pdfrwt>
<pdfrwt beam="2">  1       -2 0.18738729E-01 0.21527341E+03</pdfrwt>
<totfact> 0.10131124E+03</totfact>
</mgrwt>
</event>
<event>
 4    1  0.3365401E-008  0.8536361E+03  0.7818608E-02  0.9485470E-01
          2   -1    0    0  501    0  0.00000000000E+00  0.00000000000E+00  0.25109772853E+04  0.25109772853E+04  0.25500000000E-02 0. -1.
         -2   -1    0    0    0  501 -0.00000000000E+00 -0.00000000000E+00 -0.59588382387E+03  0.59588382387E+03  0.25500000000E-02 0.  1.
    8880022    1    1    2    0    0  0.70344387588E+03  0.45876969582E+03  0.20701612870E+04  0.22392548598E+04  0.15294330000E+03 0.  0.
    8880022    1    1    2    0    0 -0.70344387588E+03 -0.45876969582E+03 -0.15506782554E+03  0.86760624931E+03  0.15294330000E+03 0.  0.
<mgrwt>
<rscale>  0 0.85363609E+03</rscale>
<asrwt>0</asrwt>
<pdfrwt beam="1">  1        2 0.38630420E+00 0.85363609E+03</pdfrwt>
<pdfrwt beam="2">  1       -2 0.91674434E-01 0.85363609E+03</pdfrwt>
<totfact> 0.35841104E+00</totfact>
</mgrwt>
</event>
<event>
 4    1  0.3365401E-008  0.8584991E+03  0.7818608E-02  0.9479000E-01
         -2   -1    0    0    0  501 -0.00000000000E+00  0.00000000000E+00  0.55419636384E+03  0.55419636385E+03  0.25500000000E-02 0.  1.
          2   -1    0    0  501    0  0.00000000000E+00 -0.00000000000E+00 -0.17244806308E+04  0.17244806308E+04  0.25500000000E-02 0. -1.
    8880022    1    1    2    0    0 -0.70502530238E+03 -0.46536911268E+03 -0.40142184899E+02  0.85943710419E+03  0.15294330000E+03 0.  0.
    8880022    1    1    2    0    0  0.70502530238E+03  0.46536911268E+03 -0.11301420821E+04  0.14192398905E+04  0.15294330000E+03 0.  0.
<mgrwt>
<rscale>  0 0.85849912E+03</rscale>
<asrwt>0</asrwt>
<pdfrwt beam="1">  1        2 0.26530471E+00 0.85849912E+03</pdfrwt>
<pdfrwt beam="2">  1       -2 0.85260980E-01 0.85849912E+03</pdfrwt>
<totfact> 0.11536587E+01</totfact>
</mgrwt>
</event>
<event>
 4    1  0.3478792E-008  0.1171114E+04  0.7818608E-02  0.9138523E-01
          2   -1    0    0  501    0  0.00000000000E+00  0.00000000000E+00  0.22311585327E+04  0.22311585327E+04  0.25500000000E-02 0. -1.
         -2   -1    0    0    0  501 -0.00000000000E+00 -0.00000000000E+00 -0.14325913981E+04  0.14325913981E+04  0.25500000000E-02 0.  1.
    8880022    1    1    2    0    0  0.21177479405E+03 -0.11416076408E+04  0.17834256881E+04  0.21335687022E+04  0.15294330000E+03 0.  0.
    8880022    1    1    2    0    0 -0.21177479405E+03  0.11416076408E+04 -0.98485855354E+03  0.15301812287E+04  0.15294330000E+03 0.  0.
<mgrwt>
<rscale>  0 0.11711141E+04</rscale>
<asrwt>0</asrwt>
<pdfrwt beam="1">  1        2 0.34325516E+00 0.11711141E+04</pdfrwt>
<pdfrwt beam="2">  1       -2 0.22039868E+00 0.11711141E+04</pdfrwt>
<totfact> 0.47624126E-01</totfact>
</mgrwt>
</event>
<event>
 4    1  0.3365401E-008  0.5952759E+03  0.7818608E-02  0.9915256E-01
          2   -1    0    0  501    0  0.00000000000E+00  0.00000000000E+00  0.97136646916E+03  0.97136646916E+03  0.25500000000E-02 0. -1.
         -2   -1    0    0    0  501 -0.00000000000E+00 -0.00000000000E+00 -0.19119813002E+04  0.19119813002E+04  0.25500000000E-02 0.  1.
    8880022    1    1    2    0    0 -0.57453410548E+03  0.29534374239E+02 -0.17671760197E+04  0.18647424635E+04  0.15294330000E+03 0.  0.
    8880022    1    1    2    0    0  0.57453410548E+03 -0.29534374239E+02  0.82656118862E+03  0.10186053059E+04  0.15294330000E+03 0.  0.
<mgrwt>
<rscale>  0 0.59527588E+03</rscale>
<asrwt>0</asrwt>
<pdfrwt beam="1">  1        2 0.14944100E+00 0.59527588E+03</pdfrwt>
<pdfrwt beam="2">  1       -2 0.29415097E+00 0.59527588E+03</pdfrwt>
<totfact> 0.97950710E-01</totfact>
</mgrwt>
</event>
<event>
 4    1  0.3365401E-008  0.9047747E+03  0.7818608E-02  0.9419632E-01
         -2   -1    0    0    0  501 -0.00000000000E+00  0.00000000000E+00  0.43035147315E+03  0.43035147316E+03  0.25500000000E-02 0.  1.
          2   -1    0    0  501    0  0.00000000000E+00 -0.00000000000E+00 -0.30463938330E+04  0.30463938330E+04  0.25500000000E-02 0. -1.
    8880022    1    1    2    0    0  0.88045100540E+03 -0.14153293246E+03 -0.23733863675E+04  0.25399960721E+04  0.15294330000E+03 0.  0.
    8880022    1    1    2    0    0 -0.88045100540E+03  0.14153293246E+03 -0.24265599236E+03  0.93674923407E+03  0.15294330000E+03 0.  0.
<mgrwt>
<rscale>  0 0.90477467E+03</rscale>
<asrwt>0</asrwt>
<pdfrwt beam="1">  1        2 0.46867596E+00 0.90477467E+03</pdfrwt>
<pdfrwt beam="2">  1       -2 0.66207921E-01 0.90477467E+03</pdfrwt>
<totfact> 0.35479162E+00</totfact>
</mgrwt>
</event>
<event>
 4    1  0.3365401E-008  0.1730950E+03  0.7818608E-02  0.1174658E+00
         -2   -1    0    0    0  501 -0.00000000000E+00  0.00000000000E+00  0.44351566010E+03  0.44351566011E+03  0.25500000000E-02 0.  1.
          2   -1    0    0  501    0  0.00000000000E+00 -0.00000000000E+00 -0.18998298068E+03  0.18998298070E+03  0.25500000000E-02 0. -1.
    8880022    1    1    2    0    0 -0.31180543431E+02 -0.74819872311E+02  0.38103797600E+03  0.41851144758E+03  0.15294330000E+03 0.  0.
    8880022    1    1    2    0    0  0.31180543431E+02  0.74819872311E+02 -0.12750529658E+03  0.21498719323E+03  0.15294330000E+03 0. -1.
<mgrwt>
<rscale>  0 0.17309504E+03</rscale>
<asrwt>0</asrwt>
<pdfrwt beam="1">  1        2 0.29228151E-01 0.17309504E+03</pdfrwt>
<pdfrwt beam="2">  1       -2 0.68233178E-01 0.17309504E+03</pdfrwt>
<totfact> 0.36508695E+02</totfact>
</mgrwt>
</event>
<event>
 4    1  0.3365401E-008  0.6839067E+03  0.7818608E-02  0.9745157E-01
         -2   -1    0    0    0  501 -0.00000000000E+00  0.00000000000E+00  0.49756020762E+03  0.49756020763E+03  0.25500000000E-02 0.  1.
          2   -1    0    0  501    0  0.00000000000E+00 -0.00000000000E+00 -0.11430304337E+04  0.11430304337E+04  0.25500000000E-02 0. -1.
    8880022    1    1    2    0    0 -0.42044861503E+03  0.51726177182E+03 -0.66841567953E+03  0.95629909136E+03  0.15294330000E+03 0.  0.
    8880022    1    1    2    0    0  0.42044861503E+03 -0.51726177182E+03  0.22945453491E+02  0.68429154994E+03  0.15294330000E+03 0.  0.
<mgrwt>
<rscale>  0 0.68390674E+03</rscale>
<asrwt>0</asrwt>
<pdfrwt beam="1">  1        2 0.17585084E+00 0.68390674E+03</pdfrwt>
<pdfrwt beam="2">  1       -2 0.76547725E-01 0.68390674E+03</pdfrwt>
<totfact> 0.32063650E+01</totfact>
</mgrwt>
</event>
<event>
 4    1  0.3365401E-008  0.5781087E+03  0.7818608E-02  0.9951894E-01
         -2   -1    0    0    0  501 -0.00000000000E+00  0.00000000000E+00  0.97784712996E+03  0.97784712996E+03  0.25500000000E-02 0.  1.
          2   -1    0    0  501    0  0.00000000000E+00 -0.00000000000E+00 -0.34556284509E+03  0.34556284510E+03  0.25500000000E-02 0. -1.
    8880022    1    1    2    0    0 -0.51366539299E+03  0.21671609347E+03  0.38536472702E+03  0.69477739383E+03  0.15294330000E+03 0. -1.
    8880022    1    1    2    0    0  0.51366539299E+03 -0.21671609347E+03  0.24691955785E+03  0.62863258123E+03  0.15294330000E+03 0.  1.
<mgrwt>
<rscale>  0 0.57810869E+03</rscale>
<asrwt>0</asrwt>
<pdfrwt beam="1">  1        2 0.53163515E-01 0.57810869E+03</pdfrwt>
<pdfrwt beam="2">  1       -2 0.15043802E+00 0.57810869E+03</pdfrwt>
<totfact> 0.28620544E+01</totfact>
</mgrwt>
</event>
<event>
 4    1  0.3365401E-008  0.6444479E+03  0.7818608E-02  0.9817253E-01
          2   -1    0    0  501    0  0.00000000000E+00  0.00000000000E+00  0.15589527444E+04  0.15589527444E+04  0.25500000000E-02 0. -1.
         -2   -1    0    0    0  501 -0.00000000000E+00 -0.00000000000E+00 -0.37932539214E+03  0.37932539215E+03  0.25500000000E-02 0.  1.
    8880022    1    1    2    0    0  0.45423676388E+03  0.43080200481E+03  0.11185827193E+04  0.12909455286E+04  0.15294330000E+03 0.  0.
    8880022    1    1    2    0    0 -0.45423676388E+03 -0.43080200481E+03  0.61044632938E+02  0.64733260788E+03  0.15294330000E+03 0.  0.
<mgrwt>
<rscale>  0 0.64444787E+03</rscale>
<asrwt>0</asrwt>
<pdfrwt beam="1">  1        2 0.23983889E+00 0.64444787E+03</pdfrwt>
<pdfrwt beam="2">  1       -2 0.58357752E-01 0.64444787E+03</pdfrwt>
<totfact> 0.33503547E+01</totfact>
</mgrwt>
</event>
<event>
 4    1  0.3365401E-008  0.3302426E+03  0.7818608E-02  0.1071030E+00
         -2   -1    0    0    0  501 -0.00000000000E+00  0.00000000000E+00  0.71505039299E+02  0.71505039345E+02  0.25500000000E-02 0.  1.
          2   -1    0    0  501    0  0.00000000000E+00 -0.00000000000E+00 -0.26278383140E+04  0.26278383140E+04  0.25500000000E-02 0. -1.
    8880022    1    1    2    0    0 -0.12208021130E+03  0.26601683958E+03 -0.21524322862E+04  0.21776190982E+04  0.15294330000E+03 0. -1.
    8880022    1    1    2    0    0  0.12208021130E+03 -0.26601683958E+03 -0.40390098848E+03  0.52172425517E+03  0.15294330000E+03 0.  1.
<mgrwt>
<rscale>  0 0.33024262E+03</rscale>
<asrwt>0</asrwt>
<pdfrwt beam="1">  1        2 0.40428274E+00 0.33024262E+03</pdfrwt>
<pdfrwt beam="2">  1       -2 0.11000777E-01 0.33024262E+03</pdfrwt>
<totfact> 0.19148510E+02</totfact>
</mgrwt>
</event>
<event>
 4    1  0.3365401E-008  0.3808739E+03  0.7818608E-02  0.1050611E+00
          2   -1    0    0  501    0  0.00000000000E+00  0.00000000000E+00  0.64153611442E+03  0.64153611442E+03  0.25500000000E-02 0. -1.
         -2   -1    0    0    0  501 -0.00000000000E+00 -0.00000000000E+00 -0.35583787395E+03  0.35583787396E+03  0.25500000000E-02 0.  1.
    8880022    1    1    2    0    0 -0.13574705754E+03  0.32131922822E+03 -0.15824323997E+03  0.41243894829E+03  0.15294330000E+03 0.  0.
    8880022    1    1    2    0    0  0.13574705754E+03 -0.32131922822E+03  0.44394148044E+03  0.58493504009E+03  0.15294330000E+03 0.  0.
<mgrwt>
<rscale>  0 0.38087395E+03</rscale>
<asrwt>0</asrwt>
<pdfrwt beam="1">  1        2 0.98697863E-01 0.38087395E+03</pdfrwt>
<pdfrwt beam="2">  1       -2 0.54744289E-01 0.38087395E+03</pdfrwt>
<totfact> 0.14876035E+02</totfact>
</mgrwt>
</event>
<event>
 4    1  0.3365401E-008  0.5213915E+03  0.7818608E-02  0.1008341E+00
         -2   -1    0    0    0  501 -0.00000000000E+00  0.00000000000E+00  0.54051308317E+03  0.54051308318E+03  0.25500000000E-02 0.  1.
          2   -1    0    0  501    0  0.00000000000E+00 -0.00000000000E+00 -0.11471631402E+04  0.11471631402E+04  0.25500000000E-02 0. -1.
    8880022    1    1    2    0    0  0.36777938227E+03  0.33644574879E+03  0.32903232377E+03  0.61653170154E+03  0.15294330000E+03 0.  0.
    8880022    1    1    2    0    0 -0.36777938227E+03 -0.33644574879E+03 -0.93568238077E+03  0.10711445218E+04  0.15294330000E+03 0. -1.
<mgrwt>
<rscale>  0 0.52139147E+03</rscale>
<asrwt>0</asrwt>
<pdfrwt beam="1">  1        2 0.17648664E+00 0.52139147E+03</pdfrwt>
<pdfrwt beam="2">  1       -2 0.83155859E-01 0.52139147E+03</pdfrwt>
<totfact> 0.27046417E+01</totfact>
</mgrwt>
</event>
<event>
 4    1  0.3365401E-008  0.4809831E+03  0.7818608E-02  0.1018865E+00
         -2   -1    0    0    0  501 -0.00000000000E+00  0.00000000000E+00  0.20208419712E+03  0.20208419713E+03  0.25500000000E-02 0.  1.
          2   -1    0    0  501    0  0.00000000000E+00 -0.00000000000E+00 -0.26988254785E+04  0.26988254785E+04  0.25500000000E-02 0. -1.
    8880022    1    1    2    0    0 -0.16617588592E+03  0.42466304881E+03 -0.23490142375E+04  0.23977515866E+04  0.15294330000E+03 0.  0.
    8880022    1    1    2    0    0  0.16617588592E+03 -0.42466304881E+03 -0.14772704395E+03  0.50315808909E+03  0.15294330000E+03 0.  0.
<mgrwt>
<rscale>  0 0.48098314E+03</rscale>
<asrwt>0</asrwt>
<pdfrwt beam="1">  1        2 0.41520389E+00 0.48098314E+03</pdfrwt>
<pdfrwt beam="2">  1       -2 0.31089878E-01 0.48098314E+03</pdfrwt>
<totfact> 0.28159031E+01</totfact>
</mgrwt>
</event>
<event>
 4    1  0.3365401E-008  0.5361604E+03  0.7818608E-02  0.1004749E+00
          2   -1    0    0  501    0  0.00000000000E+00  0.00000000000E+00  0.18549521180E+04  0.18549521180E+04  0.25500000000E-02 0. -1.
         -2   -1    0    0    0  501 -0.00000000000E+00 -0.00000000000E+00 -0.29213214841E+03  0.29213214842E+03  0.25500000000E-02 0.  1.
    8880022    1    1    2    0    0  0.11158420181E+03  0.50162264426E+03  0.45810516586E+02  0.53811389851E+03  0.15294330000E+03 0.  0.
    8880022    1    1    2    0    0 -0.11158420181E+03 -0.50162264426E+03  0.15170094530E+04  0.16089703679E+04  0.15294330000E+03 0.  0.
<mgrwt>
<rscale>  0 0.53616039E+03</rscale>
<asrwt>0</asrwt>
<pdfrwt beam="1">  1        2 0.28537725E+00 0.53616039E+03</pdfrwt>
<pdfrwt beam="2">  1       -2 0.44943407E-01 0.53616039E+03</pdfrwt>
<totfact> 0.40050029E+01</totfact>
</mgrwt>
</event>
<event>
 4    1  0.3365401E-008  0.7354312E+03  0.7818608E-02  0.9658488E-01
         -2   -1    0    0    0  501 -0.00000000000E+00  0.00000000000E+00  0.20619173074E+04  0.20619173074E+04  0.25500000000E-02 0.  1.
          2   -1    0    0  501    0  0.00000000000E+00 -0.00000000000E+00 -0.63875637621E+03  0.63875637621E+03  0.25500000000E-02 0. -1.
    8880022    1    1    2    0    0  0.71671041443E+03  0.61591640048E+02 -0.32505666433E+03  0.80406519407E+03  0.15294330000E+03 0.  0.
    8880022    1    1    2    0    0 -0.71671041443E+03 -0.61591640048E+02  0.17482175955E+04  0.18966084896E+04  0.15294330000E+03 0.  0.
<mgrwt>
<rscale>  0 0.73543117E+03</rscale>
<asrwt>0</asrwt>
<pdfrwt beam="1">  1        2 0.98270213E-01 0.73543117E+03</pdfrwt>
<pdfrwt beam="2">  1       -2 0.31721804E+00 0.73543117E+03</pdfrwt>
<totfact> 0.12013612E+00</totfact>
</mgrwt>
</event>
<event>
 4    1  0.3365401E-008  0.7674813E+03  0.7818608E-02  0.9608317E-01
         -2   -1    0    0    0  501 -0.00000000000E+00  0.00000000000E+00  0.18274423929E+04  0.18274423929E+04  0.25500000000E-02 0.  1.
          2   -1    0    0  501    0  0.00000000000E+00 -0.00000000000E+00 -0.56237960105E+03  0.56237960106E+03  0.25500000000E-02 0. -1.
    8880022    1    1    2    0    0  0.16545203788E+03  0.73366308548E+03 -0.14815603933E+03  0.78165066676E+03  0.15294330000E+03 0.  0.
    8880022    1    1    2    0    0 -0.16545203788E+03 -0.73366308548E+03  0.14132188312E+04  0.16081713272E+04  0.15294330000E+03 0.  0.
<mgrwt>
<rscale>  0 0.76748130E+03</rscale>
<asrwt>0</asrwt>
<pdfrwt beam="1">  1        2 0.86519937E-01 0.76748130E+03</pdfrwt>
<pdfrwt beam="2">  1       -2 0.28114499E+00 0.76748130E+03</pdfrwt>
<totfact> 0.22982492E+00</totfact>
</mgrwt>
</event>
<event>
 4    1  0.3365401E-008  0.3058788E+03  0.7818608E-02  0.1082338E+00
          2   -1    0    0  501    0  0.00000000000E+00  0.00000000000E+00  0.39372061891E+04  0.39372061891E+04  0.25500000000E-02 0. -1.
         -2   -1    0    0    0  501 -0.00000000000E+00 -0.00000000000E+00 -0.28275167041E+02  0.28275167156E+02  0.25500000000E-02 0.  1.
    8880022    1    1    2    0    0 -0.25921763926E+03 -0.54556620287E+02  0.11624547556E+04  0.12020245094E+04  0.15294330000E+03 0.  0.
    8880022    1    1    2    0    0  0.25921763926E+03  0.54556620287E+02  0.27464762664E+04  0.27634568468E+04  0.15294330000E+03 0.  0.
<mgrwt>
<rscale>  0 0.30587884E+03</rscale>
<asrwt>0</asrwt>
<pdfrwt beam="1">  1        2 0.60572398E+00 0.30587884E+03</pdfrwt>
<pdfrwt beam="2">  1       -2 0.43500261E-02 0.30587884E+03</pdfrwt>
<totfact> 0.11929142E+02</totfact>
</mgrwt>
</event>
<event>
 4    1  0.3365401E-008  0.4974099E+03  0.7818608E-02  0.1014457E+00
          2   -1    0    0  501    0  0.00000000000E+00  0.00000000000E+00  0.84209304953E+03  0.84209304953E+03  0.25500000000E-02 0. -1.
         -2   -1    0    0    0  501 -0.00000000000E+00 -0.00000000000E+00 -0.34798691444E+03  0.34798691445E+03  0.25500000000E-02 0.  1.
    8880022    1    1    2    0    0  0.40074724692E+03 -0.25184645165E+03  0.48183555913E+03  0.69251870024E+03  0.15294330000E+03 0.  0.
    8880022    1    1    2    0    0 -0.40074724692E+03  0.25184645165E+03  0.12270575953E+02  0.49756126374E+03  0.15294330000E+03 0.  0.
<mgrwt>
<rscale>  0 0.49740994E+03</rscale>
<asrwt>0</asrwt>
<pdfrwt beam="1">  1        2 0.12955277E+00 0.49740994E+03</pdfrwt>
<pdfrwt beam="2">  1       -2 0.53536449E-01 0.49740994E+03</pdfrwt>
<totfact> 0.10918346E+02</totfact>
</mgrwt>
</event>
<event>
 4    1  0.3365401E-008  0.4395050E+03  0.7818608E-02  0.1030899E+00
          2   -1    0    0  501    0  0.00000000000E+00  0.00000000000E+00  0.12934885164E+04  0.12934885164E+04  0.25500000000E-02 0. -1.
         -2   -1    0    0    0  501 -0.00000000000E+00 -0.00000000000E+00 -0.17504585605E+03  0.17504585607E+03  0.25500000000E-02 0.  1.
    8880022    1    1    2    0    0 -0.39147254230E+03  0.12853880718E+03  0.84062291279E+03  0.94858395034E+03  0.15294330000E+03 0.  0.
    8880022    1    1    2    0    0  0.39147254230E+03 -0.12853880718E+03  0.27781974758E+03  0.51995042214E+03  0.15294330000E+03 0.  0.
<mgrwt>
<rscale>  0 0.43950498E+03</rscale>
<asrwt>0</asrwt>
<pdfrwt beam="1">  1        2 0.19899823E+00 0.43950498E+03</pdfrwt>
<pdfrwt beam="2">  1       -2 0.26930132E-01 0.43950498E+03</pdfrwt>
<totfact> 0.21698908E+02</totfact>
</mgrwt>
</event>
<event>
 4    1  0.3365401E-008  0.3516709E+03  0.7818608E-02  0.1061931E+00
          2   -1    0    0  501    0  0.00000000000E+00  0.00000000000E+00  0.12726705821E+04  0.12726705821E+04  0.25500000000E-02 0. -1.
         -2   -1    0    0    0  501 -0.00000000000E+00 -0.00000000000E+00 -0.51509937740E+03  0.51509937740E+03  0.25500000000E-02 0.  1.
    8880022    1    1    2    0    0  0.30043851367E+03 -0.10008736483E+03 -0.42637905941E+03  0.55269479499E+03  0.15294330000E+03 0.  0.
    8880022    1    1    2    0    0 -0.30043851367E+03  0.10008736483E+03  0.11839502641E+04  0.12350751645E+04  0.15294330000E+03 0.  0.
<mgrwt>
<rscale>  0 0.35167092E+03</rscale>
<asrwt>0</asrwt>
<pdfrwt beam="1">  1        2 0.19579547E+00 0.35167092E+03</pdfrwt>
<pdfrwt beam="2">  1       -2 0.79246059E-01 0.35167092E+03</pdfrwt>
<totfact> 0.26313710E+01</totfact>
</mgrwt>
</event>
<event>
 4    1  0.3365401E-008  0.5603382E+03  0.7818608E-02  0.9991290E-01
         -2   -1    0    0    0  501 -0.00000000000E+00  0.00000000000E+00  0.40306534238E+03  0.40306534239E+03  0.25500000000E-02 0.  1.
          2   -1    0    0  501    0  0.00000000000E+00 -0.00000000000E+00 -0.18942861875E+04  0.18942861875E+04  0.25500000000E-02 0. -1.
    8880022    1    1    2    0    0 -0.32464341365E+03  0.43034162867E+03  0.13578778740E+03  0.57655636291E+03  0.15294330000E+03 0.  0.
    8880022    1    1    2    0    0  0.32464341365E+03 -0.43034162867E+03 -0.16270086325E+04  0.17207951670E+04  0.15294330000E+03 0.  0.
<mgrwt>
<rscale>  0 0.56033822E+03</rscale>
<asrwt>0</asrwt>
<pdfrwt beam="1">  1        2 0.29142864E+00 0.56033822E+03</pdfrwt>
<pdfrwt beam="2">  1       -2 0.62010054E-01 0.56033822E+03</pdfrwt>
<totfact> 0.19638952E+01</totfact>
</mgrwt>
</event>
<event>
 4    1  0.3365401E-008  0.7383461E+03  0.7818608E-02  0.9653813E-01
          2   -1    0    0  501    0  0.00000000000E+00  0.00000000000E+00  0.29409155731E+04  0.29409155731E+04  0.25500000000E-02 0. -1.
         -2   -1    0    0    0  501 -0.00000000000E+00 -0.00000000000E+00 -0.75686795301E+03  0.75686795301E+03  0.25500000000E-02 0.  1.
    8880022    1    1    2    0    0 -0.70675240732E+03  0.14921253897E+03  0.26986287364E+04  0.27978120124E+04  0.15294330000E+03 0.  0.
    8880022    1    1    2    0    0  0.70675240732E+03 -0.14921253897E+03 -0.51458111635E+03  0.89997151363E+03  0.15294330000E+03 0.  0.
<mgrwt>
<rscale>  0 0.73834612E+03</rscale>
<asrwt>0</asrwt>
<pdfrwt beam="1">  1        2 0.45244853E+00 0.73834612E+03</pdfrwt>
<pdfrwt beam="2">  1       -2 0.11644123E+00 0.73834612E+03</pdfrwt>
<totfact> 0.11585444E+00</totfact>
</mgrwt>
</event>
<event>
 4    1  0.3365401E-008  0.3057498E+03  0.7818608E-02  0.1082401E+00
          2   -1    0    0  501    0  0.00000000000E+00  0.00000000000E+00  0.13728844700E+04  0.13728844700E+04  0.25500000000E-02 0. -1.
         -2   -1    0    0    0  501 -0.00000000000E+00 -0.00000000000E+00 -0.15041875852E+03  0.15041875854E+03  0.25500000000E-02 0.  1.
    8880022    1    1    2    0    0 -0.24979716736E+02  0.26356651208E+03  0.11747082053E+04  0.12138460829E+04  0.15294330000E+03 0.  0.
    8880022    1    1    2    0    0  0.24979716736E+02 -0.26356651208E+03  0.47757506199E+02  0.30945714558E+03  0.15294330000E+03 0.  0.
<mgrwt>
<rscale>  0 0.30574981E+03</rscale>
<asrwt>0</asrwt>
<pdfrwt beam="1">  1        2 0.21121299E+00 0.30574981E+03</pdfrwt>
<pdfrwt beam="2">  1       -2 0.23141348E-01 0.30574981E+03</pdfrwt>
<totfact> 0.26125626E+02</totfact>
</mgrwt>
</event>
<event>
 4    1  0.3365401E-008  0.1321473E+04  0.7818608E-02  0.9012708E-01
         -2   -1    0    0    0  501 -0.00000000000E+00  0.00000000000E+00  0.13175797250E+04  0.13175797250E+04  0.25500000000E-02 0.  1.
          2   -1    0    0  501    0  0.00000000000E+00 -0.00000000000E+00 -0.24755201601E+04  0.24755201601E+04  0.25500000000E-02 0. -1.
    8880022    1    1    2    0    0 -0.25428513364E+03  0.12877259227E+04  0.71375699170E+03  0.15019120072E+04  0.15294330000E+03 0.  0.
    8880022    1    1    2    0    0  0.25428513364E+03 -0.12877259227E+04 -0.18716974268E+04  0.22911878779E+04  0.15294330000E+03 0.  0.
<mgrwt>
<rscale>  0 0.13214729E+04</rscale>
<asrwt>0</asrwt>
<pdfrwt beam="1">  1        2 0.38084925E+00 0.13214729E+04</pdfrwt>
<pdfrwt beam="2">  1       -2 0.20270457E+00 0.13214729E+04</pdfrwt>
<totfact> 0.44071922E-01</totfact>
</mgrwt>
</event>
<event>
 4    1  0.3365401E-008  0.1505089E+04  0.7818608E-02  0.8881076E-01
          2   -1    0    0  501    0  0.00000000000E+00  0.00000000000E+00  0.19433220422E+04  0.19433220422E+04  0.25500000000E-02 0. -1.
         -2   -1    0    0    0  501 -0.00000000000E+00 -0.00000000000E+00 -0.15806501064E+04  0.15806501064E+04  0.25500000000E-02 0.  1.
    8880022    1    1    2    0    0 -0.30896037602E+03  0.14650745173E+04  0.10841390651E+04  0.18548986551E+04  0.15294330000E+03 0.  0.
    8880022    1    1    2    0    0  0.30896037602E+03 -0.14650745173E+04 -0.72146712935E+03  0.16690734936E+04  0.15294330000E+03 0.  0.
<mgrwt>
<rscale>  0 0.15050885E+04</rscale>
<asrwt>0</asrwt>
<pdfrwt beam="1">  1        2 0.29897262E+00 0.15050885E+04</pdfrwt>
<pdfrwt beam="2">  1       -2 0.24317694E+00 0.15050885E+04</pdfrwt>
<totfact> 0.47672441E-01</totfact>
</mgrwt>
</event>
<event>
 4    1  0.3365401E-008  0.7516500E+03  0.7818608E-02  0.9632765E-01
          2   -1    0    0  501    0  0.00000000000E+00  0.00000000000E+00  0.76404346588E+03  0.76404346589E+03  0.25500000000E-02 0. -1.
         -2   -1    0    0    0  501 -0.00000000000E+00 -0.00000000000E+00 -0.16101933331E+04  0.16101933331E+04  0.25500000000E-02 0.  1.
    8880022    1    1    2    0    0 -0.73483316071E+03 -0.40078118225E+02 -0.12960427423E+04  0.14982337843E+04  0.15294330000E+03 0.  1.
    8880022    1    1    2    0    0  0.73483316071E+03  0.40078118225E+02  0.44989287507E+03  0.87600301466E+03  0.15294330000E+03 0.  0.
<mgrwt>
<rscale>  0 0.75164997E+03</rscale>
<asrwt>0</asrwt>
<pdfrwt beam="1">  1        2 0.11754515E+00 0.75164997E+03</pdfrwt>
<pdfrwt beam="2">  1       -2 0.24772205E+00 0.75164997E+03</pdfrwt>
<totfact> 0.25037787E+00</totfact>
</mgrwt>
</event>
<event>
 4    1  0.3365401E-008  0.4765729E+03  0.7818608E-02  0.1020081E+00
         -2   -1    0    0    0  501 -0.00000000000E+00  0.00000000000E+00  0.86228126786E+03  0.86228126787E+03  0.25500000000E-02 0.  1.
          2   -1    0    0  501    0  0.00000000000E+00 -0.00000000000E+00 -0.58373983252E+03  0.58373983253E+03  0.25500000000E-02 0. -1.
    8880022    1    1    2    0    0 -0.15768244815E+03 -0.42292589758E+03 -0.39633219379E+03  0.61983943901E+03  0.15294330000E+03 0.  0.
    8880022    1    1    2    0    0  0.15768244815E+03  0.42292589758E+03  0.67487362913E+03  0.82618166139E+03  0.15294330000E+03 0.  1.
<mgrwt>
<rscale>  0 0.47657289E+03</rscale>
<asrwt>0</asrwt>
<pdfrwt beam="1">  1        2 0.89806128E-01 0.47657289E+03</pdfrwt>
<pdfrwt beam="2">  1       -2 0.13265866E+00 0.47657289E+03</pdfrwt>
<totfact> 0.22081314E+01</totfact>
</mgrwt>
</event>
<event>
 4    1  0.3365401E-008  0.5676204E+03  0.7818608E-02  0.9974958E-01
         -2   -1    0    0    0  501 -0.00000000000E+00  0.00000000000E+00  0.58906684623E+03  0.58906684623E+03  0.25500000000E-02 0.  1.
          2   -1    0    0  501    0  0.00000000000E+00 -0.00000000000E+00 -0.22660658331E+04  0.22660658331E+04  0.25500000000E-02 0. -1.
    8880022    1    1    2    0    0 -0.17758450379E+03  0.51697681243E+03  0.40490376996E+03  0.69723740327E+03  0.15294330000E+03 0.  0.
    8880022    1    1    2    0    0  0.17758450379E+03 -0.51697681243E+03 -0.20819027569E+04  0.21578952761E+04  0.15294330000E+03 0.  0.
<mgrwt>
<rscale>  0 0.56762041E+03</rscale>
<asrwt>0</asrwt>
<pdfrwt beam="1">  1        2 0.34862551E+00 0.56762041E+03</pdfrwt>
<pdfrwt beam="2">  1       -2 0.90625670E-01 0.56762041E+03</pdfrwt>
<totfact> 0.53308079E+00</totfact>
</mgrwt>
</event>
<event>
 4    1  0.3365401E-008  0.3608665E+03  0.7818608E-02  0.1058241E+00
          2   -1    0    0  501    0  0.00000000000E+00  0.00000000000E+00  0.10672880208E+04  0.10672880208E+04  0.25500000000E-02 0. -1.
         -2   -1    0    0    0  501 -0.00000000000E+00 -0.00000000000E+00 -0.31477754651E+03  0.31477754652E+03  0.25500000000E-02 0.  1.
    8880022    1    1    2    0    0 -0.19026173068E+03 -0.26576950066E+03  0.91702036446E+03  0.98546991608E+03  0.15294330000E+03 0. -1.
    8880022    1    1    2    0    0  0.19026173068E+03  0.26576950066E+03 -0.16450989014E+03  0.39659565127E+03  0.15294330000E+03 0.  0.
<mgrwt>
<rscale>  0 0.36086647E+03</rscale>
<asrwt>0</asrwt>
<pdfrwt beam="1">  1        2 0.16419816E+00 0.36086647E+03</pdfrwt>
<pdfrwt beam="2">  1       -2 0.48427314E-01 0.36086647E+03</pdfrwt>
<totfact> 0.97538466E+01</totfact>
</mgrwt>
</event>
<event>
 4    1  0.3365401E-008  0.1006065E+04  0.7818608E-02  0.9301918E-01
         -2   -1    0    0    0  501 -0.00000000000E+00  0.00000000000E+00  0.68626687808E+03  0.68626687809E+03  0.25500000000E-02 0.  1.
          2   -1    0    0  501    0  0.00000000000E+00 -0.00000000000E+00 -0.26669001548E+04  0.26669001548E+04  0.25500000000E-02 0. -1.
    8880022    1    1    2    0    0  0.63259628066E+03 -0.76720079192E+03 -0.21112044873E+04  0.23386643944E+04  0.15294330000E+03 0.  0.
    8880022    1    1    2    0    0 -0.63259628066E+03  0.76720079192E+03  0.13057121058E+03  0.10145026385E+04  0.15294330000E+03 0.  0.
<mgrwt>
<rscale>  0 0.10060650E+04</rscale>
<asrwt>0</asrwt>
<pdfrwt beam="1">  1        2 0.41029233E+00 0.10060650E+04</pdfrwt>
<pdfrwt beam="2">  1       -2 0.10557952E+00 0.10060650E+04</pdfrwt>
<totfact> 0.20370713E+00</totfact>
</mgrwt>
</event>
<event>
 4    1  0.3365401E-008  0.8751568E+03  0.7818608E-02  0.9457181E-01
         -2   -1    0    0    0  501 -0.00000000000E+00  0.00000000000E+00  0.43265997359E+03  0.43265997359E+03  0.25500000000E-02 0.  1.
          2   -1    0    0  501    0  0.00000000000E+00 -0.00000000000E+00 -0.31988260460E+04  0.31988260460E+04  0.25500000000E-02 0. -1.
    8880022    1    1    2    0    0 -0.28944062801E+03  0.81162302613E+03 -0.16964760664E+03  0.89144813486E+03  0.15294330000E+03 0.  0.
    8880022    1    1    2    0    0  0.28944062801E+03 -0.81162302613E+03 -0.25965184658E+04  0.27400378848E+04  0.15294330000E+03 0.  0.
<mgrwt>
<rscale>  0 0.87515682E+03</rscale>
<asrwt>0</asrwt>
<pdfrwt beam="1">  1        2 0.49212707E+00 0.87515682E+03</pdfrwt>
<pdfrwt beam="2">  1       -2 0.66563075E-01 0.87515682E+03</pdfrwt>
<totfact> 0.28258558E+00</totfact>
</mgrwt>
</event>
<event>
 4    1  0.3365401E-008  0.3833703E+03  0.7818608E-02  0.1049695E+00
          2   -1    0    0  501    0  0.00000000000E+00  0.00000000000E+00  0.59359549681E+03  0.59359549681E+03  0.25500000000E-02 0. -1.
         -2   -1    0    0    0  501 -0.00000000000E+00 -0.00000000000E+00 -0.69915965406E+03  0.69915965406E+03  0.25500000000E-02 0.  1.
    8880022    1    1    2    0    0  0.24954358771E+03  0.24760674826E+03 -0.57224777439E+03  0.68879624873E+03  0.15294330000E+03 0.  0.
    8880022    1    1    2    0    0 -0.24954358771E+03 -0.24760674826E+03  0.46668361714E+03  0.60395890214E+03  0.15294330000E+03 0.  0.
<mgrwt>
<rscale>  0 0.38337026E+03</rscale>
<asrwt>0</asrwt>
<pdfrwt beam="1">  1        2 0.91322384E-01 0.38337026E+03</pdfrwt>
<pdfrwt beam="2">  1       -2 0.10756302E+00 0.38337026E+03</pdfrwt>
<totfact> 0.36684435E+01</totfact>
</mgrwt>
</event>
<event>
 4    1  0.3365401E-008  0.1380592E+04  0.7818608E-02  0.8967988E-01
         -2   -1    0    0    0  501 -0.00000000000E+00  0.00000000000E+00  0.21623679627E+04  0.21623679627E+04  0.25500000000E-02 0.  1.
          2   -1    0    0  501    0  0.00000000000E+00 -0.00000000000E+00 -0.27292598051E+04  0.27292598051E+04  0.25500000000E-02 0. -1.
    8880022    1    1    2    0    0 -0.11539046525E+04 -0.74239260495E+03 -0.22959129659E+04  0.26790391424E+04  0.15294330000E+03 0.  0.
    8880022    1    1    2    0    0  0.11539046525E+04  0.74239260495E+03  0.17290211235E+04  0.22125886254E+04  0.15294330000E+03 0.  0.
<mgrwt>
<rscale>  0 0.13805920E+04</rscale>
<asrwt>0</asrwt>
<pdfrwt beam="1">  1        2 0.41988612E+00 0.13805920E+04</pdfrwt>
<pdfrwt beam="2">  1       -2 0.33267199E+00 0.13805920E+04</pdfrwt>
<totfact> 0.48790130E-02</totfact>
</mgrwt>
</event>
<event>
 4    1  0.3365401E-008  0.3412405E+03  0.7818608E-02  0.1066269E+00
          2   -1    0    0  501    0  0.00000000000E+00  0.00000000000E+00  0.14208391554E+04  0.14208391554E+04  0.25500000000E-02 0. -1.
         -2   -1    0    0    0  501 -0.00000000000E+00 -0.00000000000E+00 -0.12672762238E+03  0.12672762240E+03  0.25500000000E-02 0.  1.
    8880022    1    1    2    0    0  0.55855956779E+02  0.29988919923E+03  0.11069832300E+04  0.11583854903E+04  0.15294330000E+03 0.  0.
    8880022    1    1    2    0    0 -0.55855956779E+02 -0.29988919923E+03  0.18712830307E+03  0.38918128751E+03  0.15294330000E+03 0.  0.
<mgrwt>
<rscale>  0 0.34124049E+03</rscale>
<asrwt>0</asrwt>
<pdfrwt beam="1">  1        2 0.21859065E+00 0.34124049E+03</pdfrwt>
<pdfrwt beam="2">  1       -2 0.19496556E-01 0.34124049E+03</pdfrwt>
<totfact> 0.32954321E+02</totfact>
</mgrwt>
</event>
<event>
 4    1  0.3365401E-008  0.6571330E+03  0.7818608E-02  0.9793486E-01
          2   -1    0    0  501    0  0.00000000000E+00  0.00000000000E+00  0.26284452541E+04  0.26284452541E+04  0.25500000000E-02 0. -1.
         -2   -1    0    0    0  501 -0.00000000000E+00 -0.00000000000E+00 -0.46605172928E+03  0.46605172929E+03  0.25500000000E-02 0.  1.
    8880022    1    1    2    0    0  0.50000718655E+03 -0.39802625908E+03 -0.16382244634E+03  0.67724555108E+03  0.15294330000E+03 0.  0.
    8880022    1    1    2    0    0 -0.50000718655E+03  0.39802625908E+03  0.23262159712E+04  0.24172514323E+04  0.15294330000E+03 0.  0.
<mgrwt>
<rscale>  0 0.65713297E+03</rscale>
<asrwt>0</asrwt>
<pdfrwt beam="1">  1        2 0.40437619E+00 0.65713297E+03</pdfrwt>
<pdfrwt beam="2">  1       -2 0.71700266E-01 0.65713297E+03</pdfrwt>
<totfact> 0.55408008E+00</totfact>
</mgrwt>
</event>
<event>
 4    1  0.3365401E-008  0.3355712E+03  0.7818608E-02  0.1068698E+00
          2   -1    0    0  501    0  0.00000000000E+00  0.00000000000E+00  0.45103056727E+04  0.45103056727E+04  0.25500000000E-02 0. -1.
         -2   -1    0    0    0  501 -0.00000000000E+00 -0.00000000000E+00 -0.32891979542E+02  0.32891979641E+02  0.25500000000E-02 0.  1.
    8880022    1    1    2    0    0  0.22211326719E+03 -0.19970488837E+03  0.11236664982E+04  0.11727038834E+04  0.15294330000E+03 0.  0.
    8880022    1    1    2    0    0 -0.22211326719E+03  0.19970488837E+03  0.33537471950E+04  0.33704937690E+04  0.15294330000E+03 0.  1.
<mgrwt>
<rscale>  0 0.33557115E+03</rscale>
<asrwt>0</asrwt>
<pdfrwt beam="1">  1        2 0.69389273E+00 0.33557115E+03</pdfrwt>
<pdfrwt beam="2">  1       -2 0.50603079E-02 0.33557115E+03</pdfrwt>
<totfact> 0.30982476E+01</totfact>
</mgrwt>
</event>
<event>
 4    1  0.3365401E-008  0.6097142E+03  0.7818608E-02  0.9885455E-01
          2   -1    0    0  501    0  0.00000000000E+00  0.00000000000E+00  0.17754658338E+04  0.17754658338E+04  0.25500000000E-02 0. -1.
         -2   -1    0    0    0  501 -0.00000000000E+00 -0.00000000000E+00 -0.31469255590E+03  0.31469255591E+03  0.25500000000E-02 0.  1.
    8880022    1    1    2    0    0 -0.49943001532E+03  0.31453044131E+03  0.13349488332E+04  0.14675965995E+04  0.15294330000E+03 0.  0.
    8880022    1    1    2    0    0  0.49943001532E+03 -0.31453044131E+03  0.12582444474E+03  0.62256179020E+03  0.15294330000E+03 0.  0.
<mgrwt>
<rscale>  0 0.60971419E+03</rscale>
<asrwt>0</asrwt>
<pdfrwt beam="1">  1        2 0.27314859E+00 0.60971419E+03</pdfrwt>
<pdfrwt beam="2">  1       -2 0.48414239E-01 0.60971419E+03</pdfrwt>
<totfact> 0.37658860E+01</totfact>
</mgrwt>
</event>
<event>
 4    1  0.3365401E-008  0.6937219E+03  0.7818608E-02  0.9728029E-01
         -2   -1    0    0    0  501 -0.00000000000E+00  0.00000000000E+00  0.50330071053E+03  0.50330071054E+03  0.25500000000E-02 0.  1.
          2   -1    0    0  501    0  0.00000000000E+00 -0.00000000000E+00 -0.22837734288E+04  0.22837734288E+04  0.25500000000E-02 0. -1.
    8880022    1    1    2    0    0 -0.12318203208E+02  0.67654025550E+03  0.17224973278E+03  0.71478673666E+03  0.15294330000E+03 0.  0.
    8880022    1    1    2    0    0  0.12318203208E+02 -0.67654025550E+03 -0.19527224510E+04  0.20722874027E+04  0.15294330000E+03 0.  0.
<mgrwt>
<rscale>  0 0.69372192E+03</rscale>
<asrwt>0</asrwt>
<pdfrwt beam="1">  1        2 0.35134975E+00 0.69372192E+03</pdfrwt>
<pdfrwt beam="2">  1       -2 0.77430879E-01 0.69372192E+03</pdfrwt>
<totfact> 0.72549129E+00</totfact>
</mgrwt>
</event>
<event>
 4    1  0.3365401E-008  0.2875807E+03  0.7818608E-02  0.1091619E+00
         -2   -1    0    0    0  501 -0.00000000000E+00  0.00000000000E+00  0.51432824650E+03  0.51432824650E+03  0.25500000000E-02 0.  1.
          2   -1    0    0  501    0  0.00000000000E+00 -0.00000000000E+00 -0.57854411206E+03  0.57854411206E+03  0.25500000000E-02 0. -1.
    8880022    1    1    2    0    0  0.22499527806E+03 -0.93210053967E+02  0.43222312111E+03  0.51915264494E+03  0.15294330000E+03 0.  0.
    8880022    1    1    2    0    0 -0.22499527806E+03  0.93210053967E+02 -0.49643898667E+03  0.57371971363E+03  0.15294330000E+03 0.  0.
<mgrwt>
<rscale>  0 0.28758067E+03</rscale>
<asrwt>0</asrwt>
<pdfrwt beam="1">  1        2 0.89006786E-01 0.28758067E+03</pdfrwt>
<pdfrwt beam="2">  1       -2 0.79127423E-01 0.28758067E+03</pdfrwt>
<totfact> 0.77596135E+01</totfact>
</mgrwt>
</event>
<event>
 4    1  0.3365401E-008  0.3131557E+03  0.7818608E-02  0.1078843E+00
          2   -1    0    0  501    0  0.00000000000E+00  0.00000000000E+00  0.14049567486E+04  0.14049567486E+04  0.25500000000E-02 0. -1.
         -2   -1    0    0    0  501 -0.00000000000E+00 -0.00000000000E+00 -0.85038163783E+02  0.85038163822E+02  0.25500000000E-02 0.  1.
    8880022    1    1    2    0    0 -0.15564224203E+03  0.22461153578E+03  0.97532094471E+03  0.10243619710E+04  0.15294330000E+03 0.  0.
    8880022    1    1    2    0    0  0.15564224203E+03 -0.22461153578E+03  0.34459764006E+03  0.46563294134E+03  0.15294330000E+03 0.  0.
<mgrwt>
<rscale>  0 0.31315572E+03</rscale>
<asrwt>0</asrwt>
<pdfrwt beam="1">  1        2 0.21614717E+00 0.31315572E+03</pdfrwt>
<pdfrwt beam="2">  1       -2 0.13082796E-01 0.31315572E+03</pdfrwt>
<totfact> 0.65873822E+02</totfact>
</mgrwt>
</event>
<event>
 4    1  0.3365401E-008  0.5877084E+03  0.7818608E-02  0.9931240E-01
         -2   -1    0    0    0  501 -0.00000000000E+00  0.00000000000E+00  0.18789813564E+04  0.18789813564E+04  0.25500000000E-02 0.  1.
          2   -1    0    0  501    0  0.00000000000E+00 -0.00000000000E+00 -0.51714834956E+03  0.51714834957E+03  0.25500000000E-02 0. -1.
    8880022    1    1    2    0    0 -0.43738651874E+03  0.36152810047E+03 -0.28093164360E+03  0.65140139361E+03  0.15294330000E+03 0.  0.
    8880022    1    1    2    0    0  0.43738651874E+03 -0.36152810047E+03  0.16427646505E+04  0.17447283124E+04  0.15294330000E+03 0.  0.
<mgrwt>
<rscale>  0 0.58770842E+03</rscale>
<asrwt>0</asrwt>
<pdfrwt beam="1">  1        2 0.79561286E-01 0.58770842E+03</pdfrwt>
<pdfrwt beam="2">  1       -2 0.28907405E+00 0.58770842E+03</pdfrwt>
<totfact> 0.23448811E+00</totfact>
</mgrwt>
</event>
<event>
 4    1  0.3365401E-008  0.1889183E+03  0.7818608E-02  0.1159441E+00
          2   -1    0    0  501    0  0.00000000000E+00  0.00000000000E+00  0.11791745170E+04  0.11791745170E+04  0.25500000000E-02 0. -1.
         -2   -1    0    0    0  501 -0.00000000000E+00 -0.00000000000E+00 -0.41971895291E+03  0.41971895292E+03  0.25500000000E-02 0.  1.
    8880022    1    1    2    0    0 -0.55946690224E+02  0.95751891519E+02 -0.39035456736E+03  0.43366669016E+03  0.15294330000E+03 0.  1.
    8880022    1    1    2    0    0  0.55946690224E+02 -0.95751891519E+02  0.11498101314E+04  0.11652267797E+04  0.15294330000E+03 0.  0.
<mgrwt>
<rscale>  0 0.18891826E+03</rscale>
<asrwt>0</asrwt>
<pdfrwt beam="1">  1        2 0.18141146E+00 0.18891826E+03</pdfrwt>
<pdfrwt beam="2">  1       -2 0.64572148E-01 0.18891826E+03</pdfrwt>
<totfact> 0.48523590E+01</totfact>
</mgrwt>
</event>
<event>
 4    1  0.3365401E-008  0.2777207E+03  0.7818608E-02  0.1096940E+00
          2   -1    0    0  501    0  0.00000000000E+00  0.00000000000E+00  0.13267900393E+04  0.13267900393E+04  0.25500000000E-02 0. -1.
         -2   -1    0    0    0  501 -0.00000000000E+00 -0.00000000000E+00 -0.38590185180E+03  0.38590185181E+03  0.25500000000E-02 0.  1.
    8880022    1    1    2    0    0  0.20020001179E+03 -0.11686354061E+03  0.12596592259E+04  0.12899109079E+04  0.15294330000E+03 0. -1.
    8880022    1    1    2    0    0 -0.20020001179E+03  0.11686354061E+03 -0.31877103840E+03  0.42278098323E+03  0.15294330000E+03 0.  0.
<mgrwt>
<rscale>  0 0.27772070E+03</rscale>
<asrwt>0</asrwt>
<pdfrwt beam="1">  1        2 0.20412155E+00 0.27772070E+03</pdfrwt>
<pdfrwt beam="2">  1       -2 0.59369515E-01 0.27772070E+03</pdfrwt>
<totfact> 0.46477906E+01</totfact>
</mgrwt>
</event>
<event>
 4    1  0.3365401E-008  0.3818558E+03  0.7818608E-02  0.1050250E+00
         -2   -1    0    0    0  501 -0.00000000000E+00  0.00000000000E+00  0.31315524338E+03  0.31315524339E+03  0.25500000000E-02 0.  1.
          2   -1    0    0  501    0  0.00000000000E+00 -0.00000000000E+00 -0.80859968512E+03  0.80859968512E+03  0.25500000000E-02 0. -1.
    8880022    1    1    2    0    0  0.19952871159E+03 -0.28742040527E+03  0.11756151971E+03  0.39954293893E+03  0.15294330000E+03 0.  1.
    8880022    1    1    2    0    0 -0.19952871159E+03  0.28742040527E+03 -0.61300596144E+03  0.72221198958E+03  0.15294330000E+03 0.  0.
<mgrwt>
<rscale>  0 0.38185580E+03</rscale>
<asrwt>0</asrwt>
<pdfrwt beam="1">  1        2 0.12439995E+00 0.38185580E+03</pdfrwt>
<pdfrwt beam="2">  1       -2 0.48177730E-01 0.38185580E+03</pdfrwt>
<totfact> 0.14433457E+02</totfact>
</mgrwt>
</event>
<event>
 4    1  0.3365401E-008  0.3781985E+03  0.7818608E-02  0.1051602E+00
         -2   -1    0    0    0  501 -0.00000000000E+00  0.00000000000E+00  0.11818593153E+03  0.11818593156E+03  0.25500000000E-02 0.  1.
          2   -1    0    0  501    0  0.00000000000E+00 -0.00000000000E+00 -0.13518938298E+04  0.13518938298E+04  0.25500000000E-02 0. -1.
    8880022    1    1    2    0    0  0.56470976719E+02  0.34125276296E+03 -0.37892663985E+03  0.53536853740E+03  0.15294330000E+03 0.  0.
    8880022    1    1    2    0    0 -0.56470976719E+02 -0.34125276296E+03 -0.85478125839E+03  0.93471122393E+03  0.15294330000E+03 0.  0.
<mgrwt>
<rscale>  0 0.37819846E+03</rscale>
<asrwt>0</asrwt>
<pdfrwt beam="1">  1        2 0.20798366E+00 0.37819846E+03</pdfrwt>
<pdfrwt beam="2">  1       -2 0.18182452E-01 0.37819846E+03</pdfrwt>
<totfact> 0.40367619E+02</totfact>
</mgrwt>
</event>
<event>
 4    1  0.3365401E-008  0.2325674E+03  0.7818608E-02  0.1124846E+00
          2   -1    0    0  501    0  0.00000000000E+00  0.00000000000E+00  0.82059370444E+03  0.82059370444E+03  0.25500000000E-02 0. -1.
         -2   -1    0    0    0  501 -0.00000000000E+00 -0.00000000000E+00 -0.26573097199E+03  0.26573097200E+03  0.25500000000E-02 0.  1.
    8880022    1    1    2    0    0 -0.17502973531E+03  0.77813809845E+01 -0.19357423870E+03  0.30258651166E+03  0.15294330000E+03 0.  1.
    8880022    1    1    2    0    0  0.17502973531E+03 -0.77813809845E+01  0.74843697116E+03  0.78373816479E+03  0.15294330000E+03 0.  0.
<mgrwt>
<rscale>  0 0.23256743E+03</rscale>
<asrwt>0</asrwt>
<pdfrwt beam="1">  1        2 0.12624518E+00 0.23256743E+03</pdfrwt>
<pdfrwt beam="2">  1       -2 0.40881689E-01 0.23256743E+03</pdfrwt>
<totfact> 0.19917751E+02</totfact>
</mgrwt>
</event>
<event>
 4    1  0.3365401E-008  0.6983110E+03  0.7818608E-02  0.9720125E-01
         -2   -1    0    0    0  501 -0.00000000000E+00  0.00000000000E+00  0.63895171305E+03  0.63895171306E+03  0.25500000000E-02 0.  1.
          2   -1    0    0  501    0  0.00000000000E+00 -0.00000000000E+00 -0.14503295168E+04  0.14503295168E+04  0.25500000000E-02 0. -1.
    8880022    1    1    2    0    0  0.53604643792E+03  0.42059573665E+03 -0.11247365701E+04  0.13238846484E+04  0.15294330000E+03 0.  0.
    8880022    1    1    2    0    0 -0.53604643792E+03 -0.42059573665E+03  0.31335876637E+03  0.76539658137E+03  0.15294330000E+03 0.  0.
<mgrwt>
<rscale>  0 0.69831097E+03</rscale>
<asrwt>0</asrwt>
<pdfrwt beam="1">  1        2 0.22312762E+00 0.69831097E+03</pdfrwt>
<pdfrwt beam="2">  1       -2 0.98300264E-01 0.69831097E+03</pdfrwt>
<totfact> 0.12009203E+01</totfact>
</mgrwt>
</event>
<event>
 4    1  0.3365401E-008  0.2563581E+03  0.7818608E-02  0.1109351E+00
         -2   -1    0    0    0  501 -0.00000000000E+00  0.00000000000E+00  0.70703626521E+03  0.70703626522E+03  0.25500000000E-02 0.  1.
          2   -1    0    0  501    0  0.00000000000E+00 -0.00000000000E+00 -0.24527445792E+03  0.24527445793E+03  0.25500000000E-02 0. -1.
    8880022    1    1    2    0    0 -0.20471280539E+03  0.20505717347E+02 -0.14435676703E+03  0.29420799843E+03  0.15294330000E+03 0.  0.
    8880022    1    1    2    0    0  0.20471280539E+03 -0.20505717347E+02  0.60611857432E+03  0.65810272472E+03  0.15294330000E+03 0.  0.
<mgrwt>
<rscale>  0 0.25635809E+03</rscale>
<asrwt>0</asrwt>
<pdfrwt beam="1">  1        2 0.37734531E-01 0.25635809E+03</pdfrwt>
<pdfrwt beam="2">  1       -2 0.10877481E+00 0.25635809E+03</pdfrwt>
<totfact> 0.96668286E+01</totfact>
</mgrwt>
</event>
<event>
 4    1  0.3365401E-008  0.5316090E+03  0.7818608E-02  0.1005843E+00
         -2   -1    0    0    0  501 -0.00000000000E+00  0.00000000000E+00  0.74263769207E+03  0.74263769208E+03  0.25500000000E-02 0.  1.
          2   -1    0    0  501    0  0.00000000000E+00 -0.00000000000E+00 -0.71819993535E+03  0.71819993535E+03  0.25500000000E-02 0. -1.
    8880022    1    1    2    0    0  0.42802619121E+03 -0.27569915910E+03  0.51304263469E+03  0.73879689002E+03  0.15294330000E+03 0.  0.
    8880022    1    1    2    0    0 -0.42802619121E+03  0.27569915910E+03 -0.48860487796E+03  0.72204073740E+03  0.15294330000E+03 0.  0.
<mgrwt>
<rscale>  0 0.53160897E+03</rscale>
<asrwt>0</asrwt>
<pdfrwt beam="1">  1        2 0.11049230E+00 0.53160897E+03</pdfrwt>
<pdfrwt beam="2">  1       -2 0.11425195E+00 0.53160897E+03</pdfrwt>
<totfact> 0.24653725E+01</totfact>
</mgrwt>
</event>
<event>
 4    1  0.3365401E-008  0.4231345E+03  0.7818608E-02  0.1036051E+00
         -2   -1    0    0    0  501 -0.00000000000E+00  0.00000000000E+00  0.67090694459E+03  0.67090694459E+03  0.25500000000E-02 0.  1.
          2   -1    0    0  501    0  0.00000000000E+00 -0.00000000000E+00 -0.17821853763E+04  0.17821853763E+04  0.25500000000E-02 0. -1.
    8880022    1    1    2    0    0  0.32984409936E+03  0.21645784777E+03  0.57535252765E+03  0.71419417096E+03  0.15294330000E+03 0.  0.
    8880022    1    1    2    0    0 -0.32984409936E+03 -0.21645784777E+03 -0.16866309594E+04  0.17388981499E+04  0.15294330000E+03 0. -1.
<mgrwt>
<rscale>  0 0.42313447E+03</rscale>
<asrwt>0</asrwt>
<pdfrwt beam="1">  1        2 0.27418236E+00 0.42313447E+03</pdfrwt>
<pdfrwt beam="2">  1       -2 0.10321645E+00 0.42313447E+03</pdfrwt>
<totfact> 0.74453445E+00</totfact>
</mgrwt>
</event>
<event>
 4    1  0.3365401E-008  0.1399396E+04  0.7818608E-02  0.8954256E-01
         -2   -1    0    0    0  501 -0.00000000000E+00  0.00000000000E+00  0.10720598440E+04  0.10720598440E+04  0.25500000000E-02 0.  1.
          2   -1    0    0  501    0  0.00000000000E+00 -0.00000000000E+00 -0.32380156997E+04  0.32380156997E+04  0.25500000000E-02 0. -1.
    8880022    1    1    2    0    0  0.13778162228E+04 -0.19115508093E+03  0.33977894384E+03  0.14400552741E+04  0.15294330000E+03 0.  0.
    8880022    1    1    2    0    0 -0.13778162228E+04  0.19115508093E+03 -0.25057347995E+04  0.28700202695E+04  0.15294330000E+03 0.  0.
<mgrwt>
<rscale>  0 0.13993961E+04</rscale>
<asrwt>0</asrwt>
<pdfrwt beam="1">  1        2 0.49815626E+00 0.13993961E+04</pdfrwt>
<pdfrwt beam="2">  1       -2 0.16493228E+00 0.13993961E+04</pdfrwt>
<totfact> 0.27255412E-01</totfact>
</mgrwt>
</event>
<event>
 4    1  0.3365401E-008  0.1981355E+03  0.7818608E-02  0.1151322E+00
         -2   -1    0    0    0  501 -0.00000000000E+00  0.00000000000E+00  0.58284147756E+03  0.58284147757E+03  0.25500000000E-02 0.  1.
          2   -1    0    0  501    0  0.00000000000E+00 -0.00000000000E+00 -0.10030674287E+04  0.10030674287E+04  0.25500000000E-02 0. -1.
    8880022    1    1    2    0    0 -0.95305366864E+02 -0.82358316036E+02 -0.97598151493E+03  0.99589034320E+03  0.15294330000E+03 0.  0.
    8880022    1    1    2    0    0  0.95305366864E+02  0.82358316036E+02  0.55575556375E+03  0.59001856312E+03  0.15294330000E+03 0.  1.
<mgrwt>
<rscale>  0 0.19813545E+03</rscale>
<asrwt>0</asrwt>
<pdfrwt beam="1">  1        2 0.15431807E+00 0.19813545E+03</pdfrwt>
<pdfrwt beam="2">  1       -2 0.89667920E-01 0.19813545E+03</pdfrwt>
<totfact> 0.29981108E+01</totfact>
</mgrwt>
</event>
<event>
 4    1  0.3365401E-008  0.1791580E+03  0.7818608E-02  0.1168620E+00
          2   -1    0    0  501    0  0.00000000000E+00  0.00000000000E+00  0.33266319975E+04  0.33266319975E+04  0.25500000000E-02 0. -1.
         -2   -1    0    0    0  501 -0.00000000000E+00 -0.00000000000E+00 -0.20151932439E+03  0.20151932440E+03  0.25500000000E-02 0.  1.
    8880022    1    1    2    0    0 -0.92913324139E+02  0.85468376233E+01  0.32838823528E+04  0.32887658619E+04  0.15294330000E+03 0. -1.
    8880022    1    1    2    0    0  0.92913324139E+02 -0.85468376233E+01 -0.15876967972E+03  0.23938545998E+03  0.15294330000E+03 0.  0.
<mgrwt>
<rscale>  0 0.17915800E+03</rscale>
<asrwt>0</asrwt>
<pdfrwt beam="1">  1        2 0.51178952E+00 0.17915800E+03</pdfrwt>
<pdfrwt beam="2">  1       -2 0.31002974E-01 0.17915800E+03</pdfrwt>
<totfact> 0.13612814E+01</totfact>
</mgrwt>
</event>
<event>
 4    1  0.3365401E-008  0.3884429E+03  0.7818608E-02  0.1047857E+00
         -2   -1    0    0    0  501 -0.00000000000E+00  0.00000000000E+00  0.27738043032E+03  0.27738043033E+03  0.25500000000E-02 0.  1.
          2   -1    0    0  501    0  0.00000000000E+00 -0.00000000000E+00 -0.24532801912E+04  0.24532801912E+04  0.25500000000E-02 0. -1.
    8880022    1    1    2    0    0  0.35661670381E+03 -0.17908839854E+02 -0.22924362805E+04  0.23251133205E+04  0.15294330000E+03 0. -1.
    8880022    1    1    2    0    0 -0.35661670381E+03  0.17908839854E+02  0.11653651960E+03  0.40554730106E+03  0.15294330000E+03 0.  0.
<mgrwt>
<rscale>  0 0.38844286E+03</rscale>
<asrwt>0</asrwt>
<pdfrwt beam="1">  1        2 0.37742771E+00 0.38844286E+03</pdfrwt>
<pdfrwt beam="2">  1       -2 0.42673914E-01 0.38844286E+03</pdfrwt>
<totfact> 0.21730337E+01</totfact>
</mgrwt>
</event>
<event>
 4    1  0.3365401E-008  0.5567100E+03  0.7818608E-02  0.9999527E-01
          2   -1    0    0  501    0  0.00000000000E+00  0.00000000000E+00  0.13596127629E+04  0.13596127629E+04  0.25500000000E-02 0. -1.
         -2   -1    0    0    0  501 -0.00000000000E+00 -0.00000000000E+00 -0.49395354616E+03  0.49395354617E+03  0.25500000000E-02 0.  1.
    8880022    1    1    2    0    0  0.27830002770E+03  0.45725640570E+03 -0.24727769717E+03  0.60915699003E+03  0.15294330000E+03 0.  0.
    8880022    1    1    2    0    0 -0.27830002770E+03 -0.45725640570E+03  0.11129369139E+04  0.12444093190E+04  0.15294330000E+03 0.  0.
<mgrwt>
<rscale>  0 0.55670996E+03</rscale>
<asrwt>0</asrwt>
<pdfrwt beam="1">  1        2 0.20917119E+00 0.55670996E+03</pdfrwt>
<pdfrwt beam="2">  1       -2 0.75992853E-01 0.55670996E+03</pdfrwt>
<totfact> 0.24804649E+01</totfact>
</mgrwt>
</event>
<event>
 4    1  0.3365401E-008  0.3543866E+03  0.7818608E-02  0.1060829E+00
         -2   -1    0    0    0  501 -0.00000000000E+00  0.00000000000E+00  0.53219767251E+03  0.53219767252E+03  0.25500000000E-02 0.  1.
          2   -1    0    0  501    0  0.00000000000E+00 -0.00000000000E+00 -0.44440940616E+03  0.44440940617E+03  0.25500000000E-02 0. -1.
    8880022    1    1    2    0    0  0.31641604632E+03  0.45597086486E+02 -0.29051190861E+03  0.45824341864E+03  0.15294330000E+03 0.  0.
    8880022    1    1    2    0    0 -0.31641604632E+03 -0.45597086486E+02  0.37830017496E+03  0.51836366005E+03  0.15294330000E+03 0.  0.
<mgrwt>
<rscale>  0 0.35438660E+03</rscale>
<asrwt>0</asrwt>
<pdfrwt beam="1">  1        2 0.68370678E-01 0.35438660E+03</pdfrwt>
<pdfrwt beam="2">  1       -2 0.81876564E-01 0.35438660E+03</pdfrwt>
<totfact> 0.96234071E+01</totfact>
</mgrwt>
</event>
<event>
 4    1  0.3365401E-008  0.2620308E+03  0.7818608E-02  0.1105929E+00
         -2   -1    0    0    0  501 -0.00000000000E+00  0.00000000000E+00  0.10302710293E+03  0.10302710297E+03  0.25500000000E-02 0.  1.
          2   -1    0    0  501    0  0.00000000000E+00 -0.00000000000E+00 -0.15112466249E+04  0.15112466249E+04  0.25500000000E-02 0. -1.
    8880022    1    1    2    0    0 -0.81264791001E+02  0.19663296614E+03 -0.13075875072E+04  0.13335836050E+04  0.15294330000E+03 0. -1.
    8880022    1    1    2    0    0  0.81264791001E+02 -0.19663296614E+03 -0.10063201473E+03  0.28069012279E+03  0.15294330000E+03 0.  0.
<mgrwt>
<rscale>  0 0.26203080E+03</rscale>
<asrwt>0</asrwt>
<pdfrwt beam="1">  1        2 0.23249946E+00 0.26203080E+03</pdfrwt>
<pdfrwt beam="2">  1       -2 0.15850325E-01 0.26203080E+03</pdfrwt>
<totfact> 0.42275542E+02</totfact>
</mgrwt>
</event>
<event>
 4    1  0.3365401E-008  0.5321055E+03  0.7818608E-02  0.1005723E+00
          2   -1    0    0  501    0  0.00000000000E+00  0.00000000000E+00  0.61665917070E+03  0.61665917070E+03  0.25500000000E-02 0. -1.
         -2   -1    0    0    0  501 -0.00000000000E+00 -0.00000000000E+00 -0.80818625517E+03  0.80818625518E+03  0.25500000000E-02 0.  1.
    8880022    1    1    2    0    0  0.47582515912E+03  0.18257877609E+03 -0.56395138857E+03  0.77535631371E+03  0.15294330000E+03 0.  0.
    8880022    1    1    2    0    0 -0.47582515912E+03 -0.18257877609E+03  0.37242430409E+03  0.64948911217E+03  0.15294330000E+03 0.  0.
<mgrwt>
<rscale>  0 0.53210548E+03</rscale>
<asrwt>0</asrwt>
<pdfrwt beam="1">  1        2 0.94870641E-01 0.53210548E+03</pdfrwt>
<pdfrwt beam="2">  1       -2 0.12433635E+00 0.53210548E+03</pdfrwt>
<totfact> 0.24153241E+01</totfact>
</mgrwt>
</event>
<event>
 4    1  0.3365401E-008  0.3955584E+03  0.7818608E-02  0.1045329E+00
          2   -1    0    0  501    0  0.00000000000E+00  0.00000000000E+00  0.23313304214E+04  0.23313304214E+04  0.25500000000E-02 0. -1.
         -2   -1    0    0    0  501 -0.00000000000E+00 -0.00000000000E+00 -0.77405475507E+02  0.77405475549E+02  0.25500000000E-02 0.  1.
    8880022    1    1    2    0    0  0.34973364204E+03 -0.10373612005E+03  0.15660975989E+04  0.16152795874E+04  0.15294330000E+03 0.  0.
    8880022    1    1    2    0    0 -0.34973364204E+03  0.10373612005E+03  0.68782734701E+03  0.79345630963E+03  0.15294330000E+03 0.  0.
<mgrwt>
<rscale>  0 0.39555841E+03</rscale>
<asrwt>0</asrwt>
<pdfrwt beam="1">  1        2 0.35866628E+00 0.39555841E+03</pdfrwt>
<pdfrwt beam="2">  1       -2 0.11908533E-01 0.39555841E+03</pdfrwt>
<totfact> 0.24221984E+02</totfact>
</mgrwt>
</event>
<event>
 4    1  0.3365401E-008  0.2240285E+03  0.7818608E-02  0.1130915E+00
         -2   -1    0    0    0  501 -0.00000000000E+00  0.00000000000E+00  0.84724065078E+02  0.84724065117E+02  0.25500000000E-02 0.  1.
          2   -1    0    0  501    0  0.00000000000E+00 -0.00000000000E+00 -0.10103534587E+04  0.10103534587E+04  0.25500000000E-02 0. -1.
    8880022    1    1    2    0    0 -0.14670193731E+03  0.72633840474E+02 -0.81498513357E+03  0.84521568499E+03  0.15294330000E+03 0. -1.
    8880022    1    1    2    0    0  0.14670193731E+03 -0.72633840474E+02 -0.11064426000E+03  0.24986183878E+03  0.15294330000E+03 0.  0.
<mgrwt>
<rscale>  0 0.22402854E+03</rscale>
<asrwt>0</asrwt>
<pdfrwt beam="1">  1        2 0.15543899E+00 0.22402854E+03</pdfrwt>
<pdfrwt beam="2">  1       -2 0.13034472E-01 0.22402854E+03</pdfrwt>
<totfact> 0.11202599E+03</totfact>
</mgrwt>
</event>
<event>
 4    1  0.3365401E-008  0.7386144E+03  0.7818608E-02  0.9653384E-01
         -2   -1    0    0    0  501 -0.00000000000E+00  0.00000000000E+00  0.20610840124E+03  0.20610840126E+03  0.25500000000E-02 0.  1.
          2   -1    0    0  501    0  0.00000000000E+00 -0.00000000000E+00 -0.37799135412E+04  0.37799135412E+04  0.25500000000E-02 0. -1.
    8880022    1    1    2    0    0 -0.20675798513E+03  0.69239494342E+03 -0.28780503298E+04  0.29713170440E+04  0.15294330000E+03 0.  0.
    8880022    1    1    2    0    0  0.20675798513E+03 -0.69239494342E+03 -0.69575481017E+03  0.10147048985E+04  0.15294330000E+03 0.  1.
<mgrwt>
<rscale>  0 0.73861443E+03</rscale>
<asrwt>0</asrwt>
<pdfrwt beam="1">  1        2 0.58152511E+00 0.73861443E+03</pdfrwt>
<pdfrwt beam="2">  1       -2 0.31708988E-01 0.73861443E+03</pdfrwt>
<totfact> 0.51569837E+00</totfact>
</mgrwt>
</event>
<event>
 4    1  0.3365401E-008  0.2831622E+03  0.7818608E-02  0.1093974E+00
          2   -1    0    0  501    0  0.00000000000E+00  0.00000000000E+00  0.23666353304E+04  0.23666353304E+04  0.25500000000E-02 0. -1.
         -2   -1    0    0    0  501 -0.00000000000E+00 -0.00000000000E+00 -0.47413935035E+02  0.47413935103E+02  0.25500000000E-02 0.  1.
    8880022    1    1    2    0    0 -0.23489020017E+03 -0.40196834982E+02  0.18044928113E+04  0.18265747044E+04  0.15294330000E+03 0.  0.
    8880022    1    1    2    0    0  0.23489020017E+03  0.40196834982E+02  0.51472858404E+03  0.58747456108E+03  0.15294330000E+03 0.  0.
<mgrwt>
<rscale>  0 0.28316222E+03</rscale>
<asrwt>0</asrwt>
<pdfrwt beam="1">  1        2 0.36409770E+00 0.28316222E+03</pdfrwt>
<pdfrwt beam="2">  1       -2 0.72944523E-02 0.28316222E+03</pdfrwt>
<totfact> 0.51716246E+02</totfact>
</mgrwt>
</event>
<event>
 4    1  0.3365401E-008  0.8598971E+03  0.7818608E-02  0.9477149E-01
         -2   -1    0    0    0  501 -0.00000000000E+00  0.00000000000E+00  0.17665445244E+04  0.17665445244E+04  0.25500000000E-02 0.  1.
          2   -1    0    0  501    0  0.00000000000E+00 -0.00000000000E+00 -0.58853135035E+03  0.58853135036E+03  0.25500000000E-02 0. -1.
    8880022    1    1    2    0    0 -0.35153027025E+03 -0.76971281146E+03  0.12218042472E+04  0.14940644613E+04  0.15294330000E+03 0.  0.
    8880022    1    1    2    0    0  0.35153027025E+03  0.76971281146E+03 -0.43791073152E+02  0.86101141347E+03  0.15294330000E+03 0.  0.
<mgrwt>
<rscale>  0 0.85989708E+03</rscale>
<asrwt>0</asrwt>
<pdfrwt beam="1">  1        2 0.90543285E-01 0.85989708E+03</pdfrwt>
<pdfrwt beam="2">  1       -2 0.27177608E+00 0.85989708E+03</pdfrwt>
<totfact> 0.24457231E+00</totfact>
</mgrwt>
</event>
<event>
 4    1  0.3365401E-008  0.1915382E+03  0.7818608E-02  0.1157081E+00
         -2   -1    0    0    0  501 -0.00000000000E+00  0.00000000000E+00  0.22569657314E+03  0.22569657316E+03  0.25500000000E-02 0.  1.
          2   -1    0    0  501    0  0.00000000000E+00 -0.00000000000E+00 -0.22477006629E+03  0.22477006630E+03  0.25500000000E-02 0. -1.
    8880022    1    1    2    0    0 -0.11503195490E+03  0.79301735912E+01  0.11896642555E+03  0.22547705365E+03  0.15294330000E+03 0.  0.
    8880022    1    1    2    0    0  0.11503195490E+03 -0.79301735912E+01 -0.11803991869E+03  0.22498958581E+03  0.15294330000E+03 0.  0.
<mgrwt>
<rscale>  0 0.19153822E+03</rscale>
<asrwt>0</asrwt>
<pdfrwt beam="1">  1        2 0.34580010E-01 0.19153822E+03</pdfrwt>
<pdfrwt beam="2">  1       -2 0.34722550E-01 0.19153822E+03</pdfrwt>
<totfact> 0.11610083E+03</totfact>
</mgrwt>
</event>
<event>
 4    1  0.3365401E-008  0.5258314E+03  0.7818608E-02  0.1007248E+00
         -2   -1    0    0    0  501 -0.00000000000E+00  0.00000000000E+00  0.10686949558E+04  0.10686949558E+04  0.25500000000E-02 0.  1.
          2   -1    0    0  501    0  0.00000000000E+00 -0.00000000000E+00 -0.33952480012E+03  0.33952480013E+03  0.25500000000E-02 0. -1.
    8880022    1    1    2    0    0  0.16276376999E+03  0.47604095831E+03  0.70807052933E+03  0.88196517297E+03  0.15294330000E+03 0.  1.
    8880022    1    1    2    0    0 -0.16276376999E+03 -0.47604095831E+03  0.21099626307E+02  0.52625458293E+03  0.15294330000E+03 0.  0.
<mgrwt>
<rscale>  0 0.52583143E+03</rscale>
<asrwt>0</asrwt>
<pdfrwt beam="1">  1        2 0.52234584E-01 0.52583143E+03</pdfrwt>
<pdfrwt beam="2">  1       -2 0.16441461E+00 0.52583143E+03</pdfrwt>
<totfact> 0.23133725E+01</totfact>
</mgrwt>
</event>
<event>
 4    1  0.3365401E-008  0.5674808E+03  0.7818608E-02  0.9975269E-01
         -2   -1    0    0    0  501 -0.00000000000E+00  0.00000000000E+00  0.28228440833E+04  0.28228440833E+04  0.25500000000E-02 0.  1.
          2   -1    0    0  501    0  0.00000000000E+00 -0.00000000000E+00 -0.13578728431E+03  0.13578728434E+03  0.25500000000E-02 0. -1.
    8880022    1    1    2    0    0  0.53620159356E+03 -0.10550216405E+03  0.75207808400E+03  0.94215495170E+03  0.15294330000E+03 0.  0.
    8880022    1    1    2    0    0 -0.53620159356E+03  0.10550216405E+03  0.19349787149E+04  0.20164764159E+04  0.15294330000E+03 0.  0.
<mgrwt>
<rscale>  0 0.56748084E+03</rscale>
<asrwt>0</asrwt>
<pdfrwt beam="1">  1        2 0.20890353E-01 0.56748084E+03</pdfrwt>
<pdfrwt beam="2">  1       -2 0.43428367E+00 0.56748084E+03</pdfrwt>
<totfact> 0.13096410E+00</totfact>
</mgrwt>
</event>
<event>
 4    1  0.3365401E-008  0.4557974E+03  0.7818608E-02  0.1026007E+00
         -2   -1    0    0    0  501 -0.00000000000E+00  0.00000000000E+00  0.49054929281E+03  0.49054929282E+03  0.25500000000E-02 0.  1.
          2   -1    0    0  501    0  0.00000000000E+00 -0.00000000000E+00 -0.47111514395E+03  0.47111514396E+03  0.25500000000E-02 0. -1.
    8880022    1    1    2    0    0 -0.39553301444E+03  0.16707264034E+03  0.16256816741E+03  0.48392116582E+03  0.15294330000E+03 0.  0.
    8880022    1    1    2    0    0  0.39553301444E+03 -0.16707264034E+03 -0.14313401856E+03  0.47774327096E+03  0.15294330000E+03 0.  0.
<mgrwt>
<rscale>  0 0.45579742E+03</rscale>
<asrwt>0</asrwt>
<pdfrwt beam="1">  1        2 0.72479253E-01 0.45579742E+03</pdfrwt>
<pdfrwt beam="2">  1       -2 0.75469122E-01 0.45579742E+03</pdfrwt>
<totfact> 0.10700429E+02</totfact>
</mgrwt>
</event>
<event>
 4    1  0.3365401E-008  0.6876739E+03  0.7818608E-02  0.9738547E-01
         -2   -1    0    0    0  501 -0.00000000000E+00  0.00000000000E+00  0.31451790092E+03  0.31451790093E+03  0.25500000000E-02 0.  1.
          2   -1    0    0  501    0  0.00000000000E+00 -0.00000000000E+00 -0.22906245202E+04  0.22906245202E+04  0.25500000000E-02 0. -1.
    8880022    1    1    2    0    0  0.37056832081E+03 -0.55873323955E+03 -0.22451520525E+03  0.72339646375E+03  0.15294330000E+03 0.  0.
    8880022    1    1    2    0    0 -0.37056832081E+03  0.55873323955E+03 -0.17515914140E+04  0.18817459573E+04  0.15294330000E+03 0.  0.
<mgrwt>
<rscale>  0 0.68767388E+03</rscale>
<asrwt>0</asrwt>
<pdfrwt beam="1">  1        2 0.35240376E+00 0.68767388E+03</pdfrwt>
<pdfrwt beam="2">  1       -2 0.48387371E-01 0.68767388E+03</pdfrwt>
<totfact> 0.19511641E+01</totfact>
</mgrwt>
</event>
<event>
 4    1  0.3365401E-008  0.9002125E+03  0.7818608E-02  0.9425316E-01
         -2   -1    0    0    0  501 -0.00000000000E+00  0.00000000000E+00  0.48805763157E+03  0.48805763158E+03  0.25500000000E-02 0.  1.
          2   -1    0    0  501    0  0.00000000000E+00 -0.00000000000E+00 -0.29632648013E+04  0.29632648013E+04  0.25500000000E-02 0. -1.
    8880022    1    1    2    0    0  0.88614031022E+03 -0.41787027974E+02 -0.23818407062E+04  0.25462811329E+04  0.15294330000E+03 0.  0.
    8880022    1    1    2    0    0 -0.88614031022E+03  0.41787027974E+02 -0.93366463514E+02  0.90504129996E+03  0.15294330000E+03 0.  0.
<mgrwt>
<rscale>  0 0.90021245E+03</rscale>
<asrwt>0</asrwt>
<pdfrwt beam="1">  1        2 0.45588688E+00 0.90021245E+03</pdfrwt>
<pdfrwt beam="2">  1       -2 0.75085791E-01 0.90021245E+03</pdfrwt>
<totfact> 0.30315454E+00</totfact>
</mgrwt>
</event>
<event>
 4    1  0.3365401E-008  0.1410410E+04  0.7818608E-02  0.8946317E-01
          2   -1    0    0  501    0  0.00000000000E+00  0.00000000000E+00  0.14687632691E+04  0.14687632691E+04  0.25500000000E-02 0. -1.
         -2   -1    0    0    0  501 -0.00000000000E+00 -0.00000000000E+00 -0.19709769352E+04  0.19709769352E+04  0.25500000000E-02 0.  1.
    8880022    1    1    2    0    0  0.11222844009E+04  0.84044259503E+03  0.71085307921E+03  0.15794207119E+04  0.15294330000E+03 0.  0.
    8880022    1    1    2    0    0 -0.11222844009E+04 -0.84044259503E+03 -0.12130667453E+04  0.18603194923E+04  0.15294330000E+03 0.  0.
<mgrwt>
<rscale>  0 0.14104105E+04</rscale>
<asrwt>0</asrwt>
<pdfrwt beam="1">  1        2 0.22596358E+00 0.14104105E+04</pdfrwt>
<pdfrwt beam="2">  1       -2 0.30322722E+00 0.14104105E+04</pdfrwt>
<totfact> 0.38174047E-01</totfact>
</mgrwt>
</event>
<event>
 4    1  0.3365401E-008  0.5218172E+03  0.7818608E-02  0.1008236E+00
          2   -1    0    0  501    0  0.00000000000E+00  0.00000000000E+00  0.18426561000E+04  0.18426561000E+04  0.25500000000E-02 0. -1.
         -2   -1    0    0    0  501 -0.00000000000E+00 -0.00000000000E+00 -0.18023608045E+03  0.18023608047E+03  0.25500000000E-02 0.  1.
    8880022    1    1    2    0    0 -0.26773945465E+03 -0.42097165781E+03  0.40194785825E+03  0.65867692082E+03  0.15294330000E+03 0.  0.
    8880022    1    1    2    0    0  0.26773945465E+03  0.42097165781E+03  0.12604721613E+04  0.13642152596E+04  0.15294330000E+03 0.  1.
<mgrwt>
<rscale>  0 0.52181721E+03</rscale>
<asrwt>0</asrwt>
<pdfrwt beam="1">  1        2 0.28348556E+00 0.52181721E+03</pdfrwt>
<pdfrwt beam="2">  1       -2 0.27728627E-01 0.52181721E+03</pdfrwt>
<totfact> 0.10195425E+02</totfact>
</mgrwt>
</event>
<event>
 4    1  0.3365401E-008  0.3297910E+03  0.7818608E-02  0.1071229E+00
          2   -1    0    0  501    0  0.00000000000E+00  0.00000000000E+00  0.80898489451E+03  0.80898489452E+03  0.25500000000E-02 0. -1.
         -2   -1    0    0    0  501 -0.00000000000E+00 -0.00000000000E+00 -0.18505940509E+03  0.18505940510E+03  0.25500000000E-02 0.  1.
    8880022    1    1    2    0    0 -0.28229568113E+03  0.75363092623E+02  0.52026303917E+02  0.33386949041E+03  0.15294330000E+03 0.  0.
    8880022    1    1    2    0    0  0.28229568113E+03 -0.75363092623E+02  0.57189918551E+03  0.66017480921E+03  0.15294330000E+03 0.  0.
<mgrwt>
<rscale>  0 0.32979099E+03</rscale>
<asrwt>0</asrwt>
<pdfrwt beam="1">  1        2 0.12445922E+00 0.32979099E+03</pdfrwt>
<pdfrwt beam="2">  1       -2 0.28470677E-01 0.32979099E+03</pdfrwt>
<totfact> 0.39425440E+02</totfact>
</mgrwt>
</event>
<event>
 4    1  0.3365401E-008  0.4671686E+03  0.7818608E-02  0.1022722E+00
          2   -1    0    0  501    0  0.00000000000E+00  0.00000000000E+00  0.19001355197E+04  0.19001355197E+04  0.25500000000E-02 0. -1.
         -2   -1    0    0    0  501 -0.00000000000E+00 -0.00000000000E+00 -0.24121205071E+03  0.24121205073E+03  0.25500000000E-02 0.  1.
    8880022    1    1    2    0    0  0.31248447483E+03  0.31178240573E+03  0.16043723631E+04  0.16710048318E+04  0.15294330000E+03 0. -1.
    8880022    1    1    2    0    0 -0.31248447483E+03 -0.31178240573E+03  0.54551105835E+02  0.47034273854E+03  0.15294330000E+03 0.  0.
<mgrwt>
<rscale>  0 0.46716857E+03</rscale>
<asrwt>0</asrwt>
<pdfrwt beam="1">  1        2 0.29232853E+00 0.46716857E+03</pdfrwt>
<pdfrwt beam="2">  1       -2 0.37109547E-01 0.46716857E+03</pdfrwt>
<totfact> 0.55655592E+01</totfact>
</mgrwt>
</event>
<event>
 4    1  0.3365401E-008  0.9214667E+03  0.7818608E-02  0.9399138E-01
         -2   -1    0    0    0  501 -0.00000000000E+00  0.00000000000E+00  0.11677141615E+04  0.11677141615E+04  0.25500000000E-02 0.  1.
          2   -1    0    0  501    0  0.00000000000E+00 -0.00000000000E+00 -0.11360634149E+04  0.11360634149E+04  0.25500000000E-02 0. -1.
    8880022    1    1    2    0    0 -0.35481807378E+03  0.83654849619E+03 -0.67525101713E+03  0.11423943457E+04  0.15294330000E+03 0. -1.
    8880022    1    1    2    0    0  0.35481807378E+03 -0.83654849619E+03  0.70690176376E+03  0.11613832307E+04  0.15294330000E+03 0.  0.
<mgrwt>
<rscale>  0 0.92146671E+03</rscale>
<asrwt>0</asrwt>
<pdfrwt beam="1">  1        2 0.17477899E+00 0.92146671E+03</pdfrwt>
<pdfrwt beam="2">  1       -2 0.17964833E+00 0.92146671E+03</pdfrwt>
<totfact> 0.37761057E+00</totfact>
</mgrwt>
</event>
<event>
 4    1  0.3365401E-008  0.6885802E+03  0.7818608E-02  0.9736963E-01
          2   -1    0    0  501    0  0.00000000000E+00  0.00000000000E+00  0.70636604037E+03  0.70636604037E+03  0.25500000000E-02 0. -1.
         -2   -1    0    0    0  501 -0.00000000000E+00 -0.00000000000E+00 -0.76368598010E+03  0.76368598010E+03  0.25500000000E-02 0.  1.
    8880022    1    1    2    0    0 -0.27206382268E+03  0.61378527224E+03  0.22707140096E+03  0.72505458980E+03  0.15294330000E+03 0.  0.
    8880022    1    1    2    0    0  0.27206382268E+03 -0.61378527224E+03 -0.28439134070E+03  0.74499743068E+03  0.15294330000E+03 0.  0.
<mgrwt>
<rscale>  0 0.68858023E+03</rscale>
<asrwt>0</asrwt>
<pdfrwt beam="1">  1        2 0.10867170E+00 0.68858023E+03</pdfrwt>
<pdfrwt beam="2">  1       -2 0.11749015E+00 0.68858023E+03</pdfrwt>
<totfact> 0.23108061E+01</totfact>
</mgrwt>
</event>
<event>
 4    1  0.3365401E-008  0.5693366E+03  0.7818608E-02  0.9971148E-01
          2   -1    0    0  501    0  0.00000000000E+00  0.00000000000E+00  0.29171033598E+03  0.29171033599E+03  0.25500000000E-02 0. -1.
         -2   -1    0    0    0  501 -0.00000000000E+00 -0.00000000000E+00 -0.12621535720E+04  0.12621535720E+04  0.25500000000E-02 0.  1.
    8880022    1    1    2    0    0 -0.36357562115E+03 -0.41056699401E+03 -0.75392318265E+03  0.94474563096E+03  0.15294330000E+03 0.  0.
    8880022    1    1    2    0    0  0.36357562115E+03  0.41056699401E+03 -0.21652005334E+03  0.60911827701E+03  0.15294330000E+03 0.  0.
<mgrwt>
<rscale>  0 0.56933658E+03</rscale>
<asrwt>0</asrwt>
<pdfrwt beam="1">  1        2 0.44878514E-01 0.56933658E+03</pdfrwt>
<pdfrwt beam="2">  1       -2 0.19417747E+00 0.56933658E+03</pdfrwt>
<totfact> 0.17036952E+01</totfact>
</mgrwt>
</event>
<event>
 4    1  0.3365401E-008  0.2573428E+03  0.7818608E-02  0.1108750E+00
         -2   -1    0    0    0  501 -0.00000000000E+00  0.00000000000E+00  0.20025938064E+03  0.20025938065E+03  0.25500000000E-02 0.  1.
          2   -1    0    0  501    0  0.00000000000E+00 -0.00000000000E+00 -0.14175527108E+04  0.14175527108E+04  0.25500000000E-02 0. -1.
    8880022    1    1    2    0    0 -0.32887202097E+02  0.20433327885E+03 -0.13169418437E+04  0.13418498909E+04  0.15294330000E+03 0.  0.
    8880022    1    1    2    0    0  0.32887202097E+02 -0.20433327885E+03  0.99648513511E+02  0.27596220062E+03  0.15294330000E+03 0.  0.
<mgrwt>
<rscale>  0 0.25734279E+03</rscale>
<asrwt>0</asrwt>
<pdfrwt beam="1">  1        2 0.21808503E+00 0.25734279E+03</pdfrwt>
<pdfrwt beam="2">  1       -2 0.30809136E-01 0.25734279E+03</pdfrwt>
<totfact> 0.14927823E+02</totfact>
</mgrwt>
</event>
<event>
 4    1  0.3365401E-008  0.5765461E+03  0.7818608E-02  0.9955297E-01
         -2   -1    0    0    0  501 -0.00000000000E+00  0.00000000000E+00  0.35488765320E+03  0.35488765321E+03  0.25500000000E-02 0.  1.
          2   -1    0    0  501    0  0.00000000000E+00 -0.00000000000E+00 -0.12042597258E+04  0.12042597258E+04  0.25500000000E-02 0. -1.
    8880022    1    1    2    0    0 -0.43185135842E+03 -0.35002588493E+03 -0.79217845577E+03  0.97977144003E+03  0.15294330000E+03 0.  0.
    8880022    1    1    2    0    0  0.43185135842E+03  0.35002588493E+03 -0.57193616875E+02  0.57937593902E+03  0.15294330000E+03 0.  0.
<mgrwt>
<rscale>  0 0.57654607E+03</rscale>
<asrwt>0</asrwt>
<pdfrwt beam="1">  1        2 0.18527073E+00 0.57654607E+03</pdfrwt>
<pdfrwt beam="2">  1       -2 0.54598101E-01 0.57654607E+03</pdfrwt>
<totfact> 0.61556759E+01</totfact>
</mgrwt>
</event>
<event>
 4    1  0.3365401E-008  0.9704479E+03  0.7818608E-02  0.9341564E-01
          2   -1    0    0  501    0  0.00000000000E+00  0.00000000000E+00  0.14881614573E+04  0.14881614573E+04  0.25500000000E-02 0. -1.
         -2   -1    0    0    0  501 -0.00000000000E+00 -0.00000000000E+00 -0.95484614857E+03  0.95484614857E+03  0.25500000000E-02 0.  1.
    8880022    1    1    2    0    0  0.23075303571E+03  0.93012394724E+03 -0.44269094773E+03  0.10666510437E+04  0.15294330000E+03 0.  0.
    8880022    1    1    2    0    0 -0.23075303571E+03 -0.93012394724E+03  0.97600625649E+03  0.13763565622E+04  0.15294330000E+03 0.  0.
<mgrwt>
<rscale>  0 0.97044792E+03</rscale>
<asrwt>0</asrwt>
<pdfrwt beam="1">  1        2 0.22894792E+00 0.97044792E+03</pdfrwt>
<pdfrwt beam="2">  1       -2 0.14689941E+00 0.97044792E+03</pdfrwt>
<totfact> 0.40660822E+00</totfact>
</mgrwt>
</event>
<event>
 4    1  0.3365401E-008  0.6699861E+03  0.7818608E-02  0.9769983E-01
          2   -1    0    0  501    0  0.00000000000E+00  0.00000000000E+00  0.20912594968E+04  0.20912594968E+04  0.25500000000E-02 0. -1.
         -2   -1    0    0    0  501 -0.00000000000E+00 -0.00000000000E+00 -0.48537941754E+03  0.48537941755E+03  0.25500000000E-02 0.  1.
    8880022    1    1    2    0    0  0.34913108334E+03 -0.55099653860E+03  0.17651137544E+04  0.18879904444E+04  0.15294330000E+03 0.  0.
    8880022    1    1    2    0    0 -0.34913108334E+03  0.55099653860E+03 -0.15923367518E+03  0.68864846999E+03  0.15294330000E+03 0.  0.
<mgrwt>
<rscale>  0 0.66998608E+03</rscale>
<asrwt>0</asrwt>
<pdfrwt beam="1">  1        2 0.32173222E+00 0.66998608E+03</pdfrwt>
<pdfrwt beam="2">  1       -2 0.74673758E-01 0.66998608E+03</pdfrwt>
<totfact> 0.10073183E+01</totfact>
</mgrwt>
</event>
<event>
 4    1  0.3365401E-008  0.5073954E+03  0.7818608E-02  0.1011866E+00
          2   -1    0    0  501    0  0.00000000000E+00  0.00000000000E+00  0.81581416987E+03  0.81581416987E+03  0.25500000000E-02 0. -1.
         -2   -1    0    0    0  501 -0.00000000000E+00 -0.00000000000E+00 -0.77282220173E+03  0.77282220173E+03  0.25500000000E-02 0.  1.
    8880022    1    1    2    0    0 -0.47928842416E+03  0.65886364665E+02  0.63248095601E+03  0.81085277290E+03  0.15294330000E+03 0.  0.
    8880022    1    1    2    0    0  0.47928842416E+03 -0.65886364665E+02 -0.58948898787E+03  0.77778359871E+03  0.15294330000E+03 0.  0.
<mgrwt>
<rscale>  0 0.50739537E+03</rscale>
<asrwt>0</asrwt>
<pdfrwt beam="1">  1        2 0.12550987E+00 0.50739537E+03</pdfrwt>
<pdfrwt beam="2">  1       -2 0.11889572E+00 0.50739537E+03</pdfrwt>
<totfact> 0.19050373E+01</totfact>
</mgrwt>
</event>
<event>
 4    1  0.3365401E-008  0.7619546E+03  0.7818608E-02  0.9616780E-01
          2   -1    0    0  501    0  0.00000000000E+00  0.00000000000E+00  0.34352101162E+04  0.34352101162E+04  0.25500000000E-02 0. -1.
         -2   -1    0    0    0  501 -0.00000000000E+00 -0.00000000000E+00 -0.23940074984E+03  0.23940074986E+03  0.25500000000E-02 0.  1.
    8880022    1    1    2    0    0  0.48033301528E+03 -0.57136975833E+03  0.60161557130E+03  0.97083271213E+03  0.15294330000E+03 0.  0.
    8880022    1    1    2    0    0 -0.48033301528E+03  0.57136975833E+03  0.25941937950E+04  0.27037781539E+04  0.15294330000E+03 0.  0.
<mgrwt>
<rscale>  0 0.76195463E+03</rscale>
<asrwt>0</asrwt>
<pdfrwt beam="1">  1        2 0.52849387E+00 0.76195463E+03</pdfrwt>
<pdfrwt beam="2">  1       -2 0.36830884E-01 0.76195463E+03</pdfrwt>
<totfact> 0.67464706E+00</totfact>
</mgrwt>
</event>
<event>
 4    1  0.3365401E-008  0.6107261E+03  0.7818608E-02  0.9883399E-01
         -2   -1    0    0    0  501 -0.00000000000E+00  0.00000000000E+00  0.30221908228E+03  0.30221908229E+03  0.25500000000E-02 0.  1.
          2   -1    0    0  501    0  0.00000000000E+00 -0.00000000000E+00 -0.17175738404E+04  0.17175738404E+04  0.25500000000E-02 0. -1.
    8880022    1    1    2    0    0  0.59097227864E+03 -0.18613637755E+02 -0.12434483750E+04  0.13853339727E+04  0.15294330000E+03 0.  0.
    8880022    1    1    2    0    0 -0.59097227864E+03  0.18613637755E+02 -0.17190638310E+03  0.63445894997E+03  0.15294330000E+03 0.  0.
<mgrwt>
<rscale>  0 0.61072609E+03</rscale>
<asrwt>0</asrwt>
<pdfrwt beam="1">  1        2 0.26424212E+00 0.61072609E+03</pdfrwt>
<pdfrwt beam="2">  1       -2 0.46495244E-01 0.61072609E+03</pdfrwt>
<totfact> 0.43901534E+01</totfact>
</mgrwt>
</event>
<event>
 4    1  0.3365401E-008  0.1955056E+03  0.7818608E-02  0.1153587E+00
          2   -1    0    0  501    0  0.00000000000E+00  0.00000000000E+00  0.10691674327E+04  0.10691674327E+04  0.25500000000E-02 0. -1.
         -2   -1    0    0    0  501 -0.00000000000E+00 -0.00000000000E+00 -0.38632805996E+02  0.38632806080E+02  0.25500000000E-02 0.  1.
    8880022    1    1    2    0    0 -0.11873095932E+03 -0.27087754437E+02  0.36395235395E+03  0.41313890655E+03  0.15294330000E+03 0.  1.
    8880022    1    1    2    0    0  0.11873095932E+03  0.27087754437E+02  0.66658227274E+03  0.69466133222E+03  0.15294330000E+03 0. -1.
<mgrwt>
<rscale>  0 0.19550560E+03</rscale>
<asrwt>0</asrwt>
<pdfrwt beam="1">  1        2 0.16448730E+00 0.19550560E+03</pdfrwt>
<pdfrwt beam="2">  1       -2 0.59435084E-02 0.19550560E+03</pdfrwt>
<totfact> 0.35516626E+03</totfact>
</mgrwt>
</event>
<event>
 4    1  0.3365401E-008  0.1841227E+04  0.7818608E-02  0.8684677E-01
         -2   -1    0    0    0  501 -0.00000000000E+00  0.00000000000E+00  0.10395513181E+04  0.10395513181E+04  0.25500000000E-02 0.  1.
          2   -1    0    0  501    0  0.00000000000E+00 -0.00000000000E+00 -0.44174685497E+04  0.44174685497E+04  0.25500000000E-02 0. -1.
    8880022    1    1    2    0    0  0.14831117081E+04  0.10803268348E+04 -0.29297535248E+03  0.18643906830E+04  0.15294330000E+03 0.  0.
    8880022    1    1    2    0    0 -0.14831117081E+04 -0.10803268348E+04 -0.30849418791E+04  0.35926291848E+04  0.15294330000E+03 0.  0.
<mgrwt>
<rscale>  0 0.18412273E+04</rscale>
<asrwt>0</asrwt>
<pdfrwt beam="1">  1        2 0.67961053E+00 0.18412273E+04</pdfrwt>
<pdfrwt beam="2">  1       -2 0.15993098E+00 0.18412273E+04</pdfrwt>
<totfact> 0.34407043E-02</totfact>
</mgrwt>
</event>
<event>
 4    1  0.3365401E-008  0.9365193E+03  0.7818608E-02  0.9381048E-01
          2   -1    0    0  501    0  0.00000000000E+00  0.00000000000E+00  0.21198230233E+04  0.21198230233E+04  0.25500000000E-02 0. -1.
         -2   -1    0    0    0  501 -0.00000000000E+00 -0.00000000000E+00 -0.52640101096E+03  0.52640101096E+03  0.25500000000E-02 0.  1.
    8880022    1    1    2    0    0 -0.80483657640E+03 -0.45377842094E+03  0.18462366370E+03  0.95454403788E+03  0.15294330000E+03 0.  0.
    8880022    1    1    2    0    0  0.80483657640E+03  0.45377842094E+03  0.14087983486E+04  0.16916799964E+04  0.15294330000E+03 0.  0.
<mgrwt>
<rscale>  0 0.93651931E+03</rscale>
<asrwt>0</asrwt>
<pdfrwt beam="1">  1        2 0.32612662E+00 0.93651931E+03</pdfrwt>
<pdfrwt beam="2">  1       -2 0.80984771E-01 0.93651931E+03</pdfrwt>
<totfact> 0.77911163E+00</totfact>
</mgrwt>
</event>
<event>
 4    1  0.3365401E-008  0.3157161E+03  0.7818608E-02  0.1077638E+00
          2   -1    0    0  501    0  0.00000000000E+00  0.00000000000E+00  0.18329708595E+04  0.18329708595E+04  0.25500000000E-02 0. -1.
         -2   -1    0    0    0  501 -0.00000000000E+00 -0.00000000000E+00 -0.17582869026E+03  0.17582869028E+03  0.25500000000E-02 0.  1.
    8880022    1    1    2    0    0  0.20952512533E+03  0.17995608869E+03 -0.61828526995E+01  0.31577658666E+03  0.15294330000E+03 0.  1.
    8880022    1    1    2    0    0 -0.20952512533E+03 -0.17995608869E+03  0.16633250220E+04  0.16930229632E+04  0.15294330000E+03 0.  0.
<mgrwt>
<rscale>  0 0.31571605E+03</rscale>
<asrwt>0</asrwt>
<pdfrwt beam="1">  1        2 0.28199550E+00 0.31571605E+03</pdfrwt>
<pdfrwt beam="2">  1       -2 0.27050569E-01 0.31571605E+03</pdfrwt>
<totfact> 0.11205980E+02</totfact>
</mgrwt>
</event>
<event>
 4    1  0.3365401E-008  0.6396795E+03  0.7818608E-02  0.9826340E-01
         -2   -1    0    0    0  501 -0.00000000000E+00  0.00000000000E+00  0.41108625979E+03  0.41108625979E+03  0.25500000000E-02 0.  1.
          2   -1    0    0  501    0  0.00000000000E+00 -0.00000000000E+00 -0.13626260785E+04  0.13626260785E+04  0.25500000000E-02 0. -1.
    8880022    1    1    2    0    0  0.62071941176E+03 -0.22485391310E+02 -0.93617425038E+03  0.11338483413E+04  0.15294330000E+03 0.  0.
    8880022    1    1    2    0    0 -0.62071941176E+03  0.22485391310E+02 -0.15365568325E+02  0.63986399700E+03  0.15294330000E+03 0.  0.
<mgrwt>
<rscale>  0 0.63967948E+03</rscale>
<asrwt>0</asrwt>
<pdfrwt beam="1">  1        2 0.20963478E+00 0.63967948E+03</pdfrwt>
<pdfrwt beam="2">  1       -2 0.63244041E-01 0.63967948E+03</pdfrwt>
<totfact> 0.36391805E+01</totfact>
</mgrwt>
</event>
<event>
 4    1  0.3365401E-008  0.3328886E+03  0.7818608E-02  0.1069866E+00
          2   -1    0    0  501    0  0.00000000000E+00  0.00000000000E+00  0.18626538609E+04  0.18626538609E+04  0.25500000000E-02 0. -1.
         -2   -1    0    0    0  501 -0.00000000000E+00 -0.00000000000E+00 -0.21661877016E+03  0.21661877018E+03  0.25500000000E-02 0.  1.
    8880022    1    1    2    0    0 -0.58318548036E+02 -0.28986568246E+03  0.17084534782E+04  0.17405826918E+04  0.15294330000E+03 0.  0.
    8880022    1    1    2    0    0  0.58318548036E+02  0.28986568246E+03 -0.62418387377E+02  0.33868993934E+03  0.15294330000E+03 0.  1.
<mgrwt>
<rscale>  0 0.33288860E+03</rscale>
<asrwt>0</asrwt>
<pdfrwt beam="1">  1        2 0.28656213E+00 0.33288860E+03</pdfrwt>
<pdfrwt beam="2">  1       -2 0.33325965E-01 0.33288860E+03</pdfrwt>
<totfact> 0.73469756E+01</totfact>
</mgrwt>
</event>
<event>
 4    1  0.3365401E-008  0.6388677E+03  0.7818608E-02  0.9827895E-01
          2   -1    0    0  501    0  0.00000000000E+00  0.00000000000E+00  0.59104550685E+03  0.59104550686E+03  0.25500000000E-02 0. -1.
         -2   -1    0    0    0  501 -0.00000000000E+00 -0.00000000000E+00 -0.17992756309E+04  0.17992756309E+04  0.25500000000E-02 0.  1.
    8880022    1    1    2    0    0 -0.54500523621E+03  0.29619175565E+03 -0.15422982534E+04  0.16693818673E+04  0.15294330000E+03 0.  0.
    8880022    1    1    2    0    0  0.54500523621E+03 -0.29619175565E+03  0.33406812932E+03  0.72093927043E+03  0.15294330000E+03 0.  0.
<mgrwt>
<rscale>  0 0.63886768E+03</rscale>
<asrwt>0</asrwt>
<pdfrwt beam="1">  1        2 0.90930079E-01 0.63886768E+03</pdfrwt>
<pdfrwt beam="2">  1       -2 0.27681163E+00 0.63886768E+03</pdfrwt>
<totfact> 0.23484496E+00</totfact>
</mgrwt>
</event>
<event>
 4    1  0.3365401E-008  0.3133122E+03  0.7818608E-02  0.1078769E+00
          2   -1    0    0  501    0  0.00000000000E+00  0.00000000000E+00  0.31001057419E+03  0.31001057420E+03  0.25500000000E-02 0. -1.
         -2   -1    0    0    0  501 -0.00000000000E+00 -0.00000000000E+00 -0.14312730656E+04  0.14312730656E+04  0.25500000000E-02 0.  1.
    8880022    1    1    2    0    0  0.50668131248E+02 -0.26871106632E+03  0.20768935036E+03  0.37589814572E+03  0.15294330000E+03 0.  0.
    8880022    1    1    2    0    0 -0.50668131248E+02  0.26871106632E+03 -0.13289518417E+04  0.13653854941E+04  0.15294330000E+03 0.  0.
<mgrwt>
<rscale>  0 0.31331222E+03</rscale>
<asrwt>0</asrwt>
<pdfrwt beam="1">  1        2 0.47693936E-01 0.31331222E+03</pdfrwt>
<pdfrwt beam="2">  1       -2 0.22019585E+00 0.31331222E+03</pdfrwt>
<totfact> 0.11376790E+01</totfact>
</mgrwt>
</event>
<event>
 4    1  0.3365401E-008  0.9919637E+03  0.7818608E-02  0.9317403E-01
         -2   -1    0    0    0  501 -0.00000000000E+00  0.00000000000E+00  0.96597386340E+03  0.96597386341E+03  0.25500000000E-02 0.  1.
          2   -1    0    0  501    0  0.00000000000E+00 -0.00000000000E+00 -0.15714065592E+04  0.15714065592E+04  0.25500000000E-02 0. -1.
    8880022    1    1    2    0    0 -0.23449658949E+03  0.95163634718E+03  0.44973276794E+03  0.10891517816E+04  0.15294330000E+03 0.  0.
    8880022    1    1    2    0    0  0.23449658949E+03 -0.95163634718E+03 -0.10551654637E+04  0.14482286410E+04  0.15294330000E+03 0.  0.
<mgrwt>
<rscale>  0 0.99196373E+03</rscale>
<asrwt>0</asrwt>
<pdfrwt beam="1">  1        2 0.24175485E+00 0.99196373E+03</pdfrwt>
<pdfrwt beam="2">  1       -2 0.14861136E+00 0.99196373E+03</pdfrwt>
<totfact> 0.35329025E+00</totfact>
</mgrwt>
</event>
<event>
 4    1  0.3365401E-008  0.1346634E+04  0.7818608E-02  0.8993380E-01
         -2   -1    0    0    0  501 -0.00000000000E+00  0.00000000000E+00  0.60016835789E+03  0.60016835790E+03  0.25500000000E-02 0.  1.
          2   -1    0    0  501    0  0.00000000000E+00 -0.00000000000E+00 -0.35698415037E+04  0.35698415037E+04  0.25500000000E-02 0. -1.
    8880022    1    1    2    0    0  0.79059725445E+03 -0.10793464421E+04 -0.66769406058E+03  0.15030767686E+04  0.15294330000E+03 0.  0.
    8880022    1    1    2    0    0 -0.79059725445E+03  0.10793464421E+04 -0.23019790852E+04  0.26669330930E+04  0.15294330000E+03 0.  0.
<mgrwt>
<rscale>  0 0.13466345E+04</rscale>
<asrwt>0</asrwt>
<pdfrwt beam="1">  1        2 0.54920637E+00 0.13466345E+04</pdfrwt>
<pdfrwt beam="2">  1       -2 0.92333596E-01 0.13466345E+04</pdfrwt>
<totfact> 0.71041944E-01</totfact>
</mgrwt>
</event>
<event>
 4    1  0.3365401E-008  0.5513724E+03  0.7818608E-02  0.1001177E+00
          2   -1    0    0  501    0  0.00000000000E+00  0.00000000000E+00  0.50948918254E+03  0.50948918255E+03  0.25500000000E-02 0. -1.
         -2   -1    0    0    0  501 -0.00000000000E+00 -0.00000000000E+00 -0.14011627466E+04  0.14011627466E+04  0.25500000000E-02 0.  1.
    8880022    1    1    2    0    0 -0.16462369994E+03 -0.50350660599E+03  0.27803328450E+03  0.61750629565E+03  0.15294330000E+03 0. -1.
    8880022    1    1    2    0    0  0.16462369994E+03  0.50350660599E+03 -0.11697068486E+04  0.12931456335E+04  0.15294330000E+03 0.  0.
<mgrwt>
<rscale>  0 0.55137239E+03</rscale>
<asrwt>0</asrwt>
<pdfrwt beam="1">  1        2 0.78382952E-01 0.55137239E+03</pdfrwt>
<pdfrwt beam="2">  1       -2 0.21556350E+00 0.55137239E+03</pdfrwt>
<totfact> 0.66753250E+00</totfact>
</mgrwt>
</event>
<event>
 4    1  0.3365401E-008  0.3421847E+03  0.7818608E-02  0.1065869E+00
         -2   -1    0    0    0  501 -0.00000000000E+00  0.00000000000E+00  0.74233768457E+02  0.74233768501E+02  0.25500000000E-02 0.  1.
          2   -1    0    0  501    0  0.00000000000E+00 -0.00000000000E+00 -0.25367985231E+04  0.25367985231E+04  0.25500000000E-02 0. -1.
    8880022    1    1    2    0    0  0.27539608653E+02 -0.30486111581E+03 -0.42839068634E+03  0.54827818043E+03  0.15294330000E+03 0.  0.
    8880022    1    1    2    0    0 -0.27539608653E+02  0.30486111581E+03 -0.20341740683E+04  0.20627541111E+04  0.15294330000E+03 0. -1.
<mgrwt>
<rscale>  0 0.34218472E+03</rscale>
<asrwt>0</asrwt>
<pdfrwt beam="1">  1        2 0.39027663E+00 0.34218472E+03</pdfrwt>
<pdfrwt beam="2">  1       -2 0.11420582E-01 0.34218472E+03</pdfrwt>
<totfact> 0.20201969E+02</totfact>
</mgrwt>
</event>
<event>
 4    1  0.3365401E-008  0.5909462E+03  0.7818608E-02  0.9924370E-01
          2   -1    0    0  501    0  0.00000000000E+00  0.00000000000E+00  0.16310374595E+04  0.16310374595E+04  0.25500000000E-02 0. -1.
         -2   -1    0    0    0  501 -0.00000000000E+00 -0.00000000000E+00 -0.39335565203E+03  0.39335565203E+03  0.25500000000E-02 0.  1.
    8880022    1    1    2    0    0 -0.31890444969E+03 -0.47341918386E+03 -0.64440259028E+02  0.59444930119E+03  0.15294330000E+03 0.  0.
    8880022    1    1    2    0    0  0.31890444969E+03  0.47341918386E+03  0.13021220665E+04  0.14299438104E+04  0.15294330000E+03 0.  0.
<mgrwt>
<rscale>  0 0.59094621E+03</rscale>
<asrwt>0</asrwt>
<pdfrwt beam="1">  1        2 0.25092884E+00 0.59094621E+03</pdfrwt>
<pdfrwt beam="2">  1       -2 0.60516254E-01 0.59094621E+03</pdfrwt>
<totfact> 0.28561473E+01</totfact>
</mgrwt>
</event>
<event>
 4    1  0.3365401E-008  0.3749261E+03  0.7818608E-02  0.1052825E+00
         -2   -1    0    0    0  501 -0.00000000000E+00  0.00000000000E+00  0.35467733644E+03  0.35467733645E+03  0.25500000000E-02 0.  1.
          2   -1    0    0  501    0  0.00000000000E+00 -0.00000000000E+00 -0.17793332699E+04  0.17793332699E+04  0.25500000000E-02 0. -1.
    8880022    1    1    2    0    0 -0.32426350177E+03 -0.10968645037E+03 -0.16530241674E+04  0.16950098782E+04  0.15294330000E+03 0.  0.
    8880022    1    1    2    0    0  0.32426350177E+03  0.10968645037E+03  0.22836823402E+03  0.43900072813E+03  0.15294330000E+03 0.  1.
<mgrwt>
<rscale>  0 0.37492611E+03</rscale>
<asrwt>0</asrwt>
<pdfrwt beam="1">  1        2 0.27374358E+00 0.37492611E+03</pdfrwt>
<pdfrwt beam="2">  1       -2 0.54565745E-01 0.37492611E+03</pdfrwt>
<totfact> 0.30744754E+01</totfact>
</mgrwt>
</event>
<event>
 4    1  0.3365401E-008  0.5414227E+03  0.7818608E-02  0.1003499E+00
          2   -1    0    0  501    0  0.00000000000E+00  0.00000000000E+00  0.19900229259E+04  0.19900229259E+04  0.25500000000E-02 0. -1.
         -2   -1    0    0    0  501 -0.00000000000E+00 -0.00000000000E+00 -0.44488142338E+03  0.44488142339E+03  0.25500000000E-02 0.  1.
    8880022    1    1    2    0    0  0.36701273696E+03 -0.36748955400E+03 -0.22313192969E+03  0.58559920803E+03  0.15294330000E+03 0.  0.
    8880022    1    1    2    0    0 -0.36701273696E+03  0.36748955400E+03  0.17682734322E+04  0.18493051412E+04  0.15294330000E+03 0. -1.
<mgrwt>
<rscale>  0 0.54142273E+03</rscale>
<asrwt>0</asrwt>
<pdfrwt beam="1">  1        2 0.30615738E+00 0.54142273E+03</pdfrwt>
<pdfrwt beam="2">  1       -2 0.68443295E-01 0.54142273E+03</pdfrwt>
<totfact> 0.14169061E+01</totfact>
</mgrwt>
</event>
<event>
 4    1  0.3365401E-008  0.6608968E+03  0.7818608E-02  0.9786544E-01
          2   -1    0    0  501    0  0.00000000000E+00  0.00000000000E+00  0.11179326769E+04  0.11179326769E+04  0.25500000000E-02 0. -1.
         -2   -1    0    0    0  501 -0.00000000000E+00 -0.00000000000E+00 -0.48861999780E+03  0.48861999781E+03  0.25500000000E-02 0.  1.
    8880022    1    1    2    0    0  0.61494210073E+03 -0.18772102690E+03  0.67423882791E+03  0.94413061663E+03  0.15294330000E+03 0.  0.
    8880022    1    1    2    0    0 -0.61494210073E+03  0.18772102690E+03 -0.44926148791E+02  0.66242205809E+03  0.15294330000E+03 0.  0.
<mgrwt>
<rscale>  0 0.66089683E+03</rscale>
<asrwt>0</asrwt>
<pdfrwt beam="1">  1        2 0.17198964E+00 0.66089683E+03</pdfrwt>
<pdfrwt beam="2">  1       -2 0.75172308E-01 0.66089683E+03</pdfrwt>
<totfact> 0.34652139E+01</totfact>
</mgrwt>
</event>
<event>
 4    1  0.3365401E-008  0.1059303E+04  0.7818608E-02  0.9245792E-01
         -2   -1    0    0    0  501 -0.00000000000E+00  0.00000000000E+00  0.16893380837E+04  0.16893380837E+04  0.25500000000E-02 0.  1.
          2   -1    0    0  501    0  0.00000000000E+00 -0.00000000000E+00 -0.73024585382E+03  0.73024585382E+03  0.25500000000E-02 0. -1.
    8880022    1    1    2    0    0  0.10236670115E+04 -0.22547116150E+03  0.11582125655E+03  0.10656160714E+04  0.15294330000E+03 0.  0.
    8880022    1    1    2    0    0 -0.10236670115E+04  0.22547116150E+03  0.84327097337E+03  0.13539678662E+04  0.15294330000E+03 0.  0.
<mgrwt>
<rscale>  0 0.10593031E+04</rscale>
<asrwt>0</asrwt>
<pdfrwt beam="1">  1        2 0.11234552E+00 0.10593031E+04</pdfrwt>
<pdfrwt beam="2">  1       -2 0.25989816E+00 0.10593031E+04</pdfrwt>
<totfact> 0.21526020E+00</totfact>
</mgrwt>
</event>
<event>
 4    1  0.3365401E-008  0.3682685E+03  0.7818608E-02  0.1055357E+00
         -2   -1    0    0    0  501 -0.00000000000E+00  0.00000000000E+00  0.57429865823E+02  0.57429865880E+02  0.25500000000E-02 0.  1.
          2   -1    0    0  501    0  0.00000000000E+00 -0.00000000000E+00 -0.27538630722E+04  0.27538630722E+04  0.25500000000E-02 0. -1.
    8880022    1    1    2    0    0 -0.33211590774E+03 -0.43921358034E+02 -0.81765169051E+03  0.89675860848E+03  0.15294330000E+03 0.  0.
    8880022    1    1    2    0    0  0.33211590774E+03  0.43921358034E+02 -0.18787815159E+04  0.19145343296E+04  0.15294330000E+03 0.  0.
<mgrwt>
<rscale>  0 0.36826854E+03</rscale>
<asrwt>0</asrwt>
<pdfrwt beam="1">  1        2 0.42367114E+00 0.36826854E+03</pdfrwt>
<pdfrwt beam="2">  1       -2 0.88353661E-02 0.36826854E+03</pdfrwt>
<totfact> 0.22882703E+02</totfact>
</mgrwt>
</event>
<event>
 4    1  0.3365401E-008  0.8412598E+03  0.7818608E-02  0.9502143E-01
         -2   -1    0    0    0  501 -0.00000000000E+00  0.00000000000E+00  0.90720489690E+03  0.90720489691E+03  0.25500000000E-02 0.  1.
          2   -1    0    0  501    0  0.00000000000E+00 -0.00000000000E+00 -0.11183533668E+04  0.11183533668E+04  0.25500000000E-02 0. -1.
    8880022    1    1    2    0    0  0.36652907161E+02  0.82642779673E+03  0.45140757267E+03  0.95471817229E+03  0.15294330000E+03 0.  0.
    8880022    1    1    2    0    0 -0.36652907161E+02 -0.82642779673E+03 -0.66255604252E+03  0.10708400914E+04  0.15294330000E+03 0.  0.
<mgrwt>
<rscale>  0 0.84125976E+03</rscale>
<asrwt>0</asrwt>
<pdfrwt beam="1">  1        2 0.17205437E+00 0.84125976E+03</pdfrwt>
<pdfrwt beam="2">  1       -2 0.13956998E+00 0.84125976E+03</pdfrwt>
<totfact> 0.77475967E+00</totfact>
</mgrwt>
</event>
<event>
 4    1  0.3365401E-008  0.7740722E+03  0.7818608E-02  0.9598324E-01
          2   -1    0    0  501    0  0.00000000000E+00  0.00000000000E+00  0.10716222486E+04  0.10716222486E+04  0.25500000000E-02 0. -1.
         -2   -1    0    0    0  501 -0.00000000000E+00 -0.00000000000E+00 -0.77096449613E+03  0.77096449613E+03  0.25500000000E-02 0.  1.
    8880022    1    1    2    0    0 -0.72159575374E+03  0.23472453845E+03  0.63324094011E+03  0.10000908869E+04  0.15294330000E+03 0.  0.
    8880022    1    1    2    0    0  0.72159575374E+03 -0.23472453845E+03 -0.33258318765E+03  0.84249585785E+03  0.15294330000E+03 0.  0.
<mgrwt>
<rscale>  0 0.77407215E+03</rscale>
<asrwt>0</asrwt>
<pdfrwt beam="1">  1        2 0.16486496E+00 0.77407215E+03</pdfrwt>
<pdfrwt beam="2">  1       -2 0.11860992E+00 0.77407215E+03</pdfrwt>
<totfact> 0.12588161E+01</totfact>
</mgrwt>
</event>
<event>
 4    1  0.3365401E-008  0.1898207E+03  0.7818608E-02  0.1158623E+00
         -2   -1    0    0    0  501 -0.00000000000E+00  0.00000000000E+00  0.31939071934E+02  0.31939072036E+02  0.25500000000E-02 0.  1.
          2   -1    0    0  501    0  0.00000000000E+00 -0.00000000000E+00 -0.16371071558E+04  0.16371071558E+04  0.25500000000E-02 0. -1.
    8880022    1    1    2    0    0 -0.68363776347E+02 -0.89256098831E+02 -0.12678941484E+04  0.12820247586E+04  0.15294330000E+03 0. -1.
    8880022    1    1    2    0    0  0.68363776347E+02  0.89256098831E+02 -0.33727393548E+03  0.38702146926E+03  0.15294330000E+03 0.  0.
<mgrwt>
<rscale>  0 0.18982073E+03</rscale>
<asrwt>0</asrwt>
<pdfrwt beam="1">  1        2 0.25186257E+00 0.18982073E+03</pdfrwt>
<pdfrwt beam="2">  1       -2 0.49137046E-02 0.18982073E+03</pdfrwt>
<totfact> 0.23223399E+03</totfact>
</mgrwt>
</event>
<event>
 4    1  0.3365401E-008  0.6778969E+03  0.7818608E-02  0.9755796E-01
         -2   -1    0    0    0  501 -0.00000000000E+00  0.00000000000E+00  0.20287377863E+04  0.20287377863E+04  0.25500000000E-02 0.  1.
          2   -1    0    0  501    0  0.00000000000E+00 -0.00000000000E+00 -0.92306301719E+03  0.92306301720E+03  0.25500000000E-02 0. -1.
    8880022    1    1    2    0    0 -0.22870608917E+03  0.61955315913E+03 -0.72924573594E+03  0.99566238686E+03  0.15294330000E+03 0.  0.
    8880022    1    1    2    0    0  0.22870608917E+03 -0.61955315913E+03  0.18349205050E+04  0.19561384166E+04  0.15294330000E+03 0.  0.
<mgrwt>
<rscale>  0 0.67789693E+03</rscale>
<asrwt>0</asrwt>
<pdfrwt beam="1">  1        2 0.14200970E+00 0.67789693E+03</pdfrwt>
<pdfrwt beam="2">  1       -2 0.31211350E+00 0.67789693E+03</pdfrwt>
<totfact> 0.80634244E-01</totfact>
</mgrwt>
</event>
<event>
 4    1  0.6140450E-008  0.1162857E+04  0.7818608E-02  0.9146004E-01
          2   -1    0    0  501    0  0.00000000000E+00  0.00000000000E+00  0.20922950488E+04  0.20922950488E+04  0.25500000000E-02 0. -1.
         -2   -1    0    0    0  501 -0.00000000000E+00 -0.00000000000E+00 -0.17633010400E+04  0.17633010400E+04  0.25500000000E-02 0.  1.
    8880022    1    1    2    0    0  0.10525204990E+04 -0.47015435175E+03  0.16988539528E+04  0.20587231288E+04  0.15294330000E+03 0.  0.
    8880022    1    1    2    0    0 -0.10525204990E+04  0.47015435175E+03 -0.13698599439E+04  0.17968729600E+04  0.15294330000E+03 0.  0.
<mgrwt>
<rscale>  0 0.11628569E+04</rscale>
<asrwt>0</asrwt>
<pdfrwt beam="1">  1        2 0.32189154E+00 0.11628569E+04</pdfrwt>
<pdfrwt beam="2">  1       -2 0.27127709E+00 0.11628569E+04</pdfrwt>
<totfact> 0.27701403E-01</totfact>
</mgrwt>
</event>
<event>
 4    1  0.3365401E-008  0.5070658E+03  0.7818608E-02  0.1011951E+00
         -2   -1    0    0    0  501 -0.00000000000E+00  0.00000000000E+00  0.74716109888E+03  0.74716109889E+03  0.25500000000E-02 0.  1.
          2   -1    0    0  501    0  0.00000000000E+00 -0.00000000000E+00 -0.12661827076E+04  0.12661827076E+04  0.25500000000E-02 0. -1.
    8880022    1    1    2    0    0 -0.48228839180E+03  0.33496482604E+02  0.59954057898E+03  0.78521631801E+03  0.15294330000E+03 0.  1.
    8880022    1    1    2    0    0  0.48228839180E+03 -0.33496482604E+02 -0.11185621877E+04  0.12281274885E+04  0.15294330000E+03 0.  0.
<mgrwt>
<rscale>  0 0.50706583E+03</rscale>
<asrwt>0</asrwt>
<pdfrwt beam="1">  1        2 0.19479734E+00 0.50706583E+03</pdfrwt>
<pdfrwt beam="2">  1       -2 0.11494786E+00 0.50706583E+03</pdfrwt>
<totfact> 0.10825400E+01</totfact>
</mgrwt>
</event>
<event>
 4    1  0.3365401E-008  0.9798783E+03  0.7818608E-02  0.9330893E-01
          2   -1    0    0  501    0  0.00000000000E+00  0.00000000000E+00  0.21296151242E+04  0.21296151242E+04  0.25500000000E-02 0. -1.
         -2   -1    0    0    0  501 -0.00000000000E+00 -0.00000000000E+00 -0.48968332649E+03  0.48968332650E+03  0.25500000000E-02 0.  1.
    8880022    1    1    2    0    0  0.96587372129E+03  0.62111170915E+02  0.11887186286E+04  0.15405237661E+04  0.15294330000E+03 0.  0.
    8880022    1    1    2    0    0 -0.96587372129E+03 -0.62111170915E+02  0.45121316908E+03  0.10787746845E+04  0.15294330000E+03 0.  0.
<mgrwt>
<rscale>  0 0.97987831E+03</rscale>
<asrwt>0</asrwt>
<pdfrwt beam="1">  1        2 0.32763310E+00 0.97987831E+03</pdfrwt>
<pdfrwt beam="2">  1       -2 0.75335895E-01 0.97987831E+03</pdfrwt>
<totfact> 0.90024025E+00</totfact>
</mgrwt>
</event>
<event>
 4    1  0.3365401E-008  0.1219828E+04  0.7818608E-02  0.9095676E-01
          2   -1    0    0  501    0  0.00000000000E+00  0.00000000000E+00  0.20646163121E+04  0.20646163121E+04  0.25500000000E-02 0. -1.
         -2   -1    0    0    0  501 -0.00000000000E+00 -0.00000000000E+00 -0.85310558653E+03  0.85310558653E+03  0.25500000000E-02 0.  1.
    8880022    1    1    2    0    0  0.58856073059E+03  0.10574428150E+04  0.31035306465E+02  0.12202228828E+04  0.15294330000E+03 0.  0.
    8880022    1    1    2    0    0 -0.58856073059E+03 -0.10574428150E+04  0.11804754191E+04  0.16974990158E+04  0.15294330000E+03 0.  0.
<mgrwt>
<rscale>  0 0.12198281E+04</rscale>
<asrwt>0</asrwt>
<pdfrwt beam="1">  1        2 0.31763328E+00 0.12198281E+04</pdfrwt>
<pdfrwt beam="2">  1       -2 0.13124701E+00 0.12198281E+04</pdfrwt>
<totfact> 0.25373574E+00</totfact>
</mgrwt>
</event>
<event>
 4    1  0.3365401E-008  0.6884532E+03  0.7818608E-02  0.9737185E-01
          2   -1    0    0  501    0  0.00000000000E+00  0.00000000000E+00  0.14105020509E+04  0.14105020509E+04  0.25500000000E-02 0. -1.
         -2   -1    0    0    0  501 -0.00000000000E+00 -0.00000000000E+00 -0.44834456421E+03  0.44834456422E+03  0.25500000000E-02 0.  1.
    8880022    1    1    2    0    0 -0.33158004796E+03  0.58363591074E+03  0.15889186912E+02  0.68863656872E+03  0.15294330000E+03 0.  0.
    8880022    1    1    2    0    0  0.33158004796E+03 -0.58363591074E+03  0.94626829978E+03  0.11702100464E+04  0.15294330000E+03 0.  0.
<mgrwt>
<rscale>  0 0.68845324E+03</rscale>
<asrwt>0</asrwt>
<pdfrwt beam="1">  1        2 0.21700031E+00 0.68845324E+03</pdfrwt>
<pdfrwt beam="2">  1       -2 0.68976088E-01 0.68845324E+03</pdfrwt>
<totfact> 0.28201948E+01</totfact>
</mgrwt>
</event>
<event>
 4    1  0.3365401E-008  0.6624547E+03  0.7818608E-02  0.9783685E-01
         -2   -1    0    0    0  501 -0.00000000000E+00  0.00000000000E+00  0.71233618889E+03  0.71233618890E+03  0.25500000000E-02 0.  1.
          2   -1    0    0  501    0  0.00000000000E+00 -0.00000000000E+00 -0.71338983636E+03  0.71338983637E+03  0.25500000000E-02 0. -1.
    8880022    1    1    2    0    0  0.60660862934E+03 -0.21790038855E+03 -0.26382736222E+03  0.71305759837E+03  0.15294330000E+03 0.  0.
    8880022    1    1    2    0    0 -0.60660862934E+03  0.21790038855E+03  0.26277371476E+03  0.71266842690E+03  0.15294330000E+03 0.  0.
<mgrwt>
<rscale>  0 0.66245472E+03</rscale>
<asrwt>0</asrwt>
<pdfrwt beam="1">  1        2 0.10975228E+00 0.66245472E+03</pdfrwt>
<pdfrwt beam="2">  1       -2 0.10959018E+00 0.66245472E+03</pdfrwt>
<totfact> 0.27099726E+01</totfact>
</mgrwt>
</event>
<event>
 4    1  0.3365401E-008  0.4221366E+03  0.7818608E-02  0.1036373E+00
         -2   -1    0    0    0  501 -0.00000000000E+00  0.00000000000E+00  0.18313957102E+03  0.18313957104E+03  0.25500000000E-02 0.  1.
          2   -1    0    0  501    0  0.00000000000E+00 -0.00000000000E+00 -0.26835822377E+04  0.26835822377E+04  0.25500000000E-02 0. -1.
    8880022    1    1    2    0    0  0.26782116167E+03  0.28823506582E+03 -0.10584998635E+03  0.43520512455E+03  0.15294330000E+03 0.  1.
    8880022    1    1    2    0    0 -0.26782116167E+03 -0.28823506582E+03 -0.23945926803E+04  0.24315166842E+04  0.15294330000E+03 0.  0.
<mgrwt>
<rscale>  0 0.42213657E+03</rscale>
<asrwt>0</asrwt>
<pdfrwt beam="1">  1        2 0.41285878E+00 0.42213657E+03</pdfrwt>
<pdfrwt beam="2">  1       -2 0.28175321E-01 0.42213657E+03</pdfrwt>
<totfact> 0.34941020E+01</totfact>
</mgrwt>
</event>
<event>
 4    1  0.3365401E-008  0.8603309E+03  0.7818608E-02  0.9476575E-01
          2   -1    0    0  501    0  0.00000000000E+00  0.00000000000E+00  0.16386190259E+04  0.16386190259E+04  0.25500000000E-02 0. -1.
         -2   -1    0    0    0  501 -0.00000000000E+00 -0.00000000000E+00 -0.79001703081E+03  0.79001703081E+03  0.25500000000E-02 0.  1.
    8880022    1    1    2    0    0 -0.69405966213E+03  0.48482870592E+03  0.12189477956E+04  0.14919795810E+04  0.15294330000E+03 0.  0.
    8880022    1    1    2    0    0  0.69405966213E+03 -0.48482870592E+03 -0.37034580046E+03  0.93665647578E+03  0.15294330000E+03 0.  1.
<mgrwt>
<rscale>  0 0.86033095E+03</rscale>
<asrwt>0</asrwt>
<pdfrwt beam="1">  1        2 0.25209523E+00 0.86033095E+03</pdfrwt>
<pdfrwt beam="2">  1       -2 0.12154108E+00 0.86033095E+03</pdfrwt>
<totfact> 0.55236986E+00</totfact>
</mgrwt>
</event>
<event>
 4    1  0.3365401E-008  0.5773897E+03  0.7818608E-02  0.9953458E-01
          2   -1    0    0  501    0  0.00000000000E+00  0.00000000000E+00  0.76280945795E+03  0.76280945796E+03  0.25500000000E-02 0. -1.
         -2   -1    0    0    0  501 -0.00000000000E+00 -0.00000000000E+00 -0.27332375298E+04  0.27332375298E+04  0.25500000000E-02 0.  1.
    8880022    1    1    2    0    0  0.10714879530E+03  0.54635733369E+03 -0.25874007461E+04  0.26510415830E+04  0.15294330000E+03 0.  0.
    8880022    1    1    2    0    0 -0.10714879530E+03 -0.54635733369E+03  0.61697267426E+03  0.84500540484E+03  0.15294330000E+03 0.  0.
<mgrwt>
<rscale>  0 0.57738969E+03</rscale>
<asrwt>0</asrwt>
<pdfrwt beam="1">  1        2 0.11735530E+00 0.57738969E+03</pdfrwt>
<pdfrwt beam="2">  1       -2 0.42049808E+00 0.57738969E+03</pdfrwt>
<totfact> 0.22284599E-01</totfact>
</mgrwt>
</event>
<event>
 4    1  0.3365401E-008  0.6107254E+03  0.7818608E-02  0.9883401E-01
          2   -1    0    0  501    0  0.00000000000E+00  0.00000000000E+00  0.11000587633E+04  0.11000587634E+04  0.25500000000E-02 0. -1.
         -2   -1    0    0    0  501 -0.00000000000E+00 -0.00000000000E+00 -0.51390439282E+03  0.51390439283E+03  0.25500000000E-02 0.  1.
    8880022    1    1    2    0    0  0.28401370540E+03  0.51858466662E+03 -0.17762779759E+03  0.63603233314E+03  0.15294330000E+03 0.  0.
    8880022    1    1    2    0    0 -0.28401370540E+03 -0.51858466662E+03  0.76378216811E+03  0.97793082304E+03  0.15294330000E+03 0.  0.
<mgrwt>
<rscale>  0 0.61072538E+03</rscale>
<asrwt>0</asrwt>
<pdfrwt beam="1">  1        2 0.16923981E+00 0.61072538E+03</pdfrwt>
<pdfrwt beam="2">  1       -2 0.79062215E-01 0.61072538E+03</pdfrwt>
<totfact> 0.31942329E+01</totfact>
</mgrwt>
</event>
<event>
 4    1  0.3365401E-008  0.6309220E+03  0.7818608E-02  0.9843251E-01
         -2   -1    0    0    0  501 -0.00000000000E+00  0.00000000000E+00  0.37845754473E+03  0.37845754474E+03  0.25500000000E-02 0.  1.
          2   -1    0    0  501    0  0.00000000000E+00 -0.00000000000E+00 -0.12622472175E+04  0.12622472175E+04  0.25500000000E-02 0. -1.
    8880022    1    1    2    0    0 -0.11113154873E+03 -0.60193085057E+03 -0.10693158692E+03  0.63991951626E+03  0.15294330000E+03 0.  0.
    8880022    1    1    2    0    0  0.11113154873E+03  0.60193085057E+03 -0.77685808583E+03  0.10007852460E+04  0.15294330000E+03 0.  0.
<mgrwt>
<rscale>  0 0.63092204E+03</rscale>
<asrwt>0</asrwt>
<pdfrwt beam="1">  1        2 0.19419188E+00 0.63092204E+03</pdfrwt>
<pdfrwt beam="2">  1       -2 0.58224238E-01 0.63092204E+03</pdfrwt>
<totfact> 0.49512870E+01</totfact>
</mgrwt>
</event>
<event>
 4    1  0.3365401E-008  0.1241351E+04  0.7818608E-02  0.9077412E-01
         -2   -1    0    0    0  501 -0.00000000000E+00  0.00000000000E+00  0.71665521020E+03  0.71665521020E+03  0.25500000000E-02 0.  1.
          2   -1    0    0  501    0  0.00000000000E+00 -0.00000000000E+00 -0.28948104922E+04  0.28948104922E+04  0.25500000000E-02 0. -1.
    8880022    1    1    2    0    0 -0.11283174102E+04  0.49443022183E+03 -0.20048922808E+04  0.23580810277E+04  0.15294330000E+03 0.  0.
    8880022    1    1    2    0    0  0.11283174102E+04 -0.49443022183E+03 -0.17326300120E+03  0.12533846748E+04  0.15294330000E+03 0.  0.
<mgrwt>
<rscale>  0 0.12413513E+04</rscale>
<asrwt>0</asrwt>
<pdfrwt beam="1">  1        2 0.44535545E+00 0.12413513E+04</pdfrwt>
<pdfrwt beam="2">  1       -2 0.11025465E+00 0.12413513E+04</pdfrwt>
<totfact> 0.12987209E+00</totfact>
</mgrwt>
</event>
<event>
 4    1  0.3365401E-008  0.5119400E+03  0.7818608E-02  0.1010709E+00
         -2   -1    0    0    0  501 -0.00000000000E+00  0.00000000000E+00  0.14264565868E+03  0.14264565870E+03  0.25500000000E-02 0.  1.
          2   -1    0    0  501    0  0.00000000000E+00 -0.00000000000E+00 -0.29813073184E+04  0.29813073184E+04  0.25500000000E-02 0. -1.
    8880022    1    1    2    0    0 -0.44683192361E+03  0.19756560508E+03 -0.45175303625E+03  0.68276159459E+03  0.15294330000E+03 0.  0.
    8880022    1    1    2    0    0  0.44683192361E+03 -0.19756560508E+03 -0.23869086235E+04  0.24411913825E+04  0.15294330000E+03 0.  0.
<mgrwt>
<rscale>  0 0.51194003E+03</rscale>
<asrwt>0</asrwt>
<pdfrwt beam="1">  1        2 0.45866262E+00 0.51194003E+03</pdfrwt>
<pdfrwt beam="2">  1       -2 0.21945488E-01 0.51194003E+03</pdfrwt>
<totfact> 0.35759934E+01</totfact>
</mgrwt>
</event>
<event>
 4    1  0.3365401E-008  0.1983638E+03  0.7818608E-02  0.1151127E+00
         -2   -1    0    0    0  501 -0.00000000000E+00  0.00000000000E+00  0.78400061898E+03  0.78400061898E+03  0.25500000000E-02 0.  1.
          2   -1    0    0  501    0  0.00000000000E+00 -0.00000000000E+00 -0.13357592542E+03  0.13357592545E+03  0.25500000000E-02 0. -1.
    8880022    1    1    2    0    0 -0.12606129307E+03  0.80682311013E+01  0.68770333930E+03  0.71574023351E+03  0.15294330000E+03 0.  1.
    8880022    1    1    2    0    0  0.12606129307E+03 -0.80682311013E+01 -0.37278645746E+02  0.20183631092E+03  0.15294330000E+03 0.  0.
<mgrwt>
<rscale>  0 0.19836380E+03</rscale>
<asrwt>0</asrwt>
<pdfrwt beam="1">  1        2 0.20550142E-01 0.19836380E+03</pdfrwt>
<pdfrwt beam="2">  1       -2 0.12061548E+00 0.19836380E+03</pdfrwt>
<totfact> 0.14874444E+02</totfact>
</mgrwt>
</event>
<event>
 4    1  0.3773796E-008  0.3122153E+03  0.7818608E-02  0.1079289E+00
          2   -1    0    0  501    0  0.00000000000E+00  0.00000000000E+00  0.23199248293E+04  0.23199248293E+04  0.25500000000E-02 0. -1.
         -2   -1    0    0    0  501 -0.00000000000E+00 -0.00000000000E+00 -0.72919370143E+03  0.72919370144E+03  0.25500000000E-02 0.  1.
    8880022    1    1    2    0    0  0.97523348788E+02 -0.25411798802E+03 -0.68461762012E+03  0.75244913063E+03  0.15294330000E+03 0.  0.
    8880022    1    1    2    0    0 -0.97523348788E+02  0.25411798802E+03  0.22753487480E+04  0.22966694001E+04  0.15294330000E+03 0.  0.
<mgrwt>
<rscale>  0 0.31221532E+03</rscale>
<asrwt>0</asrwt>
<pdfrwt beam="1">  1        2 0.35691150E+00 0.31221532E+03</pdfrwt>
<pdfrwt beam="2">  1       -2 0.11218365E+00 0.31221532E+03</pdfrwt>
<totfact> 0.32770921E+00</totfact>
</mgrwt>
</event>
<event>
 4    1  0.3365401E-008  0.7374774E+03  0.7818608E-02  0.9655204E-01
         -2   -1    0    0    0  501 -0.00000000000E+00  0.00000000000E+00  0.27450277908E+03  0.27450277909E+03  0.25500000000E-02 0.  1.
          2   -1    0    0  501    0  0.00000000000E+00 -0.00000000000E+00 -0.24184993641E+04  0.24184993641E+04  0.25500000000E-02 0. -1.
    8880022    1    1    2    0    0 -0.69188223714E+03 -0.20440196912E+03 -0.49950212268E+03  0.89071612685E+03  0.15294330000E+03 0.  0.
    8880022    1    1    2    0    0  0.69188223714E+03  0.20440196912E+03 -0.16444944623E+04  0.18022860163E+04  0.15294330000E+03 0.  0.
<mgrwt>
<rscale>  0 0.73747735E+03</rscale>
<asrwt>0</asrwt>
<pdfrwt beam="1">  1        2 0.37207681E+00 0.73747735E+03</pdfrwt>
<pdfrwt beam="2">  1       -2 0.42231198E-01 0.73747735E+03</pdfrwt>
<totfact> 0.21551654E+01</totfact>
</mgrwt>
</event>
<event>
 4    1  0.3365401E-008  0.1016980E+04  0.7818608E-02  0.9290115E-01
          2   -1    0    0  501    0  0.00000000000E+00  0.00000000000E+00  0.38123466480E+04  0.38123466480E+04  0.25500000000E-02 0. -1.
         -2   -1    0    0    0  501 -0.00000000000E+00 -0.00000000000E+00 -0.37550408454E+03  0.37550408455E+03  0.25500000000E-02 0.  1.
    8880022    1    1    2    0    0  0.77973768328E+03 -0.63471749471E+03  0.61531194898E+03  0.11886368665E+04  0.15294330000E+03 0.  0.
    8880022    1    1    2    0    0 -0.77973768328E+03  0.63471749471E+03  0.28215306145E+04  0.29992138660E+04  0.15294330000E+03 0.  0.
<mgrwt>
<rscale>  0 0.10169802E+04</rscale>
<asrwt>0</asrwt>
<pdfrwt beam="1">  1        2 0.58651486E+00 0.10169802E+04</pdfrwt>
<pdfrwt beam="2">  1       -2 0.57769860E-01 0.10169802E+04</pdfrwt>
<totfact> 0.14079484E+00</totfact>
</mgrwt>
</event>
<event>
 4    1  0.3365401E-008  0.3366094E+03  0.7818608E-02  0.1068249E+00
          2   -1    0    0  501    0  0.00000000000E+00  0.00000000000E+00  0.13475469291E+04  0.13475469291E+04  0.25500000000E-02 0. -1.
         -2   -1    0    0    0  501 -0.00000000000E+00 -0.00000000000E+00 -0.95912093627E+03  0.95912093627E+03  0.25500000000E-02 0.  1.
    8880022    1    1    2    0    0 -0.13980235317E+03 -0.26527261166E+03  0.12958329731E+04  0.13388386772E+04  0.15294330000E+03 0. -1.
    8880022    1    1    2    0    0  0.13980235317E+03  0.26527261166E+03 -0.90740698030E+03  0.96782918811E+03  0.15294330000E+03 0.  0.
<mgrwt>
<rscale>  0 0.33660943E+03</rscale>
<asrwt>0</asrwt>
<pdfrwt beam="1">  1        2 0.20731491E+00 0.33660943E+03</pdfrwt>
<pdfrwt beam="2">  1       -2 0.14755707E+00 0.33660943E+03</pdfrwt>
<totfact> 0.54337239E+00</totfact>
</mgrwt>
</event>
<event>
 4    1  0.3365401E-008  0.3293330E+03  0.7818608E-02  0.1071432E+00
         -2   -1    0    0    0  501 -0.00000000000E+00  0.00000000000E+00  0.23077258962E+03  0.23077258964E+03  0.25500000000E-02 0.  1.
          2   -1    0    0  501    0  0.00000000000E+00 -0.00000000000E+00 -0.23006937341E+04  0.23006937341E+04  0.25500000000E-02 0. -1.
    8880022    1    1    2    0    0  0.29060888458E+03 -0.24800745246E+02 -0.21640337048E+04  0.21889500061E+04  0.15294330000E+03 0.  0.
    8880022    1    1    2    0    0 -0.29060888458E+03  0.24800745246E+02  0.94112560381E+02  0.34251631757E+03  0.15294330000E+03 0.  0.
<mgrwt>
<rscale>  0 0.32933304E+03</rscale>
<asrwt>0</asrwt>
<pdfrwt beam="1">  1        2 0.35395287E+00 0.32933304E+03</pdfrwt>
<pdfrwt beam="2">  1       -2 0.35503477E-01 0.32933304E+03</pdfrwt>
<totfact> 0.38152140E+01</totfact>
</mgrwt>
</event>
<event>
 4    1  0.3365401E-008  0.2426908E+03  0.7818608E-02  0.1118013E+00
         -2   -1    0    0    0  501 -0.00000000000E+00  0.00000000000E+00  0.17221194959E+03  0.17221194961E+03  0.25500000000E-02 0.  1.
          2   -1    0    0  501    0  0.00000000000E+00 -0.00000000000E+00 -0.71222572816E+03  0.71222572817E+03  0.25500000000E-02 0. -1.
    8880022    1    1    2    0    0  0.18796706283E+03  0.13250519488E+02  0.48819068972E+02  0.24755231263E+03  0.15294330000E+03 0.  0.
    8880022    1    1    2    0    0 -0.18796706283E+03 -0.13250519488E+02 -0.58883284755E+03  0.63688536515E+03  0.15294330000E+03 0.  0.
<mgrwt>
<rscale>  0 0.24269084E+03</rscale>
<asrwt>0</asrwt>
<pdfrwt beam="1">  1        2 0.10957319E+00 0.24269084E+03</pdfrwt>
<pdfrwt beam="2">  1       -2 0.26494146E-01 0.24269084E+03</pdfrwt>
<totfact> 0.52968955E+02</totfact>
</mgrwt>
</event>
<event>
 4    1  0.3365401E-008  0.6191423E+03  0.7818608E-02  0.9866469E-01
         -2   -1    0    0    0  501 -0.00000000000E+00  0.00000000000E+00  0.18594950702E+03  0.18594950704E+03  0.25500000000E-02 0.  1.
          2   -1    0    0  501    0  0.00000000000E+00 -0.00000000000E+00 -0.22446696657E+04  0.22446696657E+04  0.25500000000E-02 0. -1.
    8880022    1    1    2    0    0 -0.59989500531E+03 -0.84557772031E+01 -0.13765147884E+04  0.15093475853E+04  0.15294330000E+03 0. -1.
    8880022    1    1    2    0    0  0.59989500531E+03  0.84557772031E+01 -0.68220537032E+03  0.92127158747E+03  0.15294330000E+03 0.  0.
<mgrwt>
<rscale>  0 0.61914229E+03</rscale>
<asrwt>0</asrwt>
<pdfrwt beam="1">  1        2 0.34533378E+00 0.61914229E+03</pdfrwt>
<pdfrwt beam="2">  1       -2 0.28607618E-01 0.61914229E+03</pdfrwt>
<totfact> 0.57446886E+01</totfact>
</mgrwt>
</event>
<event>
 4    1  0.3365401E-008  0.7564521E+03  0.7818608E-02  0.9625282E-01
          2   -1    0    0  501    0  0.00000000000E+00  0.00000000000E+00  0.31733802752E+04  0.31733802752E+04  0.25500000000E-02 0. -1.
         -2   -1    0    0    0  501 -0.00000000000E+00 -0.00000000000E+00 -0.33028168268E+03  0.33028168269E+03  0.25500000000E-02 0.  1.
    8880022    1    1    2    0    0 -0.56216897387E+03 -0.48248753356E+03  0.24111455579E+03  0.79394965662E+03  0.15294330000E+03 0.  0.
    8880022    1    1    2    0    0  0.56216897387E+03  0.48248753356E+03  0.26019840368E+04  0.27097123013E+04  0.15294330000E+03 0.  0.
<mgrwt>
<rscale>  0 0.75645213E+03</rscale>
<asrwt>0</asrwt>
<pdfrwt beam="1">  1        2 0.48821233E+00 0.75645213E+03</pdfrwt>
<pdfrwt beam="2">  1       -2 0.50812569E-01 0.75645213E+03</pdfrwt>
<totfact> 0.52895938E+00</totfact>
</mgrwt>
</event>
<event>
 4    1  0.3365401E-008  0.3723037E+03  0.7818608E-02  0.1053816E+00
          2   -1    0    0  501    0  0.00000000000E+00  0.00000000000E+00  0.17638631198E+04  0.17638631198E+04  0.25500000000E-02 0. -1.
         -2   -1    0    0    0  501 -0.00000000000E+00 -0.00000000000E+00 -0.15537714353E+03  0.15537714356E+03  0.25500000000E-02 0.  1.
    8880022    1    1    2    0    0 -0.33656715104E+03  0.44056552348E+02  0.14788784316E+04  0.15250218016E+04  0.15294330000E+03 0. -1.
    8880022    1    1    2    0    0  0.33656715104E+03 -0.44056552348E+02  0.12960754475E+03  0.39421846181E+03  0.15294330000E+03 0.  0.
<mgrwt>
<rscale>  0 0.37230375E+03</rscale>
<asrwt>0</asrwt>
<pdfrwt beam="1">  1        2 0.27136354E+00 0.37230375E+03</pdfrwt>
<pdfrwt beam="2">  1       -2 0.23904177E-01 0.37230375E+03</pdfrwt>
<totfact> 0.15025970E+02</totfact>
</mgrwt>
</event>
<event>
 4    1  0.3365401E-008  0.5209567E+03  0.7818608E-02  0.1008449E+00
         -2   -1    0    0    0  501 -0.00000000000E+00  0.00000000000E+00  0.16254405885E+03  0.16254405887E+03  0.25500000000E-02 0.  1.
          2   -1    0    0  501    0  0.00000000000E+00 -0.00000000000E+00 -0.29710201494E+04  0.29710201494E+04  0.25500000000E-02 0. -1.
    8880022    1    1    2    0    0 -0.17783338330E+03 -0.46516611178E+03 -0.24411739773E+04  0.24961422764E+04  0.15294330000E+03 0.  0.
    8880022    1    1    2    0    0  0.17783338330E+03  0.46516611178E+03 -0.36730211324E+03  0.63742193183E+03  0.15294330000E+03 0.  0.
<mgrwt>
<rscale>  0 0.52095669E+03</rscale>
<asrwt>0</asrwt>
<pdfrwt beam="1">  1        2 0.45707998E+00 0.52095669E+03</pdfrwt>
<pdfrwt beam="2">  1       -2 0.25006780E-01 0.52095669E+03</pdfrwt>
<totfact> 0.28705499E+01</totfact>
</mgrwt>
</event>
<event>
 4    1  0.3365401E-008  0.4831468E+03  0.7818608E-02  0.1018274E+00
         -2   -1    0    0    0  501 -0.00000000000E+00  0.00000000000E+00  0.72814614445E+03  0.72814614445E+03  0.25500000000E-02 0.  1.
          2   -1    0    0  501    0  0.00000000000E+00 -0.00000000000E+00 -0.55794000867E+03  0.55794000868E+03  0.25500000000E-02 0. -1.
    8880022    1    1    2    0    0 -0.44186369067E+03  0.12163731742E+03 -0.33431576523E+03  0.58753539640E+03  0.15294330000E+03 0.  0.
    8880022    1    1    2    0    0  0.44186369067E+03 -0.12163731742E+03  0.50452190101E+03  0.69855075673E+03  0.15294330000E+03 0.  0.
<mgrwt>
<rscale>  0 0.48314678E+03</rscale>
<asrwt>0</asrwt>
<pdfrwt beam="1">  1        2 0.85836925E-01 0.48314678E+03</pdfrwt>
<pdfrwt beam="2">  1       -2 0.11202248E+00 0.48314678E+03</pdfrwt>
<totfact> 0.35320729E+01</totfact>
</mgrwt>
</event>
<event>
 4    1  0.3365401E-008  0.4449353E+03  0.7818608E-02  0.1029243E+00
         -2   -1    0    0    0  501 -0.00000000000E+00  0.00000000000E+00  0.89293691197E+03  0.89293691197E+03  0.25500000000E-02 0.  1.
          2   -1    0    0  501    0  0.00000000000E+00 -0.00000000000E+00 -0.73562625709E+03  0.73562625709E+03  0.25500000000E-02 0. -1.
    8880022    1    1    2    0    0 -0.30539781293E+03 -0.28514552809E+03 -0.60194918913E+03  0.74853876028E+03  0.15294330000E+03 0.  0.
    8880022    1    1    2    0    0  0.30539781293E+03  0.28514552809E+03  0.75925984401E+03  0.88002440879E+03  0.15294330000E+03 0.  0.
<mgrwt>
<rscale>  0 0.44493533E+03</rscale>
<asrwt>0</asrwt>
<pdfrwt beam="1">  1        2 0.11317327E+00 0.44493533E+03</pdfrwt>
<pdfrwt beam="2">  1       -2 0.13737491E+00 0.44493533E+03</pdfrwt>
<totfact> 0.15319961E+01</totfact>
</mgrwt>
</event>
<event>
 4    1  0.3365401E-008  0.9301782E+03  0.7818608E-02  0.9388624E-01
         -2   -1    0    0    0  501 -0.00000000000E+00  0.00000000000E+00  0.12473062836E+04  0.12473062836E+04  0.25500000000E-02 0.  1.
          2   -1    0    0  501    0  0.00000000000E+00 -0.00000000000E+00 -0.12371709821E+04  0.12371709821E+04  0.25500000000E-02 0. -1.
    8880022    1    1    2    0    0 -0.53480541763E+03  0.74553535821E+03  0.82842113715E+03  0.12455974625E+04  0.15294330000E+03 0.  0.
    8880022    1    1    2    0    0  0.53480541763E+03 -0.74553535821E+03 -0.81828583564E+03  0.12388798032E+04  0.15294330000E+03 0.  0.
<mgrwt>
<rscale>  0 0.93017819E+03</rscale>
<asrwt>0</asrwt>
<pdfrwt beam="1">  1        2 0.19033400E+00 0.93017819E+03</pdfrwt>
<pdfrwt beam="2">  1       -2 0.19189328E+00 0.93017819E+03</pdfrwt>
<totfact> 0.27109199E+00</totfact>
</mgrwt>
</event>
<event>
 4    1  0.3365401E-008  0.4348268E+03  0.7818608E-02  0.1032346E+00
         -2   -1    0    0    0  501 -0.00000000000E+00  0.00000000000E+00  0.64932162251E+03  0.64932162252E+03  0.25500000000E-02 0.  1.
          2   -1    0    0  501    0  0.00000000000E+00 -0.00000000000E+00 -0.51819555802E+03  0.51819555802E+03  0.25500000000E-02 0. -1.
    8880022    1    1    2    0    0  0.10537886408E+02  0.40690500061E+03  0.45193625452E+03  0.62715289821E+03  0.15294330000E+03 0.  0.
    8880022    1    1    2    0    0 -0.10537886408E+02 -0.40690500061E+03 -0.32081019003E+03  0.54036428232E+03  0.15294330000E+03 0. -1.
<mgrwt>
<rscale>  0 0.43482684E+03</rscale>
<asrwt>0</asrwt>
<pdfrwt beam="1">  1        2 0.79722394E-01 0.43482684E+03</pdfrwt>
<pdfrwt beam="2">  1       -2 0.99895634E-01 0.43482684E+03</pdfrwt>
<totfact> 0.50856656E+01</totfact>
</mgrwt>
</event>
<event>
 4    1  0.3365401E-008  0.2972965E+03  0.7818608E-02  0.1086600E+00
         -2   -1    0    0    0  501 -0.00000000000E+00  0.00000000000E+00  0.11799151991E+03  0.11799151994E+03  0.25500000000E-02 0.  1.
          2   -1    0    0  501    0  0.00000000000E+00 -0.00000000000E+00 -0.80105933478E+03  0.80105933479E+03  0.25500000000E-02 0. -1.
    8880022    1    1    2    0    0  0.92950666619E+02 -0.23738938539E+03 -0.22447927694E+03  0.37252670443E+03  0.15294330000E+03 0.  0.
    8880022    1    1    2    0    0 -0.92950666619E+02  0.23738938539E+03 -0.45858853793E+03  0.54652415030E+03  0.15294330000E+03 0.  1.
<mgrwt>
<rscale>  0 0.29729648E+03</rscale>
<asrwt>0</asrwt>
<pdfrwt beam="1">  1        2 0.12323989E+00 0.29729648E+03</pdfrwt>
<pdfrwt beam="2">  1       -2 0.18152542E-01 0.29729648E+03</pdfrwt>
<totfact> 0.88071261E+02</totfact>
</mgrwt>
</event>
<event>
 4    1  0.3365401E-008  0.5023923E+03  0.7818608E-02  0.1013156E+00
         -2   -1    0    0    0  501 -0.00000000000E+00  0.00000000000E+00  0.33814795328E+03  0.33814795329E+03  0.25500000000E-02 0.  1.
          2   -1    0    0  501    0  0.00000000000E+00 -0.00000000000E+00 -0.13828169188E+04  0.13828169188E+04  0.25500000000E-02 0. -1.
    8880022    1    1    2    0    0 -0.12004713960E+02  0.47839552543E+03 -0.11060833806E+04  0.12148327004E+04  0.15294330000E+03 0.  0.
    8880022    1    1    2    0    0  0.12004713960E+02 -0.47839552543E+03  0.61414415080E+02  0.50613217177E+03  0.15294330000E+03 0.  0.
<mgrwt>
<rscale>  0 0.50239232E+03</rscale>
<asrwt>0</asrwt>
<pdfrwt beam="1">  1        2 0.21274106E+00 0.50239232E+03</pdfrwt>
<pdfrwt beam="2">  1       -2 0.52022763E-01 0.50239232E+03</pdfrwt>
<totfact> 0.54272118E+01</totfact>
</mgrwt>
</event>
<event>
 4    1  0.3365401E-008  0.2599244E+03  0.7818608E-02  0.1107189E+00
         -2   -1    0    0    0  501 -0.00000000000E+00  0.00000000000E+00  0.94031257798E+02  0.94031257832E+02  0.25500000000E-02 0.  1.
          2   -1    0    0  501    0  0.00000000000E+00 -0.00000000000E+00 -0.22147311230E+04  0.22147311230E+04  0.25500000000E-02 0. -1.
    8880022    1    1    2    0    0 -0.11693847606E+03  0.17462659185E+03 -0.11151811412E+03  0.28283740304E+03  0.15294330000E+03 0.  0.
    8880022    1    1    2    0    0  0.11693847606E+03 -0.17462659185E+03 -0.20091817511E+04  0.20259249778E+04  0.15294330000E+03 0.  0.
<mgrwt>
<rscale>  0 0.25992443E+03</rscale>
<asrwt>0</asrwt>
<pdfrwt beam="1">  1        2 0.34072783E+00 0.25992443E+03</pdfrwt>
<pdfrwt beam="2">  1       -2 0.14466349E-01 0.25992443E+03</pdfrwt>
<totfact> 0.20943879E+02</totfact>
</mgrwt>
</event>
<event>
 4    1  0.3365401E-008  0.5190896E+03  0.7818608E-02  0.1008913E+00
          2   -1    0    0  501    0  0.00000000000E+00  0.00000000000E+00  0.82403665346E+03  0.82403665346E+03  0.25500000000E-02 0. -1.
         -2   -1    0    0    0  501 -0.00000000000E+00 -0.00000000000E+00 -0.48706966093E+03  0.48706966093E+03  0.25500000000E-02 0.  1.
    8880022    1    1    2    0    0  0.49443262370E+03 -0.39984827979E+02 -0.20733369579E+03  0.55896450717E+03  0.15294330000E+03 0.  0.
    8880022    1    1    2    0    0 -0.49443262370E+03  0.39984827979E+02  0.54430068832E+03  0.75214180722E+03  0.15294330000E+03 0.  0.
<mgrwt>
<rscale>  0 0.51908964E+03</rscale>
<asrwt>0</asrwt>
<pdfrwt beam="1">  1        2 0.12677487E+00 0.51908964E+03</pdfrwt>
<pdfrwt beam="2">  1       -2 0.74933794E-01 0.51908964E+03</pdfrwt>
<totfact> 0.54870800E+01</totfact>
</mgrwt>
</event>
<event>
 4    1  0.3365401E-008  0.1031393E+04  0.7818608E-02  0.9274768E-01
          2   -1    0    0  501    0  0.00000000000E+00  0.00000000000E+00  0.21963173147E+04  0.21963173148E+04  0.25500000000E-02 0. -1.
         -2   -1    0    0    0  501 -0.00000000000E+00 -0.00000000000E+00 -0.81503329617E+03  0.81503329618E+03  0.25500000000E-02 0.  1.
    8880022    1    1    2    0    0 -0.59622588541E+03  0.82758330287E+03 -0.26843687221E+03  0.10657529906E+04  0.15294330000E+03 0.  0.
    8880022    1    1    2    0    0  0.59622588541E+03 -0.82758330287E+03  0.16497208908E+04  0.19455976203E+04  0.15294330000E+03 0.  0.
<mgrwt>
<rscale>  0 0.10313928E+04</rscale>
<asrwt>0</asrwt>
<pdfrwt beam="1">  1        2 0.33789497E+00 0.10313928E+04</pdfrwt>
<pdfrwt beam="2">  1       -2 0.12538974E+00 0.10313928E+04</pdfrwt>
<totfact> 0.24617444E+00</totfact>
</mgrwt>
</event>
<event>
 4    1  0.3365401E-008  0.2749145E+03  0.7818608E-02  0.1098499E+00
         -2   -1    0    0    0  501 -0.00000000000E+00  0.00000000000E+00  0.86864920726E+03  0.86864920726E+03  0.25500000000E-02 0.  1.
          2   -1    0    0  501    0  0.00000000000E+00 -0.00000000000E+00 -0.12946109577E+04  0.12946109577E+04  0.25500000000E-02 0. -1.
    8880022    1    1    2    0    0  0.14824924732E+03 -0.17380584628E+03  0.83167080125E+03  0.87593052590E+03  0.15294330000E+03 0.  0.
    8880022    1    1    2    0    0 -0.14824924732E+03  0.17380584628E+03 -0.12576325517E+04  0.12873296391E+04  0.15294330000E+03 0.  0.
<mgrwt>
<rscale>  0 0.27491447E+03</rscale>
<asrwt>0</asrwt>
<pdfrwt beam="1">  1        2 0.19917092E+00 0.27491447E+03</pdfrwt>
<pdfrwt beam="2">  1       -2 0.13363834E+00 0.27491447E+03</pdfrwt>
<totfact> 0.76527162E+00</totfact>
</mgrwt>
</event>
<event>
 4    1  0.3365401E-008  0.3740591E+03  0.7818608E-02  0.1053152E+00
         -2   -1    0    0    0  501 -0.00000000000E+00  0.00000000000E+00  0.25554041181E+03  0.25554041182E+03  0.25500000000E-02 0.  1.
          2   -1    0    0  501    0  0.00000000000E+00 -0.00000000000E+00 -0.82293313949E+03  0.82293313949E+03  0.25500000000E-02 0. -1.
    8880022    1    1    2    0    0 -0.86959086132E+02  0.33010102674E+03  0.28241983723E+02  0.37512375714E+03  0.15294330000E+03 0.  0.
    8880022    1    1    2    0    0  0.86959086132E+02 -0.33010102674E+03 -0.59563471140E+03  0.70334979417E+03  0.15294330000E+03 0.  0.
<mgrwt>
<rscale>  0 0.37405912E+03</rscale>
<asrwt>0</asrwt>
<pdfrwt beam="1">  1        2 0.12660510E+00 0.37405912E+03</pdfrwt>
<pdfrwt beam="2">  1       -2 0.39313910E-01 0.37405912E+03</pdfrwt>
<totfact> 0.21029820E+02</totfact>
</mgrwt>
</event>
<event>
 4    1  0.3365401E-008  0.5396738E+03  0.7818608E-02  0.1003913E+00
         -2   -1    0    0    0  501 -0.00000000000E+00  0.00000000000E+00  0.59845719282E+03  0.59845719282E+03  0.25500000000E-02 0.  1.
          2   -1    0    0  501    0  0.00000000000E+00 -0.00000000000E+00 -0.62812940926E+03  0.62812940926E+03  0.25500000000E-02 0. -1.
    8880022    1    1    2    0    0  0.51405902559E+03 -0.59995369311E+02 -0.30588654417E+03  0.62033406891E+03  0.15294330000E+03 0. -1.
    8880022    1    1    2    0    0 -0.51405902559E+03  0.59995369311E+02  0.27621432773E+03  0.60625253318E+03  0.15294330000E+03 0.  0.
<mgrwt>
<rscale>  0 0.53967377E+03</rscale>
<asrwt>0</asrwt>
<pdfrwt beam="1">  1        2 0.96635294E-01 0.53967377E+03</pdfrwt>
<pdfrwt beam="2">  1       -2 0.92070337E-01 0.53967377E+03</pdfrwt>
<totfact> 0.48473320E+01</totfact>
</mgrwt>
</event>
<event>
 4    1  0.3365401E-008  0.5616723E+03  0.7818608E-02  0.9988278E-01
          2   -1    0    0  501    0  0.00000000000E+00  0.00000000000E+00  0.16201502965E+04  0.16201502965E+04  0.25500000000E-02 0. -1.
         -2   -1    0    0    0  501 -0.00000000000E+00 -0.00000000000E+00 -0.33264297137E+03  0.33264297138E+03  0.25500000000E-02 0.  1.
    8880022    1    1    2    0    0 -0.36283378047E+03  0.40054436402E+03  0.12724707687E+04  0.13909197138E+04  0.15294330000E+03 0.  0.
    8880022    1    1    2    0    0  0.36283378047E+03 -0.40054436402E+03  0.15036556415E+02  0.56187355414E+03  0.15294330000E+03 0.  0.
<mgrwt>
<rscale>  0 0.56167232E+03</rscale>
<asrwt>0</asrwt>
<pdfrwt beam="1">  1        2 0.24925389E+00 0.56167232E+03</pdfrwt>
<pdfrwt beam="2">  1       -2 0.51175841E-01 0.56167232E+03</pdfrwt>
<totfact> 0.41163777E+01</totfact>
</mgrwt>
</event>
<event>
 4    1  0.3365401E-008  0.7347844E+03  0.7818608E-02  0.9659528E-01
          2   -1    0    0  501    0  0.00000000000E+00  0.00000000000E+00  0.24892728713E+04  0.24892728713E+04  0.25500000000E-02 0. -1.
         -2   -1    0    0    0  501 -0.00000000000E+00 -0.00000000000E+00 -0.25645126334E+03  0.25645126335E+03  0.25500000000E-02 0.  1.
    8880022    1    1    2    0    0 -0.37581331593E+03 -0.61260173409E+03  0.57722560103E+03  0.93439690739E+03  0.15294330000E+03 0.  0.
    8880022    1    1    2    0    0  0.37581331593E+03  0.61260173409E+03  0.16555960070E+04  0.18113272273E+04  0.15294330000E+03 0.  0.
<mgrwt>
<rscale>  0 0.73478445E+03</rscale>
<asrwt>0</asrwt>
<pdfrwt beam="1">  1        2 0.38296507E+00 0.73478445E+03</pdfrwt>
<pdfrwt beam="2">  1       -2 0.39454039E-01 0.73478445E+03</pdfrwt>
<totfact> 0.22468777E+01</totfact>
</mgrwt>
</event>
<event>
 4    1  0.3365401E-008  0.3220011E+03  0.7818608E-02  0.1074732E+00
         -2   -1    0    0    0  501 -0.00000000000E+00  0.00000000000E+00  0.44826191407E+02  0.44826191480E+02  0.25500000000E-02 0.  1.
          2   -1    0    0  501    0  0.00000000000E+00 -0.00000000000E+00 -0.26597330995E+04  0.26597330995E+04  0.25500000000E-02 0. -1.
    8880022    1    1    2    0    0  0.27610640404E+03 -0.63704646782E+02 -0.17956799817E+04  0.18243221421E+04  0.15294330000E+03 0.  0.
    8880022    1    1    2    0    0 -0.27610640404E+03  0.63704646782E+02 -0.81922692640E+03  0.88023714891E+03  0.15294330000E+03 0.  0.
<mgrwt>
<rscale>  0 0.32200106E+03</rscale>
<asrwt>0</asrwt>
<pdfrwt beam="1">  1        2 0.40918958E+00 0.32200106E+03</pdfrwt>
<pdfrwt beam="2">  1       -2 0.68963392E-02 0.32200106E+03</pdfrwt>
<totfact> 0.38608902E+02</totfact>
</mgrwt>
</event>
<event>
 4    1  0.3365401E-008  0.1879505E+03  0.7818608E-02  0.1160323E+00
          2   -1    0    0  501    0  0.00000000000E+00  0.00000000000E+00  0.14653725302E+04  0.14653725302E+04  0.25500000000E-02 0. -1.
         -2   -1    0    0    0  501 -0.00000000000E+00 -0.00000000000E+00 -0.11010462128E+03  0.11010462131E+03  0.25500000000E-02 0.  1.
    8880022    1    1    2    0    0  0.85515835070E+02 -0.67976392064E+02  0.13738165083E+04  0.13866135725E+04  0.15294330000E+03 0.  0.
    8880022    1    1    2    0    0 -0.85515835070E+02  0.67976392064E+02 -0.18548599383E+02  0.18886357902E+03  0.15294330000E+03 0.  1.
<mgrwt>
<rscale>  0 0.18795053E+03</rscale>
<asrwt>0</asrwt>
<pdfrwt beam="1">  1        2 0.22544192E+00 0.18795053E+03</pdfrwt>
<pdfrwt beam="2">  1       -2 0.16939173E-01 0.18795053E+03</pdfrwt>
<totfact> 0.40555802E+02</totfact>
</mgrwt>
</event>
<event>
 4    1  0.3365401E-008  0.4151484E+03  0.7818608E-02  0.1038657E+00
          2   -1    0    0  501    0  0.00000000000E+00  0.00000000000E+00  0.25302518455E+04  0.25302518455E+04  0.25500000000E-02 0. -1.
         -2   -1    0    0    0  501 -0.00000000000E+00 -0.00000000000E+00 -0.73497688026E+02  0.73497688070E+02  0.25500000000E-02 0.  1.
    8880022    1    1    2    0    0  0.38564445958E+03  0.15325023437E+02  0.15806920621E+04  0.16342997136E+04  0.15294330000E+03 0.  0.
    8880022    1    1    2    0    0 -0.38564445958E+03 -0.15325023437E+02  0.87606209536E+03  0.96944981999E+03  0.15294330000E+03 0.  0.
<mgrwt>
<rscale>  0 0.41514836E+03</rscale>
<asrwt>0</asrwt>
<pdfrwt beam="1">  1        2 0.38926942E+00 0.41514836E+03</pdfrwt>
<pdfrwt beam="2">  1       -2 0.11307339E-01 0.41514836E+03</pdfrwt>
<totfact> 0.20399066E+02</totfact>
</mgrwt>
</event>
<event>
 4    1  0.3365401E-008  0.3988868E+03  0.7818608E-02  0.1044166E+00
          2   -1    0    0  501    0  0.00000000000E+00  0.00000000000E+00  0.17332753738E+04  0.17332753738E+04  0.25500000000E-02 0. -1.
         -2   -1    0    0    0  501 -0.00000000000E+00 -0.00000000000E+00 -0.31871665547E+03  0.31871665549E+03  0.25500000000E-02 0.  1.
    8880022    1    1    2    0    0  0.31866348248E+03 -0.18485839419E+03  0.15730018122E+04  0.16227893872E+04  0.15294330000E+03 0.  0.
    8880022    1    1    2    0    0 -0.31866348248E+03  0.18485839419E+03 -0.15844309388E+03  0.42920264209E+03  0.15294330000E+03 0.  0.
<mgrwt>
<rscale>  0 0.39888682E+03</rscale>
<asrwt>0</asrwt>
<pdfrwt beam="1">  1        2 0.26665775E+00 0.39888682E+03</pdfrwt>
<pdfrwt beam="2">  1       -2 0.49033332E-01 0.39888682E+03</pdfrwt>
<totfact> 0.40181526E+01</totfact>
</mgrwt>
</event>
<event>
 4    1  0.3365401E-008  0.1072802E+04  0.7818608E-02  0.9232114E-01
         -2   -1    0    0    0  501 -0.00000000000E+00  0.00000000000E+00  0.10528199504E+04  0.10528199504E+04  0.25500000000E-02 0.  1.
          2   -1    0    0  501    0  0.00000000000E+00 -0.00000000000E+00 -0.27975132996E+04  0.27975132996E+04  0.25500000000E-02 0. -1.
    8880022    1    1    2    0    0 -0.83781596384E+03 -0.65236197527E+03  0.63031678712E+03  0.12442679137E+04  0.15294330000E+03 0.  0.
    8880022    1    1    2    0    0  0.83781596384E+03  0.65236197527E+03 -0.23750101363E+04  0.26060653362E+04  0.15294330000E+03 0.  0.
<mgrwt>
<rscale>  0 0.10728017E+04</rscale>
<asrwt>0</asrwt>
<pdfrwt beam="1">  1        2 0.43038666E+00 0.10728017E+04</pdfrwt>
<pdfrwt beam="2">  1       -2 0.16197230E+00 0.10728017E+04</pdfrwt>
<totfact> 0.56508450E-01</totfact>
</mgrwt>
</event>
<event>
 4    1  0.3365401E-008  0.1528056E+04  0.7818608E-02  0.8866008E-01
          2   -1    0    0  501    0  0.00000000000E+00  0.00000000000E+00  0.12933377955E+04  0.12933377955E+04  0.25500000000E-02 0. -1.
         -2   -1    0    0    0  501 -0.00000000000E+00 -0.00000000000E+00 -0.46191795514E+04  0.46191795514E+04  0.25500000000E-02 0.  1.
    8880022    1    1    2    0    0  0.31267718134E+03 -0.14878827408E+04 -0.39702382300E+04  0.42541444881E+04  0.15294330000E+03 0.  0.
    8880022    1    1    2    0    0 -0.31267718134E+03  0.14878827408E+04  0.64439647408E+03  0.16583728588E+04  0.15294330000E+03 0.  0.
<mgrwt>
<rscale>  0 0.15280555E+04</rscale>
<asrwt>0</asrwt>
<pdfrwt beam="1">  1        2 0.19897505E+00 0.15280555E+04</pdfrwt>
<pdfrwt beam="2">  1       -2 0.71064300E+00 0.15280555E+04</pdfrwt>
<totfact> 0.32262816E-03</totfact>
</mgrwt>
</event>
<event>
 4    1  0.3365401E-008  0.3714934E+03  0.7818608E-02  0.1054123E+00
          2   -1    0    0  501    0  0.00000000000E+00  0.00000000000E+00  0.60207582824E+03  0.60207582825E+03  0.25500000000E-02 0. -1.
         -2   -1    0    0    0  501 -0.00000000000E+00 -0.00000000000E+00 -0.83520518930E+03  0.83520518930E+03  0.25500000000E-02 0.  1.
    8880022    1    1    2    0    0  0.16701144673E+03  0.29448742831E+03  0.49556918136E+03  0.61935138274E+03  0.15294330000E+03 0.  0.
    8880022    1    1    2    0    0 -0.16701144673E+03 -0.29448742831E+03 -0.72869854242E+03  0.81792963481E+03  0.15294330000E+03 0.  0.
<mgrwt>
<rscale>  0 0.37149337E+03</rscale>
<asrwt>0</asrwt>
<pdfrwt beam="1">  1        2 0.92627050E-01 0.37149337E+03</pdfrwt>
<pdfrwt beam="2">  1       -2 0.12849311E+00 0.37149337E+03</pdfrwt>
<totfact> 0.23439689E+01</totfact>
</mgrwt>
</event>
<event>
 4    1  0.3617002E-008  0.1563619E+04  0.7818608E-02  0.8843215E-01
          2   -1    0    0  501    0  0.00000000000E+00  0.00000000000E+00  0.23133742904E+04  0.23133742904E+04  0.25500000000E-02 0. -1.
         -2   -1    0    0    0  501 -0.00000000000E+00 -0.00000000000E+00 -0.23342708907E+04  0.23342708907E+04  0.25500000000E-02 0.  1.
    8880022    1    1    2    0    0  0.53405073057E+02 -0.15552048605E+04 -0.17295166796E+04  0.23315518133E+04  0.15294330000E+03 0.  0.
    8880022    1    1    2    0    0 -0.53405073057E+02  0.15552048605E+04  0.17086200793E+04  0.23160933678E+04  0.15294330000E+03 0.  0.
<mgrwt>
<rscale>  0 0.15636195E+04</rscale>
<asrwt>0</asrwt>
<pdfrwt beam="1">  1        2 0.35590374E+00 0.15636195E+04</pdfrwt>
<pdfrwt beam="2">  1       -2 0.35911860E+00 0.15636195E+04</pdfrwt>
<totfact> 0.56511714E-02</totfact>
</mgrwt>
</event>
<event>
 4    1  0.3365401E-008  0.5371577E+03  0.7818608E-02  0.1004511E+00
         -2   -1    0    0    0  501 -0.00000000000E+00  0.00000000000E+00  0.34642802939E+03  0.34642802940E+03  0.25500000000E-02 0.  1.
          2   -1    0    0  501    0  0.00000000000E+00 -0.00000000000E+00 -0.26972394269E+04  0.26972394269E+04  0.25500000000E-02 0. -1.
    8880022    1    1    2    0    0  0.67477519053E+02  0.51048361184E+03 -0.24406385458E+04  0.24990507993E+04  0.15294330000E+03 0. -1.
    8880022    1    1    2    0    0 -0.67477519053E+02 -0.51048361184E+03  0.89827148214E+02  0.54461665702E+03  0.15294330000E+03 0.  0.
<mgrwt>
<rscale>  0 0.53715769E+03</rscale>
<asrwt>0</asrwt>
<pdfrwt beam="1">  1        2 0.41495990E+00 0.53715769E+03</pdfrwt>
<pdfrwt beam="2">  1       -2 0.53296622E-01 0.53715769E+03</pdfrwt>
<totfact> 0.97454596E+00</totfact>
</mgrwt>
</event>
<event>
 4    1  0.3365401E-008  0.7509065E+03  0.7818608E-02  0.9633929E-01
          2   -1    0    0  501    0  0.00000000000E+00  0.00000000000E+00  0.99821696687E+03  0.99821696687E+03  0.25500000000E-02 0. -1.
         -2   -1    0    0    0  501 -0.00000000000E+00 -0.00000000000E+00 -0.73294783074E+03  0.73294783075E+03  0.25500000000E-02 0.  1.
    8880022    1    1    2    0    0 -0.32141241447E+03 -0.66118298937E+03 -0.28187069773E+03  0.80206709748E+03  0.15294330000E+03 0.  1.
    8880022    1    1    2    0    0  0.32141241447E+03  0.66118298937E+03  0.54713983385E+03  0.92909770014E+03  0.15294330000E+03 0.  0.
<mgrwt>
<rscale>  0 0.75090648E+03</rscale>
<asrwt>0</asrwt>
<pdfrwt beam="1">  1        2 0.15357184E+00 0.75090648E+03</pdfrwt>
<pdfrwt beam="2">  1       -2 0.11276120E+00 0.75090648E+03</pdfrwt>
<totfact> 0.15883225E+01</totfact>
</mgrwt>
</event>
<event>
 4    1  0.3365401E-008  0.4342759E+03  0.7818608E-02  0.1032518E+00
          2   -1    0    0  501    0  0.00000000000E+00  0.00000000000E+00  0.10236793077E+04  0.10236793077E+04  0.25500000000E-02 0. -1.
         -2   -1    0    0    0  501 -0.00000000000E+00 -0.00000000000E+00 -0.72433163850E+03  0.72433163851E+03  0.25500000000E-02 0.  1.
    8880022    1    1    2    0    0 -0.27024650919E+02  0.40555345969E+03 -0.60503934291E+03  0.74476049836E+03  0.15294330000E+03 0.  0.
    8880022    1    1    2    0    0  0.27024650919E+02 -0.40555345969E+03  0.90438701213E+03  0.10032504479E+04  0.15294330000E+03 0.  0.
<mgrwt>
<rscale>  0 0.43427594E+03</rscale>
<asrwt>0</asrwt>
<pdfrwt beam="1">  1        2 0.15748912E+00 0.43427594E+03</pdfrwt>
<pdfrwt beam="2">  1       -2 0.11143564E+00 0.43427594E+03</pdfrwt>
<totfact> 0.16483351E+01</totfact>
</mgrwt>
</event>
<event>
 4    1  0.3365401E-008  0.4938811E+03  0.7818608E-02  0.1015388E+00
          2   -1    0    0  501    0  0.00000000000E+00  0.00000000000E+00  0.13165422457E+04  0.13165422457E+04  0.25500000000E-02 0. -1.
         -2   -1    0    0    0  501 -0.00000000000E+00 -0.00000000000E+00 -0.38333685541E+03  0.38333685542E+03  0.25500000000E-02 0.  1.
    8880022    1    1    2    0    0 -0.19916691434E+03 -0.42527571376E+03 -0.14434123288E+03  0.51454148230E+03  0.15294330000E+03 0.  0.
    8880022    1    1    2    0    0  0.19916691434E+03  0.42527571376E+03  0.10775466232E+04  0.11853376189E+04  0.15294330000E+03 0.  0.
<mgrwt>
<rscale>  0 0.49388110E+03</rscale>
<asrwt>0</asrwt>
<pdfrwt beam="1">  1        2 0.20254496E+00 0.49388110E+03</pdfrwt>
<pdfrwt beam="2">  1       -2 0.58974900E-01 0.49388110E+03</pdfrwt>
<totfact> 0.45699294E+01</totfact>
</mgrwt>
</event>
<event>
 4    1  0.3365401E-008  0.1313512E+04  0.7818608E-02  0.9018918E-01
          2   -1    0    0  501    0  0.00000000000E+00  0.00000000000E+00  0.37826241418E+04  0.37826241418E+04  0.25500000000E-02 0. -1.
         -2   -1    0    0    0  501 -0.00000000000E+00 -0.00000000000E+00 -0.51874199771E+03  0.51874199771E+03  0.25500000000E-02 0.  1.
    8880022    1    1    2    0    0  0.53272350508E+03  0.11908521844E+04  0.88466946373E+03  0.15836524148E+04  0.15294330000E+03 0.  0.
    8880022    1    1    2    0    0 -0.53272350508E+03 -0.11908521844E+04  0.23792126804E+04  0.27177137247E+04  0.15294330000E+03 0.  0.
<mgrwt>
<rscale>  0 0.13135124E+04</rscale>
<asrwt>0</asrwt>
<pdfrwt beam="1">  1        2 0.58194220E+00 0.13135124E+04</pdfrwt>
<pdfrwt beam="2">  1       -2 0.79806458E-01 0.13135124E+04</pdfrwt>
<totfact> 0.69948060E-01</totfact>
</mgrwt>
</event>
<event>
 4    1  0.3365401E-008  0.9759599E+03  0.7818608E-02  0.9335312E-01
         -2   -1    0    0    0  501 -0.00000000000E+00  0.00000000000E+00  0.14653209888E+04  0.14653209888E+04  0.25500000000E-02 0.  1.
          2   -1    0    0  501    0  0.00000000000E+00 -0.00000000000E+00 -0.15975458011E+04  0.15975458011E+04  0.25500000000E-02 0. -1.
    8880022    1    1    2    0    0  0.94560044148E+03 -0.18693820858E+03 -0.12455241420E+04  0.15823489280E+04  0.15294330000E+03 0.  0.
    8880022    1    1    2    0    0 -0.94560044148E+03  0.18693820858E+03  0.11132993297E+04  0.14805178619E+04  0.15294330000E+03 0.  0.
<mgrwt>
<rscale>  0 0.97595991E+03</rscale>
<asrwt>0</asrwt>
<pdfrwt beam="1">  1        2 0.24577628E+00 0.97595991E+03</pdfrwt>
<pdfrwt beam="2">  1       -2 0.22543400E+00 0.97595991E+03</pdfrwt>
<totfact> 0.10215230E+00</totfact>
</mgrwt>
</event>
<event>
 4    1  0.3365401E-008  0.7427387E+03  0.7818608E-02  0.9646812E-01
          2   -1    0    0  501    0  0.00000000000E+00  0.00000000000E+00  0.17992510103E+04  0.17992510103E+04  0.25500000000E-02 0. -1.
         -2   -1    0    0    0  501 -0.00000000000E+00 -0.00000000000E+00 -0.69326224958E+03  0.69326224959E+03  0.25500000000E-02 0.  1.
    8880022    1    1    2    0    0  0.60354020450E+03  0.40497938869E+03  0.14837193243E+04  0.16592419263E+04  0.15294330000E+03 0.  0.
    8880022    1    1    2    0    0 -0.60354020450E+03 -0.40497938869E+03 -0.37773056357E+03  0.83327133359E+03  0.15294330000E+03 0.  0.
<mgrwt>
<rscale>  0 0.74273867E+03</rscale>
<asrwt>0</asrwt>
<pdfrwt beam="1">  1        2 0.27680784E+00 0.74273867E+03</pdfrwt>
<pdfrwt beam="2">  1       -2 0.10665573E+00 0.74273867E+03</pdfrwt>
<totfact> 0.63122062E+00</totfact>
</mgrwt>
</event>
<event>
 4    1  0.3365401E-008  0.4941527E+03  0.7818608E-02  0.1015317E+00
         -2   -1    0    0    0  501 -0.00000000000E+00  0.00000000000E+00  0.41951297269E+03  0.41951297270E+03  0.25500000000E-02 0.  1.
          2   -1    0    0  501    0  0.00000000000E+00 -0.00000000000E+00 -0.35999571081E+04  0.35999571081E+04  0.25500000000E-02 0. -1.
    8880022    1    1    2    0    0 -0.46651770878E+03 -0.56182069973E+02 -0.34303222827E+04  0.34657319305E+04  0.15294330000E+03 0.  0.
    8880022    1    1    2    0    0  0.46651770878E+03  0.56182069973E+02  0.24987814732E+03  0.55373815032E+03  0.15294330000E+03 0.  0.
<mgrwt>
<rscale>  0 0.49415266E+03</rscale>
<asrwt>0</asrwt>
<pdfrwt beam="1">  1        2 0.55383953E+00 0.49415266E+03</pdfrwt>
<pdfrwt beam="2">  1       -2 0.64540460E-01 0.49415266E+03</pdfrwt>
<totfact> 0.17983331E+00</totfact>
</mgrwt>
</event>
<event>
 4    1  0.3365401E-008  0.6262395E+03  0.7818608E-02  0.9852415E-01
          2   -1    0    0  501    0  0.00000000000E+00  0.00000000000E+00  0.11276265851E+04  0.11276265851E+04  0.25500000000E-02 0. -1.
         -2   -1    0    0    0  501 -0.00000000000E+00 -0.00000000000E+00 -0.70966015755E+03  0.70966015755E+03  0.25500000000E-02 0.  1.
    8880022    1    1    2    0    0  0.22568984692E+02  0.60685656940E+03  0.86497565159E+03  0.10678758288E+04  0.15294330000E+03 0.  0.
    8880022    1    1    2    0    0 -0.22568984692E+02 -0.60685656940E+03 -0.44700922406E+03  0.76941091382E+03  0.15294330000E+03 0.  1.
<mgrwt>
<rscale>  0 0.62623950E+03</rscale>
<asrwt>0</asrwt>
<pdfrwt beam="1">  1        2 0.17348101E+00 0.62623950E+03</pdfrwt>
<pdfrwt beam="2">  1       -2 0.10917849E+00 0.62623950E+03</pdfrwt>
<totfact> 0.14501945E+01</totfact>
</mgrwt>
</event>
<event>
 4    1  0.3365401E-008  0.1030302E+04  0.7818608E-02  0.9275921E-01
          2   -1    0    0  501    0  0.00000000000E+00  0.00000000000E+00  0.33142927305E+04  0.33142927305E+04  0.25500000000E-02 0. -1.
         -2   -1    0    0    0  501 -0.00000000000E+00 -0.00000000000E+00 -0.45157495968E+03  0.45157495969E+03  0.25500000000E-02 0.  1.
    8880022    1    1    2    0    0  0.19016472873E+02 -0.10187094497E+04  0.24466343936E+04  0.26547207156E+04  0.15294330000E+03 0. -1.
    8880022    1    1    2    0    0 -0.19016472873E+02  0.10187094497E+04  0.41608337729E+03  0.11111469746E+04  0.15294330000E+03 0.  0.
<mgrwt>
<rscale>  0 0.10303020E+04</rscale>
<asrwt>0</asrwt>
<pdfrwt beam="1">  1        2 0.50989121E+00 0.10303020E+04</pdfrwt>
<pdfrwt beam="2">  1       -2 0.69473068E-01 0.10303020E+04</pdfrwt>
<totfact> 0.21118070E+00</totfact>
</mgrwt>
</event>
<event>
 4    1  0.3365401E-008  0.2047129E+03  0.7818608E-02  0.1145823E+00
          2   -1    0    0  501    0  0.00000000000E+00  0.00000000000E+00  0.55297051157E+03  0.55297051157E+03  0.25500000000E-02 0. -1.
         -2   -1    0    0    0  501 -0.00000000000E+00 -0.00000000000E+00 -0.76128198511E+03  0.76128198511E+03  0.25500000000E-02 0.  1.
    8880022    1    1    2    0    0  0.82101131092E+02  0.10851328373E+03  0.51940465364E+03  0.55829076270E+03  0.15294330000E+03 0. -1.
    8880022    1    1    2    0    0 -0.82101131092E+02 -0.10851328373E+03 -0.72771612719E+03  0.75596173399E+03  0.15294330000E+03 0.  0.
<mgrwt>
<rscale>  0 0.20471292E+03</rscale>
<asrwt>0</asrwt>
<pdfrwt beam="1">  1        2 0.85072386E-01 0.20471292E+03</pdfrwt>
<pdfrwt beam="2">  1       -2 0.11712031E+00 0.20471292E+03</pdfrwt>
<totfact> 0.33658069E+01</totfact>
</mgrwt>
</event>
<event>
 4    1  0.3365401E-008  0.6705957E+03  0.7818608E-02  0.9768882E-01
         -2   -1    0    0    0  501 -0.00000000000E+00  0.00000000000E+00  0.35578041257E+03  0.35578041258E+03  0.25500000000E-02 0.  1.
          2   -1    0    0  501    0  0.00000000000E+00 -0.00000000000E+00 -0.16745115715E+04  0.16745115715E+04  0.25500000000E-02 0. -1.
    8880022    1    1    2    0    0 -0.41344675600E+03 -0.50534014811E+03 -0.15672345828E+03  0.68866594277E+03  0.15294330000E+03 0.  0.
    8880022    1    1    2    0    0  0.41344675600E+03  0.50534014811E+03 -0.11620077006E+04  0.13416260413E+04  0.15294330000E+03 0. -1.
<mgrwt>
<rscale>  0 0.67059566E+03</rscale>
<asrwt>0</asrwt>
<pdfrwt beam="1">  1        2 0.25761716E+00 0.67059566E+03</pdfrwt>
<pdfrwt beam="2">  1       -2 0.54735449E-01 0.67059566E+03</pdfrwt>
<totfact> 0.32976553E+01</totfact>
</mgrwt>
</event>
<event>
 4    1  0.3365401E-008  0.2931865E+03  0.7818608E-02  0.1088697E+00
         -2   -1    0    0    0  501 -0.00000000000E+00  0.00000000000E+00  0.70901276258E+03  0.70901276258E+03  0.25500000000E-02 0.  1.
          2   -1    0    0  501    0  0.00000000000E+00 -0.00000000000E+00 -0.12429533954E+04  0.12429533954E+04  0.25500000000E-02 0. -1.
    8880022    1    1    2    0    0  0.19601675144E+03 -0.15538372202E+03  0.66019349120E+03  0.72236678132E+03  0.15294330000E+03 0.  0.
    8880022    1    1    2    0    0 -0.19601675144E+03  0.15538372202E+03 -0.11941341241E+04  0.12295993767E+04  0.15294330000E+03 0. -1.
<mgrwt>
<rscale>  0 0.29318650E+03</rscale>
<asrwt>0</asrwt>
<pdfrwt beam="1">  1        2 0.19122360E+00 0.29318650E+03</pdfrwt>
<pdfrwt beam="2">  1       -2 0.10907889E+00 0.29318650E+03</pdfrwt>
<totfact> 0.13339791E+01</totfact>
</mgrwt>
</event>
<event>
 4    1  0.3365401E-008  0.2320654E+03  0.7818608E-02  0.1125194E+00
          2   -1    0    0  501    0  0.00000000000E+00  0.00000000000E+00  0.33529657878E+03  0.33529657879E+03  0.25500000000E-02 0. -1.
         -2   -1    0    0    0  501 -0.00000000000E+00 -0.00000000000E+00 -0.43642926906E+03  0.43642926907E+03  0.25500000000E-02 0.  1.
    8880022    1    1    2    0    0  0.15464227645E+03  0.80922597127E+02  0.25618244150E+03  0.34566428329E+03  0.15294330000E+03 0. -1.
    8880022    1    1    2    0    0 -0.15464227645E+03 -0.80922597127E+02 -0.35731513178E+03  0.42606156457E+03  0.15294330000E+03 0.  0.
<mgrwt>
<rscale>  0 0.23206541E+03</rscale>
<asrwt>0</asrwt>
<pdfrwt beam="1">  1        2 0.51584089E-01 0.23206541E+03</pdfrwt>
<pdfrwt beam="2">  1       -2 0.67142965E-01 0.23206541E+03</pdfrwt>
<totfact> 0.20412908E+02</totfact>
</mgrwt>
</event>
<event>
 4    1  0.3365401E-008  0.4981764E+03  0.7818608E-02  0.1014256E+00
         -2   -1    0    0    0  501 -0.00000000000E+00  0.00000000000E+00  0.16998797888E+03  0.16998797890E+03  0.25500000000E-02 0.  1.
          2   -1    0    0  501    0  0.00000000000E+00 -0.00000000000E+00 -0.24144884350E+04  0.24144884350E+04  0.25500000000E-02 0. -1.
    8880022    1    1    2    0    0  0.20742956768E+03 -0.42633447555E+03 -0.30975851111E+03  0.58662602978E+03  0.15294330000E+03 0.  0.
    8880022    1    1    2    0    0 -0.20742956768E+03  0.42633447555E+03 -0.19347419450E+04  0.19978503841E+04  0.15294330000E+03 0. -1.
<mgrwt>
<rscale>  0 0.49817644E+03</rscale>
<asrwt>0</asrwt>
<pdfrwt beam="1">  1        2 0.37145973E+00 0.49817644E+03</pdfrwt>
<pdfrwt beam="2">  1       -2 0.26151999E-01 0.49817644E+03</pdfrwt>
<totfact> 0.55660803E+01</totfact>
</mgrwt>
</event>
<event>
 4    1  0.3365401E-008  0.5065782E+03  0.7818608E-02  0.1012076E+00
         -2   -1    0    0    0  501 -0.00000000000E+00  0.00000000000E+00  0.10427727740E+04  0.10427727740E+04  0.25500000000E-02 0.  1.
          2   -1    0    0  501    0  0.00000000000E+00 -0.00000000000E+00 -0.10410485892E+04  0.10410485892E+04  0.25500000000E-02 0. -1.
    8880022    1    1    2    0    0 -0.93418472871E+02 -0.47381723268E+03 -0.90960825789E+03  0.10411573449E+04  0.15294330000E+03 0.  0.
    8880022    1    1    2    0    0  0.93418472871E+02  0.47381723268E+03  0.91133244260E+03  0.10426640183E+04  0.15294330000E+03 0.  0.
<mgrwt>
<rscale>  0 0.50657816E+03</rscale>
<asrwt>0</asrwt>
<pdfrwt beam="1">  1        2 0.16016132E+00 0.50657816E+03</pdfrwt>
<pdfrwt beam="2">  1       -2 0.16042658E+00 0.50657816E+03</pdfrwt>
<totfact> 0.62909751E+00</totfact>
</mgrwt>
</event>
<event>
 4    1  0.3365401E-008  0.7992144E+03  0.7818608E-02  0.9561155E-01
         -2   -1    0    0    0  501 -0.00000000000E+00  0.00000000000E+00  0.55816044585E+03  0.55816044585E+03  0.25500000000E-02 0.  1.
          2   -1    0    0  501    0  0.00000000000E+00 -0.00000000000E+00 -0.38496466313E+04  0.38496466313E+04  0.25500000000E-02 0. -1.
    8880022    1    1    2    0    0  0.78221306432E+03  0.59116745916E+02 -0.34932571523E+04  0.35835163252E+04  0.15294330000E+03 0.  0.
    8880022    1    1    2    0    0 -0.78221306432E+03 -0.59116745916E+02  0.20177096689E+03  0.82429075194E+03  0.15294330000E+03 0.  0.
<mgrwt>
<rscale>  0 0.79921444E+03</rscale>
<asrwt>0</asrwt>
<pdfrwt beam="1">  1        2 0.59225331E+00 0.79921444E+03</pdfrwt>
<pdfrwt beam="2">  1       -2 0.85870840E-01 0.79921444E+03</pdfrwt>
<totfact> 0.57853312E-01</totfact>
</mgrwt>
</event>
<event>
 4    1  0.3365401E-008  0.7842123E+03  0.7818608E-02  0.9583155E-01
          2   -1    0    0  501    0  0.00000000000E+00  0.00000000000E+00  0.10278568429E+04  0.10278568429E+04  0.25500000000E-02 0. -1.
         -2   -1    0    0    0  501 -0.00000000000E+00 -0.00000000000E+00 -0.17810742590E+04  0.17810742590E+04  0.25500000000E-02 0.  1.
    8880022    1    1    2    0    0  0.67659260431E+03  0.36581377853E+03  0.76789459052E+03  0.10975659561E+04  0.15294330000E+03 0.  0.
    8880022    1    1    2    0    0 -0.67659260431E+03 -0.36581377853E+03 -0.15211120066E+04  0.17113651458E+04  0.15294330000E+03 0.  0.
<mgrwt>
<rscale>  0 0.78421230E+03</rscale>
<asrwt>0</asrwt>
<pdfrwt beam="1">  1        2 0.15813182E+00 0.78421230E+03</pdfrwt>
<pdfrwt beam="2">  1       -2 0.27401143E+00 0.78421230E+03</pdfrwt>
<totfact> 0.11449248E+00</totfact>
</mgrwt>
</event>
<event>
 4    1  0.3365401E-008  0.1158460E+04  0.7818608E-02  0.9150014E-01
          2   -1    0    0  501    0  0.00000000000E+00  0.00000000000E+00  0.20283680852E+04  0.20283680852E+04  0.25500000000E-02 0. -1.
         -2   -1    0    0    0  501 -0.00000000000E+00 -0.00000000000E+00 -0.11496095729E+04  0.11496095729E+04  0.25500000000E-02 0.  1.
    8880022    1    1    2    0    0 -0.86596602628E+03 -0.75414969415E+03 -0.59587297013E+03  0.13027260531E+04  0.15294330000E+03 0.  0.
    8880022    1    1    2    0    0  0.86596602628E+03  0.75414969415E+03  0.14746314824E+04  0.18752516050E+04  0.15294330000E+03 0.  0.
<mgrwt>
<rscale>  0 0.11584604E+04</rscale>
<asrwt>0</asrwt>
<pdfrwt beam="1">  1        2 0.31205663E+00 0.11584604E+04</pdfrwt>
<pdfrwt beam="2">  1       -2 0.17686301E+00 0.11584604E+04</pdfrwt>
<totfact> 0.12000647E+00</totfact>
</mgrwt>
</event>
<event>
 4    1  0.3365401E-008  0.6625874E+03  0.7818608E-02  0.9783442E-01
          2   -1    0    0  501    0  0.00000000000E+00  0.00000000000E+00  0.22707262154E+04  0.22707262154E+04  0.25500000000E-02 0. -1.
         -2   -1    0    0    0  501 -0.00000000000E+00 -0.00000000000E+00 -0.36257288467E+03  0.36257288468E+03  0.25500000000E-02 0.  1.
    8880022    1    1    2    0    0  0.47353982767E+03 -0.43748188033E+03  0.54547974669E+02  0.66482892428E+03  0.15294330000E+03 0.  0.
    8880022    1    1    2    0    0 -0.47353982767E+03  0.43748188033E+03  0.18536053561E+04  0.19684701758E+04  0.15294330000E+03 0.  0.
<mgrwt>
<rscale>  0 0.66258737E+03</rscale>
<asrwt>0</asrwt>
<pdfrwt beam="1">  1        2 0.34934249E+00 0.66258737E+03</pdfrwt>
<pdfrwt beam="2">  1       -2 0.55780444E-01 0.66258737E+03</pdfrwt>
<totfact> 0.15019200E+01</totfact>
</mgrwt>
</event>
<event>
 4    1  0.3365401E-008  0.6829971E+03  0.7818608E-02  0.9746760E-01
         -2   -1    0    0    0  501 -0.00000000000E+00  0.00000000000E+00  0.48447398228E+03  0.48447398229E+03  0.25500000000E-02 0.  1.
          2   -1    0    0  501    0  0.00000000000E+00 -0.00000000000E+00 -0.30267052889E+04  0.30267052889E+04  0.25500000000E-02 0. -1.
    8880022    1    1    2    0    0  0.12503049828E+03 -0.65380479608E+03 -0.27208070457E+04  0.28052229804E+04  0.15294330000E+03 0.  0.
    8880022    1    1    2    0    0 -0.12503049828E+03  0.65380479608E+03  0.17857573909E+03  0.70595629077E+03  0.15294330000E+03 0.  0.
<mgrwt>
<rscale>  0 0.68299706E+03</rscale>
<asrwt>0</asrwt>
<pdfrwt beam="1">  1        2 0.46564695E+00 0.68299706E+03</pdfrwt>
<pdfrwt beam="2">  1       -2 0.74534461E-01 0.68299706E+03</pdfrwt>
<totfact> 0.29387621E+00</totfact>
</mgrwt>
</event>
<event>
 4    1  0.3365401E-008  0.3929410E+03  0.7818608E-02  0.1046252E+00
         -2   -1    0    0    0  501 -0.00000000000E+00  0.00000000000E+00  0.16210731289E+03  0.16210731291E+03  0.25500000000E-02 0.  1.
          2   -1    0    0  501    0  0.00000000000E+00 -0.00000000000E+00 -0.20135348030E+04  0.20135348030E+04  0.25500000000E-02 0. -1.
    8880022    1    1    2    0    0  0.86225359223E+02 -0.35153396639E+03 -0.17153890179E+04  0.17598187627E+04  0.15294330000E+03 0. -1.
    8880022    1    1    2    0    0 -0.86225359223E+02  0.35153396639E+03 -0.13603847226E+03  0.41582335318E+03  0.15294330000E+03 0.  0.
<mgrwt>
<rscale>  0 0.39294096E+03</rscale>
<asrwt>0</asrwt>
<pdfrwt beam="1">  1        2 0.30977457E+00 0.39294096E+03</pdfrwt>
<pdfrwt beam="2">  1       -2 0.24939588E-01 0.39294096E+03</pdfrwt>
<totfact> 0.10218972E+02</totfact>
</mgrwt>
</event>
<event>
 4    1  0.3365401E-008  0.2023533E+03  0.7818608E-02  0.1147769E+00
         -2   -1    0    0    0  501 -0.00000000000E+00  0.00000000000E+00  0.13318161871E+03  0.13318161873E+03  0.25500000000E-02 0.  1.
          2   -1    0    0  501    0  0.00000000000E+00 -0.00000000000E+00 -0.78315802235E+03  0.78315802235E+03  0.25500000000E-02 0. -1.
    8880022    1    1    2    0    0  0.65006575720E+02  0.11545277215E+03 -0.68207308203E+03  0.71145663236E+03  0.15294330000E+03 0.  0.
    8880022    1    1    2    0    0 -0.65006575720E+02 -0.11545277215E+03  0.32096678391E+02  0.20488300872E+03  0.15294330000E+03 0.  0.
<mgrwt>
<rscale>  0 0.20235328E+03</rscale>
<asrwt>0</asrwt>
<pdfrwt beam="1">  1        2 0.12048585E+00 0.20235328E+03</pdfrwt>
<pdfrwt beam="2">  1       -2 0.20489480E-01 0.20235328E+03</pdfrwt>
<totfact> 0.73928229E+02</totfact>
</mgrwt>
</event>
<event>
 4    1  0.3365401E-008  0.1588782E+03  0.7818608E-02  0.1189969E+00
         -2   -1    0    0    0  501 -0.00000000000E+00  0.00000000000E+00  0.86937873540E+02  0.86937873577E+02  0.25500000000E-02 0.  1.
          2   -1    0    0  501    0  0.00000000000E+00 -0.00000000000E+00 -0.32990096089E+04  0.32990096089E+04  0.25500000000E-02 0. -1.
    8880022    1    1    2    0    0  0.35013546792E+02  0.24993760043E+02 -0.32227940255E+04  0.32267078610E+04  0.15294330000E+03 0. -1.
    8880022    1    1    2    0    0 -0.35013546792E+02 -0.24993760043E+02  0.10722290211E+02  0.15923962140E+03  0.15294330000E+03 0.  0.
<mgrwt>
<rscale>  0 0.15887822E+03</rscale>
<asrwt>0</asrwt>
<pdfrwt beam="1">  1        2 0.50753984E+00 0.15887822E+03</pdfrwt>
<pdfrwt beam="2">  1       -2 0.13375060E-01 0.15887822E+03</pdfrwt>
<totfact> 0.60568809E+01</totfact>
</mgrwt>
</event>
<event>
 4    1  0.3365401E-008  0.6454133E+03  0.7818608E-02  0.9815424E-01
          2   -1    0    0  501    0  0.00000000000E+00  0.00000000000E+00  0.27124874619E+04  0.27124874619E+04  0.25500000000E-02 0. -1.
         -2   -1    0    0    0  501 -0.00000000000E+00 -0.00000000000E+00 -0.26629711471E+03  0.26629711472E+03  0.25500000000E-02 0.  1.
    8880022    1    1    2    0    0 -0.61616061569E+03 -0.11624420962E+03  0.25406132322E+03  0.69361763932E+03  0.15294330000E+03 0.  0.
    8880022    1    1    2    0    0  0.61616061569E+03  0.11624420962E+03  0.21921290239E+04  0.22851669373E+04  0.15294330000E+03 0. -1.
<mgrwt>
<rscale>  0 0.64541326E+03</rscale>
<asrwt>0</asrwt>
<pdfrwt beam="1">  1        2 0.41730576E+00 0.64541326E+03</pdfrwt>
<pdfrwt beam="2">  1       -2 0.40968788E-01 0.64541326E+03</pdfrwt>
<totfact> 0.15793446E+01</totfact>
</mgrwt>
</event>
<event>
 4    1  0.3365401E-008  0.4425973E+03  0.7818608E-02  0.1029953E+00
          2   -1    0    0  501    0  0.00000000000E+00  0.00000000000E+00  0.30055053514E+04  0.30055053514E+04  0.25500000000E-02 0. -1.
         -2   -1    0    0    0  501 -0.00000000000E+00 -0.00000000000E+00 -0.75990800417E+02  0.75990800460E+02  0.25500000000E-02 0.  1.
    8880022    1    1    2    0    0  0.32821649255E+02 -0.41403315034E+03  0.88356033109E+03  0.98821618177E+03  0.15294330000E+03 0.  0.
    8880022    1    1    2    0    0 -0.32821649255E+02  0.41403315034E+03  0.20459542199E+04  0.20932799701E+04  0.15294330000E+03 0.  0.
<mgrwt>
<rscale>  0 0.44259729E+03</rscale>
<asrwt>0</asrwt>
<pdfrwt beam="1">  1        2 0.46238543E+00 0.44259729E+03</pdfrwt>
<pdfrwt beam="2">  1       -2 0.11690893E-01 0.44259729E+03</pdfrwt>
<totfact> 0.10196605E+02</totfact>
</mgrwt>
</event>
<event>
 4    1  0.3365401E-008  0.2960696E+03  0.7818608E-02  0.1087222E+00
         -2   -1    0    0    0  501 -0.00000000000E+00  0.00000000000E+00  0.14804221867E+03  0.14804221870E+03  0.25500000000E-02 0.  1.
          2   -1    0    0  501    0  0.00000000000E+00 -0.00000000000E+00 -0.13836479762E+04  0.13836479762E+04  0.25500000000E-02 0. -1.
    8880022    1    1    2    0    0  0.15278866805E+03 -0.20228982058E+03 -0.38555402461E+02  0.29856945703E+03  0.15294330000E+03 0.  0.
    8880022    1    1    2    0    0 -0.15278866805E+03  0.20228982058E+03 -0.11970503551E+04  0.12331207379E+04  0.15294330000E+03 0.  0.
<mgrwt>
<rscale>  0 0.29606959E+03</rscale>
<asrwt>0</asrwt>
<pdfrwt beam="1">  1        2 0.21286891E+00 0.29606959E+03</pdfrwt>
<pdfrwt beam="2">  1       -2 0.22775727E-01 0.29606959E+03</pdfrwt>
<totfact> 0.26542712E+02</totfact>
</mgrwt>
</event>
<event>
 4    1  0.3365401E-008  0.5375419E+03  0.7818608E-02  0.1004419E+00
         -2   -1    0    0    0  501 -0.00000000000E+00  0.00000000000E+00  0.76952666425E+03  0.76952666425E+03  0.25500000000E-02 0.  1.
          2   -1    0    0  501    0  0.00000000000E+00 -0.00000000000E+00 -0.15898751580E+04  0.15898751580E+04  0.25500000000E-02 0. -1.
    8880022    1    1    2    0    0 -0.42692924996E+03 -0.28860198494E+03  0.62084842587E+03  0.82122110975E+03  0.15294330000E+03 0.  0.
    8880022    1    1    2    0    0  0.42692924996E+03  0.28860198494E+03 -0.14411969197E+04  0.15381807125E+04  0.15294330000E+03 0.  0.
<mgrwt>
<rscale>  0 0.53754195E+03</rscale>
<asrwt>0</asrwt>
<pdfrwt beam="1">  1        2 0.24459618E+00 0.53754195E+03</pdfrwt>
<pdfrwt beam="2">  1       -2 0.11838872E+00 0.53754195E+03</pdfrwt>
<totfact> 0.66126827E+00</totfact>
</mgrwt>
</event>
<event>
 4    1  0.3365401E-008  0.1068369E+04  0.7818608E-02  0.9236582E-01
          2   -1    0    0  501    0  0.00000000000E+00  0.00000000000E+00  0.23571275479E+04  0.23571275479E+04  0.25500000000E-02 0. -1.
         -2   -1    0    0    0  501 -0.00000000000E+00 -0.00000000000E+00 -0.11977910451E+04  0.11977910451E+04  0.25500000000E-02 0.  1.
    8880022    1    1    2    0    0  0.86384387065E+03  0.60974911998E+03 -0.79223067841E+03  0.13300531279E+04  0.15294330000E+03 0.  0.
    8880022    1    1    2    0    0 -0.86384387065E+03 -0.60974911998E+03  0.19515671812E+04  0.22248654651E+04  0.15294330000E+03 0.  0.
<mgrwt>
<rscale>  0 0.10683688E+04</rscale>
<asrwt>0</asrwt>
<pdfrwt beam="1">  1        2 0.36263500E+00 0.10683688E+04</pdfrwt>
<pdfrwt beam="2">  1       -2 0.18427555E+00 0.10683688E+04</pdfrwt>
<totfact> 0.70767385E-01</totfact>
</mgrwt>
</event>
<event>
 4    1  0.3365401E-008  0.4802961E+03  0.7818608E-02  0.1019054E+00
         -2   -1    0    0    0  501 -0.00000000000E+00  0.00000000000E+00  0.26839808167E+03  0.26839808168E+03  0.25500000000E-02 0.  1.
          2   -1    0    0  501    0  0.00000000000E+00 -0.00000000000E+00 -0.18085027017E+04  0.18085027017E+04  0.25500000000E-02 0. -1.
    8880022    1    1    2    0    0 -0.41595415379E+03  0.18513466802E+03 -0.17800687558E+02  0.48062586370E+03  0.15294330000E+03 0.  1.
    8880022    1    1    2    0    0  0.41595415379E+03 -0.18513466802E+03 -0.15223039325E+04  0.15962749197E+04  0.15294330000E+03 0.  0.
<mgrwt>
<rscale>  0 0.48029611E+03</rscale>
<asrwt>0</asrwt>
<pdfrwt beam="1">  1        2 0.27823118E+00 0.48029611E+03</pdfrwt>
<pdfrwt beam="2">  1       -2 0.41292014E-01 0.48029611E+03</pdfrwt>
<totfact> 0.50602214E+01</totfact>
</mgrwt>
</event>
<event>
 4    1  0.3365401E-008  0.3946158E+03  0.7818608E-02  0.1045660E+00
         -2   -1    0    0    0  501 -0.00000000000E+00  0.00000000000E+00  0.62655568141E+03  0.62655568141E+03  0.25500000000E-02 0.  1.
          2   -1    0    0  501    0  0.00000000000E+00 -0.00000000000E+00 -0.11703738291E+04  0.11703738291E+04  0.25500000000E-02 0. -1.
    8880022    1    1    2    0    0 -0.33610655718E+03 -0.13914873822E+03  0.52547215508E+03  0.65714734109E+03  0.15294330000E+03 0.  0.
    8880022    1    1    2    0    0  0.33610655718E+03  0.13914873822E+03 -0.10692903028E+04  0.11397821694E+04  0.15294330000E+03 0. -1.
<mgrwt>
<rscale>  0 0.39461582E+03</rscale>
<asrwt>0</asrwt>
<pdfrwt beam="1">  1        2 0.18005751E+00 0.39461582E+03</pdfrwt>
<pdfrwt beam="2">  1       -2 0.96393182E-01 0.39461582E+03</pdfrwt>
<totfact> 0.19126779E+01</totfact>
</mgrwt>
</event>
<event>
 4    1  0.3365401E-008  0.2234107E+03  0.7818608E-02  0.1131365E+00
          2   -1    0    0  501    0  0.00000000000E+00  0.00000000000E+00  0.24368527188E+04  0.24368527188E+04  0.25500000000E-02 0. -1.
         -2   -1    0    0    0  501 -0.00000000000E+00 -0.00000000000E+00 -0.12670750274E+03  0.12670750277E+03  0.25500000000E-02 0.  1.
    8880022    1    1    2    0    0 -0.13687219463E+03 -0.88242341293E+02 -0.18543701079E+02  0.22417901401E+03  0.15294330000E+03 0.  1.
    8880022    1    1    2    0    0  0.13687219463E+03  0.88242341293E+02  0.23286889171E+04  0.23393812076E+04  0.15294330000E+03 0.  0.
<mgrwt>
<rscale>  0 0.22341075E+03</rscale>
<asrwt>0</asrwt>
<pdfrwt beam="1">  1        2 0.37490043E+00 0.22341075E+03</pdfrwt>
<pdfrwt beam="2">  1       -2 0.19493461E-01 0.22341075E+03</pdfrwt>
<totfact> 0.97762108E+01</totfact>
</mgrwt>
</event>
<event>
 4    1  0.3365401E-008  0.4777884E+03  0.7818608E-02  0.1019745E+00
         -2   -1    0    0    0  501 -0.00000000000E+00  0.00000000000E+00  0.20145601026E+03  0.20145601028E+03  0.25500000000E-02 0.  1.
          2   -1    0    0  501    0  0.00000000000E+00 -0.00000000000E+00 -0.35392655970E+04  0.35392655970E+04  0.25500000000E-02 0. -1.
    8880022    1    1    2    0    0  0.40219287676E+03  0.20767991272E+03 -0.12675613961E+03  0.49431652633E+03  0.15294330000E+03 0.  0.
    8880022    1    1    2    0    0 -0.40219287676E+03 -0.20767991272E+03 -0.32110534471E+04  0.32464050809E+04  0.15294330000E+03 0.  0.
<mgrwt>
<rscale>  0 0.47778835E+03</rscale>
<asrwt>0</asrwt>
<pdfrwt beam="1">  1        2 0.54450235E+00 0.47778835E+03</pdfrwt>
<pdfrwt beam="2">  1       -2 0.30993235E-01 0.47778835E+03</pdfrwt>
<totfact> 0.85231258E+00</totfact>
</mgrwt>
</event>
<event>
 4    1  0.3365401E-008  0.2075836E+03  0.7818608E-02  0.1143494E+00
         -2   -1    0    0    0  501 -0.00000000000E+00  0.00000000000E+00  0.96232718130E+02  0.96232718164E+02  0.25500000000E-02 0.  1.
          2   -1    0    0  501    0  0.00000000000E+00 -0.00000000000E+00 -0.15883562739E+04  0.15883562739E+04  0.25500000000E-02 0. -1.
    8880022    1    1    2    0    0 -0.54634384042E+02  0.12928411186E+03 -0.32301397891E+02  0.21008172415E+03  0.15294330000E+03 0.  1.
    8880022    1    1    2    0    0  0.54634384042E+02 -0.12928411186E+03 -0.14598221579E+04  0.14745072679E+04  0.15294330000E+03 0.  0.
<mgrwt>
<rscale>  0 0.20758360E+03</rscale>
<asrwt>0</asrwt>
<pdfrwt beam="1">  1        2 0.24436248E+00 0.20758360E+03</pdfrwt>
<pdfrwt beam="2">  1       -2 0.14805035E-01 0.20758360E+03</pdfrwt>
<totfact> 0.43490645E+02</totfact>
</mgrwt>
</event>
<event>
 4    1  0.3365401E-008  0.3556144E+03  0.7818608E-02  0.1060334E+00
         -2   -1    0    0    0  501 -0.00000000000E+00  0.00000000000E+00  0.10447083749E+03  0.10447083752E+03  0.25500000000E-02 0.  1.
          2   -1    0    0  501    0  0.00000000000E+00 -0.00000000000E+00 -0.20185196486E+04  0.20185196486E+04  0.25500000000E-02 0. -1.
    8880022    1    1    2    0    0  0.19481053555E+03 -0.25518379515E+03 -0.16286287617E+04  0.16670012629E+04  0.15294330000E+03 0.  0.
    8880022    1    1    2    0    0 -0.19481053555E+03  0.25518379515E+03 -0.28542004942E+03  0.45598922322E+03  0.15294330000E+03 0.  0.
<mgrwt>
<rscale>  0 0.35561435E+03</rscale>
<asrwt>0</asrwt>
<pdfrwt beam="1">  1        2 0.31054146E+00 0.35561435E+03</pdfrwt>
<pdfrwt beam="2">  1       -2 0.16072438E-01 0.35561435E+03</pdfrwt>
<totfact> 0.21874894E+02</totfact>
</mgrwt>
</event>
<event>
 4    1  0.3365401E-008  0.5849528E+03  0.7818608E-02  0.9937126E-01
          2   -1    0    0  501    0  0.00000000000E+00  0.00000000000E+00  0.22847721925E+04  0.22847721925E+04  0.25500000000E-02 0. -1.
         -2   -1    0    0    0  501 -0.00000000000E+00 -0.00000000000E+00 -0.22723172397E+03  0.22723172398E+03  0.25500000000E-02 0.  1.
    8880022    1    1    2    0    0  0.37534033316E+03  0.42177925183E+03  0.17621427958E+04  0.18566951793E+04  0.15294330000E+03 0.  0.
    8880022    1    1    2    0    0 -0.37534033316E+03 -0.42177925183E+03  0.29539767271E+03  0.65530873719E+03  0.15294330000E+03 0. -1.
<mgrwt>
<rscale>  0 0.58495278E+03</rscale>
<asrwt>0</asrwt>
<pdfrwt beam="1">  1        2 0.35150343E+00 0.58495278E+03</pdfrwt>
<pdfrwt beam="2">  1       -2 0.34958725E-01 0.58495278E+03</pdfrwt>
<totfact> 0.37770029E+01</totfact>
</mgrwt>
</event>
<event>
 4    1  0.3365401E-008  0.4840065E+03  0.7818608E-02  0.1018040E+00
          2   -1    0    0  501    0  0.00000000000E+00  0.00000000000E+00  0.60588213114E+03  0.60588213114E+03  0.25500000000E-02 0. -1.
         -2   -1    0    0    0  501 -0.00000000000E+00 -0.00000000000E+00 -0.13390005192E+04  0.13390005192E+04  0.25500000000E-02 0.  1.
    8880022    1    1    2    0    0  0.22397868485E+02 -0.45865997696E+03 -0.11866693889E+04  0.12815797012E+04  0.15294330000E+03 0.  0.
    8880022    1    1    2    0    0 -0.22397868485E+02  0.45865997696E+03  0.45355100083E+03  0.66330294915E+03  0.15294330000E+03 0.  0.
<mgrwt>
<rscale>  0 0.48400650E+03</rscale>
<asrwt>0</asrwt>
<pdfrwt beam="1">  1        2 0.93212636E-01 0.48400650E+03</pdfrwt>
<pdfrwt beam="2">  1       -2 0.20600008E+00 0.48400650E+03</pdfrwt>
<totfact> 0.63331530E+00</totfact>
</mgrwt>
</event>
<event>
 4    1  0.3365401E-008  0.3778498E+03  0.7818608E-02  0.1051731E+00
         -2   -1    0    0    0  501 -0.00000000000E+00  0.00000000000E+00  0.59831986984E+03  0.59831986984E+03  0.25500000000E-02 0.  1.
          2   -1    0    0  501    0  0.00000000000E+00 -0.00000000000E+00 -0.10278981539E+04  0.10278981539E+04  0.25500000000E-02 0. -1.
    8880022    1    1    2    0    0  0.23845535811E+03 -0.25003575385E+03 -0.92729599818E+03  0.10013233031E+04  0.15294330000E+03 0.  0.
    8880022    1    1    2    0    0 -0.23845535811E+03  0.25003575385E+03  0.49771771410E+03  0.62489472070E+03  0.15294330000E+03 0.  0.
<mgrwt>
<rscale>  0 0.37784982E+03</rscale>
<asrwt>0</asrwt>
<pdfrwt beam="1">  1        2 0.15813818E+00 0.37784982E+03</pdfrwt>
<pdfrwt beam="2">  1       -2 0.92049211E-01 0.37784982E+03</pdfrwt>
<totfact> 0.25980420E+01</totfact>
</mgrwt>
</event>
<event>
 4    1  0.3365401E-008  0.3354334E+03  0.7818608E-02  0.1068758E+00
          2   -1    0    0  501    0  0.00000000000E+00  0.00000000000E+00  0.56112905827E+03  0.56112905827E+03  0.25500000000E-02 0. -1.
         -2   -1    0    0    0  501 -0.00000000000E+00 -0.00000000000E+00 -0.10762054975E+04  0.10762054975E+04  0.25500000000E-02 0.  1.
    8880022    1    1    2    0    0 -0.26686908876E+03 -0.13380879849E+03  0.48093510016E+03  0.58635665653E+03  0.15294330000E+03 0.  0.
    8880022    1    1    2    0    0  0.26686908876E+03  0.13380879849E+03 -0.99601153938E+03  0.10509778992E+04  0.15294330000E+03 0.  1.
<mgrwt>
<rscale>  0 0.33543339E+03</rscale>
<asrwt>0</asrwt>
<pdfrwt beam="1">  1        2 0.86327548E-01 0.33543339E+03</pdfrwt>
<pdfrwt beam="2">  1       -2 0.16557008E+00 0.33543339E+03</pdfrwt>
<totfact> 0.13301215E+01</totfact>
</mgrwt>
</event>
<event>
 4    1  0.3759692E-008  0.8316833E+03  0.7818608E-02  0.9515256E-01
         -2   -1    0    0    0  501 -0.00000000000E+00  0.00000000000E+00  0.59029796045E+03  0.59029796046E+03  0.25500000000E-02 0.  1.
          2   -1    0    0  501    0  0.00000000000E+00 -0.00000000000E+00 -0.30569392010E+04  0.30569392010E+04  0.25500000000E-02 0. -1.
    8880022    1    1    2    0    0  0.47695822962E+03  0.66393995636E+03  0.19875208543E+03  0.85510201902E+03  0.15294330000E+03 0.  0.
    8880022    1    1    2    0    0 -0.47695822962E+03 -0.66393995636E+03 -0.26653933259E+04  0.27921351424E+04  0.15294330000E+03 0.  0.
<mgrwt>
<rscale>  0 0.83168328E+03</rscale>
<asrwt>0</asrwt>
<pdfrwt beam="1">  1        2 0.47029833E+00 0.83168328E+03</pdfrwt>
<pdfrwt beam="2">  1       -2 0.90815073E-01 0.83168328E+03</pdfrwt>
<totfact> 0.17456106E+00</totfact>
</mgrwt>
</event>
<event>
 4    1  0.3365401E-008  0.9741135E+03  0.7818608E-02  0.9337401E-01
          2   -1    0    0  501    0  0.00000000000E+00  0.00000000000E+00  0.21866563157E+03  0.21866563159E+03  0.25500000000E-02 0. -1.
         -2   -1    0    0    0  501 -0.00000000000E+00 -0.00000000000E+00 -0.47390661297E+04  0.47390661297E+04  0.25500000000E-02 0.  1.
    8880022    1    1    2    0    0  0.30278742102E+03  0.91314031781E+03 -0.29799921007E+04  0.31351634782E+04  0.15294330000E+03 0.  0.
    8880022    1    1    2    0    0 -0.30278742102E+03 -0.91314031781E+03 -0.15404083975E+04  0.18225682830E+04  0.15294330000E+03 0.  0.
<mgrwt>
<rscale>  0 0.97411350E+03</rscale>
<asrwt>0</asrwt>
<pdfrwt beam="1">  1        2 0.33640870E-01 0.97411350E+03</pdfrwt>
<pdfrwt beam="2">  1       -2 0.72908702E+00 0.97411350E+03</pdfrwt>
<totfact> 0.28624250E-02</totfact>
</mgrwt>
</event>
<event>
 4    1  0.3365401E-008  0.3644976E+03  0.7818608E-02  0.1056817E+00
          2   -1    0    0  501    0  0.00000000000E+00  0.00000000000E+00  0.36792995488E+04  0.36792995488E+04  0.25500000000E-02 0. -1.
         -2   -1    0    0    0  501 -0.00000000000E+00 -0.00000000000E+00 -0.12619693690E+03  0.12619693693E+03  0.25500000000E-02 0.  1.
    8880022    1    1    2    0    0 -0.32339641930E+03  0.69868572617E+02  0.16891249204E+03  0.40173367352E+03  0.15294330000E+03 0.  0.
    8880022    1    1    2    0    0  0.32339641930E+03 -0.69868572617E+02  0.33841901199E+04  0.34037628122E+04  0.15294330000E+03 0.  0.
<mgrwt>
<rscale>  0 0.36449762E+03</rscale>
<asrwt>0</asrwt>
<pdfrwt beam="1">  1        2 0.56604604E+00 0.36449762E+03</pdfrwt>
<pdfrwt beam="2">  1       -2 0.19414915E-01 0.36449762E+03</pdfrwt>
<totfact> 0.16354239E+01</totfact>
</mgrwt>
</event>
<event>
 4    1  0.3365401E-008  0.3615218E+03  0.7818608E-02  0.1057983E+00
         -2   -1    0    0    0  501 -0.00000000000E+00  0.00000000000E+00  0.98857882497E+03  0.98857882498E+03  0.25500000000E-02 0.  1.
          2   -1    0    0  501    0  0.00000000000E+00 -0.00000000000E+00 -0.99353902778E+03  0.99353902778E+03  0.25500000000E-02 0. -1.
    8880022    1    1    2    0    0 -0.94158246761E+02 -0.31375237461E+03  0.92028693098E+03  0.98874972382E+03  0.15294330000E+03 0.  0.
    8880022    1    1    2    0    0  0.94158246761E+02  0.31375237461E+03 -0.92524713378E+03  0.99336812894E+03  0.15294330000E+03 0.  0.
<mgrwt>
<rscale>  0 0.36152176E+03</rscale>
<asrwt>0</asrwt>
<pdfrwt beam="1">  1        2 0.15285216E+00 0.36152176E+03</pdfrwt>
<pdfrwt beam="2">  1       -2 0.15208905E+00 0.36152176E+03</pdfrwt>
<totfact> 0.80212549E+00</totfact>
</mgrwt>
</event>
<event>
 4    1  0.3365401E-008  0.2445276E+03  0.7818608E-02  0.1116813E+00
          2   -1    0    0  501    0  0.00000000000E+00  0.00000000000E+00  0.49135841113E+03  0.49135841114E+03  0.25500000000E-02 0. -1.
         -2   -1    0    0    0  501 -0.00000000000E+00 -0.00000000000E+00 -0.29147445577E+03  0.29147445578E+03  0.25500000000E-02 0.  1.
    8880022    1    1    2    0    0 -0.97147018618E+02 -0.16420880447E+03 -0.19879358714E+03  0.31513904549E+03  0.15294330000E+03 0.  1.
    8880022    1    1    2    0    0  0.97147018618E+02  0.16420880447E+03  0.39867754250E+03  0.46769382143E+03  0.15294330000E+03 0. -1.
<mgrwt>
<rscale>  0 0.24452756E+03</rscale>
<asrwt>0</asrwt>
<pdfrwt beam="1">  1        2 0.75593601E-01 0.24452756E+03</pdfrwt>
<pdfrwt beam="2">  1       -2 0.44842224E-01 0.24452756E+03</pdfrwt>
<totfact> 0.30563263E+02</totfact>
</mgrwt>
</event>
<event>
 4    1  0.3365401E-008  0.1001649E+04  0.7818608E-02  0.9306738E-01
         -2   -1    0    0    0  501 -0.00000000000E+00  0.00000000000E+00  0.62675324233E+03  0.62675324234E+03  0.25500000000E-02 0.  1.
          2   -1    0    0  501    0  0.00000000000E+00 -0.00000000000E+00 -0.22723061102E+04  0.22723061102E+04  0.25500000000E-02 0. -1.
    8880022    1    1    2    0    0  0.98568671858E+03 -0.91270462839E+02 -0.16107686813E+04  0.18968067909E+04  0.15294330000E+03 0. -1.
    8880022    1    1    2    0    0 -0.98568671858E+03  0.91270462839E+02 -0.34784186594E+02  0.10022525616E+04  0.15294330000E+03 0.  0.
<mgrwt>
<rscale>  0 0.10016488E+04</rscale>
<asrwt>0</asrwt>
<pdfrwt beam="1">  1        2 0.34958555E+00 0.10016488E+04</pdfrwt>
<pdfrwt beam="2">  1       -2 0.96423577E-01 0.10016488E+04</pdfrwt>
<totfact> 0.42504367E+00</totfact>
</mgrwt>
</event>
<event>
 4    1  0.3365401E-008  0.4209057E+03  0.7818608E-02  0.1036772E+00
          2   -1    0    0  501    0  0.00000000000E+00  0.00000000000E+00  0.12223230589E+04  0.12223230589E+04  0.25500000000E-02 0. -1.
         -2   -1    0    0    0  501 -0.00000000000E+00 -0.00000000000E+00 -0.18277354648E+03  0.18277354650E+03  0.25500000000E-02 0.  1.
    8880022    1    1    2    0    0  0.11385782941E+03  0.37524172557E+03  0.83941903532E+03  0.93903457220E+03  0.15294330000E+03 0.  0.
    8880022    1    1    2    0    0 -0.11385782941E+03 -0.37524172557E+03  0.20013047712E+03  0.46606203322E+03  0.15294330000E+03 0.  0.
<mgrwt>
<rscale>  0 0.42090570E+03</rscale>
<asrwt>0</asrwt>
<pdfrwt beam="1">  1        2 0.18804971E+00 0.42090570E+03</pdfrwt>
<pdfrwt beam="2">  1       -2 0.28119006E-01 0.42090570E+03</pdfrwt>
<totfact> 0.22078428E+02</totfact>
</mgrwt>
</event>
<event>
 4    1  0.3365401E-008  0.1010689E+04  0.7818608E-02  0.9296898E-01
         -2   -1    0    0    0  501 -0.00000000000E+00  0.00000000000E+00  0.12669822683E+04  0.12669822683E+04  0.25500000000E-02 0.  1.
          2   -1    0    0  501    0  0.00000000000E+00 -0.00000000000E+00 -0.84887765293E+03  0.84887765293E+03  0.25500000000E-02 0. -1.
    8880022    1    1    2    0    0  0.78389798591E+03  0.61935881774E+03  0.44614923218E+03  0.11047815114E+04  0.15294330000E+03 0.  0.
    8880022    1    1    2    0    0 -0.78389798591E+03 -0.61935881774E+03 -0.28044616787E+02  0.10110784099E+04  0.15294330000E+03 0.  0.
<mgrwt>
<rscale>  0 0.10106894E+04</rscale>
<asrwt>0</asrwt>
<pdfrwt beam="1">  1        2 0.13059656E+00 0.10106894E+04</pdfrwt>
<pdfrwt beam="2">  1       -2 0.19492035E+00 0.10106894E+04</pdfrwt>
<totfact> 0.45290786E+00</totfact>
</mgrwt>
</event>
<event>
 4    1  0.3365401E-008  0.1592870E+03  0.7818608E-02  0.1189504E+00
          2   -1    0    0  501    0  0.00000000000E+00  0.00000000000E+00  0.61604006090E+03  0.61604006090E+03  0.25500000000E-02 0. -1.
         -2   -1    0    0    0  501 -0.00000000000E+00 -0.00000000000E+00 -0.41340537904E+03  0.41340537904E+03  0.25500000000E-02 0.  1.
    8880022    1    1    2    0    0 -0.31726761494E+02  0.31210589704E+02  0.58972746515E+03  0.61086072428E+03  0.15294330000E+03 0. -1.
    8880022    1    1    2    0    0  0.31726761494E+02 -0.31210589704E+02 -0.38709278328E+03  0.41858471567E+03  0.15294330000E+03 0.  0.
<mgrwt>
<rscale>  0 0.15928698E+03</rscale>
<asrwt>0</asrwt>
<pdfrwt beam="1">  1        2 0.94775394E-01 0.15928698E+03</pdfrwt>
<pdfrwt beam="2">  1       -2 0.63600827E-01 0.15928698E+03</pdfrwt>
<totfact> 0.11808367E+02</totfact>
</mgrwt>
</event>
<event>
 4    1  0.3365401E-008  0.3120454E+03  0.7818608E-02  0.1079370E+00
          2   -1    0    0  501    0  0.00000000000E+00  0.00000000000E+00  0.72841659658E+03  0.72841659659E+03  0.25500000000E-02 0. -1.
         -2   -1    0    0    0  501 -0.00000000000E+00 -0.00000000000E+00 -0.57903288104E+03  0.57903288104E+03  0.25500000000E-02 0.  1.
    8880022    1    1    2    0    0 -0.27181954850E+03  0.97382843279E+01  0.64801177685E+03  0.71922987777E+03  0.15294330000E+03 0. -1.
    8880022    1    1    2    0    0  0.27181954850E+03 -0.97382843279E+01 -0.49862806130E+03  0.58821959986E+03  0.15294330000E+03 0.  0.
<mgrwt>
<rscale>  0 0.31204544E+03</rscale>
<asrwt>0</asrwt>
<pdfrwt beam="1">  1        2 0.11206409E+00 0.31204544E+03</pdfrwt>
<pdfrwt beam="2">  1       -2 0.89081982E-01 0.31204544E+03</pdfrwt>
<totfact> 0.44963928E+01</totfact>
</mgrwt>
</event>
<event>
 4    1  0.3365401E-008  0.3426164E+03  0.7818608E-02  0.1065687E+00
          2   -1    0    0  501    0  0.00000000000E+00  0.00000000000E+00  0.13429391860E+04  0.13429391860E+04  0.25500000000E-02 0. -1.
         -2   -1    0    0    0  501 -0.00000000000E+00 -0.00000000000E+00 -0.15636558323E+03  0.15636558325E+03  0.25500000000E-02 0.  1.
    8880022    1    1    2    0    0  0.22076177073E+03 -0.21274062292E+03  0.10911096576E+04  0.11436372983E+04  0.15294330000E+03 0.  0.
    8880022    1    1    2    0    0 -0.22076177073E+03  0.21274062292E+03  0.95463945132E+02  0.35566747095E+03  0.15294330000E+03 0.  0.
<mgrwt>
<rscale>  0 0.34261638E+03</rscale>
<asrwt>0</asrwt>
<pdfrwt beam="1">  1        2 0.20660603E+00 0.34261638E+03</pdfrwt>
<pdfrwt beam="2">  1       -2 0.24056244E-01 0.34261638E+03</pdfrwt>
<totfact> 0.25211016E+02</totfact>
</mgrwt>
</event>
<event>
 4    1  0.3365401E-008  0.2697548E+03  0.7818608E-02  0.1101420E+00
         -2   -1    0    0    0  501 -0.00000000000E+00  0.00000000000E+00  0.53677971501E+03  0.53677971501E+03  0.25500000000E-02 0.  1.
          2   -1    0    0  501    0  0.00000000000E+00 -0.00000000000E+00 -0.19220469692E+03  0.19220469694E+03  0.25500000000E-02 0. -1.
    8880022    1    1    2    0    0 -0.17188662230E+03 -0.14082263711E+03  0.37015428257E+03  0.45801951047E+03  0.15294330000E+03 0.  0.
    8880022    1    1    2    0    0  0.17188662230E+03  0.14082263711E+03 -0.25579264481E+02  0.27096490148E+03  0.15294330000E+03 0.  0.
<mgrwt>
<rscale>  0 0.26975485E+03</rscale>
<asrwt>0</asrwt>
<pdfrwt beam="1">  1        2 0.29569954E-01 0.26975485E+03</pdfrwt>
<pdfrwt beam="2">  1       -2 0.82581493E-01 0.26975485E+03</pdfrwt>
<totfact> 0.23776316E+02</totfact>
</mgrwt>
</event>
<event>
 4    1  0.3365401E-008  0.3792953E+03  0.7818608E-02  0.1051195E+00
         -2   -1    0    0    0  501 -0.00000000000E+00  0.00000000000E+00  0.21528258999E+03  0.21528259001E+03  0.25500000000E-02 0.  1.
          2   -1    0    0  501    0  0.00000000000E+00 -0.00000000000E+00 -0.86818374610E+03  0.86818374610E+03  0.25500000000E-02 0. -1.
    8880022    1    1    2    0    0 -0.11623144591E+03 -0.32705281522E+03 -0.66488038808E+02  0.38507870011E+03  0.15294330000E+03 0.  0.
    8880022    1    1    2    0    0  0.11623144591E+03  0.32705281522E+03 -0.58641311730E+03  0.69838763600E+03  0.15294330000E+03 0.  0.
<mgrwt>
<rscale>  0 0.37929533E+03</rscale>
<asrwt>0</asrwt>
<pdfrwt beam="1">  1        2 0.13356673E+00 0.37929533E+03</pdfrwt>
<pdfrwt beam="2">  1       -2 0.33120399E-01 0.37929533E+03</pdfrwt>
<totfact> 0.27088266E+02</totfact>
</mgrwt>
</event>
<event>
 4    1  0.3365401E-008  0.1612543E+03  0.7818608E-02  0.1187288E+00
          2   -1    0    0  501    0  0.00000000000E+00  0.00000000000E+00  0.12101549956E+04  0.12101549956E+04  0.25500000000E-02 0. -1.
         -2   -1    0    0    0  501 -0.00000000000E+00 -0.00000000000E+00 -0.49990708829E+02  0.49990708894E+02  0.25500000000E-02 0.  1.
    8880022    1    1    2    0    0  0.20865383111E+02  0.46646819032E+02  0.10431477633E+03  0.19205341839E+03  0.15294330000E+03 0.  1.
    8880022    1    1    2    0    0 -0.20865383111E+02 -0.46646819032E+02  0.10558495105E+04  0.10680922861E+04  0.15294330000E+03 0.  0.
<mgrwt>
<rscale>  0 0.16125428E+03</rscale>
<asrwt>0</asrwt>
<pdfrwt beam="1">  1        2 0.18617768E+00 0.16125428E+03</pdfrwt>
<pdfrwt beam="2">  1       -2 0.76908787E-02 0.16125428E+03</pdfrwt>
<totfact> 0.19798964E+03</totfact>
</mgrwt>
</event>
<event>
 4    1  0.3365401E-008  0.2415406E+03  0.7818608E-02  0.1118771E+00
         -2   -1    0    0    0  501 -0.00000000000E+00  0.00000000000E+00  0.81311585852E+03  0.81311585853E+03  0.25500000000E-02 0.  1.
          2   -1    0    0  501    0  0.00000000000E+00 -0.00000000000E+00 -0.79870431271E+03  0.79870431271E+03  0.25500000000E-02 0. -1.
    8880022    1    1    2    0    0  0.13834078221E+03  0.12574588912E+03 -0.76165347816E+03  0.79903559024E+03  0.15294330000E+03 0. -1.
    8880022    1    1    2    0    0 -0.13834078221E+03 -0.12574588912E+03  0.77606502398E+03  0.81278458100E+03  0.15294330000E+03 0.  0.
<mgrwt>
<rscale>  0 0.24154058E+03</rscale>
<asrwt>0</asrwt>
<pdfrwt beam="1">  1        2 0.12287759E+00 0.24154058E+03</pdfrwt>
<pdfrwt beam="2">  1       -2 0.12509475E+00 0.24154058E+03</pdfrwt>
<totfact> 0.18273285E+01</totfact>
</mgrwt>
</event>
<event>
 4    1  0.3365401E-008  0.1768804E+03  0.7818608E-02  0.1170857E+00
          2   -1    0    0  501    0  0.00000000000E+00  0.00000000000E+00  0.27566771019E+04  0.27566771019E+04  0.25500000000E-02 0. -1.
         -2   -1    0    0    0  501 -0.00000000000E+00 -0.00000000000E+00 -0.91093557040E+02  0.91093557076E+02  0.25500000000E-02 0.  1.
    8880022    1    1    2    0    0 -0.57739496630E+02  0.67536518322E+02  0.26650259432E+04  0.26708893578E+04  0.15294330000E+03 0. -1.
    8880022    1    1    2    0    0  0.57739496630E+02 -0.67536518322E+02  0.55760169955E+00  0.17688130120E+03  0.15294330000E+03 0.  0.
<mgrwt>
<rscale>  0 0.17688042E+03</rscale>
<asrwt>0</asrwt>
<pdfrwt beam="1">  1        2 0.42410414E+00 0.17688042E+03</pdfrwt>
<pdfrwt beam="2">  1       -2 0.14014394E-01 0.17688042E+03</pdfrwt>
<totfact> 0.11556868E+02</totfact>
</mgrwt>
</event>
<event>
 4    1  0.3365401E-008  0.3757883E+03  0.7818608E-02  0.1052501E+00
         -2   -1    0    0    0  501 -0.00000000000E+00  0.00000000000E+00  0.32420444506E+03  0.32420444507E+03  0.25500000000E-02 0.  1.
          2   -1    0    0  501    0  0.00000000000E+00 -0.00000000000E+00 -0.13346277218E+04  0.13346277218E+04  0.25500000000E-02 0. -1.
    8880022    1    1    2    0    0  0.70291554698E+02 -0.33598255558E+03  0.17553241742E+03  0.41476314071E+03  0.15294330000E+03 0.  0.
    8880022    1    1    2    0    0 -0.70291554698E+02  0.33598255558E+03 -0.11859556942E+04  0.12440690262E+04  0.15294330000E+03 0.  0.
<mgrwt>
<rscale>  0 0.37578828E+03</rscale>
<asrwt>0</asrwt>
<pdfrwt beam="1">  1        2 0.20532734E+00 0.37578828E+03</pdfrwt>
<pdfrwt beam="2">  1       -2 0.49877608E-01 0.37578828E+03</pdfrwt>
<totfact> 0.64237283E+01</totfact>
</mgrwt>
</event>
<event>
 4    1  0.3365401E-008  0.2444978E+03  0.7818608E-02  0.1116832E+00
          2   -1    0    0  501    0  0.00000000000E+00  0.00000000000E+00  0.14084571309E+04  0.14084571309E+04  0.25500000000E-02 0. -1.
         -2   -1    0    0    0  501 -0.00000000000E+00 -0.00000000000E+00 -0.96652571247E+02  0.96652571281E+02  0.25500000000E-02 0.  1.
    8880022    1    1    2    0    0  0.19050365378E+03  0.97914239963E+01  0.92304362178E+02  0.26134127569E+03  0.15294330000E+03 0.  0.
    8880022    1    1    2    0    0 -0.19050365378E+03 -0.97914239963E+01  0.12195001974E+04  0.12437684265E+04  0.15294330000E+03 0. -1.
<mgrwt>
<rscale>  0 0.24449779E+03</rscale>
<asrwt>0</asrwt>
<pdfrwt beam="1">  1        2 0.21668571E+00 0.24449779E+03</pdfrwt>
<pdfrwt beam="2">  1       -2 0.14869626E-01 0.24449779E+03</pdfrwt>
<totfact> 0.53523422E+02</totfact>
</mgrwt>
</event>
<event>
 4    1  0.3365401E-008  0.2823036E+03  0.7818608E-02  0.1094437E+00
          2   -1    0    0  501    0  0.00000000000E+00  0.00000000000E+00  0.68215704717E+03  0.68215704718E+03  0.25500000000E-02 0. -1.
         -2   -1    0    0    0  501 -0.00000000000E+00 -0.00000000000E+00 -0.29171394059E+03  0.29171394060E+03  0.25500000000E-02 0.  1.
    8880022    1    1    2    0    0  0.20847858464E+03 -0.11331524672E+03  0.57224624083E+03  0.63809174775E+03  0.15294330000E+03 0. -1.
    8880022    1    1    2    0    0 -0.20847858464E+03  0.11331524672E+03 -0.18180313425E+03  0.33577924002E+03  0.15294330000E+03 0.  0.
<mgrwt>
<rscale>  0 0.28230359E+03</rscale>
<asrwt>0</asrwt>
<pdfrwt beam="1">  1        2 0.10494724E+00 0.28230359E+03</pdfrwt>
<pdfrwt beam="2">  1       -2 0.44879068E-01 0.28230359E+03</pdfrwt>
<totfact> 0.20787623E+02</totfact>
</mgrwt>
</event>
<event>
 4    1  0.3365401E-008  0.2141148E+03  0.7818608E-02  0.1138348E+00
         -2   -1    0    0    0  501 -0.00000000000E+00  0.00000000000E+00  0.24955045771E+03  0.24955045772E+03  0.25500000000E-02 0.  1.
          2   -1    0    0  501    0  0.00000000000E+00 -0.00000000000E+00 -0.20085094440E+04  0.20085094440E+04  0.25500000000E-02 0. -1.
    8880022    1    1    2    0    0 -0.13058330248E+03 -0.73494856446E+02 -0.19556373573E+04  0.19673237199E+04  0.15294330000E+03 0.  0.
    8880022    1    1    2    0    0  0.13058330248E+03  0.73494856446E+02  0.19667837095E+03  0.29073618183E+03  0.15294330000E+03 0.  1.
<mgrwt>
<rscale>  0 0.21411480E+03</rscale>
<asrwt>0</asrwt>
<pdfrwt beam="1">  1        2 0.30900144E+00 0.21411480E+03</pdfrwt>
<pdfrwt beam="2">  1       -2 0.38392379E-01 0.21411480E+03</pdfrwt>
<totfact> 0.49100657E+01</totfact>
</mgrwt>
</event>
<event>
 4    1  0.3365401E-008  0.7852360E+03  0.7818608E-02  0.9581637E-01
         -2   -1    0    0    0  501 -0.00000000000E+00  0.00000000000E+00  0.70015094378E+03  0.70015094378E+03  0.25500000000E-02 0.  1.
          2   -1    0    0  501    0  0.00000000000E+00 -0.00000000000E+00 -0.50494792349E+04  0.50494792349E+04  0.25500000000E-02 0. -1.
    8880022    1    1    2    0    0 -0.35536275548E+03  0.68331634659E+03 -0.47867840275E+04  0.48507625067E+04  0.15294330000E+03 0.  0.
    8880022    1    1    2    0    0  0.35536275548E+03 -0.68331634659E+03  0.43745573635E+03  0.89886767201E+03  0.15294330000E+03 0.  0.
<mgrwt>
<rscale>  0 0.78523600E+03</rscale>
<asrwt>0</asrwt>
<pdfrwt beam="1">  1        2 0.77684293E+00 0.78523600E+03</pdfrwt>
<pdfrwt beam="2">  1       -2 0.10771553E+00 0.78523600E+03</pdfrwt>
<totfact> 0.24114763E-02</totfact>
</mgrwt>
</event>
<event>
 4    1  0.3365401E-008  0.6074587E+03  0.7818608E-02  0.9890051E-01
          2   -1    0    0  501    0  0.00000000000E+00  0.00000000000E+00  0.22287563576E+04  0.22287563576E+04  0.25500000000E-02 0. -1.
         -2   -1    0    0    0  501 -0.00000000000E+00 -0.00000000000E+00 -0.35446219523E+03  0.35446219524E+03  0.25500000000E-02 0.  1.
    8880022    1    1    2    0    0  0.26394798450E+03  0.52530550112E+03 -0.57361449072E+01  0.60748577300E+03  0.15294330000E+03 0.  0.
    8880022    1    1    2    0    0 -0.26394798450E+03 -0.52530550112E+03  0.18800303073E+04  0.19757327798E+04  0.15294330000E+03 0.  0.
<mgrwt>
<rscale>  0 0.60745869E+03</rscale>
<asrwt>0</asrwt>
<pdfrwt beam="1">  1        2 0.34288560E+00 0.60745869E+03</pdfrwt>
<pdfrwt beam="2">  1       -2 0.54532645E-01 0.60745869E+03</pdfrwt>
<totfact> 0.16763673E+01</totfact>
</mgrwt>
</event>
<event>
 4    1  0.3365401E-008  0.4596087E+03  0.7818608E-02  0.1024895E+00
         -2   -1    0    0    0  501 -0.00000000000E+00  0.00000000000E+00  0.27063379059E+03  0.27063379060E+03  0.25500000000E-02 0.  1.
          2   -1    0    0  501    0  0.00000000000E+00 -0.00000000000E+00 -0.11176812145E+04  0.11176812145E+04  0.25500000000E-02 0. -1.
    8880022    1    1    2    0    0 -0.37673682377E+03 -0.21428464258E+03 -0.42277364265E+02  0.46154909920E+03  0.15294330000E+03 0.  0.
    8880022    1    1    2    0    0  0.37673682377E+03  0.21428464258E+03 -0.80477005969E+03  0.92676590594E+03  0.15294330000E+03 0. -1.
<mgrwt>
<rscale>  0 0.45960874E+03</rscale>
<asrwt>0</asrwt>
<pdfrwt beam="1">  1        2 0.17195095E+00 0.45960874E+03</pdfrwt>
<pdfrwt beam="2">  1       -2 0.41635968E-01 0.45960874E+03</pdfrwt>
<totfact> 0.12094660E+02</totfact>
</mgrwt>
</event>
<event>
 4    1  0.3365401E-008  0.1018507E+04  0.7818608E-02  0.9288477E-01
          2   -1    0    0  501    0  0.00000000000E+00  0.00000000000E+00  0.42817978224E+04  0.42817978224E+04  0.25500000000E-02 0. -1.
         -2   -1    0    0    0  501 -0.00000000000E+00 -0.00000000000E+00 -0.69072291664E+03  0.69072291664E+03  0.25500000000E-02 0.  1.
    8880022    1    1    2    0    0 -0.99226399521E+03  0.17139476696E+03 -0.20779299979E+03  0.10394871746E+04  0.15294330000E+03 0.  0.
    8880022    1    1    2    0    0  0.99226399521E+03 -0.17139476696E+03  0.37988679056E+04  0.39330335645E+04  0.15294330000E+03 0.  0.
<mgrwt>
<rscale>  0 0.10185066E+04</rscale>
<asrwt>0</asrwt>
<pdfrwt beam="1">  1        2 0.65873814E+00 0.10185066E+04</pdfrwt>
<pdfrwt beam="2">  1       -2 0.10626506E+00 0.10185066E+04</pdfrwt>
<totfact> 0.14881453E-01</totfact>
</mgrwt>
</event>
<event>
 4    1  0.3365401E-008  0.3049310E+03  0.7818608E-02  0.1082801E+00
          2   -1    0    0  501    0  0.00000000000E+00  0.00000000000E+00  0.10341049517E+04  0.10341049517E+04  0.25500000000E-02 0. -1.
         -2   -1    0    0    0  501 -0.00000000000E+00 -0.00000000000E+00 -0.18929860359E+03  0.18929860361E+03  0.25500000000E-02 0.  1.
    8880022    1    1    2    0    0 -0.22271776168E+03 -0.14137906500E+03  0.86562440949E+03  0.91776277584E+03  0.15294330000E+03 0.  0.
    8880022    1    1    2    0    0  0.22271776168E+03  0.14137906500E+03 -0.20818061369E+02  0.30564077948E+03  0.15294330000E+03 0. -1.
<mgrwt>
<rscale>  0 0.30493097E+03</rscale>
<asrwt>0</asrwt>
<pdfrwt beam="1">  1        2 0.15909307E+00 0.30493097E+03</pdfrwt>
<pdfrwt beam="2">  1       -2 0.29122862E-01 0.30493097E+03</pdfrwt>
<totfact> 0.27123434E+02</totfact>
</mgrwt>
</event>
<event>
 4    1  0.3365401E-008  0.2664513E+03  0.7818608E-02  0.1103328E+00
         -2   -1    0    0    0  501 -0.00000000000E+00  0.00000000000E+00  0.15338416288E+03  0.15338416290E+03  0.25500000000E-02 0.  1.
          2   -1    0    0  501    0  0.00000000000E+00 -0.00000000000E+00 -0.61987492721E+03  0.61987492722E+03  0.25500000000E-02 0. -1.
    8880022    1    1    2    0    0  0.20628325860E+03 -0.71076281291E+02 -0.42782867145E+03  0.50401750532E+03  0.15294330000E+03 0.  0.
    8880022    1    1    2    0    0 -0.20628325860E+03  0.71076281291E+02 -0.38662092888E+02  0.26924158479E+03  0.15294330000E+03 0. -1.
<mgrwt>
<rscale>  0 0.26645126E+03</rscale>
<asrwt>0</asrwt>
<pdfrwt beam="1">  1        2 0.95365372E-01 0.26645126E+03</pdfrwt>
<pdfrwt beam="2">  1       -2 0.23597564E-01 0.26645126E+03</pdfrwt>
<totfact> 0.76719197E+02</totfact>
</mgrwt>
</event>
<event>
 4    1  0.4232682E-008  0.4354780E+03  0.7818608E-02  0.1032143E+00
          2   -1    0    0  501    0  0.00000000000E+00  0.00000000000E+00  0.19629682570E+04  0.19629682570E+04  0.25500000000E-02 0. -1.
         -2   -1    0    0    0  501 -0.00000000000E+00 -0.00000000000E+00 -0.84549534138E+03  0.84549534138E+03  0.25500000000E-02 0.  1.
    8880022    1    1    2    0    0  0.40764050124E+03 -0.88686226075E+01 -0.76283620927E+03  0.87838497591E+03  0.15294330000E+03 0.  1.
    8880022    1    1    2    0    0 -0.40764050124E+03  0.88686226075E+01  0.18803091249E+04  0.19300786224E+04  0.15294330000E+03 0.  0.
<mgrwt>
<rscale>  0 0.43547799E+03</rscale>
<asrwt>0</asrwt>
<pdfrwt beam="1">  1        2 0.30199511E+00 0.43547799E+03</pdfrwt>
<pdfrwt beam="2">  1       -2 0.13007621E+00 0.43547799E+03</pdfrwt>
<totfact> 0.33822180E+00</totfact>
</mgrwt>
</event>
<event>
 4    1  0.3365401E-008  0.9980108E+03  0.7818608E-02  0.9310729E-01
          2   -1    0    0  501    0  0.00000000000E+00  0.00000000000E+00  0.28584724027E+04  0.28584724027E+04  0.25500000000E-02 0. -1.
         -2   -1    0    0    0  501 -0.00000000000E+00 -0.00000000000E+00 -0.67607382086E+03  0.67607382087E+03  0.25500000000E-02 0.  1.
    8880022    1    1    2    0    0 -0.67609883810E+03 -0.71800014330E+03  0.23214580944E+04  0.25268939792E+04  0.15294330000E+03 0.  0.
    8880022    1    1    2    0    0  0.67609883810E+03  0.71800014330E+03 -0.13905951257E+03  0.10076522444E+04  0.15294330000E+03 0.  0.
<mgrwt>
<rscale>  0 0.99801077E+03</rscale>
<asrwt>0</asrwt>
<pdfrwt beam="1">  1        2 0.43976499E+00 0.99801077E+03</pdfrwt>
<pdfrwt beam="2">  1       -2 0.10401136E+00 0.99801077E+03</pdfrwt>
<totfact> 0.16279759E+00</totfact>
</mgrwt>
</event>
<event>
 4    1  0.3365401E-008  0.2199333E+03  0.7818608E-02  0.1133933E+00
         -2   -1    0    0    0  501 -0.00000000000E+00  0.00000000000E+00  0.10152362217E+04  0.10152362217E+04  0.25500000000E-02 0.  1.
          2   -1    0    0  501    0  0.00000000000E+00 -0.00000000000E+00 -0.16080784664E+03  0.16080784667E+03  0.25500000000E-02 0. -1.
    8880022    1    1    2    0    0  0.15531792647E+03  0.29245987498E+02 -0.66064626535E+02  0.22964140298E+03  0.15294330000E+03 0.  0.
    8880022    1    1    2    0    0 -0.15531792647E+03 -0.29245987498E+02  0.92049300156E+03  0.94640266536E+03  0.15294330000E+03 0.  1.
<mgrwt>
<rscale>  0 0.21993326E+03</rscale>
<asrwt>0</asrwt>
<pdfrwt beam="1">  1        2 0.24739669E-01 0.21993326E+03</pdfrwt>
<pdfrwt beam="2">  1       -2 0.15619019E+00 0.21993326E+03</pdfrwt>
<totfact> 0.62860001E+01</totfact>
</mgrwt>
</event>
<event>
 4    1  0.3365401E-008  0.1470780E+04  0.7818608E-02  0.8904120E-01
          2   -1    0    0  501    0  0.00000000000E+00  0.00000000000E+00  0.22656799126E+04  0.22656799126E+04  0.25500000000E-02 0. -1.
         -2   -1    0    0    0  501 -0.00000000000E+00 -0.00000000000E+00 -0.11723225039E+04  0.11723225039E+04  0.25500000000E-02 0.  1.
    8880022    1    1    2    0    0  0.14087079947E+04 -0.39413640299E+03 -0.19384507409E+03  0.14834990004E+04  0.15294330000E+03 0.  0.
    8880022    1    1    2    0    0 -0.14087079947E+04  0.39413640299E+03  0.12872024828E+04  0.19545034160E+04  0.15294330000E+03 0.  0.
<mgrwt>
<rscale>  0 0.14707799E+04</rscale>
<asrwt>0</asrwt>
<pdfrwt beam="1">  1        2 0.34856614E+00 0.14707799E+04</pdfrwt>
<pdfrwt beam="2">  1       -2 0.18035731E+00 0.14707799E+04</pdfrwt>
<totfact> 0.80668896E-01</totfact>
</mgrwt>
</event>
<event>
 4    1  0.3365401E-008  0.1782202E+03  0.7818608E-02  0.1169537E+00
         -2   -1    0    0    0  501 -0.00000000000E+00  0.00000000000E+00  0.71311613576E+02  0.71311613622E+02  0.25500000000E-02 0.  1.
          2   -1    0    0  501    0  0.00000000000E+00 -0.00000000000E+00 -0.10412969095E+04  0.10412969095E+04  0.25500000000E-02 0. -1.
    8880022    1    1    2    0    0  0.35652391697E+02 -0.84259761521E+02 -0.90582520519E+03  0.92319107222E+03  0.15294330000E+03 0. -1.
    8880022    1    1    2    0    0 -0.35652391697E+02  0.84259761521E+02 -0.64160090709E+02  0.18941745089E+03  0.15294330000E+03 0.  0.
<mgrwt>
<rscale>  0 0.17822024E+03</rscale>
<asrwt>0</asrwt>
<pdfrwt beam="1">  1        2 0.16019951E+00 0.17822024E+03</pdfrwt>
<pdfrwt beam="2">  1       -2 0.10971018E-01 0.17822024E+03</pdfrwt>
<totfact> 0.14174406E+03</totfact>
</mgrwt>
</event>
<event>
 4    1  0.3365401E-008  0.2885292E+03  0.7818608E-02  0.1091120E+00
         -2   -1    0    0    0  501 -0.00000000000E+00  0.00000000000E+00  0.16732996482E+03  0.16732996484E+03  0.25500000000E-02 0.  1.
          2   -1    0    0  501    0  0.00000000000E+00 -0.00000000000E+00 -0.81829296592E+03  0.81829296593E+03  0.25500000000E-02 0. -1.
    8880022    1    1    2    0    0 -0.14100479186E+03  0.19993775573E+03 -0.16929128674E+02  0.28902544162E+03  0.15294330000E+03 0.  0.
    8880022    1    1    2    0    0  0.14100479186E+03 -0.19993775573E+03 -0.63403387243E+03  0.69659748915E+03  0.15294330000E+03 0.  0.
<mgrwt>
<rscale>  0 0.28852922E+03</rscale>
<asrwt>0</asrwt>
<pdfrwt beam="1">  1        2 0.12589122E+00 0.28852922E+03</pdfrwt>
<pdfrwt beam="2">  1       -2 0.25743072E-01 0.28852922E+03</pdfrwt>
<totfact> 0.46696441E+02</totfact>
</mgrwt>
</event>
<event>
 4    1  0.3365401E-008  0.3219549E+03  0.7818608E-02  0.1074753E+00
         -2   -1    0    0    0  501 -0.00000000000E+00  0.00000000000E+00  0.70580814846E+03  0.70580814846E+03  0.25500000000E-02 0.  1.
          2   -1    0    0  501    0  0.00000000000E+00 -0.00000000000E+00 -0.21878056216E+03  0.21878056218E+03  0.25500000000E-02 0. -1.
    8880022    1    1    2    0    0 -0.24586717687E+03  0.14075726013E+03  0.50857184589E+03  0.60191382306E+03  0.15294330000E+03 0. -1.
    8880022    1    1    2    0    0  0.24586717687E+03 -0.14075726013E+03 -0.21544259593E+02  0.32267488759E+03  0.15294330000E+03 0.  0.
<mgrwt>
<rscale>  0 0.32195485E+03</rscale>
<asrwt>0</asrwt>
<pdfrwt beam="1">  1        2 0.33658549E-01 0.32195485E+03</pdfrwt>
<pdfrwt beam="2">  1       -2 0.10858587E+00 0.32195485E+03</pdfrwt>
<totfact> 0.10937418E+02</totfact>
</mgrwt>
</event>
<event>
 4    1  0.3365401E-008  0.1822738E+04  0.7818608E-02  0.8694300E-01
         -2   -1    0    0    0  501 -0.00000000000E+00  0.00000000000E+00  0.23950547633E+04  0.23950547633E+04  0.25500000000E-02 0.  1.
          2   -1    0    0  501    0  0.00000000000E+00 -0.00000000000E+00 -0.17696395190E+04  0.17696395190E+04  0.25500000000E-02 0. -1.
    8880022    1    1    2    0    0 -0.11057307549E+04  0.14409514027E+04 -0.65535448098E+03  0.19369725336E+04  0.15294330000E+03 0.  0.
    8880022    1    1    2    0    0  0.11057307549E+04 -0.14409514027E+04  0.12807697253E+04  0.22277217487E+04  0.15294330000E+03 0.  0.
<mgrwt>
<rscale>  0 0.18227378E+04</rscale>
<asrwt>0</asrwt>
<pdfrwt beam="1">  1        2 0.27225223E+00 0.18227378E+04</pdfrwt>
<pdfrwt beam="2">  1       -2 0.36846996E+00 0.18227378E+04</pdfrwt>
<totfact> 0.96553661E-02</totfact>
</mgrwt>
</event>
<event>
 4    1  0.3365401E-008  0.4244625E+03  0.7818608E-02  0.1035624E+00
          2   -1    0    0  501    0  0.00000000000E+00  0.00000000000E+00  0.26156357315E+04  0.26156357315E+04  0.25500000000E-02 0. -1.
         -2   -1    0    0    0  501 -0.00000000000E+00 -0.00000000000E+00 -0.12543355447E+03  0.12543355449E+03  0.25500000000E-02 0.  1.
    8880022    1    1    2    0    0  0.17863711861E+03  0.35336320651E+03  0.32484636198E+03  0.53450312232E+03  0.15294330000E+03 0.  0.
    8880022    1    1    2    0    0 -0.17863711861E+03 -0.35336320651E+03  0.21653558151E+04  0.22065661637E+04  0.15294330000E+03 0. -1.
<mgrwt>
<rscale>  0 0.42446252E+03</rscale>
<asrwt>0</asrwt>
<pdfrwt beam="1">  1        2 0.40240546E+00 0.42446252E+03</pdfrwt>
<pdfrwt beam="2">  1       -2 0.19297472E-01 0.42446252E+03</pdfrwt>
<totfact> 0.74570655E+01</totfact>
</mgrwt>
</event>
<event>
 4    1  0.3365401E-008  0.3905100E+03  0.7818608E-02  0.1047116E+00
         -2   -1    0    0    0  501 -0.00000000000E+00  0.00000000000E+00  0.77922186058E+02  0.77922186099E+02  0.25500000000E-02 0.  1.
          2   -1    0    0  501    0  0.00000000000E+00 -0.00000000000E+00 -0.31366066200E+04  0.31366066200E+04  0.25500000000E-02 0. -1.
    8880022    1    1    2    0    0  0.59869589335E+02  0.35429091803E+03 -0.25149760568E+04  0.25451134831E+04  0.15294330000E+03 0.  0.
    8880022    1    1    2    0    0 -0.59869589335E+02 -0.35429091803E+03 -0.54370837709E+03  0.66941532299E+03  0.15294330000E+03 0.  0.
<mgrwt>
<rscale>  0 0.39051002E+03</rscale>
<asrwt>0</asrwt>
<pdfrwt beam="1">  1        2 0.48255477E+00 0.39051002E+03</pdfrwt>
<pdfrwt beam="2">  1       -2 0.11988031E-01 0.39051002E+03</pdfrwt>
<totfact> 0.82464234E+01</totfact>
</mgrwt>
</event>
<event>
 4    1  0.4360476E-008  0.1057655E+04  0.7818608E-02  0.9247477E-01
         -2   -1    0    0    0  501 -0.00000000000E+00  0.00000000000E+00  0.17649734421E+04  0.17649734421E+04  0.25500000000E-02 0.  1.
          2   -1    0    0  501    0  0.00000000000E+00 -0.00000000000E+00 -0.17336675303E+04  0.17336675303E+04  0.25500000000E-02 0. -1.
    8880022    1    1    2    0    0 -0.77251080756E+03  0.70602305104E+03  0.14089940632E+04  0.17617881312E+04  0.15294330000E+03 0.  0.
    8880022    1    1    2    0    0  0.77251080756E+03 -0.70602305104E+03 -0.13776881514E+04  0.17368528412E+04  0.15294330000E+03 0.  0.
<mgrwt>
<rscale>  0 0.10576546E+04</rscale>
<asrwt>0</asrwt>
<pdfrwt beam="1">  1        2 0.26671808E+00 0.10576546E+04</pdfrwt>
<pdfrwt beam="2">  1       -2 0.27153437E+00 0.10576546E+04</pdfrwt>
<totfact> 0.44273821E-01</totfact>
</mgrwt>
</event>
<event>
 4    1  0.3365401E-008  0.6914459E+03  0.7818608E-02  0.9731974E-01
          2   -1    0    0  501    0  0.00000000000E+00  0.00000000000E+00  0.24126479791E+04  0.24126479791E+04  0.25500000000E-02 0. -1.
         -2   -1    0    0    0  501 -0.00000000000E+00 -0.00000000000E+00 -0.41350888803E+03  0.41350888804E+03  0.25500000000E-02 0.  1.
    8880022    1    1    2    0    0  0.63051222156E+02  0.67136451819E+03 -0.20176881263E+02  0.69174022036E+03  0.15294330000E+03 0.  0.
    8880022    1    1    2    0    0 -0.63051222156E+02 -0.67136451819E+03  0.20193159723E+04  0.21344166468E+04  0.15294330000E+03 0.  0.
<mgrwt>
<rscale>  0 0.69144590E+03</rscale>
<asrwt>0</asrwt>
<pdfrwt beam="1">  1        2 0.37117662E+00 0.69144590E+03</pdfrwt>
<pdfrwt beam="2">  1       -2 0.63616751E-01 0.69144590E+03</pdfrwt>
<totfact> 0.94473023E+00</totfact>
</mgrwt>
</event>
<event>
 4    1  0.3365401E-008  0.8293084E+03  0.7818608E-02  0.9518537E-01
          2   -1    0    0  501    0  0.00000000000E+00  0.00000000000E+00  0.76099682358E+03  0.76099682359E+03  0.25500000000E-02 0. -1.
         -2   -1    0    0    0  501 -0.00000000000E+00 -0.00000000000E+00 -0.92415891587E+03  0.92415891588E+03  0.25500000000E-02 0.  1.
    8880022    1    1    2    0    0 -0.64764367106E+03 -0.49489238988E+03 -0.20678690518E+03  0.85470069580E+03  0.15294330000E+03 0.  0.
    8880022    1    1    2    0    0  0.64764367106E+03  0.49489238988E+03  0.43624812888E+02  0.83045504366E+03  0.15294330000E+03 0.  0.
<mgrwt>
<rscale>  0 0.82930842E+03</rscale>
<asrwt>0</asrwt>
<pdfrwt beam="1">  1        2 0.11707643E+00 0.82930842E+03</pdfrwt>
<pdfrwt beam="2">  1       -2 0.14217830E+00 0.82930842E+03</pdfrwt>
<totfact> 0.12785758E+01</totfact>
</mgrwt>
</event>
<event>
 4    1  0.3365401E-008  0.2416628E+03  0.7818608E-02  0.1118690E+00
         -2   -1    0    0    0  501 -0.00000000000E+00  0.00000000000E+00  0.67898198108E+02  0.67898198156E+02  0.25500000000E-02 0.  1.
          2   -1    0    0  501    0  0.00000000000E+00 -0.00000000000E+00 -0.93901637568E+03  0.93901637569E+03  0.25500000000E-02 0. -1.
    8880022    1    1    2    0    0 -0.58518904013E+02 -0.17772107951E+03 -0.28962980484E+03  0.37720859096E+03  0.15294330000E+03 0.  0.
    8880022    1    1    2    0    0  0.58518904013E+02  0.17772107951E+03 -0.58148837274E+03  0.62970598288E+03  0.15294330000E+03 0.  0.
<mgrwt>
<rscale>  0 0.24166278E+03</rscale>
<asrwt>0</asrwt>
<pdfrwt beam="1">  1        2 0.14446405E+00 0.24166278E+03</pdfrwt>
<pdfrwt beam="2">  1       -2 0.10445877E-01 0.24166278E+03</pdfrwt>
<totfact> 0.17722635E+03</totfact>
</mgrwt>
</event>
<event>
 4    1  0.3365401E-008  0.3036741E+03  0.7818608E-02  0.1083418E+00
          2   -1    0    0  501    0  0.00000000000E+00  0.00000000000E+00  0.31647187951E+04  0.31647187951E+04  0.25500000000E-02 0. -1.
         -2   -1    0    0    0  501 -0.00000000000E+00 -0.00000000000E+00 -0.32658917876E+03  0.32658917877E+03  0.25500000000E-02 0.  1.
    8880022    1    1    2    0    0  0.16896220357E+03 -0.20069394550E+03  0.30850230450E+04  0.30999330843E+04  0.15294330000E+03 0.  0.
    8880022    1    1    2    0    0 -0.16896220357E+03  0.20069394550E+03 -0.24689342870E+03  0.39137488952E+03  0.15294330000E+03 0.  1.
<mgrwt>
<rscale>  0 0.30367407E+03</rscale>
<asrwt>0</asrwt>
<pdfrwt beam="1">  1        2 0.48687982E+00 0.30367407E+03</pdfrwt>
<pdfrwt beam="2">  1       -2 0.50244488E-01 0.30367407E+03</pdfrwt>
<totfact> 0.62924032E+00</totfact>
</mgrwt>
</event>
<event>
 4    1  0.3365401E-008  0.8821631E+03  0.7818608E-02  0.9448157E-01
          2   -1    0    0  501    0  0.00000000000E+00  0.00000000000E+00  0.24226634270E+04  0.24226634270E+04  0.25500000000E-02 0. -1.
         -2   -1    0    0    0  501 -0.00000000000E+00 -0.00000000000E+00 -0.37057272496E+03  0.37057272497E+03  0.25500000000E-02 0.  1.
    8880022    1    1    2    0    0 -0.68413695357E+03 -0.53551538055E+03  0.15357159697E+04  0.17710548514E+04  0.15294330000E+03 0.  0.
    8880022    1    1    2    0    0  0.68413695357E+03  0.53551538055E+03  0.51637473237E+03  0.10221813006E+04  0.15294330000E+03 0.  0.
<mgrwt>
<rscale>  0 0.88216311E+03</rscale>
<asrwt>0</asrwt>
<pdfrwt beam="1">  1        2 0.37271743E+00 0.88216311E+03</pdfrwt>
<pdfrwt beam="2">  1       -2 0.57011192E-01 0.88216311E+03</pdfrwt>
<totfact> 0.11413752E+01</totfact>
</mgrwt>
</event>
<event>
 4    1  0.3365401E-008  0.1284875E+04  0.7818608E-02  0.9041646E-01
          2   -1    0    0  501    0  0.00000000000E+00  0.00000000000E+00  0.17494068981E+04  0.17494068981E+04  0.25500000000E-02 0. -1.
         -2   -1    0    0    0  501 -0.00000000000E+00 -0.00000000000E+00 -0.11684404192E+04  0.11684404192E+04  0.25500000000E-02 0.  1.
    8880022    1    1    2    0    0  0.11748612930E+04  0.49720487680E+03  0.93033068579E+03  0.15863223459E+04  0.15294330000E+03 0.  0.
    8880022    1    1    2    0    0 -0.11748612930E+04 -0.49720487680E+03 -0.34936420695E+03  0.13315249714E+04  0.15294330000E+03 0.  0.
<mgrwt>
<rscale>  0 0.12848749E+04</rscale>
<asrwt>0</asrwt>
<pdfrwt beam="1">  1        2 0.26913952E+00 0.12848749E+04</pdfrwt>
<pdfrwt beam="2">  1       -2 0.17976006E+00 0.12848749E+04</pdfrwt>
<totfact> 0.16115260E+00</totfact>
</mgrwt>
</event>
<event>
 4    1  0.3365401E-008  0.4359891E+03  0.7818608E-02  0.1031985E+00
          2   -1    0    0  501    0  0.00000000000E+00  0.00000000000E+00  0.62500002142E+03  0.62500002143E+03  0.25500000000E-02 0. -1.
         -2   -1    0    0    0  501 -0.00000000000E+00 -0.00000000000E+00 -0.35216046866E+03  0.35216046867E+03  0.25500000000E-02 0.  1.
    8880022    1    1    2    0    0 -0.40760683071E+03 -0.23483899665E+02 -0.44000881316E+02  0.43820377972E+03  0.15294330000E+03 0.  0.
    8880022    1    1    2    0    0  0.40760683071E+03  0.23483899665E+02  0.31684043408E+03  0.53895671038E+03  0.15294330000E+03 0.  0.
<mgrwt>
<rscale>  0 0.43598908E+03</rscale>
<asrwt>0</asrwt>
<pdfrwt beam="1">  1        2 0.96153848E-01 0.43598908E+03</pdfrwt>
<pdfrwt beam="2">  1       -2 0.54178534E-01 0.43598908E+03</pdfrwt>
<totfact> 0.15604237E+02</totfact>
</mgrwt>
</event>
<event>
 4    1  0.3365401E-008  0.4096624E+03  0.7818608E-02  0.1040484E+00
         -2   -1    0    0    0  501 -0.00000000000E+00  0.00000000000E+00  0.13662866436E+03  0.13662866438E+03  0.25500000000E-02 0.  1.
          2   -1    0    0  501    0  0.00000000000E+00 -0.00000000000E+00 -0.21150894986E+04  0.21150894987E+04  0.25500000000E-02 0. -1.
    8880022    1    1    2    0    0 -0.37632136200E+03  0.53045750774E+02 -0.26023325349E+03  0.48532939166E+03  0.15294330000E+03 0.  1.
    8880022    1    1    2    0    0  0.37632136200E+03 -0.53045750774E+02 -0.17182275808E+04  0.17663887714E+04  0.15294330000E+03 0.  0.
<mgrwt>
<rscale>  0 0.40966239E+03</rscale>
<asrwt>0</asrwt>
<pdfrwt beam="1">  1        2 0.32539836E+00 0.40966239E+03</pdfrwt>
<pdfrwt beam="2">  1       -2 0.21019796E-01 0.40966239E+03</pdfrwt>
<totfact> 0.12146707E+02</totfact>
</mgrwt>
</event>
<event>
 4    1  0.3365401E-008  0.1641990E+04  0.7818608E-02  0.8795160E-01
          2   -1    0    0  501    0  0.00000000000E+00  0.00000000000E+00  0.38412762825E+04  0.38412762825E+04  0.25500000000E-02 0. -1.
         -2   -1    0    0    0  501 -0.00000000000E+00 -0.00000000000E+00 -0.12105441244E+04  0.12105441244E+04  0.25500000000E-02 0.  1.
    8880022    1    1    2    0    0 -0.13440599999E+04 -0.93072051668E+03  0.29527160810E+04  0.33785591413E+04  0.15294330000E+03 0.  0.
    8880022    1    1    2    0    0  0.13440599999E+04  0.93072051668E+03 -0.32198392292E+03  0.16732612656E+04  0.15294330000E+03 0.  0.
<mgrwt>
<rscale>  0 0.16419895E+04</rscale>
<asrwt>0</asrwt>
<pdfrwt beam="1">  1        2 0.59096559E+00 0.16419895E+04</pdfrwt>
<pdfrwt beam="2">  1       -2 0.18623756E+00 0.16419895E+04</pdfrwt>
<totfact> 0.70230898E-02</totfact>
</mgrwt>
</event>
<event>
 4    1  0.3365401E-008  0.4816701E+03  0.7818608E-02  0.1018677E+00
          2   -1    0    0  501    0  0.00000000000E+00  0.00000000000E+00  0.24010235785E+04  0.24010235785E+04  0.25500000000E-02 0. -1.
         -2   -1    0    0    0  501 -0.00000000000E+00 -0.00000000000E+00 -0.45445654796E+03  0.45445654797E+03  0.25500000000E-02 0.  1.
    8880022    1    1    2    0    0 -0.41590545788E+02 -0.45484578836E+03  0.22401780243E+04  0.22913759399E+04  0.15294330000E+03 0.  0.
    8880022    1    1    2    0    0  0.41590545788E+02  0.45484578836E+03 -0.29361099369E+03  0.56410418658E+03  0.15294330000E+03 0.  0.
<mgrwt>
<rscale>  0 0.48167013E+03</rscale>
<asrwt>0</asrwt>
<pdfrwt beam="1">  1        2 0.36938824E+00 0.48167013E+03</pdfrwt>
<pdfrwt beam="2">  1       -2 0.69916392E-01 0.48167013E+03</pdfrwt>
<totfact> 0.81932683E+00</totfact>
</mgrwt>
</event>
<event>
 4    1  0.3365401E-008  0.4791427E+03  0.7818608E-02  0.1019371E+00
         -2   -1    0    0    0  501 -0.00000000000E+00  0.00000000000E+00  0.51139152210E+03  0.51139152210E+03  0.25500000000E-02 0.  1.
          2   -1    0    0  501    0  0.00000000000E+00 -0.00000000000E+00 -0.90946363456E+03  0.90946363456E+03  0.25500000000E-02 0. -1.
    8880022    1    1    2    0    0 -0.96632268618E+02 -0.44367591230E+03  0.30650793909E+03  0.56879247554E+03  0.15294330000E+03 0.  0.
    8880022    1    1    2    0    0  0.96632268618E+02  0.44367591230E+03 -0.70458005156E+03  0.85206268112E+03  0.15294330000E+03 0.  0.
<mgrwt>
<rscale>  0 0.47914274E+03</rscale>
<asrwt>0</asrwt>
<pdfrwt beam="1">  1        2 0.13991748E+00 0.47914274E+03</pdfrwt>
<pdfrwt beam="2">  1       -2 0.78675619E-01 0.47914274E+03</pdfrwt>
<totfact> 0.43322585E+01</totfact>
</mgrwt>
</event>
<event>
 4    1  0.3365401E-008  0.1009652E+04  0.7818608E-02  0.9298022E-01
         -2   -1    0    0    0  501 -0.00000000000E+00  0.00000000000E+00  0.77373764797E+03  0.77373764797E+03  0.25500000000E-02 0.  1.
          2   -1    0    0  501    0  0.00000000000E+00 -0.00000000000E+00 -0.18204627536E+04  0.18204627536E+04  0.25500000000E-02 0. -1.
    8880022    1    1    2    0    0 -0.18297144512E+03  0.98108421240E+03 -0.12051549714E+04  0.15721943072E+04  0.15294330000E+03 0.  0.
    8880022    1    1    2    0    0  0.18297144512E+03 -0.98108421240E+03  0.15842986575E+03  0.10220060944E+04  0.15294330000E+03 0.  0.
<mgrwt>
<rscale>  0 0.10096516E+04</rscale>
<asrwt>0</asrwt>
<pdfrwt beam="1">  1        2 0.28007119E+00 0.10096516E+04</pdfrwt>
<pdfrwt beam="2">  1       -2 0.11903656E+00 0.10096516E+04</pdfrwt>
<totfact> 0.45346979E+00</totfact>
</mgrwt>
</event>
<event>
 4    1  0.3365401E-008  0.4025066E+03  0.7818608E-02  0.1042915E+00
          2   -1    0    0  501    0  0.00000000000E+00  0.00000000000E+00  0.66921484664E+03  0.66921484665E+03  0.25500000000E-02 0. -1.
         -2   -1    0    0    0  501 -0.00000000000E+00 -0.00000000000E+00 -0.24839893660E+03  0.24839893661E+03  0.25500000000E-02 0.  1.
    8880022    1    1    2    0    0  0.74238189782E+02 -0.36484048752E+03  0.28351600479E+03  0.49233410215E+03  0.15294330000E+03 0. -1.
    8880022    1    1    2    0    0 -0.74238189782E+02  0.36484048752E+03  0.13729990526E+03  0.42527968110E+03  0.15294330000E+03 0.  1.
<mgrwt>
<rscale>  0 0.40250658E+03</rscale>
<asrwt>0</asrwt>
<pdfrwt beam="1">  1        2 0.10295613E+00 0.40250658E+03</pdfrwt>
<pdfrwt beam="2">  1       -2 0.38215222E-01 0.40250658E+03</pdfrwt>
<totfact> 0.28756092E+02</totfact>
</mgrwt>
</event>
<event>
 4    1  0.3365401E-008  0.4007384E+03  0.7818608E-02  0.1043524E+00
          2   -1    0    0  501    0  0.00000000000E+00  0.00000000000E+00  0.29390384686E+03  0.29390384687E+03  0.25500000000E-02 0. -1.
         -2   -1    0    0    0  501 -0.00000000000E+00 -0.00000000000E+00 -0.12244771299E+04  0.12244771299E+04  0.25500000000E-02 0.  1.
    8880022    1    1    2    0    0 -0.21394402261E+03  0.30236997341E+03 -0.10302399165E+04  0.11054345680E+04  0.15294330000E+03 0.  0.
    8880022    1    1    2    0    0  0.21394402261E+03 -0.30236997341E+03  0.99666633486E+02  0.41294640872E+03  0.15294330000E+03 0. -1.
<mgrwt>
<rscale>  0 0.40073844E+03</rscale>
<asrwt>0</asrwt>
<pdfrwt beam="1">  1        2 0.45215977E-01 0.40073844E+03</pdfrwt>
<pdfrwt beam="2">  1       -2 0.18838109E+00 0.40073844E+03</pdfrwt>
<totfact> 0.18862285E+01</totfact>
</mgrwt>
</event>
<event>
 4    1  0.3365401E-008  0.8422269E+03  0.7818608E-02  0.9500830E-01
          2   -1    0    0  501    0  0.00000000000E+00  0.00000000000E+00  0.34486727706E+04  0.34486727706E+04  0.25500000000E-02 0. -1.
         -2   -1    0    0    0  501 -0.00000000000E+00 -0.00000000000E+00 -0.24565241016E+03  0.24565241017E+03  0.25500000000E-02 0.  1.
    8880022    1    1    2    0    0 -0.51918274386E+03  0.64529355607E+03  0.85645517736E+03  0.12011917494E+04  0.15294330000E+03 0.  0.
    8880022    1    1    2    0    0  0.51918274386E+03 -0.64529355607E+03  0.23465651831E+04  0.24931334313E+04  0.15294330000E+03 0.  0.
<mgrwt>
<rscale>  0 0.84222690E+03</rscale>
<asrwt>0</asrwt>
<pdfrwt beam="1">  1        2 0.53056500E+00 0.84222690E+03</pdfrwt>
<pdfrwt beam="2">  1       -2 0.37792682E-01 0.84222690E+03</pdfrwt>
<totfact> 0.61934141E+00</totfact>
</mgrwt>
</event>
<event>
 4    1  0.3555668E-008  0.7798988E+03  0.7818608E-02  0.9589577E-01
         -2   -1    0    0    0  501 -0.00000000000E+00  0.00000000000E+00  0.62594388052E+03  0.62594388052E+03  0.25500000000E-02 0.  1.
          2   -1    0    0  501    0  0.00000000000E+00 -0.00000000000E+00 -0.29276308919E+04  0.29276308919E+04  0.25500000000E-02 0. -1.
    8880022    1    1    2    0    0 -0.37944173065E+03  0.66398373915E+03 -0.26031285080E+04  0.27174473528E+04  0.15294330000E+03 0.  0.
    8880022    1    1    2    0    0  0.37944173065E+03 -0.66398373915E+03  0.30144149671E+03  0.83612741958E+03  0.15294330000E+03 0.  0.
<mgrwt>
<rscale>  0 0.77989877E+03</rscale>
<asrwt>0</asrwt>
<pdfrwt beam="1">  1        2 0.45040474E+00 0.77989877E+03</pdfrwt>
<pdfrwt beam="2">  1       -2 0.96299060E-01 0.77989877E+03</pdfrwt>
<totfact> 0.18459124E+00</totfact>
</mgrwt>
</event>
<event>
 4    1  0.3365401E-008  0.2334579E+03  0.7818608E-02  0.1124229E+00
         -2   -1    0    0    0  501 -0.00000000000E+00  0.00000000000E+00  0.69716763612E+02  0.69716763659E+02  0.25500000000E-02 0.  1.
          2   -1    0    0  501    0  0.00000000000E+00 -0.00000000000E+00 -0.16616015224E+04  0.16616015224E+04  0.25500000000E-02 0. -1.
    8880022    1    1    2    0    0 -0.84458441984E+02 -0.15484736843E+03 -0.14258586594E+04  0.14448444572E+04  0.15294330000E+03 0. -1.
    8880022    1    1    2    0    0  0.84458441984E+02  0.15484736843E+03 -0.16602609943E+03  0.28647382889E+03  0.15294330000E+03 0.  1.
<mgrwt>
<rscale>  0 0.23345790E+03</rscale>
<asrwt>0</asrwt>
<pdfrwt beam="1">  1        2 0.25563097E+00 0.23345790E+03</pdfrwt>
<pdfrwt beam="2">  1       -2 0.10725657E-01 0.23345790E+03</pdfrwt>
<totfact> 0.66866713E+02</totfact>
</mgrwt>
</event>
<event>
 4    1  0.3365401E-008  0.6906432E+03  0.7818608E-02  0.9733369E-01
         -2   -1    0    0    0  501 -0.00000000000E+00  0.00000000000E+00  0.60568847547E+03  0.60568847548E+03  0.25500000000E-02 0.  1.
          2   -1    0    0  501    0  0.00000000000E+00 -0.00000000000E+00 -0.13641057052E+04  0.13641057052E+04  0.25500000000E-02 0. -1.
    8880022    1    1    2    0    0  0.56449533644E+03 -0.36734376056E+03 -0.10195345395E+04  0.12314376775E+04  0.15294330000E+03 0.  0.
    8880022    1    1    2    0    0 -0.56449533644E+03  0.36734376056E+03  0.26111730980E+03  0.73835650317E+03  0.15294330000E+03 0.  0.
<mgrwt>
<rscale>  0 0.69064323E+03</rscale>
<asrwt>0</asrwt>
<pdfrwt beam="1">  1        2 0.20986242E+00 0.69064323E+03</pdfrwt>
<pdfrwt beam="2">  1       -2 0.93182843E-01 0.69064323E+03</pdfrwt>
<totfact> 0.15234795E+01</totfact>
</mgrwt>
</event>
<event>
 4    1  0.3365401E-008  0.8254005E+03  0.7818608E-02  0.9523962E-01
         -2   -1    0    0    0  501 -0.00000000000E+00  0.00000000000E+00  0.26977900406E+03  0.26977900407E+03  0.25500000000E-02 0.  1.
          2   -1    0    0  501    0  0.00000000000E+00 -0.00000000000E+00 -0.26284322361E+04  0.26284322361E+04  0.25500000000E-02 0. -1.
    8880022    1    1    2    0    0  0.79021886105E+03 -0.18288914963E+03 -0.14663036870E+04  0.16826563657E+04  0.15294330000E+03 0.  0.
    8880022    1    1    2    0    0 -0.79021886105E+03  0.18288914963E+03 -0.89234954508E+03  0.12155548745E+04  0.15294330000E+03 0.  0.
<mgrwt>
<rscale>  0 0.82540047E+03</rscale>
<asrwt>0</asrwt>
<pdfrwt beam="1">  1        2 0.40437417E+00 0.82540047E+03</pdfrwt>
<pdfrwt beam="2">  1       -2 0.41504464E-01 0.82540047E+03</pdfrwt>
<totfact> 0.16716493E+01</totfact>
</mgrwt>
</event>
<event>
 4    1  0.3365401E-008  0.4114431E+03  0.7818608E-02  0.1039888E+00
          2   -1    0    0  501    0  0.00000000000E+00  0.00000000000E+00  0.60921084098E+03  0.60921084098E+03  0.25500000000E-02 0. -1.
         -2   -1    0    0    0  501 -0.00000000000E+00 -0.00000000000E+00 -0.51810073748E+03  0.51810073748E+03  0.25500000000E-02 0.  1.
    8880022    1    1    2    0    0 -0.33694145356E+03  0.17990056561E+03 -0.33825401413E+03  0.53263607438E+03  0.15294330000E+03 0.  0.
    8880022    1    1    2    0    0  0.33694145356E+03 -0.17990056561E+03  0.42936411764E+03  0.59467550409E+03  0.15294330000E+03 0.  0.
<mgrwt>
<rscale>  0 0.41144308E+03</rscale>
<asrwt>0</asrwt>
<pdfrwt beam="1">  1        2 0.93724744E-01 0.41144308E+03</pdfrwt>
<pdfrwt beam="2">  1       -2 0.79707806E-01 0.41144308E+03</pdfrwt>
<totfact> 0.70689304E+01</totfact>
</mgrwt>
</event>
<event>
 4    1  0.3365401E-008  0.8142499E+03  0.7818608E-02  0.9539617E-01
          2   -1    0    0  501    0  0.00000000000E+00  0.00000000000E+00  0.23045573313E+04  0.23045573313E+04  0.25500000000E-02 0. -1.
         -2   -1    0    0    0  501 -0.00000000000E+00 -0.00000000000E+00 -0.93536289706E+03  0.93536289706E+03  0.25500000000E-02 0.  1.
    8880022    1    1    2    0    0  0.21324826490E+03  0.77080245506E+03  0.20326019455E+04  0.21896286373E+04  0.15294330000E+03 0.  0.
    8880022    1    1    2    0    0 -0.21324826490E+03 -0.77080245506E+03 -0.66340751130E+03  0.10502915911E+04  0.15294330000E+03 0.  0.
<mgrwt>
<rscale>  0 0.81424990E+03</rscale>
<asrwt>0</asrwt>
<pdfrwt beam="1">  1        2 0.35454728E+00 0.81424990E+03</pdfrwt>
<pdfrwt beam="2">  1       -2 0.14390199E+00 0.81424990E+03</pdfrwt>
<totfact> 0.15566541E+00</totfact>
</mgrwt>
</event>
<event>
 4    1  0.3365401E-008  0.4278873E+03  0.7818608E-02  0.1034529E+00
         -2   -1    0    0    0  501 -0.00000000000E+00  0.00000000000E+00  0.24845529130E+03  0.24845529131E+03  0.25500000000E-02 0.  1.
          2   -1    0    0  501    0  0.00000000000E+00 -0.00000000000E+00 -0.31228122790E+04  0.31228122790E+04  0.25500000000E-02 0. -1.
    8880022    1    1    2    0    0  0.39906345497E+03  0.21077752104E+02 -0.29105667658E+04  0.29418508568E+04  0.15294330000E+03 0.  0.
    8880022    1    1    2    0    0 -0.39906345497E+03 -0.21077752104E+02  0.36209778130E+02  0.42941671343E+03  0.15294330000E+03 0.  0.
<mgrwt>
<rscale>  0 0.42788733E+03</rscale>
<asrwt>0</asrwt>
<pdfrwt beam="1">  1        2 0.48043263E+00 0.42788733E+03</pdfrwt>
<pdfrwt beam="2">  1       -2 0.38223893E-01 0.42788733E+03</pdfrwt>
<totfact> 0.10849014E+01</totfact>
</mgrwt>
</event>
<event>
 4    1  0.3365401E-008  0.9213875E+03  0.7818608E-02  0.9399234E-01
         -2   -1    0    0    0  501 -0.00000000000E+00  0.00000000000E+00  0.18470033109E+04  0.18470033109E+04  0.25500000000E-02 0.  1.
          2   -1    0    0  501    0  0.00000000000E+00 -0.00000000000E+00 -0.61695129289E+03  0.61695129290E+03  0.25500000000E-02 0. -1.
    8880022    1    1    2    0    0 -0.26158744081E+02 -0.90822846262E+03  0.12371235851E+04  0.15425399956E+04  0.15294330000E+03 0.  0.
    8880022    1    1    2    0    0  0.26158744081E+02  0.90822846262E+03 -0.70715670513E+01  0.92141460824E+03  0.15294330000E+03 0.  0.
<mgrwt>
<rscale>  0 0.92138747E+03</rscale>
<asrwt>0</asrwt>
<pdfrwt beam="1">  1        2 0.94915586E-01 0.92138747E+03</pdfrwt>
<pdfrwt beam="2">  1       -2 0.28415435E+00 0.92138747E+03</pdfrwt>
<totfact> 0.19298383E+00</totfact>
</mgrwt>
</event>
<event>
 4    1  0.3365401E-008  0.6904466E+03  0.7818608E-02  0.9733711E-01
          2   -1    0    0  501    0  0.00000000000E+00  0.00000000000E+00  0.39534002136E+03  0.39534002137E+03  0.25500000000E-02 0. -1.
         -2   -1    0    0    0  501 -0.00000000000E+00 -0.00000000000E+00 -0.20790822347E+04  0.20790822347E+04  0.25500000000E-02 0.  1.
    8880022    1    1    2    0    0 -0.26144586362E+03 -0.62046027635E+03 -0.40053633350E+02  0.69160743250E+03  0.15294330000E+03 0.  0.
    8880022    1    1    2    0    0  0.26144586362E+03  0.62046027635E+03 -0.16436885800E+04  0.17828148236E+04  0.15294330000E+03 0.  0.
<mgrwt>
<rscale>  0 0.69044663E+03</rscale>
<asrwt>0</asrwt>
<pdfrwt beam="1">  1        2 0.60821543E-01 0.69044663E+03</pdfrwt>
<pdfrwt beam="2">  1       -2 0.31985880E+00 0.69044663E+03</pdfrwt>
<totfact> 0.20413712E+00</totfact>
</mgrwt>
</event>
<event>
 4    1  0.3365401E-008  0.8569804E+03  0.7818608E-02  0.9481016E-01
          2   -1    0    0  501    0  0.00000000000E+00  0.00000000000E+00  0.19999535103E+04  0.19999535103E+04  0.25500000000E-02 0. -1.
         -2   -1    0    0    0  501 -0.00000000000E+00 -0.00000000000E+00 -0.73294895585E+03  0.73294895586E+03  0.25500000000E-02 0.  1.
    8880022    1    1    2    0    0  0.78392446942E+03  0.31062227297E+03 -0.33174630561E+03  0.91895105121E+03  0.15294330000E+03 0.  0.
    8880022    1    1    2    0    0 -0.78392446942E+03 -0.31062227297E+03  0.15987508600E+04  0.18139514149E+04  0.15294330000E+03 0.  0.
<mgrwt>
<rscale>  0 0.85698041E+03</rscale>
<asrwt>0</asrwt>
<pdfrwt beam="1">  1        2 0.30768515E+00 0.85698041E+03</pdfrwt>
<pdfrwt beam="2">  1       -2 0.11276138E+00 0.85698041E+03</pdfrwt>
<totfact> 0.42117899E+00</totfact>
</mgrwt>
</event>
<event>
 4    1  0.3365401E-008  0.4782683E+03  0.7818608E-02  0.1019612E+00
          2   -1    0    0  501    0  0.00000000000E+00  0.00000000000E+00  0.13407988977E+04  0.13407988977E+04  0.25500000000E-02 0. -1.
         -2   -1    0    0    0  501 -0.00000000000E+00 -0.00000000000E+00 -0.60032379245E+03  0.60032379245E+03  0.25500000000E-02 0.  1.
    8880022    1    1    2    0    0  0.36231643827E+02  0.45170365468E+03  0.11913919164E+04  0.12838049989E+04  0.15294330000E+03 0. -1.
    8880022    1    1    2    0    0 -0.36231643827E+02 -0.45170365468E+03 -0.45091681115E+03  0.65731769127E+03  0.15294330000E+03 0.  0.
<mgrwt>
<rscale>  0 0.47826831E+03</rscale>
<asrwt>0</asrwt>
<pdfrwt beam="1">  1        2 0.20627675E+00 0.47826831E+03</pdfrwt>
<pdfrwt beam="2">  1       -2 0.92357507E-01 0.47826831E+03</pdfrwt>
<totfact> 0.16583842E+01</totfact>
</mgrwt>
</event>
<event>
 4    1  0.3365401E-008  0.2906093E+03  0.7818608E-02  0.1090031E+00
         -2   -1    0    0    0  501 -0.00000000000E+00  0.00000000000E+00  0.16326853903E+03  0.16326853905E+03  0.25500000000E-02 0.  1.
          2   -1    0    0  501    0  0.00000000000E+00 -0.00000000000E+00 -0.75402035218E+03  0.75402035218E+03  0.25500000000E-02 0. -1.
    8880022    1    1    2    0    0 -0.68574736239E+02  0.23740177087E+03 -0.55237457314E+03  0.62415656475E+03  0.15294330000E+03 0.  0.
    8880022    1    1    2    0    0  0.68574736239E+02 -0.23740177087E+03 -0.38377240009E+02  0.29313232648E+03  0.15294330000E+03 0.  0.
<mgrwt>
<rscale>  0 0.29060927E+03</rscale>
<asrwt>0</asrwt>
<pdfrwt beam="1">  1        2 0.11600313E+00 0.29060927E+03</pdfrwt>
<pdfrwt beam="2">  1       -2 0.25118237E-01 0.29060927E+03</pdfrwt>
<totfact> 0.54129844E+02</totfact>
</mgrwt>
</event>
<event>
 4    1  0.3365401E-008  0.8768273E+03  0.7818608E-02  0.9455021E-01
          2   -1    0    0  501    0  0.00000000000E+00  0.00000000000E+00  0.38868120033E+04  0.38868120033E+04  0.25500000000E-02 0. -1.
         -2   -1    0    0    0  501 -0.00000000000E+00 -0.00000000000E+00 -0.23277557913E+03  0.23277557914E+03  0.25500000000E-02 0.  1.
    8880022    1    1    2    0    0  0.14902723089E+03  0.85042652816E+03  0.26254064261E+04  0.27679568188E+04  0.15294330000E+03 0.  0.
    8880022    1    1    2    0    0 -0.14902723089E+03 -0.85042652816E+03  0.10286299981E+04  0.13516307637E+04  0.15294330000E+03 0.  0.
<mgrwt>
<rscale>  0 0.87682726E+03</rscale>
<asrwt>0</asrwt>
<pdfrwt beam="1">  1        2 0.59797107E+00 0.87682726E+03</pdfrwt>
<pdfrwt beam="2">  1       -2 0.35811628E-01 0.87682726E+03</pdfrwt>
<totfact> 0.33115868E+00</totfact>
</mgrwt>
</event>
<event>
 4    1  0.3365401E-008  0.7366883E+03  0.7818608E-02  0.9656469E-01
         -2   -1    0    0    0  501 -0.00000000000E+00  0.00000000000E+00  0.57233246349E+03  0.57233246350E+03  0.25500000000E-02 0.  1.
          2   -1    0    0  501    0  0.00000000000E+00 -0.00000000000E+00 -0.13353336806E+04  0.13353336806E+04  0.25500000000E-02 0. -1.
    8880022    1    1    2    0    0 -0.72023582387E+03  0.24048942666E+02 -0.89505261021E+03  0.11592363097E+04  0.15294330000E+03 0. -1.
    8880022    1    1    2    0    0  0.72023582387E+03 -0.24048942666E+02  0.13205139309E+03  0.74842983443E+03  0.15294330000E+03 0.  0.
<mgrwt>
<rscale>  0 0.73668830E+03</rscale>
<asrwt>0</asrwt>
<pdfrwt beam="1">  1        2 0.20543595E+00 0.73668830E+03</pdfrwt>
<pdfrwt beam="2">  1       -2 0.88051149E-01 0.73668830E+03</pdfrwt>
<totfact> 0.17926206E+01</totfact>
</mgrwt>
</event>
<event>
 4    1  0.3365401E-008  0.4126341E+03  0.7818608E-02  0.1039491E+00
         -2   -1    0    0    0  501 -0.00000000000E+00  0.00000000000E+00  0.15593111645E+04  0.15593111645E+04  0.25500000000E-02 0.  1.
          2   -1    0    0  501    0  0.00000000000E+00 -0.00000000000E+00 -0.46610312030E+03  0.46610312031E+03  0.25500000000E-02 0. -1.
    8880022    1    1    2    0    0  0.38152382166E+03 -0.36260741080E+02 -0.33957586056E+03  0.53439562678E+03  0.15294330000E+03 0.  0.
    8880022    1    1    2    0    0 -0.38152382166E+03  0.36260741080E+02  0.14327839048E+04  0.14910186581E+04  0.15294330000E+03 0.  0.
<mgrwt>
<rscale>  0 0.41263412E+03</rscale>
<asrwt>0</asrwt>
<pdfrwt beam="1">  1        2 0.71708172E-01 0.41263412E+03</pdfrwt>
<pdfrwt beam="2">  1       -2 0.23989403E+00 0.41263412E+03</pdfrwt>
<totfact> 0.53852824E+00</totfact>
</mgrwt>
</event>
<event>
 4    1  0.3365401E-008  0.6124499E+03  0.7818608E-02  0.9879908E-01
          2   -1    0    0  501    0  0.00000000000E+00  0.00000000000E+00  0.16564165353E+04  0.16564165353E+04  0.25500000000E-02 0. -1.
         -2   -1    0    0    0  501 -0.00000000000E+00 -0.00000000000E+00 -0.34850665369E+03  0.34850665370E+03  0.25500000000E-02 0.  1.
    8880022    1    1    2    0    0 -0.11567741206E+03 -0.58165451201E+03  0.60696918938E+02  0.61545024494E+03  0.15294330000E+03 0.  0.
    8880022    1    1    2    0    0  0.11567741206E+03  0.58165451201E+03  0.12472129627E+04  0.13894729441E+04  0.15294330000E+03 0.  0.
<mgrwt>
<rscale>  0 0.61244991E+03</rscale>
<asrwt>0</asrwt>
<pdfrwt beam="1">  1        2 0.25483331E+00 0.61244991E+03</pdfrwt>
<pdfrwt beam="2">  1       -2 0.53616409E-01 0.61244991E+03</pdfrwt>
<totfact> 0.35487609E+01</totfact>
</mgrwt>
</event>
<event>
 4    1  0.3365401E-008  0.8889409E+03  0.7818608E-02  0.9439512E-01
         -2   -1    0    0    0  501 -0.00000000000E+00  0.00000000000E+00  0.54958403622E+03  0.54958403623E+03  0.25500000000E-02 0.  1.
          2   -1    0    0  501    0  0.00000000000E+00 -0.00000000000E+00 -0.17545546701E+04  0.17545546701E+04  0.25500000000E-02 0. -1.
    8880022    1    1    2    0    0 -0.87436988193E+03  0.47975159586E+02 -0.10919560235E+04  0.14080425834E+04  0.15294330000E+03 0.  0.
    8880022    1    1    2    0    0  0.87436988193E+03 -0.47975159586E+02 -0.11301461035E+03  0.89609612293E+03  0.15294330000E+03 0.  0.
<mgrwt>
<rscale>  0 0.88894092E+03</rscale>
<asrwt>0</asrwt>
<pdfrwt beam="1">  1        2 0.26993149E+00 0.88894092E+03</pdfrwt>
<pdfrwt beam="2">  1       -2 0.84551391E-01 0.88894092E+03</pdfrwt>
<totfact> 0.11278763E+01</totfact>
</mgrwt>
</event>
<event>
 4    1  0.3365401E-008  0.2456742E+03  0.7818608E-02  0.1116070E+00
         -2   -1    0    0    0  501 -0.00000000000E+00  0.00000000000E+00  0.19119064498E+03  0.19119064499E+03  0.25500000000E-02 0.  1.
          2   -1    0    0  501    0  0.00000000000E+00 -0.00000000000E+00 -0.34756992940E+04  0.34756992940E+04  0.25500000000E-02 0. -1.
    8880022    1    1    2    0    0  0.43000531222E+02 -0.18739020838E+03  0.10594676902E+03  0.26754533590E+03  0.15294330000E+03 0.  0.
    8880022    1    1    2    0    0 -0.43000531222E+02  0.18739020838E+03 -0.33904554180E+04  0.33993446031E+04  0.15294330000E+03 0. -1.
<mgrwt>
<rscale>  0 0.24567415E+03</rscale>
<asrwt>0</asrwt>
<pdfrwt beam="1">  1        2 0.53472292E+00 0.24567415E+03</pdfrwt>
<pdfrwt beam="2">  1       -2 0.29413948E-01 0.24567415E+03</pdfrwt>
<totfact> 0.11454056E+01</totfact>
</mgrwt>
</event>
<event>
 4    1  0.3365401E-008  0.9922517E+03  0.7818608E-02  0.9317084E-01
          2   -1    0    0  501    0  0.00000000000E+00  0.00000000000E+00  0.12789016574E+04  0.12789016574E+04  0.25500000000E-02 0. -1.
         -2   -1    0    0    0  501 -0.00000000000E+00 -0.00000000000E+00 -0.11098209498E+04  0.11098209498E+04  0.25500000000E-02 0.  1.
    8880022    1    1    2    0    0 -0.96704624194E+03 -0.16122453043E+03  0.74558329483E+03  0.12411518383E+04  0.15294330000E+03 0.  0.
    8880022    1    1    2    0    0  0.96704624194E+03  0.16122453043E+03 -0.57650258723E+03  0.11475707688E+04  0.15294330000E+03 0.  0.
<mgrwt>
<rscale>  0 0.99225170E+03</rscale>
<asrwt>0</asrwt>
<pdfrwt beam="1">  1        2 0.19675410E+00 0.99225170E+03</pdfrwt>
<pdfrwt beam="2">  1       -2 0.17074168E+00 0.99225170E+03</pdfrwt>
<totfact> 0.35538946E+00</totfact>
</mgrwt>
</event>
<event>
 4    1  0.3365401E-008  0.4194719E+03  0.7818608E-02  0.1037238E+00
          2   -1    0    0  501    0  0.00000000000E+00  0.00000000000E+00  0.87846675592E+03  0.87846675592E+03  0.25500000000E-02 0. -1.
         -2   -1    0    0    0  501 -0.00000000000E+00 -0.00000000000E+00 -0.26891499921E+03  0.26891499922E+03  0.25500000000E-02 0.  1.
    8880022    1    1    2    0    0 -0.38485045855E+03  0.66746979593E+02  0.14987679738E+02  0.41973958390E+03  0.15294330000E+03 0.  1.
    8880022    1    1    2    0    0  0.38485045855E+03 -0.66746979593E+02  0.59456407697E+03  0.72764217124E+03  0.15294330000E+03 0.  0.
<mgrwt>
<rscale>  0 0.41947192E+03</rscale>
<asrwt>0</asrwt>
<pdfrwt beam="1">  1        2 0.13514873E+00 0.41947192E+03</pdfrwt>
<pdfrwt beam="2">  1       -2 0.41371538E-01 0.41947192E+03</pdfrwt>
<totfact> 0.17391536E+02</totfact>
</mgrwt>
</event>
<event>
 4    1  0.3365401E-008  0.4084803E+03  0.7818608E-02  0.1040882E+00
         -2   -1    0    0    0  501 -0.00000000000E+00  0.00000000000E+00  0.28591423577E+04  0.28591423577E+04  0.25500000000E-02 0.  1.
          2   -1    0    0  501    0  0.00000000000E+00 -0.00000000000E+00 -0.42632448140E+03  0.42632448141E+03  0.25500000000E-02 0. -1.
    8880022    1    1    2    0    0 -0.12613387811E+03 -0.35714808021E+03 -0.30975295483E+03  0.51264320189E+03  0.15294330000E+03 0.  0.
    8880022    1    1    2    0    0  0.12613387811E+03  0.35714808021E+03  0.27425708311E+04  0.27728236372E+04  0.15294330000E+03 0.  1.
<mgrwt>
<rscale>  0 0.40848030E+03</rscale>
<asrwt>0</asrwt>
<pdfrwt beam="1">  1        2 0.65588384E-01 0.40848030E+03</pdfrwt>
<pdfrwt beam="2">  1       -2 0.43986804E+00 0.40848030E+03</pdfrwt>
<totfact> 0.35043673E-01</totfact>
</mgrwt>
</event>
<event>
 4    1  0.3365401E-008  0.9114833E+03  0.7818608E-02  0.9411340E-01
          2   -1    0    0  501    0  0.00000000000E+00  0.00000000000E+00  0.22824569159E+04  0.22824569159E+04  0.25500000000E-02 0. -1.
         -2   -1    0    0    0  501 -0.00000000000E+00 -0.00000000000E+00 -0.67265554164E+03  0.67265554164E+03  0.25500000000E-02 0.  1.
    8880022    1    1    2    0    0 -0.33296630305E+03 -0.83459183563E+03  0.18057958023E+04  0.20227951512E+04  0.15294330000E+03 0.  0.
    8880022    1    1    2    0    0  0.33296630305E+03  0.83459183563E+03 -0.19599442796E+03  0.93231730643E+03  0.15294330000E+03 0.  0.
<mgrwt>
<rscale>  0 0.91148327E+03</rscale>
<asrwt>0</asrwt>
<pdfrwt beam="1">  1        2 0.35114722E+00 0.91148327E+03</pdfrwt>
<pdfrwt beam="2">  1       -2 0.10348547E+00 0.91148327E+03</pdfrwt>
<totfact> 0.35904424E+00</totfact>
</mgrwt>
</event>
<event>
 4    1  0.3365401E-008  0.3251789E+03  0.7818608E-02  0.1073290E+00
         -2   -1    0    0    0  501 -0.00000000000E+00  0.00000000000E+00  0.62090957904E+03  0.62090957904E+03  0.25500000000E-02 0.  1.
          2   -1    0    0  501    0  0.00000000000E+00 -0.00000000000E+00 -0.94764215617E+03  0.94764215617E+03  0.25500000000E-02 0. -1.
    8880022    1    1    2    0    0  0.23415144913E+03 -0.16589988596E+03  0.54695132658E+03  0.63631523630E+03  0.15294330000E+03 0.  0.
    8880022    1    1    2    0    0 -0.23415144913E+03  0.16589988596E+03 -0.87368390371E+03  0.93223649891E+03  0.15294330000E+03 0. -1.
<mgrwt>
<rscale>  0 0.32517891E+03</rscale>
<asrwt>0</asrwt>
<pdfrwt beam="1">  1        2 0.14579110E+00 0.32517891E+03</pdfrwt>
<pdfrwt beam="2">  1       -2 0.95524551E-01 0.32517891E+03</pdfrwt>
<totfact> 0.27079197E+01</totfact>
</mgrwt>
</event>
<event>
 4    1  0.3365401E-008  0.2356442E+03  0.7818608E-02  0.1122729E+00
          2   -1    0    0  501    0  0.00000000000E+00  0.00000000000E+00  0.76249156727E+03  0.76249156728E+03  0.25500000000E-02 0. -1.
         -2   -1    0    0    0  501 -0.00000000000E+00 -0.00000000000E+00 -0.51550325534E+03  0.51550325534E+03  0.25500000000E-02 0.  1.
    8880022    1    1    2    0    0  0.14488280195E+03 -0.10557232485E+03 -0.46865027679E+03  0.52455817315E+03  0.15294330000E+03 0.  0.
    8880022    1    1    2    0    0 -0.14488280195E+03  0.10557232485E+03  0.71563858872E+03  0.75343664947E+03  0.15294330000E+03 0. -1.
<mgrwt>
<rscale>  0 0.23564421E+03</rscale>
<asrwt>0</asrwt>
<pdfrwt beam="1">  1        2 0.11730639E+00 0.23564421E+03</pdfrwt>
<pdfrwt beam="2">  1       -2 0.79308193E-01 0.23564421E+03</pdfrwt>
<totfact> 0.55970940E+01</totfact>
</mgrwt>
</event>
<event>
 4    1  0.3365401E-008  0.4701832E+03  0.7818608E-02  0.1021869E+00
         -2   -1    0    0    0  501 -0.00000000000E+00  0.00000000000E+00  0.25277871685E+03  0.25277871686E+03  0.25500000000E-02 0.  1.
          2   -1    0    0  501    0  0.00000000000E+00 -0.00000000000E+00 -0.11993646704E+04  0.11993646704E+04  0.25500000000E-02 0. -1.
    8880022    1    1    2    0    0 -0.41877913233E+03  0.14934740109E+03 -0.85113428990E+03  0.97236918933E+03  0.15294330000E+03 0.  0.
    8880022    1    1    2    0    0  0.41877913233E+03 -0.14934740109E+03 -0.95451663638E+02  0.47977419793E+03  0.15294330000E+03 0.  0.
<mgrwt>
<rscale>  0 0.47018322E+03</rscale>
<asrwt>0</asrwt>
<pdfrwt beam="1">  1        2 0.18451764E+00 0.47018322E+03</pdfrwt>
<pdfrwt beam="2">  1       -2 0.38889034E-01 0.47018322E+03</pdfrwt>
<totfact> 0.12339964E+02</totfact>
</mgrwt>
</event>
<event>
 4    1  0.3365401E-008  0.7987777E+03  0.7818608E-02  0.9561788E-01
         -2   -1    0    0    0  501 -0.00000000000E+00  0.00000000000E+00  0.52627696740E+03  0.52627696740E+03  0.25500000000E-02 0.  1.
          2   -1    0    0  501    0  0.00000000000E+00 -0.00000000000E+00 -0.14974360530E+04  0.14974360530E+04  0.25500000000E-02 0. -1.
    8880022    1    1    2    0    0  0.76701179090E+03 -0.16231792683E+03 -0.92706108985E+03  0.12237189686E+04  0.15294330000E+03 0.  0.
    8880022    1    1    2    0    0 -0.76701179090E+03  0.16231792683E+03 -0.44097995791E+02  0.79999405185E+03  0.15294330000E+03 0.  0.
<mgrwt>
<rscale>  0 0.79877772E+03</rscale>
<asrwt>0</asrwt>
<pdfrwt beam="1">  1        2 0.23037478E+00 0.79877772E+03</pdfrwt>
<pdfrwt beam="2">  1       -2 0.80965688E-01 0.79877772E+03</pdfrwt>
<totfact> 0.17445281E+01</totfact>
</mgrwt>
</event>
<event>
 4    1  0.3365401E-008  0.3892345E+03  0.7818608E-02  0.1047572E+00
         -2   -1    0    0    0  501 -0.00000000000E+00  0.00000000000E+00  0.29925892017E+03  0.29925892019E+03  0.25500000000E-02 0.  1.
          2   -1    0    0  501    0  0.00000000000E+00 -0.00000000000E+00 -0.12830085310E+04  0.12830085310E+04  0.25500000000E-02 0. -1.
    8880022    1    1    2    0    0  0.19027367072E+03 -0.30316290007E+03 -0.11074409747E+04  0.11738521965E+04  0.15294330000E+03 0.  0.
    8880022    1    1    2    0    0 -0.19027367072E+03  0.30316290007E+03  0.12369136388E+03  0.40841525469E+03  0.15294330000E+03 0.  1.
<mgrwt>
<rscale>  0 0.38923446E+03</rscale>
<asrwt>0</asrwt>
<pdfrwt beam="1">  1        2 0.19738592E+00 0.38923446E+03</pdfrwt>
<pdfrwt beam="2">  1       -2 0.46039835E-01 0.38923446E+03</pdfrwt>
<totfact> 0.80386124E+01</totfact>
</mgrwt>
</event>
<event>
 4    1  0.3365401E-008  0.1050117E+04  0.7818608E-02  0.9255223E-01
          2   -1    0    0  501    0  0.00000000000E+00  0.00000000000E+00  0.19997999767E+04  0.19997999767E+04  0.25500000000E-02 0. -1.
         -2   -1    0    0    0  501 -0.00000000000E+00 -0.00000000000E+00 -0.79206988710E+03  0.79206988711E+03  0.25500000000E-02 0.  1.
    8880022    1    1    2    0    0 -0.39490034081E+03 -0.96094122547E+03  0.13732946890E+04  0.17287811527E+04  0.15294330000E+03 0.  0.
    8880022    1    1    2    0    0  0.39490034081E+03  0.96094122547E+03 -0.16556459948E+03  0.10630887111E+04  0.15294330000E+03 0.  0.
<mgrwt>
<rscale>  0 0.10501171E+04</rscale>
<asrwt>0</asrwt>
<pdfrwt beam="1">  1        2 0.30766153E+00 0.10501171E+04</pdfrwt>
<pdfrwt beam="2">  1       -2 0.12185691E+00 0.10501171E+04</pdfrwt>
<totfact> 0.33903746E+00</totfact>
</mgrwt>
</event>
<event>
 4    1  0.3365401E-008  0.5585653E+03  0.7818608E-02  0.9995306E-01
         -2   -1    0    0    0  501 -0.00000000000E+00  0.00000000000E+00  0.82985129601E+03  0.82985129601E+03  0.25500000000E-02 0.  1.
          2   -1    0    0  501    0  0.00000000000E+00 -0.00000000000E+00 -0.75646526208E+03  0.75646526209E+03  0.25500000000E-02 0. -1.
    8880022    1    1    2    0    0 -0.41837678687E+03  0.33699315974E+03 -0.52583318159E+03  0.76713474265E+03  0.15294330000E+03 0.  0.
    8880022    1    1    2    0    0  0.41837678687E+03 -0.33699315974E+03  0.59921921552E+03  0.81918181545E+03  0.15294330000E+03 0.  0.
<mgrwt>
<rscale>  0 0.55856529E+03</rscale>
<asrwt>0</asrwt>
<pdfrwt beam="1">  1        2 0.11637927E+00 0.55856529E+03</pdfrwt>
<pdfrwt beam="2">  1       -2 0.12766943E+00 0.55856529E+03</pdfrwt>
<totfact> 0.17484075E+01</totfact>
</mgrwt>
</event>
<event>
 4    1  0.3365401E-008  0.6381272E+03  0.7818608E-02  0.9829316E-01
         -2   -1    0    0    0  501 -0.00000000000E+00  0.00000000000E+00  0.67544559734E+03  0.67544559734E+03  0.25500000000E-02 0.  1.
          2   -1    0    0  501    0  0.00000000000E+00 -0.00000000000E+00 -0.96997155068E+03  0.96997155069E+03  0.25500000000E-02 0. -1.
    8880022    1    1    2    0    0  0.55883351669E+03 -0.26743187086E+03 -0.65338964631E+03  0.91330410480E+03  0.15294330000E+03 0.  0.
    8880022    1    1    2    0    0 -0.55883351669E+03  0.26743187086E+03  0.35886369296E+03  0.73211304323E+03  0.15294330000E+03 0.  0.
<mgrwt>
<rscale>  0 0.63812723E+03</rscale>
<asrwt>0</asrwt>
<pdfrwt beam="1">  1        2 0.14922639E+00 0.63812723E+03</pdfrwt>
<pdfrwt beam="2">  1       -2 0.10391471E+00 0.63812723E+03</pdfrwt>
<totfact> 0.20429315E+01</totfact>
</mgrwt>
</event>
<event>
 4    1  0.3365401E-008  0.5728485E+03  0.7818608E-02  0.9963395E-01
          2   -1    0    0  501    0  0.00000000000E+00  0.00000000000E+00  0.30139228149E+03  0.30139228150E+03  0.25500000000E-02 0. -1.
         -2   -1    0    0    0  501 -0.00000000000E+00 -0.00000000000E+00 -0.13704432628E+04  0.13704432628E+04  0.25500000000E-02 0.  1.
    8880022    1    1    2    0    0 -0.54746198425E+03  0.71056871967E+02 -0.91347743887E+03  0.10782376304E+04  0.15294330000E+03 0.  0.
    8880022    1    1    2    0    0  0.54746198425E+03 -0.71056871967E+02 -0.15557354242E+03  0.59359791389E+03  0.15294330000E+03 0.  0.
<mgrwt>
<rscale>  0 0.57284846E+03</rscale>
<asrwt>0</asrwt>
<pdfrwt beam="1">  1        2 0.46368044E-01 0.57284846E+03</pdfrwt>
<pdfrwt beam="2">  1       -2 0.21083742E+00 0.57284846E+03</pdfrwt>
<totfact> 0.12836369E+01</totfact>
</mgrwt>
</event>
<event>
 4    1  0.3365401E-008  0.2112991E+03  0.7818608E-02  0.1140541E+00
          2   -1    0    0  501    0  0.00000000000E+00  0.00000000000E+00  0.84713412531E+03  0.84713412532E+03  0.25500000000E-02 0. -1.
         -2   -1    0    0    0  501 -0.00000000000E+00 -0.00000000000E+00 -0.90549420675E+02  0.90549420711E+02  0.25500000000E-02 0.  1.
    8880022    1    1    2    0    0 -0.22868716428E+02 -0.14398842877E+03  0.75189150667E+02  0.22427819155E+03  0.15294330000E+03 0.  0.
    8880022    1    1    2    0    0  0.22868716428E+02  0.14398842877E+03  0.68139555397E+03  0.71340535448E+03  0.15294330000E+03 0.  0.
<mgrwt>
<rscale>  0 0.21129907E+03</rscale>
<asrwt>0</asrwt>
<pdfrwt beam="1">  1        2 0.13032832E+00 0.21129907E+03</pdfrwt>
<pdfrwt beam="2">  1       -2 0.13930681E-01 0.21129907E+03</pdfrwt>
<totfact> 0.12753000E+03</totfact>
</mgrwt>
</event>
<event>
 4    1  0.3365401E-008  0.5075493E+03  0.7818608E-02  0.1011827E+00
          2   -1    0    0  501    0  0.00000000000E+00  0.00000000000E+00  0.34673255334E+03  0.34673255335E+03  0.25500000000E-02 0. -1.
         -2   -1    0    0    0  501 -0.00000000000E+00 -0.00000000000E+00 -0.97873760940E+03  0.97873760940E+03  0.25500000000E-02 0.  1.
    8880022    1    1    2    0    0 -0.11268000737E+03 -0.47065681540E+03  0.92822896521E+01  0.50763415553E+03  0.15294330000E+03 0.  0.
    8880022    1    1    2    0    0  0.11268000737E+03  0.47065681540E+03 -0.64128734571E+03  0.81783600723E+03  0.15294330000E+03 0.  0.
<mgrwt>
<rscale>  0 0.50754928E+03</rscale>
<asrwt>0</asrwt>
<pdfrwt beam="1">  1        2 0.53343470E-01 0.50754928E+03</pdfrwt>
<pdfrwt beam="2">  1       -2 0.15057502E+00 0.50754928E+03</pdfrwt>
<totfact> 0.28648210E+01</totfact>
</mgrwt>
</event>
<event>
 4    1  0.3365401E-008  0.2954536E+03  0.7818608E-02  0.1087536E+00
         -2   -1    0    0    0  501 -0.00000000000E+00  0.00000000000E+00  0.23520890040E+03  0.23520890041E+03  0.25500000000E-02 0.  1.
          2   -1    0    0  501    0  0.00000000000E+00 -0.00000000000E+00 -0.75031802820E+03  0.75031802821E+03  0.25500000000E-02 0. -1.
    8880022    1    1    2    0    0  0.18469694702E+03 -0.17259258880E+03  0.92748355049E+02  0.30966929833E+03  0.15294330000E+03 0.  0.
    8880022    1    1    2    0    0 -0.18469694702E+03  0.17259258880E+03 -0.60785748285E+03  0.67585763029E+03  0.15294330000E+03 0. -1.
<mgrwt>
<rscale>  0 0.29545358E+03</rscale>
<asrwt>0</asrwt>
<pdfrwt beam="1">  1        2 0.11543354E+00 0.29545358E+03</pdfrwt>
<pdfrwt beam="2">  1       -2 0.36185985E-01 0.29545358E+03</pdfrwt>
<totfact> 0.27929000E+02</totfact>
</mgrwt>
</event>
<event>
 4    1  0.3365401E-008  0.2273050E+03  0.7818608E-02  0.1128551E+00
          2   -1    0    0  501    0  0.00000000000E+00  0.00000000000E+00  0.10927346191E+04  0.10927346191E+04  0.25500000000E-02 0. -1.
         -2   -1    0    0    0  501 -0.00000000000E+00 -0.00000000000E+00 -0.17929375068E+03  0.17929375070E+03  0.25500000000E-02 0.  1.
    8880022    1    1    2    0    0 -0.20390894104E+02 -0.16691352282E+03 -0.89023836286E+02  0.24411638434E+03  0.15294330000E+03 0.  0.
    8880022    1    1    2    0    0  0.20390894104E+02  0.16691352282E+03  0.10024647047E+04  0.10279119855E+04  0.15294330000E+03 0. -1.
<mgrwt>
<rscale>  0 0.22730501E+03</rscale>
<asrwt>0</asrwt>
<pdfrwt beam="1">  1        2 0.16811302E+00 0.22730501E+03</pdfrwt>
<pdfrwt beam="2">  1       -2 0.27583654E-01 0.22730501E+03</pdfrwt>
<totfact> 0.27903251E+02</totfact>
</mgrwt>
</event>
<event>
 4    1  0.3365401E-008  0.1722717E+03  0.7818608E-02  0.1175499E+00
          2   -1    0    0  501    0  0.00000000000E+00  0.00000000000E+00  0.45894104295E+03  0.45894104296E+03  0.25500000000E-02 0. -1.
         -2   -1    0    0    0  501 -0.00000000000E+00 -0.00000000000E+00 -0.13535028153E+03  0.13535028155E+03  0.25500000000E-02 0.  1.
    8880022    1    1    2    0    0  0.26730950558E+02  0.74641443975E+02  0.37653071381E+03  0.41406873866E+03  0.15294330000E+03 0. -1.
    8880022    1    1    2    0    0 -0.26730950558E+02 -0.74641443975E+02 -0.52939952388E+02  0.18022258585E+03  0.15294330000E+03 0.  0.
<mgrwt>
<rscale>  0 0.17227171E+03</rscale>
<asrwt>0</asrwt>
<pdfrwt beam="1">  1        2 0.70606315E-01 0.17227171E+03</pdfrwt>
<pdfrwt beam="2">  1       -2 0.20823120E-01 0.17227171E+03</pdfrwt>
<totfact> 0.13349354E+03</totfact>
</mgrwt>
</event>
<event>
 4    1  0.3365401E-008  0.2620179E+03  0.7818608E-02  0.1105937E+00
         -2   -1    0    0    0  501 -0.00000000000E+00  0.00000000000E+00  0.11490590945E+03  0.11490590948E+03  0.25500000000E-02 0.  1.
          2   -1    0    0  501    0  0.00000000000E+00 -0.00000000000E+00 -0.16009644861E+04  0.16009644862E+04  0.25500000000E-02 0. -1.
    8880022    1    1    2    0    0  0.96313253281E+02  0.18969837016E+03 -0.63794178233E+02  0.26967214278E+03  0.15294330000E+03 0.  0.
    8880022    1    1    2    0    0 -0.96313253281E+02 -0.18969837016E+03 -0.14222643985E+04  0.14461982529E+04  0.15294330000E+03 0.  0.
<mgrwt>
<rscale>  0 0.26201788E+03</rscale>
<asrwt>0</asrwt>
<pdfrwt beam="1">  1        2 0.24630221E+00 0.26201788E+03</pdfrwt>
<pdfrwt beam="2">  1       -2 0.17677833E-01 0.26201788E+03</pdfrwt>
<totfact> 0.31534224E+02</totfact>
</mgrwt>
</event>
<event>
 4    1  0.3365401E-008  0.5715526E+03  0.7818608E-02  0.9966249E-01
         -2   -1    0    0    0  501 -0.00000000000E+00  0.00000000000E+00  0.40850525516E+03  0.40850525517E+03  0.25500000000E-02 0.  1.
          2   -1    0    0  501    0  0.00000000000E+00 -0.00000000000E+00 -0.21302592215E+04  0.21302592215E+04  0.25500000000E-02 0. -1.
    8880022    1    1    2    0    0  0.34075180264E+03  0.43263024777E+03 -0.18640988763E+04  0.19497530603E+04  0.15294330000E+03 0.  0.
    8880022    1    1    2    0    0 -0.34075180264E+03 -0.43263024777E+03  0.14234490995E+03  0.58901141644E+03  0.15294330000E+03 0.  0.
<mgrwt>
<rscale>  0 0.57155260E+03</rscale>
<asrwt>0</asrwt>
<pdfrwt beam="1">  1        2 0.32773218E+00 0.57155260E+03</pdfrwt>
<pdfrwt beam="2">  1       -2 0.62846963E-01 0.57155260E+03</pdfrwt>
<totfact> 0.14194558E+01</totfact>
</mgrwt>
</event>
<event>
 4    1  0.3365401E-008  0.5243324E+03  0.7818608E-02  0.1007616E+00
         -2   -1    0    0    0  501 -0.00000000000E+00  0.00000000000E+00  0.18326516588E+04  0.18326516588E+04  0.25500000000E-02 0.  1.
          2   -1    0    0  501    0  0.00000000000E+00 -0.00000000000E+00 -0.43401908813E+03  0.43401908813E+03  0.25500000000E-02 0. -1.
    8880022    1    1    2    0    0 -0.47765248085E+03 -0.15290815660E+03 -0.21746693074E+03  0.56764100962E+03  0.15294330000E+03 0.  0.
    8880022    1    1    2    0    0  0.47765248085E+03  0.15290815660E+03  0.16160995014E+04  0.16990297373E+04  0.15294330000E+03 0.  0.
<mgrwt>
<rscale>  0 0.52433238E+03</rscale>
<asrwt>0</asrwt>
<pdfrwt beam="1">  1        2 0.66772168E-01 0.52433238E+03</pdfrwt>
<pdfrwt beam="2">  1       -2 0.28194641E+00 0.52433238E+03</pdfrwt>
<totfact> 0.31990840E+00</totfact>
</mgrwt>
</event>
<event>
 4    1  0.3365401E-008  0.4236594E+03  0.7818608E-02  0.1035882E+00
         -2   -1    0    0    0  501 -0.00000000000E+00  0.00000000000E+00  0.17720272230E+03  0.17720272232E+03  0.25500000000E-02 0.  1.
          2   -1    0    0  501    0  0.00000000000E+00 -0.00000000000E+00 -0.10660820985E+04  0.10660820985E+04  0.25500000000E-02 0. -1.
    8880022    1    1    2    0    0  0.28673474875E+03 -0.27180651219E+03 -0.30558516535E+03  0.52236916305E+03  0.15294330000E+03 0.  0.
    8880022    1    1    2    0    0 -0.28673474875E+03  0.27180651219E+03 -0.58329421083E+03  0.72091565776E+03  0.15294330000E+03 0.  0.
<mgrwt>
<rscale>  0 0.42365936E+03</rscale>
<asrwt>0</asrwt>
<pdfrwt beam="1">  1        2 0.16401263E+00 0.42365936E+03</pdfrwt>
<pdfrwt beam="2">  1       -2 0.27261958E-01 0.42365936E+03</pdfrwt>
<totfact> 0.28876353E+02</totfact>
</mgrwt>
</event>
<event>
 4    1  0.3365401E-008  0.3126391E+03  0.7818608E-02  0.1079088E+00
          2   -1    0    0  501    0  0.00000000000E+00  0.00000000000E+00  0.17545756022E+04  0.17545756022E+04  0.25500000000E-02 0. -1.
         -2   -1    0    0    0  501 -0.00000000000E+00 -0.00000000000E+00 -0.80533887561E+03  0.80533887561E+03  0.25500000000E-02 0.  1.
    8880022    1    1    2    0    0 -0.22307990182E+03 -0.15680221078E+03 -0.76027646612E+03  0.82204837683E+03  0.15294330000E+03 0.  0.
    8880022    1    1    2    0    0  0.22307990182E+03  0.15680221078E+03  0.17095131927E+04  0.17378661010E+04  0.15294330000E+03 0.  0.
<mgrwt>
<rscale>  0 0.31263914E+03</rscale>
<asrwt>0</asrwt>
<pdfrwt beam="1">  1        2 0.26993470E+00 0.31263914E+03</pdfrwt>
<pdfrwt beam="2">  1       -2 0.12389829E+00 0.31263914E+03</pdfrwt>
<totfact> 0.51429946E+00</totfact>
</mgrwt>
</event>
<event>
 4    1  0.3365401E-008  0.7544706E+03  0.7818608E-02  0.9628363E-01
          2   -1    0    0  501    0  0.00000000000E+00  0.00000000000E+00  0.21364548731E+04  0.21364548731E+04  0.25500000000E-02 0. -1.
         -2   -1    0    0    0  501 -0.00000000000E+00 -0.00000000000E+00 -0.33127884872E+03  0.33127884873E+03  0.25500000000E-02 0.  1.
    8880022    1    1    2    0    0 -0.34350322720E+03 -0.65409466076E+03  0.35669632776E+03  0.83454072135E+03  0.15294330000E+03 0.  0.
    8880022    1    1    2    0    0  0.34350322720E+03  0.65409466076E+03  0.14484796966E+04  0.16331930005E+04  0.15294330000E+03 0.  0.
<mgrwt>
<rscale>  0 0.75447064E+03</rscale>
<asrwt>0</asrwt>
<pdfrwt beam="1">  1        2 0.32868536E+00 0.75447064E+03</pdfrwt>
<pdfrwt beam="2">  1       -2 0.50965978E-01 0.75447064E+03</pdfrwt>
<totfact> 0.21139047E+01</totfact>
</mgrwt>
</event>
<event>
 4    1  0.3365401E-008  0.4518995E+03  0.7818608E-02  0.1027157E+00
          2   -1    0    0  501    0  0.00000000000E+00  0.00000000000E+00  0.25337901006E+04  0.25337901006E+04  0.25500000000E-02 0. -1.
         -2   -1    0    0    0  501 -0.00000000000E+00 -0.00000000000E+00 -0.13766590699E+03  0.13766590701E+03  0.25500000000E-02 0.  1.
    8880022    1    1    2    0    0 -0.33913527769E+03  0.25653221134E+03  0.20580823652E+04  0.21071108625E+04  0.15294330000E+03 0.  0.
    8880022    1    1    2    0    0  0.33913527769E+03 -0.25653221134E+03  0.33804182846E+03  0.56434514513E+03  0.15294330000E+03 0.  0.
<mgrwt>
<rscale>  0 0.45189951E+03</rscale>
<asrwt>0</asrwt>
<pdfrwt beam="1">  1        2 0.38981384E+00 0.45189951E+03</pdfrwt>
<pdfrwt beam="2">  1       -2 0.21179372E-01 0.45189951E+03</pdfrwt>
<totfact> 0.70116086E+01</totfact>
</mgrwt>
</event>
<event>
 4    1  0.3365401E-008  0.2519701E+03  0.7818608E-02  0.1112066E+00
          2   -1    0    0  501    0  0.00000000000E+00  0.00000000000E+00  0.16145532480E+04  0.16145532480E+04  0.25500000000E-02 0. -1.
         -2   -1    0    0    0  501 -0.00000000000E+00 -0.00000000000E+00 -0.14947039647E+03  0.14947039649E+03  0.25500000000E-02 0.  1.
    8880022    1    1    2    0    0  0.19204576475E+03  0.56707043458E+02 -0.24612409217E+02  0.25316928770E+03  0.15294330000E+03 0.  0.
    8880022    1    1    2    0    0 -0.19204576475E+03 -0.56707043458E+02  0.14896952608E+04  0.15108543568E+04  0.15294330000E+03 0.  0.
<mgrwt>
<rscale>  0 0.25197007E+03</rscale>
<asrwt>0</asrwt>
<pdfrwt beam="1">  1        2 0.24839281E+00 0.25197007E+03</pdfrwt>
<pdfrwt beam="2">  1       -2 0.22995445E-01 0.25197007E+03</pdfrwt>
<totfact> 0.19783264E+02</totfact>
</mgrwt>
</event>
<event>
 4    1  0.3365401E-008  0.1067617E+04  0.7818608E-02  0.9237342E-01
         -2   -1    0    0    0  501 -0.00000000000E+00  0.00000000000E+00  0.12788870903E+04  0.12788870903E+04  0.25500000000E-02 0.  1.
          2   -1    0    0  501    0  0.00000000000E+00 -0.00000000000E+00 -0.10377098925E+04  0.10377098925E+04  0.25500000000E-02 0. -1.
    8880022    1    1    2    0    0 -0.81019148995E+03 -0.67823566697E+03  0.55574449989E+03  0.12036018746E+04  0.15294330000E+03 0.  0.
    8880022    1    1    2    0    0  0.81019148995E+03  0.67823566697E+03 -0.31456730208E+03  0.11129951082E+04  0.15294330000E+03 0.  0.
<mgrwt>
<rscale>  0 0.10676167E+04</rscale>
<asrwt>0</asrwt>
<pdfrwt beam="1">  1        2 0.15964768E+00 0.10676167E+04</pdfrwt>
<pdfrwt beam="2">  1       -2 0.19675186E+00 0.10676167E+04</pdfrwt>
<totfact> 0.32792265E+00</totfact>
</mgrwt>
</event>
<event>
 4    1  0.3365401E-008  0.7373262E+03  0.7818608E-02  0.9655446E-01
         -2   -1    0    0    0  501 -0.00000000000E+00  0.00000000000E+00  0.32437788311E+03  0.32437788312E+03  0.25500000000E-02 0.  1.
          2   -1    0    0  501    0  0.00000000000E+00 -0.00000000000E+00 -0.25692012253E+04  0.25692012253E+04  0.25500000000E-02 0. -1.
    8880022    1    1    2    0    0 -0.71412559358E+03  0.10140473080E+03 -0.26933807021E+03  0.78497957420E+03  0.15294330000E+03 0.  0.
    8880022    1    1    2    0    0  0.71412559358E+03 -0.10140473080E+03 -0.19754852720E+04  0.21085995342E+04  0.15294330000E+03 0. -1.
<mgrwt>
<rscale>  0 0.73732621E+03</rscale>
<asrwt>0</asrwt>
<pdfrwt beam="1">  1        2 0.39526171E+00 0.73732621E+03</pdfrwt>
<pdfrwt beam="2">  1       -2 0.49904291E-01 0.73732621E+03</pdfrwt>
<totfact> 0.12677331E+01</totfact>
</mgrwt>
</event>
<event>
 4    1  0.3365401E-008  0.2217147E+03  0.7818608E-02  0.1132611E+00
         -2   -1    0    0    0  501 -0.00000000000E+00  0.00000000000E+00  0.12932182313E+03  0.12932182315E+03  0.25500000000E-02 0.  1.
          2   -1    0    0  501    0  0.00000000000E+00 -0.00000000000E+00 -0.74200467824E+03  0.74200467824E+03  0.25500000000E-02 0. -1.
    8880022    1    1    2    0    0 -0.18060988929E+02  0.15949784073E+03 -0.61059420399E+03  0.64960195156E+03  0.15294330000E+03 0.  0.
    8880022    1    1    2    0    0  0.18060988929E+02 -0.15949784073E+03 -0.20886511232E+01  0.22172454983E+03  0.15294330000E+03 0.  0.
<mgrwt>
<rscale>  0 0.22171471E+03</rscale>
<asrwt>0</asrwt>
<pdfrwt beam="1">  1        2 0.11415456E+00 0.22171471E+03</pdfrwt>
<pdfrwt beam="2">  1       -2 0.19895666E-01 0.22171471E+03</pdfrwt>
<totfact> 0.83099754E+02</totfact>
</mgrwt>
</event>
<event>
 4    1  0.3365401E-008  0.2199413E+03  0.7818608E-02  0.1133927E+00
          2   -1    0    0  501    0  0.00000000000E+00  0.00000000000E+00  0.17803977489E+04  0.17803977489E+04  0.25500000000E-02 0. -1.
         -2   -1    0    0    0  501 -0.00000000000E+00 -0.00000000000E+00 -0.26647132158E+03  0.26647132159E+03  0.25500000000E-02 0.  1.
    8880022    1    1    2    0    0  0.13877393507E+03  0.75659262168E+02 -0.21289217568E+03  0.30610008247E+03  0.15294330000E+03 0.  1.
    8880022    1    1    2    0    0 -0.13877393507E+03 -0.75659262168E+02  0.17268186030E+04  0.17407689880E+04  0.15294330000E+03 0.  0.
<mgrwt>
<rscale>  0 0.21994131E+03</rscale>
<asrwt>0</asrwt>
<pdfrwt beam="1">  1        2 0.27390734E+00 0.21994131E+03</pdfrwt>
<pdfrwt beam="2">  1       -2 0.40995588E-01 0.21994131E+03</pdfrwt>
<totfact> 0.56828407E+01</totfact>
</mgrwt>
</event>
<event>
 4    1  0.3365401E-008  0.1800103E+03  0.7818608E-02  0.1167793E+00
         -2   -1    0    0    0  501 -0.00000000000E+00  0.00000000000E+00  0.45341521137E+02  0.45341521209E+02  0.25500000000E-02 0.  1.
          2   -1    0    0  501    0  0.00000000000E+00 -0.00000000000E+00 -0.87538307794E+03  0.87538307794E+03  0.25500000000E-02 0. -1.
    8880022    1    1    2    0    0 -0.30658953490E+02 -0.89844722279E+02 -0.21775944173E+03  0.28252941975E+03  0.15294330000E+03 0.  0.
    8880022    1    1    2    0    0  0.30658953490E+02  0.89844722279E+02 -0.61228211507E+03  0.63819517940E+03  0.15294330000E+03 0.  1.
<mgrwt>
<rscale>  0 0.18001027E+03</rscale>
<asrwt>0</asrwt>
<pdfrwt beam="1">  1        2 0.13467431E+00 0.18001027E+03</pdfrwt>
<pdfrwt beam="2">  1       -2 0.69756193E-02 0.18001027E+03</pdfrwt>
<totfact> 0.36483807E+03</totfact>
</mgrwt>
</event>
<event>
 4    1  0.3365401E-008  0.7346122E+03  0.7818608E-02  0.9659805E-01
         -2   -1    0    0    0  501 -0.00000000000E+00  0.00000000000E+00  0.14565153875E+04  0.14565153875E+04  0.25500000000E-02 0.  1.
          2   -1    0    0  501    0  0.00000000000E+00 -0.00000000000E+00 -0.73072658717E+03  0.73072658717E+03  0.25500000000E-02 0. -1.
    8880022    1    1    2    0    0 -0.55996846862E+03 -0.45022076920E+03 -0.40494534396E+03  0.83883002538E+03  0.15294330000E+03 0.  0.
    8880022    1    1    2    0    0  0.55996846862E+03  0.45022076920E+03  0.11307341443E+04  0.13484119492E+04  0.15294330000E+03 0.  0.
<mgrwt>
<rscale>  0 0.73461220E+03</rscale>
<asrwt>0</asrwt>
<pdfrwt beam="1">  1        2 0.11241947E+00 0.73461220E+03</pdfrwt>
<pdfrwt beam="2">  1       -2 0.22407929E+00 0.73461220E+03</pdfrwt>
<totfact> 0.37125799E+00</totfact>
</mgrwt>
</event>
<event>
 4    1  0.3365401E-008  0.8962845E+03  0.7818608E-02  0.9430238E-01
          2   -1    0    0  501    0  0.00000000000E+00  0.00000000000E+00  0.19712842310E+04  0.19712842310E+04  0.25500000000E-02 0. -1.
         -2   -1    0    0    0  501 -0.00000000000E+00 -0.00000000000E+00 -0.51083870884E+03  0.51083870884E+03  0.25500000000E-02 0.  1.
    8880022    1    1    2    0    0 -0.29638187545E+03 -0.83192071316E+03  0.17206949910E+03  0.91265209944E+03  0.15294330000E+03 0.  0.
    8880022    1    1    2    0    0  0.29638187545E+03  0.83192071316E+03  0.12883760231E+04  0.15694708404E+04  0.15294330000E+03 0.  0.
<mgrwt>
<rscale>  0 0.89628452E+03</rscale>
<asrwt>0</asrwt>
<pdfrwt beam="1">  1        2 0.30327450E+00 0.89628452E+03</pdfrwt>
<pdfrwt beam="2">  1       -2 0.78590571E-01 0.89628452E+03</pdfrwt>
<totfact> 0.10113321E+01</totfact>
</mgrwt>
</event>
<event>
 4    1  0.3365401E-008  0.4130483E+03  0.7818608E-02  0.1039353E+00
          2   -1    0    0  501    0  0.00000000000E+00  0.00000000000E+00  0.27862613659E+04  0.27862613659E+04  0.25500000000E-02 0. -1.
         -2   -1    0    0    0  501 -0.00000000000E+00 -0.00000000000E+00 -0.90202841433E+02  0.90202841469E+02  0.25500000000E-02 0.  1.
    8880022    1    1    2    0    0 -0.27576915653E+03  0.26677448657E+03  0.53295357133E+03  0.67427621683E+03  0.15294330000E+03 0.  0.
    8880022    1    1    2    0    0  0.27576915653E+03 -0.26677448657E+03  0.21631049532E+04  0.22021879906E+04  0.15294330000E+03 0.  0.
<mgrwt>
<rscale>  0 0.41304831E+03</rscale>
<asrwt>0</asrwt>
<pdfrwt beam="1">  1        2 0.42865563E+00 0.41304831E+03</pdfrwt>
<pdfrwt beam="2">  1       -2 0.13877359E-01 0.41304831E+03</pdfrwt>
<totfact> 0.10427693E+02</totfact>
</mgrwt>
</event>
<event>
 4    1  0.3365401E-008  0.2729849E+03  0.7818608E-02  0.1099583E+00
         -2   -1    0    0    0  501 -0.00000000000E+00  0.00000000000E+00  0.30699406309E+03  0.30699406310E+03  0.25500000000E-02 0.  1.
          2   -1    0    0  501    0  0.00000000000E+00 -0.00000000000E+00 -0.89993720465E+03  0.89993720465E+03  0.25500000000E-02 0. -1.
    8880022    1    1    2    0    0  0.18317911900E+03  0.13256885264E+03 -0.81216691716E+03  0.85681727613E+03  0.15294330000E+03 0.  0.
    8880022    1    1    2    0    0 -0.18317911900E+03 -0.13256885264E+03  0.21922377559E+03  0.35011399162E+03  0.15294330000E+03 0.  0.
<mgrwt>
<rscale>  0 0.27298488E+03</rscale>
<asrwt>0</asrwt>
<pdfrwt beam="1">  1        2 0.13845188E+00 0.27298488E+03</pdfrwt>
<pdfrwt beam="2">  1       -2 0.47229856E-01 0.27298488E+03</pdfrwt>
<totfact> 0.13229123E+02</totfact>
</mgrwt>
</event>
<event>
 4    1  0.3365401E-008  0.3891925E+03  0.7818608E-02  0.1047588E+00
         -2   -1    0    0    0  501 -0.00000000000E+00  0.00000000000E+00  0.20877500534E+03  0.20877500536E+03  0.25500000000E-02 0.  1.
          2   -1    0    0  501    0  0.00000000000E+00 -0.00000000000E+00 -0.15776794155E+04  0.15776794155E+04  0.25500000000E-02 0. -1.
    8880022    1    1    2    0    0  0.29854023720E+03 -0.19736482279E+03 -0.13409186797E+04  0.13962570341E+04  0.15294330000E+03 0.  0.
    8880022    1    1    2    0    0 -0.29854023720E+03  0.19736482279E+03 -0.27985730385E+02  0.39019738675E+03  0.15294330000E+03 0.  0.
<mgrwt>
<rscale>  0 0.38919250E+03</rscale>
<asrwt>0</asrwt>
<pdfrwt beam="1">  1        2 0.24271990E+00 0.38919250E+03</pdfrwt>
<pdfrwt beam="2">  1       -2 0.32119233E-01 0.38919250E+03</pdfrwt>
<totfact> 0.11034163E+02</totfact>
</mgrwt>
</event>
<event>
 4    1  0.3365401E-008  0.6155603E+03  0.7818608E-02  0.9873639E-01
         -2   -1    0    0    0  501 -0.00000000000E+00  0.00000000000E+00  0.24865437798E+03  0.24865437799E+03  0.25500000000E-02 0.  1.
          2   -1    0    0  501    0  0.00000000000E+00 -0.00000000000E+00 -0.24605093510E+04  0.24605093510E+04  0.25500000000E-02 0. -1.
    8880022    1    1    2    0    0 -0.30198393249E+03 -0.51412884953E+03 -0.19416869457E+04  0.20369247942E+04  0.15294330000E+03 0.  0.
    8880022    1    1    2    0    0  0.30198393249E+03  0.51412884953E+03 -0.27016802739E+03  0.67223893478E+03  0.15294330000E+03 0.  0.
<mgrwt>
<rscale>  0 0.61556025E+03</rscale>
<asrwt>0</asrwt>
<pdfrwt beam="1">  1        2 0.37853988E+00 0.61556025E+03</pdfrwt>
<pdfrwt beam="2">  1       -2 0.38254521E-01 0.61556025E+03</pdfrwt>
<totfact> 0.25256041E+01</totfact>
</mgrwt>
</event>
<event>
 4    1  0.3365401E-008  0.9697351E+03  0.7818608E-02  0.9342376E-01
         -2   -1    0    0    0  501 -0.00000000000E+00  0.00000000000E+00  0.77515627482E+03  0.77515627483E+03  0.25500000000E-02 0.  1.
          2   -1    0    0  501    0  0.00000000000E+00 -0.00000000000E+00 -0.18954654837E+04  0.18954654837E+04  0.25500000000E-02 0. -1.
    8880022    1    1    2    0    0  0.95734746736E+03 -0.21915608803E+02 -0.13613065480E+04  0.16713891341E+04  0.15294330000E+03 0.  0.
    8880022    1    1    2    0    0 -0.95734746736E+03  0.21915608803E+02  0.24099733910E+03  0.99923262438E+03  0.15294330000E+03 0.  1.
<mgrwt>
<rscale>  0 0.96973508E+03</rscale>
<asrwt>0</asrwt>
<pdfrwt beam="1">  1        2 0.29161007E+00 0.96973508E+03</pdfrwt>
<pdfrwt beam="2">  1       -2 0.11925481E+00 0.96973508E+03</pdfrwt>
<totfact> 0.41252422E+00</totfact>
</mgrwt>
</event>
<event>
 4    1  0.3365401E-008  0.8105219E+03  0.7818608E-02  0.9544911E-01
          2   -1    0    0  501    0  0.00000000000E+00  0.00000000000E+00  0.81850397086E+03  0.81850397086E+03  0.25500000000E-02 0. -1.
         -2   -1    0    0    0  501 -0.00000000000E+00 -0.00000000000E+00 -0.18376689369E+04  0.18376689369E+04  0.25500000000E-02 0.  1.
    8880022    1    1    2    0    0  0.78665944136E+03 -0.12133013799E+03  0.48713860091E+03  0.94564779309E+03  0.15294330000E+03 0.  0.
    8880022    1    1    2    0    0 -0.78665944136E+03  0.12133013799E+03 -0.15063035669E+04  0.17105251146E+04  0.15294330000E+03 0.  0.
<mgrwt>
<rscale>  0 0.81052189E+03</rscale>
<asrwt>0</asrwt>
<pdfrwt beam="1">  1        2 0.12592369E+00 0.81052189E+03</pdfrwt>
<pdfrwt beam="2">  1       -2 0.28271830E+00 0.81052189E+03</pdfrwt>
<totfact> 0.13939952E+00</totfact>
</mgrwt>
</event>
<event>
 4    1  0.3365401E-008  0.3223792E+03  0.7818608E-02  0.1074560E+00
          2   -1    0    0  501    0  0.00000000000E+00  0.00000000000E+00  0.20727778618E+04  0.20727778618E+04  0.25500000000E-02 0. -1.
         -2   -1    0    0    0  501 -0.00000000000E+00 -0.00000000000E+00 -0.21928425801E+03  0.21928425802E+03  0.25500000000E-02 0.  1.
    8880022    1    1    2    0    0 -0.97759532975E+02 -0.26642022829E+03 -0.79771702265E+02  0.33210215571E+03  0.15294330000E+03 0.  0.
    8880022    1    1    2    0    0  0.97759532975E+02  0.26642022829E+03  0.19332653061E+04  0.19599599641E+04  0.15294330000E+03 0.  0.
<mgrwt>
<rscale>  0 0.32237915E+03</rscale>
<asrwt>0</asrwt>
<pdfrwt beam="1">  1        2 0.31888891E+00 0.32237915E+03</pdfrwt>
<pdfrwt beam="2">  1       -2 0.33736038E-01 0.32237915E+03</pdfrwt>
<totfact> 0.55726549E+01</totfact>
</mgrwt>
</event>
<event>
 4    1  0.3365401E-008  0.1200713E+04  0.7818608E-02  0.9112233E-01
          2   -1    0    0  501    0  0.00000000000E+00  0.00000000000E+00  0.12133980274E+04  0.12133980274E+04  0.25500000000E-02 0. -1.
         -2   -1    0    0    0  501 -0.00000000000E+00 -0.00000000000E+00 -0.22737314947E+04  0.22737314947E+04  0.25500000000E-02 0.  1.
    8880022    1    1    2    0    0 -0.96482428978E+03  0.69816486825E+03 -0.17349185416E+04  0.21098943320E+04  0.15294330000E+03 0.  0.
    8880022    1    1    2    0    0  0.96482428978E+03 -0.69816486825E+03  0.67458507423E+03  0.13772351901E+04  0.15294330000E+03 0.  0.
<mgrwt>
<rscale>  0 0.12007130E+04</rscale>
<asrwt>0</asrwt>
<pdfrwt beam="1">  1        2 0.18667662E+00 0.12007130E+04</pdfrwt>
<pdfrwt beam="2">  1       -2 0.34980485E+00 0.12007130E+04</pdfrwt>
<totfact> 0.28461706E-01</totfact>
</mgrwt>
</event>
<event>
 4    1  0.3365401E-008  0.6518551E+03  0.7818608E-02  0.9803304E-01
          2   -1    0    0  501    0  0.00000000000E+00  0.00000000000E+00  0.56626161178E+03  0.56626161178E+03  0.25500000000E-02 0. -1.
         -2   -1    0    0    0  501 -0.00000000000E+00 -0.00000000000E+00 -0.10246332643E+04  0.10246332643E+04  0.25500000000E-02 0.  1.
    8880022    1    1    2    0    0 -0.56411389276E+03 -0.28861559208E+03 -0.64071248946E+03  0.91401728166E+03  0.15294330000E+03 0.  0.
    8880022    1    1    2    0    0  0.56411389276E+03  0.28861559208E+03  0.18234083694E+03  0.67687759442E+03  0.15294330000E+03 0.  0.
<mgrwt>
<rscale>  0 0.65185512E+03</rscale>
<asrwt>0</asrwt>
<pdfrwt beam="1">  1        2 0.87117171E-01 0.65185512E+03</pdfrwt>
<pdfrwt beam="2">  1       -2 0.15763589E+00 0.65185512E+03</pdfrwt>
<totfact> 0.14298976E+01</totfact>
</mgrwt>
</event>
<event>
 4    1  0.3365401E-008  0.3323728E+03  0.7818608E-02  0.1070092E+00
          2   -1    0    0  501    0  0.00000000000E+00  0.00000000000E+00  0.21140220778E+04  0.21140220778E+04  0.25500000000E-02 0. -1.
         -2   -1    0    0    0  501 -0.00000000000E+00 -0.00000000000E+00 -0.68825656760E+03  0.68825656760E+03  0.25500000000E-02 0.  1.
    8880022    1    1    2    0    0 -0.14253667461E+03  0.25838594998E+03  0.20597806626E+04  0.20864247012E+04  0.15294330000E+03 0.  0.
    8880022    1    1    2    0    0  0.14253667461E+03 -0.25838594998E+03 -0.63401515247E+03  0.71585394413E+03  0.15294330000E+03 0.  0.
<mgrwt>
<rscale>  0 0.33237277E+03</rscale>
<asrwt>0</asrwt>
<pdfrwt beam="1">  1        2 0.32523416E+00 0.33237277E+03</pdfrwt>
<pdfrwt beam="2">  1       -2 0.10588563E+00 0.33237277E+03</pdfrwt>
<totfact> 0.48077273E+00</totfact>
</mgrwt>
</event>
<event>
 4    1  0.3365401E-008  0.9659872E+03  0.7818608E-02  0.9346657E-01
         -2   -1    0    0    0  501 -0.00000000000E+00  0.00000000000E+00  0.65990942284E+03  0.65990942284E+03  0.25500000000E-02 0.  1.
          2   -1    0    0  501    0  0.00000000000E+00 -0.00000000000E+00 -0.22387027894E+04  0.22387027894E+04  0.25500000000E-02 0. -1.
    8880022    1    1    2    0    0 -0.88304987857E+03 -0.36050319595E+03  0.90239132736E+02  0.97019296865E+03  0.15294330000E+03 0.  0.
    8880022    1    1    2    0    0  0.88304987857E+03  0.36050319595E+03 -0.16690324993E+04  0.19284192436E+04  0.15294330000E+03 0.  0.
<mgrwt>
<rscale>  0 0.96598721E+03</rscale>
<asrwt>0</asrwt>
<pdfrwt beam="1">  1        2 0.34441581E+00 0.96598721E+03</pdfrwt>
<pdfrwt beam="2">  1       -2 0.10152453E+00 0.96598721E+03</pdfrwt>
<totfact> 0.39458243E+00</totfact>
</mgrwt>
</event>
<event>
 4    1  0.3365401E-008  0.2807655E+03  0.7818608E-02  0.1095272E+00
         -2   -1    0    0    0  501 -0.00000000000E+00  0.00000000000E+00  0.62420142344E+03  0.62420142344E+03  0.25500000000E-02 0.  1.
          2   -1    0    0  501    0  0.00000000000E+00 -0.00000000000E+00 -0.14574852190E+03  0.14574852192E+03  0.25500000000E-02 0. -1.
    8880022    1    1    2    0    0 -0.14880784886E+03 -0.18246591306E+03  0.37989793467E+03  0.47238933000E+03  0.15294330000E+03 0.  0.
    8880022    1    1    2    0    0  0.14880784886E+03  0.18246591306E+03  0.98554966861E+02  0.29756061537E+03  0.15294330000E+03 0.  0.
<mgrwt>
<rscale>  0 0.28076545E+03</rscale>
<asrwt>0</asrwt>
<pdfrwt beam="1">  1        2 0.22422850E-01 0.28076545E+03</pdfrwt>
<pdfrwt beam="2">  1       -2 0.96030986E-01 0.28076545E+03</pdfrwt>
<totfact> 0.23029338E+02</totfact>
</mgrwt>
</event>
<event>
 4    1  0.3365401E-008  0.4174491E+03  0.7818608E-02  0.1037900E+00
          2   -1    0    0  501    0  0.00000000000E+00  0.00000000000E+00  0.25353224792E+04  0.25353224792E+04  0.25500000000E-02 0. -1.
         -2   -1    0    0    0  501 -0.00000000000E+00 -0.00000000000E+00 -0.30387015342E+03  0.30387015343E+03  0.25500000000E-02 0.  1.
    8880022    1    1    2    0    0 -0.37992879497E+03 -0.80785137054E+02  0.23644896988E+04  0.24010571247E+04  0.15294330000E+03 0.  0.
    8880022    1    1    2    0    0  0.37992879497E+03  0.80785137054E+02 -0.13303737302E+03  0.43813550786E+03  0.15294330000E+03 0.  0.
<mgrwt>
<rscale>  0 0.41744914E+03</rscale>
<asrwt>0</asrwt>
<pdfrwt beam="1">  1        2 0.39004960E+00 0.41744914E+03</pdfrwt>
<pdfrwt beam="2">  1       -2 0.46749256E-01 0.41744914E+03</pdfrwt>
<totfact> 0.16204346E+01</totfact>
</mgrwt>
</event>
<event>
 4    1  0.3365401E-008  0.7082604E+03  0.7818608E-02  0.9703209E-01
          2   -1    0    0  501    0  0.00000000000E+00  0.00000000000E+00  0.17620670956E+04  0.17620670956E+04  0.25500000000E-02 0. -1.
         -2   -1    0    0    0  501 -0.00000000000E+00 -0.00000000000E+00 -0.88307263388E+03  0.88307263388E+03  0.25500000000E-02 0.  1.
    8880022    1    1    2    0    0  0.53609726942E+03 -0.43685329261E+03 -0.64921221251E+03  0.96078573649E+03  0.15294330000E+03 0.  0.
    8880022    1    1    2    0    0 -0.53609726942E+03  0.43685329261E+03  0.15282066742E+04  0.16843539930E+04  0.15294330000E+03 0.  0.
<mgrwt>
<rscale>  0 0.70826036E+03</rscale>
<asrwt>0</asrwt>
<pdfrwt beam="1">  1        2 0.27108724E+00 0.70826036E+03</pdfrwt>
<pdfrwt beam="2">  1       -2 0.13585733E+00 0.70826036E+03</pdfrwt>
<totfact> 0.36517897E+00</totfact>
</mgrwt>
</event>
<event>
 4    1  0.3365401E-008  0.8594237E+03  0.7818608E-02  0.9477775E-01
          2   -1    0    0  501    0  0.00000000000E+00  0.00000000000E+00  0.13839870652E+04  0.13839870652E+04  0.25500000000E-02 0. -1.
         -2   -1    0    0    0  501 -0.00000000000E+00 -0.00000000000E+00 -0.58163427130E+03  0.58163427131E+03  0.25500000000E-02 0.  1.
    8880022    1    1    2    0    0  0.54617143940E+03 -0.64568896710E+03  0.11898162508E+03  0.86762074870E+03  0.15294330000E+03 0.  0.
    8880022    1    1    2    0    0 -0.54617143940E+03  0.64568896710E+03  0.68337116882E+03  0.10980005878E+04  0.15294330000E+03 0.  0.
<mgrwt>
<rscale>  0 0.85942372E+03</rscale>
<asrwt>0</asrwt>
<pdfrwt beam="1">  1        2 0.21292109E+00 0.85942372E+03</pdfrwt>
<pdfrwt beam="2">  1       -2 0.89482196E-01 0.85942372E+03</pdfrwt>
<totfact> 0.15979317E+01</totfact>
</mgrwt>
</event>
<event>
 4    1  0.3365401E-008  0.4325778E+03  0.7818608E-02  0.1033049E+00
          2   -1    0    0  501    0  0.00000000000E+00  0.00000000000E+00  0.20251284761E+04  0.20251284761E+04  0.25500000000E-02 0. -1.
         -2   -1    0    0    0  501 -0.00000000000E+00 -0.00000000000E+00 -0.16212191877E+03  0.16212191879E+03  0.25500000000E-02 0.  1.
    8880022    1    1    2    0    0  0.40350648083E+03 -0.30239352076E+02  0.21432071642E+03  0.48275969279E+03  0.15294330000E+03 0.  0.
    8880022    1    1    2    0    0 -0.40350648083E+03  0.30239352076E+02  0.16486858409E+04  0.17044907021E+04  0.15294330000E+03 0. -1.
<mgrwt>
<rscale>  0 0.43257780E+03</rscale>
<asrwt>0</asrwt>
<pdfrwt beam="1">  1        2 0.31155825E+00 0.43257780E+03</pdfrwt>
<pdfrwt beam="2">  1       -2 0.24941832E-01 0.43257780E+03</pdfrwt>
<totfact> 0.99951030E+01</totfact>
</mgrwt>
</event>
<event>
 4    1  0.3365401E-008  0.8415106E+03  0.7818608E-02  0.9501802E-01
          2   -1    0    0  501    0  0.00000000000E+00  0.00000000000E+00  0.11738326007E+04  0.11738326007E+04  0.25500000000E-02 0. -1.
         -2   -1    0    0    0  501 -0.00000000000E+00 -0.00000000000E+00 -0.77976651620E+03  0.77976651620E+03  0.25500000000E-02 0.  1.
    8880022    1    1    2    0    0 -0.56884885318E+03 -0.60096546538E+03  0.66175046980E+03  0.10705390444E+04  0.15294330000E+03 0.  0.
    8880022    1    1    2    0    0  0.56884885318E+03  0.60096546538E+03 -0.26768438534E+03  0.88306007243E+03  0.15294330000E+03 0.  0.
<mgrwt>
<rscale>  0 0.84151064E+03</rscale>
<asrwt>0</asrwt>
<pdfrwt beam="1">  1        2 0.18058963E+00 0.84151064E+03</pdfrwt>
<pdfrwt beam="2">  1       -2 0.11996408E+00 0.84151064E+03</pdfrwt>
<totfact> 0.10525499E+01</totfact>
</mgrwt>
</event>
<event>
 4    1  0.3365401E-008  0.2310129E+03  0.7818608E-02  0.1125929E+00
          2   -1    0    0  501    0  0.00000000000E+00  0.00000000000E+00  0.45250460263E+03  0.45250460264E+03  0.25500000000E-02 0. -1.
         -2   -1    0    0    0  501 -0.00000000000E+00 -0.00000000000E+00 -0.18009808710E+03  0.18009808712E+03  0.25500000000E-02 0.  1.
    8880022    1    1    2    0    0 -0.13169983551E+03 -0.11238539912E+03 -0.49622637780E+02  0.23628242381E+03  0.15294330000E+03 0.  0.
    8880022    1    1    2    0    0  0.13169983551E+03  0.11238539912E+03  0.32202915331E+03  0.39632026595E+03  0.15294330000E+03 0. -1.
<mgrwt>
<rscale>  0 0.23101294E+03</rscale>
<asrwt>0</asrwt>
<pdfrwt beam="1">  1        2 0.69616092E-01 0.23101294E+03</pdfrwt>
<pdfrwt beam="2">  1       -2 0.27707398E-01 0.23101294E+03</pdfrwt>
<totfact> 0.82486343E+02</totfact>
</mgrwt>
</event>
<event>
 4    1  0.3365401E-008  0.7806662E+03  0.7818608E-02  0.9588431E-01
         -2   -1    0    0    0  501 -0.00000000000E+00  0.00000000000E+00  0.77821441185E+03  0.77821441185E+03  0.25500000000E-02 0.  1.
          2   -1    0    0  501    0  0.00000000000E+00 -0.00000000000E+00 -0.14224458468E+04  0.14224458468E+04  0.25500000000E-02 0. -1.
    8880022    1    1    2    0    0  0.20166606353E+03  0.73849767768E+03 -0.10597894912E+04  0.13162801525E+04  0.15294330000E+03 0.  0.
    8880022    1    1    2    0    0 -0.20166606353E+03 -0.73849767768E+03  0.41555805623E+03  0.88438010619E+03  0.15294330000E+03 0.  0.
<mgrwt>
<rscale>  0 0.78066617E+03</rscale>
<asrwt>0</asrwt>
<pdfrwt beam="1">  1        2 0.21883782E+00 0.78066617E+03</pdfrwt>
<pdfrwt beam="2">  1       -2 0.11972529E+00 0.78066617E+03</pdfrwt>
<totfact> 0.76478561E+00</totfact>
</mgrwt>
</event>
<event>
 4    1  0.3365401E-008  0.7915476E+03  0.7818608E-02  0.9572333E-01
         -2   -1    0    0    0  501 -0.00000000000E+00  0.00000000000E+00  0.20578350057E+04  0.20578350057E+04  0.25500000000E-02 0.  1.
          2   -1    0    0  501    0  0.00000000000E+00 -0.00000000000E+00 -0.62883374860E+03  0.62883374860E+03  0.25500000000E-02 0. -1.
    8880022    1    1    2    0    0 -0.77515508628E+03 -0.47859104639E+02 -0.25028947844E+03  0.83017611247E+03  0.15294330000E+03 0.  0.
    8880022    1    1    2    0    0  0.77515508628E+03  0.47859104639E+02  0.16792907355E+04  0.18564926418E+04  0.15294330000E+03 0.  0.
<mgrwt>
<rscale>  0 0.79154757E+03</rscale>
<asrwt>0</asrwt>
<pdfrwt beam="1">  1        2 0.96743651E-01 0.79154757E+03</pdfrwt>
<pdfrwt beam="2">  1       -2 0.31659001E+00 0.79154757E+03</pdfrwt>
<totfact> 0.12236079E+00</totfact>
</mgrwt>
</event>
<event>
 4    1  0.3365401E-008  0.1634887E+03  0.7818608E-02  0.1184813E+00
          2   -1    0    0  501    0  0.00000000000E+00  0.00000000000E+00  0.36159923568E+03  0.36159923568E+03  0.25500000000E-02 0. -1.
         -2   -1    0    0    0  501 -0.00000000000E+00 -0.00000000000E+00 -0.27722508697E+03  0.27722508699E+03  0.25500000000E-02 0.  1.
    8880022    1    1    2    0    0  0.57570909132E+02  0.47430515157E+01 -0.23134725262E+03  0.28328450439E+03  0.15294330000E+03 0.  1.
    8880022    1    1    2    0    0 -0.57570909132E+02 -0.47430515157E+01  0.31572140132E+03  0.35553981828E+03  0.15294330000E+03 0.  0.
<mgrwt>
<rscale>  0 0.16348871E+03</rscale>
<asrwt>0</asrwt>
<pdfrwt beam="1">  1        2 0.55630652E-01 0.16348871E+03</pdfrwt>
<pdfrwt beam="2">  1       -2 0.42650013E-01 0.16348871E+03</pdfrwt>
<totfact> 0.47210085E+02</totfact>
</mgrwt>
</event>
<event>
 4    1  0.3365401E-008  0.2015820E+03  0.7818608E-02  0.1148411E+00
         -2   -1    0    0    0  501 -0.00000000000E+00  0.00000000000E+00  0.17520528756E+02  0.17520528941E+02  0.25500000000E-02 0.  1.
          2   -1    0    0  501    0  0.00000000000E+00 -0.00000000000E+00 -0.24107704473E+04  0.24107704473E+04  0.25500000000E-02 0. -1.
    8880022    1    1    2    0    0  0.47212612675E+02 -0.12253409621E+03 -0.96011837770E+03  0.98105177628E+03  0.15294330000E+03 0.  0.
    8880022    1    1    2    0    0 -0.47212612675E+02  0.12253409621E+03 -0.14331315408E+04  0.14472392000E+04  0.15294330000E+03 0.  1.
<mgrwt>
<rscale>  0 0.20158196E+03</rscale>
<asrwt>0</asrwt>
<pdfrwt beam="1">  1        2 0.37088750E+00 0.20158196E+03</pdfrwt>
<pdfrwt beam="2">  1       -2 0.26954679E-02 0.20158196E+03</pdfrwt>
<totfact> 0.22415362E+03</totfact>
</mgrwt>
</event>
<event>
 4    1  0.3365401E-008  0.1057455E+04  0.7818608E-02  0.9247681E-01
          2   -1    0    0  501    0  0.00000000000E+00  0.00000000000E+00  0.15562996573E+04  0.15562996573E+04  0.25500000000E-02 0. -1.
         -2   -1    0    0    0  501 -0.00000000000E+00 -0.00000000000E+00 -0.11952141040E+04  0.11952141040E+04  0.25500000000E-02 0.  1.
    8880022    1    1    2    0    0  0.25514837030E+03  0.10147506588E+04 -0.68830747305E+03  0.12617362723E+04  0.15294330000E+03 0.  0.
    8880022    1    1    2    0    0 -0.25514837030E+03 -0.10147506588E+04  0.10493930263E+04  0.14897774891E+04  0.15294330000E+03 0.  0.
<mgrwt>
<rscale>  0 0.10574551E+04</rscale>
<asrwt>0</asrwt>
<pdfrwt beam="1">  1        2 0.23943072E+00 0.10574551E+04</pdfrwt>
<pdfrwt beam="2">  1       -2 0.18387909E+00 0.10574551E+04</pdfrwt>
<totfact> 0.19842091E+00</totfact>
</mgrwt>
</event>
<event>
 4    1  0.3365401E-008  0.5617432E+03  0.7818608E-02  0.9988118E-01
         -2   -1    0    0    0  501 -0.00000000000E+00  0.00000000000E+00  0.46568750160E+03  0.46568750161E+03  0.25500000000E-02 0.  1.
          2   -1    0    0  501    0  0.00000000000E+00 -0.00000000000E+00 -0.83357655697E+03  0.83357655697E+03  0.25500000000E-02 0. -1.
    8880022    1    1    2    0    0 -0.49807394879E+03  0.20996688422E+03 -0.46494545088E+03  0.72919796780E+03  0.15294330000E+03 0.  0.
    8880022    1    1    2    0    0  0.49807394879E+03 -0.20996688422E+03  0.97056395514E+02  0.57006609078E+03  0.15294330000E+03 0.  0.
<mgrwt>
<rscale>  0 0.56174318E+03</rscale>
<asrwt>0</asrwt>
<pdfrwt beam="1">  1        2 0.12824255E+00 0.56174318E+03</pdfrwt>
<pdfrwt beam="2">  1       -2 0.71644231E-01 0.56174318E+03</pdfrwt>
<totfact> 0.59358432E+01</totfact>
</mgrwt>
</event>
<event>
 4    1  0.3365401E-008  0.6539015E+03  0.7818608E-02  0.9799486E-01
         -2   -1    0    0    0  501 -0.00000000000E+00  0.00000000000E+00  0.13876020621E+04  0.13876020621E+04  0.25500000000E-02 0.  1.
          2   -1    0    0  501    0  0.00000000000E+00 -0.00000000000E+00 -0.80683206407E+03  0.80683206407E+03  0.25500000000E-02 0. -1.
    8880022    1    1    2    0    0 -0.48613722191E+03 -0.40971463684E+03 -0.57222327245E+03  0.86892267131E+03  0.15294330000E+03 0.  0.
    8880022    1    1    2    0    0  0.48613722191E+03  0.40971463684E+03  0.11529932705E+04  0.13255114548E+04  0.15294330000E+03 0.  0.
<mgrwt>
<rscale>  0 0.65390147E+03</rscale>
<asrwt>0</asrwt>
<pdfrwt beam="1">  1        2 0.12412801E+00 0.65390147E+03</pdfrwt>
<pdfrwt beam="2">  1       -2 0.21347724E+00 0.65390147E+03</pdfrwt>
<totfact> 0.38496299E+00</totfact>
</mgrwt>
</event>
<event>
 4    1  0.3365401E-008  0.2268144E+03  0.7818608E-02  0.1128902E+00
          2   -1    0    0  501    0  0.00000000000E+00  0.00000000000E+00  0.36377012783E+03  0.36377012784E+03  0.25500000000E-02 0. -1.
         -2   -1    0    0    0  501 -0.00000000000E+00 -0.00000000000E+00 -0.61960744479E+03  0.61960744480E+03  0.25500000000E-02 0.  1.
    8880022    1    1    2    0    0 -0.37640874473E+02  0.16320632743E+03 -0.55986574343E+03  0.60406493395E+03  0.15294330000E+03 0.  1.
    8880022    1    1    2    0    0  0.37640874473E+02 -0.16320632743E+03  0.30402842647E+03  0.37931263868E+03  0.15294330000E+03 0.  0.
<mgrwt>
<rscale>  0 0.22681445E+03</rscale>
<asrwt>0</asrwt>
<pdfrwt beam="1">  1        2 0.55964635E-01 0.22681445E+03</pdfrwt>
<pdfrwt beam="2">  1       -2 0.95324222E-01 0.22681445E+03</pdfrwt>
<totfact> 0.86265520E+01</totfact>
</mgrwt>
</event>
<event>
 4    1  0.3365401E-008  0.1850865E+03  0.7818608E-02  0.1162969E+00
         -2   -1    0    0    0  501 -0.00000000000E+00  0.00000000000E+00  0.11065018415E+02  0.11065018709E+02  0.25500000000E-02 0.  1.
          2   -1    0    0  501    0  0.00000000000E+00 -0.00000000000E+00 -0.36200016837E+04  0.36200016837E+04  0.25500000000E-02 0. -1.
    8880022    1    1    2    0    0  0.82675547049E+01  0.10390858923E+03 -0.24952285412E+04  0.25020836263E+04  0.15294330000E+03 0. -1.
    8880022    1    1    2    0    0 -0.82675547049E+01 -0.10390858923E+03 -0.11137081241E+04  0.11289830761E+04  0.15294330000E+03 0.  1.
<mgrwt>
<rscale>  0 0.18508647E+03</rscale>
<asrwt>0</asrwt>
<pdfrwt beam="1">  1        2 0.55692239E+00 0.18508647E+03</pdfrwt>
<pdfrwt beam="2">  1       -2 0.17023134E-02 0.18508647E+03</pdfrwt>
<totfact> 0.84535713E+02</totfact>
</mgrwt>
</event>
<event>
 4    1  0.3365401E-008  0.6915408E+03  0.7818608E-02  0.9731809E-01
         -2   -1    0    0    0  501 -0.00000000000E+00  0.00000000000E+00  0.51466823785E+03  0.51466823786E+03  0.25500000000E-02 0.  1.
          2   -1    0    0  501    0  0.00000000000E+00 -0.00000000000E+00 -0.25468714541E+04  0.25468714541E+04  0.25500000000E-02 0. -1.
    8880022    1    1    2    0    0 -0.65454704369E+03  0.16249692731E+03  0.20387584632E+03  0.72096747327E+03  0.15294330000E+03 0.  0.
    8880022    1    1    2    0    0  0.65454704369E+03 -0.16249692731E+03 -0.22360790625E+04  0.23405722187E+04  0.15294330000E+03 0.  0.
<mgrwt>
<rscale>  0 0.69154084E+03</rscale>
<asrwt>0</asrwt>
<pdfrwt beam="1">  1        2 0.39182637E+00 0.69154084E+03</pdfrwt>
<pdfrwt beam="2">  1       -2 0.79179730E-01 0.69154084E+03</pdfrwt>
<totfact> 0.49164626E+00</totfact>
</mgrwt>
</event>
<event>
 4    1  0.3365401E-008  0.7214691E+03  0.7818608E-02  0.9681206E-01
         -2   -1    0    0    0  501 -0.00000000000E+00  0.00000000000E+00  0.10337879618E+04  0.10337879618E+04  0.25500000000E-02 0.  1.
          2   -1    0    0  501    0  0.00000000000E+00 -0.00000000000E+00 -0.92104978066E+03  0.92104978066E+03  0.25500000000E-02 0. -1.
    8880022    1    1    2    0    0  0.70453780974E+03 -0.27430883790E+02  0.71446711188E+03  0.10153722892E+04  0.15294330000E+03 0.  0.
    8880022    1    1    2    0    0 -0.70453780974E+03  0.27430883790E+02 -0.60172893074E+03  0.93946545324E+03  0.15294330000E+03 0.  0.
<mgrwt>
<rscale>  0 0.72146908E+03</rscale>
<asrwt>0</asrwt>
<pdfrwt beam="1">  1        2 0.14169997E+00 0.72146908E+03</pdfrwt>
<pdfrwt beam="2">  1       -2 0.15904430E+00 0.72146908E+03</pdfrwt>
<totfact> 0.74251010E+00</totfact>
</mgrwt>
</event>
<event>
 4    1  0.3365401E-008  0.9275498E+03  0.7818608E-02  0.9391783E-01
          2   -1    0    0  501    0  0.00000000000E+00  0.00000000000E+00  0.11780717617E+04  0.11780717617E+04  0.25500000000E-02 0. -1.
         -2   -1    0    0    0  501 -0.00000000000E+00 -0.00000000000E+00 -0.92839749755E+03  0.92839749755E+03  0.25500000000E-02 0.  1.
    8880022    1    1    2    0    0 -0.43610827189E+03 -0.80421800265E+03  0.61135072337E+03  0.11108998067E+04  0.15294330000E+03 0.  0.
    8880022    1    1    2    0    0  0.43610827189E+03  0.80421800265E+03 -0.36167645923E+03  0.99556945251E+03  0.15294330000E+03 0.  0.
<mgrwt>
<rscale>  0 0.92754982E+03</rscale>
<asrwt>0</asrwt>
<pdfrwt beam="1">  1        2 0.18124181E+00 0.92754982E+03</pdfrwt>
<pdfrwt beam="2">  1       -2 0.14283038E+00 0.92754982E+03</pdfrwt>
<totfact> 0.66488257E+00</totfact>
</mgrwt>
</event>
<event>
 4    1  0.3365401E-008  0.3065456E+03  0.7818608E-02  0.1082014E+00
          2   -1    0    0  501    0  0.00000000000E+00  0.00000000000E+00  0.72503231123E+03  0.72503231124E+03  0.25500000000E-02 0. -1.
         -2   -1    0    0    0  501 -0.00000000000E+00 -0.00000000000E+00 -0.67630142934E+03  0.67630142935E+03  0.25500000000E-02 0.  1.
    8880022    1    1    2    0    0 -0.19062129610E+03 -0.18504608761E+03 -0.60559495748E+03  0.67876022173E+03  0.15294330000E+03 0.  0.
    8880022    1    1    2    0    0  0.19062129610E+03  0.18504608761E+03  0.65432583937E+03  0.72257351885E+03  0.15294330000E+03 0.  0.
<mgrwt>
<rscale>  0 0.30654557E+03</rscale>
<asrwt>0</asrwt>
<pdfrwt beam="1">  1        2 0.11154343E+00 0.30654557E+03</pdfrwt>
<pdfrwt beam="2">  1       -2 0.10404637E+00 0.30654557E+03</pdfrwt>
<totfact> 0.31604821E+01</totfact>
</mgrwt>
</event>
<event>
 4    1  0.3365401E-008  0.4159414E+03  0.7818608E-02  0.1038395E+00
          2   -1    0    0  501    0  0.00000000000E+00  0.00000000000E+00  0.22832604475E+04  0.22832604475E+04  0.25500000000E-02 0. -1.
         -2   -1    0    0    0  501 -0.00000000000E+00 -0.00000000000E+00 -0.11910193741E+03  0.11910193744E+03  0.25500000000E-02 0.  1.
    8880022    1    1    2    0    0  0.37129147830E+03 -0.10843555637E+03  0.35757159963E+03  0.54851137966E+03  0.15294330000E+03 0.  0.
    8880022    1    1    2    0    0 -0.37129147830E+03  0.10843555637E+03  0.18065869104E+04  0.18538510053E+04  0.15294330000E+03 0.  0.
<mgrwt>
<rscale>  0 0.41594144E+03</rscale>
<asrwt>0</asrwt>
<pdfrwt beam="1">  1        2 0.35127083E+00 0.41594144E+03</pdfrwt>
<pdfrwt beam="2">  1       -2 0.18323375E-01 0.41594144E+03</pdfrwt>
<totfact> 0.12475153E+02</totfact>
</mgrwt>
</event>
<event>
 4    1  0.3365401E-008  0.6558642E+03  0.7818608E-02  0.9795837E-01
          2   -1    0    0  501    0  0.00000000000E+00  0.00000000000E+00  0.18117420974E+04  0.18117420974E+04  0.25500000000E-02 0. -1.
         -2   -1    0    0    0  501 -0.00000000000E+00 -0.00000000000E+00 -0.61581109670E+03  0.61581109671E+03  0.25500000000E-02 0.  1.
    8880022    1    1    2    0    0 -0.36531249469E+03 -0.52279346338E+03 -0.35347361640E+03  0.74505132349E+03  0.15294330000E+03 0.  0.
    8880022    1    1    2    0    0  0.36531249469E+03  0.52279346338E+03  0.15494046171E+04  0.16825018706E+04  0.15294330000E+03 0.  0.
<mgrwt>
<rscale>  0 0.65586422E+03</rscale>
<asrwt>0</asrwt>
<pdfrwt beam="1">  1        2 0.27872955E+00 0.65586422E+03</pdfrwt>
<pdfrwt beam="2">  1       -2 0.94740169E-01 0.65586422E+03</pdfrwt>
<totfact> 0.83472735E+00</totfact>
</mgrwt>
</event>
<event>
 4    1  0.3365401E-008  0.1020397E+04  0.7818608E-02  0.9286452E-01
         -2   -1    0    0    0  501 -0.00000000000E+00  0.00000000000E+00  0.69933045717E+03  0.69933045717E+03  0.25500000000E-02 0.  1.
          2   -1    0    0  501    0  0.00000000000E+00 -0.00000000000E+00 -0.26124572207E+04  0.26124572207E+04  0.25500000000E-02 0. -1.
    8880022    1    1    2    0    0  0.90586356845E+03  0.44410553040E+03 -0.20425183914E+04  0.22832195600E+04  0.15294330000E+03 0.  0.
    8880022    1    1    2    0    0 -0.90586356845E+03 -0.44410553040E+03  0.12939162788E+03  0.10285681179E+04  0.15294330000E+03 0.  0.
<mgrwt>
<rscale>  0 0.10203971E+04</rscale>
<asrwt>0</asrwt>
<pdfrwt beam="1">  1        2 0.40191649E+00 0.10203971E+04</pdfrwt>
<pdfrwt beam="2">  1       -2 0.10758930E+00 0.10203971E+04</pdfrwt>
<totfact> 0.20892683E+00</totfact>
</mgrwt>
</event>
<event>
 4    1  0.3365401E-008  0.3826329E+03  0.7818608E-02  0.1049965E+00
          2   -1    0    0  501    0  0.00000000000E+00  0.00000000000E+00  0.43861860130E+03  0.43861860130E+03  0.25500000000E-02 0. -1.
         -2   -1    0    0    0  501 -0.00000000000E+00 -0.00000000000E+00 -0.15302558892E+04  0.15302558892E+04  0.25500000000E-02 0.  1.
    8880022    1    1    2    0    0  0.16739407573E+03 -0.30821342960E+03  0.32465488665E+03  0.50180548344E+03  0.15294330000E+03 0. -1.
    8880022    1    1    2    0    0 -0.16739407573E+03  0.30821342960E+03 -0.14162921745E+04  0.14670690070E+04  0.15294330000E+03 0.  0.
<mgrwt>
<rscale>  0 0.38263292E+03</rscale>
<asrwt>0</asrwt>
<pdfrwt beam="1">  1        2 0.67479785E-01 0.38263292E+03</pdfrwt>
<pdfrwt beam="2">  1       -2 0.23542398E+00 0.38263292E+03</pdfrwt>
<totfact> 0.61777496E+00</totfact>
</mgrwt>
</event>
<event>
 4    1  0.3365401E-008  0.3582476E+03  0.7818608E-02  0.1059280E+00
          2   -1    0    0  501    0  0.00000000000E+00  0.00000000000E+00  0.15343324023E+04  0.15343324023E+04  0.25500000000E-02 0. -1.
         -2   -1    0    0    0  501 -0.00000000000E+00 -0.00000000000E+00 -0.11569116602E+03  0.11569116605E+03  0.25500000000E-02 0.  1.
    8880022    1    1    2    0    0 -0.24085058071E+03  0.21665795138E+03  0.27512157240E+03  0.45170034618E+03  0.15294330000E+03 0.  0.
    8880022    1    1    2    0    0  0.24085058071E+03 -0.21665795138E+03  0.11435196639E+04  0.11983232222E+04  0.15294330000E+03 0.  0.
<mgrwt>
<rscale>  0 0.35824757E+03</rscale>
<asrwt>0</asrwt>
<pdfrwt beam="1">  1        2 0.23605113E+00 0.35824757E+03</pdfrwt>
<pdfrwt beam="2">  1       -2 0.17798642E-01 0.35824757E+03</pdfrwt>
<totfact> 0.33338778E+02</totfact>
</mgrwt>
</event>
<event>
 4    1  0.3365401E-008  0.1227332E+04  0.7818608E-02  0.9089264E-01
         -2   -1    0    0    0  501 -0.00000000000E+00  0.00000000000E+00  0.15357760004E+04  0.15357760004E+04  0.25500000000E-02 0.  1.
          2   -1    0    0  501    0  0.00000000000E+00 -0.00000000000E+00 -0.18665001410E+04  0.18665001410E+04  0.25500000000E-02 0. -1.
    8880022    1    1    2    0    0  0.88140468203E+03  0.84028460571E+03  0.10064558348E+04  0.15872294832E+04  0.15294330000E+03 0.  0.
    8880022    1    1    2    0    0 -0.88140468203E+03 -0.84028460571E+03 -0.13371799754E+04  0.18150466583E+04  0.15294330000E+03 0.  0.
<mgrwt>
<rscale>  0 0.12273321E+04</rscale>
<asrwt>0</asrwt>
<pdfrwt beam="1">  1        2 0.28715387E+00 0.12273321E+04</pdfrwt>
<pdfrwt beam="2">  1       -2 0.23627323E+00 0.12273321E+04</pdfrwt>
<totfact> 0.59947703E-01</totfact>
</mgrwt>
</event>
<event>
 4    1  0.3365401E-008  0.2543309E+03  0.7818608E-02  0.1110598E+00
         -2   -1    0    0    0  501 -0.00000000000E+00  0.00000000000E+00  0.50388573286E+03  0.50388573286E+03  0.25500000000E-02 0.  1.
          2   -1    0    0  501    0  0.00000000000E+00 -0.00000000000E+00 -0.88250073601E+03  0.88250073602E+03  0.25500000000E-02 0. -1.
    8880022    1    1    2    0    0  0.19757016506E+03 -0.47524336268E+02  0.45148863434E+03  0.51819511056E+03  0.15294330000E+03 0.  1.
    8880022    1    1    2    0    0 -0.19757016506E+03  0.47524336268E+02 -0.83010363749E+03  0.86819135832E+03  0.15294330000E+03 0.  0.
<mgrwt>
<rscale>  0 0.25433086E+03</rscale>
<asrwt>0</asrwt>
<pdfrwt beam="1">  1        2 0.13576934E+00 0.25433086E+03</pdfrwt>
<pdfrwt beam="2">  1       -2 0.77520882E-01 0.25433086E+03</pdfrwt>
<totfact> 0.48537062E+01</totfact>
</mgrwt>
</event>
<event>
 4    1  0.3365401E-008  0.5052120E+03  0.7818608E-02  0.1012427E+00
         -2   -1    0    0    0  501 -0.00000000000E+00  0.00000000000E+00  0.81607375601E+03  0.81607375601E+03  0.25500000000E-02 0.  1.
          2   -1    0    0  501    0  0.00000000000E+00 -0.00000000000E+00 -0.42830036597E+03  0.42830036598E+03  0.25500000000E-02 0. -1.
    8880022    1    1    2    0    0 -0.45329987349E+03  0.16237829641E+03  0.51703703231E+03  0.72288756543E+03  0.15294330000E+03 0.  0.
    8880022    1    1    2    0    0  0.45329987349E+03 -0.16237829641E+03 -0.12926364227E+03  0.52148655657E+03  0.15294330000E+03 0.  0.
<mgrwt>
<rscale>  0 0.50521197E+03</rscale>
<asrwt>0</asrwt>
<pdfrwt beam="1">  1        2 0.65892366E-01 0.50521197E+03</pdfrwt>
<pdfrwt beam="2">  1       -2 0.12554981E+00 0.50521197E+03</pdfrwt>
<totfact> 0.36055531E+01</totfact>
</mgrwt>
</event>
<event>
 4    1  0.3365401E-008  0.7773126E+03  0.7818608E-02  0.9593449E-01
         -2   -1    0    0    0  501 -0.00000000000E+00  0.00000000000E+00  0.84203829869E+03  0.84203829870E+03  0.25500000000E-02 0.  1.
          2   -1    0    0  501    0  0.00000000000E+00 -0.00000000000E+00 -0.14579895522E+04  0.14579895522E+04  0.25500000000E-02 0. -1.
    8880022    1    1    2    0    0  0.49442786321E+03 -0.57996928455E+03  0.51155859172E+03  0.93054130951E+03  0.15294330000E+03 0.  0.
    8880022    1    1    2    0    0 -0.49442786321E+03  0.57996928455E+03 -0.11275098452E+04  0.13694865414E+04  0.15294330000E+03 0.  0.
<mgrwt>
<rscale>  0 0.77731264E+03</rscale>
<asrwt>0</asrwt>
<pdfrwt beam="1">  1        2 0.22430608E+00 0.77731264E+03</pdfrwt>
<pdfrwt beam="2">  1       -2 0.12954435E+00 0.77731264E+03</pdfrwt>
<totfact> 0.59970597E+00</totfact>
</mgrwt>
</event>
<event>
 4    1  0.3365401E-008  0.3358766E+03  0.7818608E-02  0.1068566E+00
          2   -1    0    0  501    0  0.00000000000E+00  0.00000000000E+00  0.15307260409E+04  0.15307260409E+04  0.25500000000E-02 0. -1.
         -2   -1    0    0    0  501 -0.00000000000E+00 -0.00000000000E+00 -0.16324580501E+03  0.16324580503E+03  0.25500000000E-02 0.  1.
    8880022    1    1    2    0    0 -0.29593150785E+03 -0.42964668601E+02  0.56433202762E+02  0.34058446746E+03  0.15294330000E+03 0.  1.
    8880022    1    1    2    0    0  0.29593150785E+03  0.42964668601E+02  0.13110470331E+04  0.13533873784E+04  0.15294330000E+03 0.  0.
<mgrwt>
<rscale>  0 0.33587657E+03</rscale>
<asrwt>0</asrwt>
<pdfrwt beam="1">  1        2 0.23549631E+00 0.33587657E+03</pdfrwt>
<pdfrwt beam="2">  1       -2 0.25114739E-01 0.33587657E+03</pdfrwt>
<totfact> 0.18461174E+02</totfact>
</mgrwt>
</event>
<event>
 4    1  0.3365401E-008  0.3809402E+03  0.7818608E-02  0.1050587E+00
          2   -1    0    0  501    0  0.00000000000E+00  0.00000000000E+00  0.47796312506E+03  0.47796312507E+03  0.25500000000E-02 0. -1.
         -2   -1    0    0    0  501 -0.00000000000E+00 -0.00000000000E+00 -0.84831388265E+03  0.84831388265E+03  0.25500000000E-02 0.  1.
    8880022    1    1    2    0    0  0.34720443421E+03 -0.34246770422E+02 -0.71655553870E+03  0.81152156686E+03  0.15294330000E+03 0.  0.
    8880022    1    1    2    0    0 -0.34720443421E+03  0.34246770422E+02  0.34620478110E+03  0.51475544086E+03  0.15294330000E+03 0.  0.
<mgrwt>
<rscale>  0 0.38094017E+03</rscale>
<asrwt>0</asrwt>
<pdfrwt beam="1">  1        2 0.73532789E-01 0.38094017E+03</pdfrwt>
<pdfrwt beam="2">  1       -2 0.13050983E+00 0.38094017E+03</pdfrwt>
<totfact> 0.29378784E+01</totfact>
</mgrwt>
</event>
<event>
 4    1  0.3365401E-008  0.6059699E+03  0.7818608E-02  0.9893097E-01
          2   -1    0    0  501    0  0.00000000000E+00  0.00000000000E+00  0.13319619345E+04  0.13319619345E+04  0.25500000000E-02 0. -1.
         -2   -1    0    0    0  501 -0.00000000000E+00 -0.00000000000E+00 -0.44496679052E+03  0.44496679053E+03  0.25500000000E-02 0.  1.
    8880022    1    1    2    0    0 -0.61042979200E+02 -0.58316517369E+03 -0.10450633346E+03  0.61491551603E+03  0.15294330000E+03 0.  0.
    8880022    1    1    2    0    0  0.61042979200E+02  0.58316517369E+03  0.99150147745E+03  0.11620132090E+04  0.15294330000E+03 0.  0.
<mgrwt>
<rscale>  0 0.60596990E+03</rscale>
<asrwt>0</asrwt>
<pdfrwt beam="1">  1        2 0.20491722E+00 0.60596990E+03</pdfrwt>
<pdfrwt beam="2">  1       -2 0.68456429E-01 0.60596990E+03</pdfrwt>
<totfact> 0.32092670E+01</totfact>
</mgrwt>
</event>
<event>
 4    1  0.3365401E-008  0.8094424E+03  0.7818608E-02  0.9546449E-01
         -2   -1    0    0    0  501 -0.00000000000E+00  0.00000000000E+00  0.37345772361E+03  0.37345772362E+03  0.25500000000E-02 0.  1.
          2   -1    0    0  501    0  0.00000000000E+00 -0.00000000000E+00 -0.21094833440E+04  0.21094833440E+04  0.25500000000E-02 0. -1.
    8880022    1    1    2    0    0 -0.50603427332E+03  0.61297197241E+03 -0.35867136364E+03  0.88534858945E+03  0.15294330000E+03 0.  0.
    8880022    1    1    2    0    0  0.50603427332E+03 -0.61297197241E+03 -0.13773542568E+04  0.15975924782E+04  0.15294330000E+03 0.  0.
<mgrwt>
<rscale>  0 0.80944239E+03</rscale>
<asrwt>0</asrwt>
<pdfrwt beam="1">  1        2 0.32453589E+00 0.80944239E+03</pdfrwt>
<pdfrwt beam="2">  1       -2 0.57455036E-01 0.80944239E+03</pdfrwt>
<totfact> 0.16940101E+01</totfact>
</mgrwt>
</event>
<event>
 4    1  0.3365401E-008  0.3514393E+03  0.7818608E-02  0.1062026E+00
          2   -1    0    0  501    0  0.00000000000E+00  0.00000000000E+00  0.11631911228E+04  0.11631911228E+04  0.25500000000E-02 0. -1.
         -2   -1    0    0    0  501 -0.00000000000E+00 -0.00000000000E+00 -0.17353866142E+03  0.17353866144E+03  0.25500000000E-02 0.  1.
    8880022    1    1    2    0    0 -0.31081595419E+03  0.59256972885E+02  0.91122245551E+03  0.97664525938E+03  0.15294330000E+03 0.  0.
    8880022    1    1    2    0    0  0.31081595419E+03 -0.59256972885E+02  0.78430005883E+02  0.36008452488E+03  0.15294330000E+03 0.  1.
<mgrwt>
<rscale>  0 0.35143933E+03</rscale>
<asrwt>0</asrwt>
<pdfrwt beam="1">  1        2 0.17895249E+00 0.35143933E+03</pdfrwt>
<pdfrwt beam="2">  1       -2 0.26698255E-01 0.35143933E+03</pdfrwt>
<totfact> 0.26450551E+02</totfact>
</mgrwt>
</event>
<event>
 4    1  0.3365401E-008  0.6285249E+03  0.7818608E-02  0.9847932E-01
          2   -1    0    0  501    0  0.00000000000E+00  0.00000000000E+00  0.38435637263E+04  0.38435637263E+04  0.25500000000E-02 0. -1.
         -2   -1    0    0    0  501 -0.00000000000E+00 -0.00000000000E+00 -0.20655538905E+03  0.20655538906E+03  0.25500000000E-02 0.  1.
    8880022    1    1    2    0    0 -0.20200611789E+03 -0.57519165708E+03  0.38312848676E+03  0.73609170925E+03  0.15294330000E+03 0.  0.
    8880022    1    1    2    0    0  0.20200611789E+03  0.57519165708E+03  0.32538798505E+04  0.33140274061E+04  0.15294330000E+03 0.  0.
<mgrwt>
<rscale>  0 0.62852491E+03</rscale>
<asrwt>0</asrwt>
<pdfrwt beam="1">  1        2 0.59131746E+00 0.62852491E+03</pdfrwt>
<pdfrwt beam="2">  1       -2 0.31777754E-01 0.62852491E+03</pdfrwt>
<totfact> 0.47294605E+00</totfact>
</mgrwt>
</event>
<event>
 4    1  0.3365401E-008  0.2245297E+03  0.7818608E-02  0.1130550E+00
          2   -1    0    0  501    0  0.00000000000E+00  0.00000000000E+00  0.40996910131E+03  0.40996910132E+03  0.25500000000E-02 0. -1.
         -2   -1    0    0    0  501 -0.00000000000E+00 -0.00000000000E+00 -0.25131897045E+03  0.25131897046E+03  0.25500000000E-02 0.  1.
    8880022    1    1    2    0    0  0.25549735342E+02  0.16238576265E+03  0.31561519634E+03  0.38733258327E+03  0.15294330000E+03 0.  0.
    8880022    1    1    2    0    0 -0.25549735342E+02 -0.16238576265E+03 -0.15696506548E+03  0.27395548851E+03  0.15294330000E+03 0.  1.
<mgrwt>
<rscale>  0 0.22452968E+03</rscale>
<asrwt>0</asrwt>
<pdfrwt beam="1">  1        2 0.63072168E-01 0.22452968E+03</pdfrwt>
<pdfrwt beam="2">  1       -2 0.38664458E-01 0.22452968E+03</pdfrwt>
<totfact> 0.49702072E+02</totfact>
</mgrwt>
</event>
<event>
 4    1  0.3365401E-008  0.4354951E+03  0.7818608E-02  0.1032138E+00
         -2   -1    0    0    0  501 -0.00000000000E+00  0.00000000000E+00  0.24217688941E+03  0.24217688942E+03  0.25500000000E-02 0.  1.
          2   -1    0    0  501    0  0.00000000000E+00 -0.00000000000E+00 -0.10608239946E+04  0.10608239946E+04  0.25500000000E-02 0. -1.
    8880022    1    1    2    0    0  0.39152577263E+03 -0.11389405885E+03 -0.75991985905E+02  0.44207547117E+03  0.15294330000E+03 0.  0.
    8880022    1    1    2    0    0 -0.39152577263E+03  0.11389405885E+03 -0.74265511932E+03  0.86092541288E+03  0.15294330000E+03 0.  0.
<mgrwt>
<rscale>  0 0.43549505E+03</rscale>
<asrwt>0</asrwt>
<pdfrwt beam="1">  1        2 0.16320369E+00 0.43549505E+03</pdfrwt>
<pdfrwt beam="2">  1       -2 0.37257984E-01 0.43549505E+03</pdfrwt>
<totfact> 0.16261760E+02</totfact>
</mgrwt>
</event>
<event>
 4    1  0.3365401E-008  0.1126528E+04  0.7818608E-02  0.9179715E-01
         -2   -1    0    0    0  501 -0.00000000000E+00  0.00000000000E+00  0.11821780291E+04  0.11821780291E+04  0.25500000000E-02 0.  1.
          2   -1    0    0  501    0  0.00000000000E+00 -0.00000000000E+00 -0.15533435776E+04  0.15533435776E+04  0.25500000000E-02 0. -1.
    8880022    1    1    2    0    0  0.56884306037E+03 -0.96025575529E+03 -0.94578187415E+03  0.14709073898E+04  0.15294330000E+03 0.  0.
    8880022    1    1    2    0    0 -0.56884306037E+03  0.96025575529E+03  0.57461632568E+03  0.12646142169E+04  0.15294330000E+03 0.  0.
<mgrwt>
<rscale>  0 0.11265279E+04</rscale>
<asrwt>0</asrwt>
<pdfrwt beam="1">  1        2 0.23897594E+00 0.11265279E+04</pdfrwt>
<pdfrwt beam="2">  1       -2 0.18187354E+00 0.11265279E+04</pdfrwt>
<totfact> 0.20393347E+00</totfact>
</mgrwt>
</event>
<event>
 4    1  0.3365401E-008  0.7456838E+03  0.7818608E-02  0.9642146E-01
          2   -1    0    0  501    0  0.00000000000E+00  0.00000000000E+00  0.85535356121E+03  0.85535356121E+03  0.25500000000E-02 0. -1.
         -2   -1    0    0    0  501 -0.00000000000E+00 -0.00000000000E+00 -0.73417910069E+03  0.73417910070E+03  0.25500000000E-02 0.  1.
    8880022    1    1    2    0    0 -0.38371564191E+03 -0.62081802397E+03  0.32958323628E+03  0.81527263868E+03  0.15294330000E+03 0.  0.
    8880022    1    1    2    0    0  0.38371564191E+03  0.62081802397E+03 -0.20840877577E+03  0.77426002322E+03  0.15294330000E+03 0.  0.
<mgrwt>
<rscale>  0 0.74568382E+03</rscale>
<asrwt>0</asrwt>
<pdfrwt beam="1">  1        2 0.13159286E+00 0.74568382E+03</pdfrwt>
<pdfrwt beam="2">  1       -2 0.11295063E+00 0.74568382E+03</pdfrwt>
<totfact> 0.19687205E+01</totfact>
</mgrwt>
</event>
<event>
 4    1  0.3365401E-008  0.1204054E+04  0.7818608E-02  0.9109315E-01
         -2   -1    0    0    0  501 -0.00000000000E+00  0.00000000000E+00  0.15144441336E+04  0.15144441336E+04  0.25500000000E-02 0.  1.
          2   -1    0    0  501    0  0.00000000000E+00 -0.00000000000E+00 -0.17546833186E+04  0.17546833186E+04  0.25500000000E-02 0. -1.
    8880022    1    1    2    0    0 -0.78730452927E+03 -0.89805684842E+03 -0.12220182778E+04  0.17155392298E+04  0.15294330000E+03 0.  0.
    8880022    1    1    2    0    0  0.78730452927E+03  0.89805684842E+03  0.98177909271E+03  0.15535882224E+04  0.15294330000E+03 0.  0.
<mgrwt>
<rscale>  0 0.12040541E+04</rscale>
<asrwt>0</asrwt>
<pdfrwt beam="1">  1        2 0.26995128E+00 0.12040541E+04</pdfrwt>
<pdfrwt beam="2">  1       -2 0.23299140E+00 0.12040541E+04</pdfrwt>
<totfact> 0.72675997E-01</totfact>
</mgrwt>
</event>
<event>
 4    1  0.3365401E-008  0.1327562E+04  0.7818608E-02  0.9007989E-01
          2   -1    0    0  501    0  0.00000000000E+00  0.00000000000E+00  0.17659082781E+04  0.17659082781E+04  0.25500000000E-02 0. -1.
         -2   -1    0    0    0  501 -0.00000000000E+00 -0.00000000000E+00 -0.16163807581E+04  0.16163807581E+04  0.25500000000E-02 0.  1.
    8880022    1    1    2    0    0 -0.10413043424E+01  0.13187226567E+04 -0.97122683116E+03  0.16449023497E+04  0.15294330000E+03 0.  0.
    8880022    1    1    2    0    0  0.10413043424E+01 -0.13187226567E+04  0.11207543512E+04  0.17373866864E+04  0.15294330000E+03 0.  0.
<mgrwt>
<rscale>  0 0.13275625E+04</rscale>
<asrwt>0</asrwt>
<pdfrwt beam="1">  1        2 0.27167820E+00 0.13275625E+04</pdfrwt>
<pdfrwt beam="2">  1       -2 0.24867396E+00 0.13275625E+04</pdfrwt>
<totfact> 0.56457521E-01</totfact>
</mgrwt>
</event>
<event>
 4    1  0.3365401E-008  0.6622101E+03  0.7818608E-02  0.9784134E-01
         -2   -1    0    0    0  501 -0.00000000000E+00  0.00000000000E+00  0.10081164311E+04  0.10081164311E+04  0.25500000000E-02 0.  1.
          2   -1    0    0  501    0  0.00000000000E+00 -0.00000000000E+00 -0.73688125591E+03  0.73688125591E+03  0.25500000000E-02 0. -1.
    8880022    1    1    2    0    0 -0.43541519600E+03  0.47491484783E+03  0.69407522701E+03  0.95930317385E+03  0.15294330000E+03 0.  0.
    8880022    1    1    2    0    0  0.43541519600E+03 -0.47491484783E+03 -0.42284005181E+03  0.78569451317E+03  0.15294330000E+03 0.  0.
<mgrwt>
<rscale>  0 0.66221006E+03</rscale>
<asrwt>0</asrwt>
<pdfrwt beam="1">  1        2 0.11336635E+00 0.66221006E+03</pdfrwt>
<pdfrwt beam="2">  1       -2 0.15509484E+00 0.66221006E+03</pdfrwt>
<totfact> 0.10793414E+01</totfact>
</mgrwt>
</event>
<event>
 4    1  0.3365401E-008  0.5644208E+03  0.7818608E-02  0.9982101E-01
         -2   -1    0    0    0  501 -0.00000000000E+00  0.00000000000E+00  0.32444756464E+03  0.32444756465E+03  0.25500000000E-02 0.  1.
          2   -1    0    0  501    0  0.00000000000E+00 -0.00000000000E+00 -0.15610350391E+04  0.15610350391E+04  0.25500000000E-02 0. -1.
    8880022    1    1    2    0    0 -0.54303629247E+03  0.17050700227E+02 -0.11925173710E+04  0.13193439561E+04  0.15294330000E+03 0.  0.
    8880022    1    1    2    0    0  0.54303629247E+03 -0.17050700227E+02 -0.44070103436E+02  0.56613864764E+03  0.15294330000E+03 0.  0.
<mgrwt>
<rscale>  0 0.56442076E+03</rscale>
<asrwt>0</asrwt>
<pdfrwt beam="1">  1        2 0.24015923E+00 0.56442076E+03</pdfrwt>
<pdfrwt beam="2">  1       -2 0.49915011E-01 0.56442076E+03</pdfrwt>
<totfact> 0.46625962E+01</totfact>
</mgrwt>
</event>
<event>
 4    1  0.3365401E-008  0.7173119E+03  0.7818608E-02  0.9688076E-01
         -2   -1    0    0    0  501 -0.00000000000E+00  0.00000000000E+00  0.40811574619E+03  0.40811574620E+03  0.25500000000E-02 0.  1.
          2   -1    0    0  501    0  0.00000000000E+00 -0.00000000000E+00 -0.28323828885E+04  0.28323828885E+04  0.25500000000E-02 0. -1.
    8880022    1    1    2    0    0  0.58877514300E+03 -0.38011656580E+03 -0.24190574987E+04  0.25231677724E+04  0.15294330000E+03 0.  0.
    8880022    1    1    2    0    0 -0.58877514300E+03  0.38011656580E+03 -0.52096436075E+01  0.71733086230E+03  0.15294330000E+03 0.  0.
<mgrwt>
<rscale>  0 0.71731194E+03</rscale>
<asrwt>0</asrwt>
<pdfrwt beam="1">  1        2 0.43575120E+00 0.71731194E+03</pdfrwt>
<pdfrwt beam="2">  1       -2 0.62787040E-01 0.71731194E+03</pdfrwt>
<totfact> 0.55438738E+00</totfact>
</mgrwt>
</event>
<event>
 4    1  0.3365401E-008  0.4340053E+03  0.7818608E-02  0.1032602E+00
          2   -1    0    0  501    0  0.00000000000E+00  0.00000000000E+00  0.18196451660E+04  0.18196451660E+04  0.25500000000E-02 0. -1.
         -2   -1    0    0    0  501 -0.00000000000E+00 -0.00000000000E+00 -0.31732615831E+03  0.31732615832E+03  0.25500000000E-02 0.  1.
    8880022    1    1    2    0    0  0.25859486667E+03  0.31320542837E+03  0.16282227837E+04  0.16850727082E+04  0.15294330000E+03 0. -1.
    8880022    1    1    2    0    0 -0.25859486667E+03 -0.31320542837E+03 -0.12590377603E+03  0.45189861613E+03  0.15294330000E+03 0.  0.
<mgrwt>
<rscale>  0 0.43400530E+03</rscale>
<asrwt>0</asrwt>
<pdfrwt beam="1">  1        2 0.27994541E+00 0.43400530E+03</pdfrwt>
<pdfrwt beam="2">  1       -2 0.48819409E-01 0.43400530E+03</pdfrwt>
<totfact> 0.36168087E+01</totfact>
</mgrwt>
</event>
<event>
 4    1  0.3365401E-008  0.7587197E+03  0.7818608E-02  0.9621769E-01
         -2   -1    0    0    0  501 -0.00000000000E+00  0.00000000000E+00  0.48499044074E+03  0.48499044075E+03  0.25500000000E-02 0.  1.
          2   -1    0    0  501    0  0.00000000000E+00 -0.00000000000E+00 -0.22604165628E+04  0.22604165628E+04  0.25500000000E-02 0. -1.
    8880022    1    1    2    0    0 -0.74299990876E+03 -0.14667540434E+02  0.58259034370E+02  0.76095319781E+03  0.15294330000E+03 0.  0.
    8880022    1    1    2    0    0  0.74299990876E+03  0.14667540434E+02 -0.18336851564E+04  0.19844538057E+04  0.15294330000E+03 0.  0.
<mgrwt>
<rscale>  0 0.75871975E+03</rscale>
<asrwt>0</asrwt>
<pdfrwt beam="1">  1        2 0.34775639E+00 0.75871975E+03</pdfrwt>
<pdfrwt beam="2">  1       -2 0.74613915E-01 0.75871975E+03</pdfrwt>
<totfact> 0.80261428E+00</totfact>
</mgrwt>
</event>
<event>
 4    1  0.3365401E-008  0.7626133E+03  0.7818608E-02  0.9615767E-01
          2   -1    0    0  501    0  0.00000000000E+00  0.00000000000E+00  0.10853483166E+04  0.10853483166E+04  0.25500000000E-02 0. -1.
         -2   -1    0    0    0  501 -0.00000000000E+00 -0.00000000000E+00 -0.12149293974E+04  0.12149293974E+04  0.25500000000E-02 0.  1.
    8880022    1    1    2    0    0  0.74042373785E+03  0.99800530012E+02  0.79508667796E+03  0.11016995670E+04  0.15294330000E+03 0.  0.
    8880022    1    1    2    0    0 -0.74042373785E+03 -0.99800530012E+02 -0.92466775880E+03  0.11985781470E+04  0.15294330000E+03 0.  0.
<mgrwt>
<rscale>  0 0.76261334E+03</rscale>
<asrwt>0</asrwt>
<pdfrwt beam="1">  1        2 0.16697666E+00 0.76261334E+03</pdfrwt>
<pdfrwt beam="2">  1       -2 0.18691222E+00 0.76261334E+03</pdfrwt>
<totfact> 0.36955200E+00</totfact>
</mgrwt>
</event>
<event>
 4    1  0.3365401E-008  0.2897726E+03  0.7818608E-02  0.1090468E+00
          2   -1    0    0  501    0  0.00000000000E+00  0.00000000000E+00  0.19151899752E+04  0.19151899752E+04  0.25500000000E-02 0. -1.
         -2   -1    0    0    0  501 -0.00000000000E+00 -0.00000000000E+00 -0.81802754682E+02  0.81802754722E+02  0.25500000000E-02 0.  1.
    8880022    1    1    2    0    0  0.18243415059E+03  0.16520985456E+03  0.15968718691E+04  0.16229503796E+04  0.15294330000E+03 0.  0.
    8880022    1    1    2    0    0 -0.18243415059E+03 -0.16520985456E+03  0.23651535138E+03  0.37404235027E+03  0.15294330000E+03 0.  1.
<mgrwt>
<rscale>  0 0.28977261E+03</rscale>
<asrwt>0</asrwt>
<pdfrwt beam="1">  1        2 0.29464462E+00 0.28977261E+03</pdfrwt>
<pdfrwt beam="2">  1       -2 0.12585039E-01 0.28977261E+03</pdfrwt>
<totfact> 0.37652410E+02</totfact>
</mgrwt>
</event>
<event>
 4    1  0.3365401E-008  0.9075955E+03  0.7818608E-02  0.9416136E-01
          2   -1    0    0  501    0  0.00000000000E+00  0.00000000000E+00  0.64963198575E+03  0.64963198576E+03  0.25500000000E-02 0. -1.
         -2   -1    0    0    0  501 -0.00000000000E+00 -0.00000000000E+00 -0.13375079620E+04  0.13375079620E+04  0.25500000000E-02 0.  1.
    8880022    1    1    2    0    0 -0.83155766986E+03  0.32992378211E+03 -0.11742868923E+03  0.91516064730E+03  0.15294330000E+03 0.  0.
    8880022    1    1    2    0    0  0.83155766986E+03 -0.32992378211E+03 -0.57044728699E+03  0.10719793004E+04  0.15294330000E+03 0.  0.
<mgrwt>
<rscale>  0 0.90759546E+03</rscale>
<asrwt>0</asrwt>
<pdfrwt beam="1">  1        2 0.99943382E-01 0.90759546E+03</pdfrwt>
<pdfrwt beam="2">  1       -2 0.20577046E+00 0.90759546E+03</pdfrwt>
<totfact> 0.55051614E+00</totfact>
</mgrwt>
</event>
<event>
 4    1  0.3365401E-008  0.6402016E+03  0.7818608E-02  0.9825341E-01
         -2   -1    0    0    0  501 -0.00000000000E+00  0.00000000000E+00  0.41469942193E+03  0.41469942194E+03  0.25500000000E-02 0.  1.
          2   -1    0    0  501    0  0.00000000000E+00 -0.00000000000E+00 -0.14218628757E+04  0.14218628757E+04  0.25500000000E-02 0. -1.
    8880022    1    1    2    0    0  0.51562905818E+03  0.34726516886E+03 -0.10106424926E+04  0.11963512544E+04  0.15294330000E+03 0.  0.
    8880022    1    1    2    0    0 -0.51562905818E+03 -0.34726516886E+03  0.34790387850E+01  0.64021104323E+03  0.15294330000E+03 0.  1.
<mgrwt>
<rscale>  0 0.64020159E+03</rscale>
<asrwt>0</asrwt>
<pdfrwt beam="1">  1        2 0.21874813E+00 0.64020159E+03</pdfrwt>
<pdfrwt beam="2">  1       -2 0.63799912E-01 0.64020159E+03</pdfrwt>
<totfact> 0.33076506E+01</totfact>
</mgrwt>
</event>
<event>
 4    1  0.3365401E-008  0.3490775E+03  0.7818608E-02  0.1062994E+00
         -2   -1    0    0    0  501 -0.00000000000E+00  0.00000000000E+00  0.27418826091E+03  0.27418826093E+03  0.25500000000E-02 0.  1.
          2   -1    0    0  501    0  0.00000000000E+00 -0.00000000000E+00 -0.13398357757E+04  0.13398357757E+04  0.25500000000E-02 0. -1.
    8880022    1    1    2    0    0  0.11073464301E+03 -0.29360061123E+03 -0.11925537778E+04  0.12425939184E+04  0.15294330000E+03 0.  0.
    8880022    1    1    2    0    0 -0.11073464301E+03  0.29360061123E+03  0.12690626306E+03  0.37143011819E+03  0.15294330000E+03 0.  0.
<mgrwt>
<rscale>  0 0.34907755E+03</rscale>
<asrwt>0</asrwt>
<pdfrwt beam="1">  1        2 0.20612858E+00 0.34907755E+03</pdfrwt>
<pdfrwt beam="2">  1       -2 0.42182810E-01 0.34907755E+03</pdfrwt>
<totfact> 0.89342537E+01</totfact>
</mgrwt>
</event>
<event>
 4    1  0.3365401E-008  0.2188846E+03  0.7818608E-02  0.1134717E+00
         -2   -1    0    0    0  501 -0.00000000000E+00  0.00000000000E+00  0.12200424682E+04  0.12200424682E+04  0.25500000000E-02 0.  1.
          2   -1    0    0  501    0  0.00000000000E+00 -0.00000000000E+00 -0.23612448695E+03  0.23612448697E+03  0.25500000000E-02 0. -1.
    8880022    1    1    2    0    0 -0.30336867766E+01  0.15655541250E+03  0.11567480700E+04  0.11772750532E+04  0.15294330000E+03 0.  1.
    8880022    1    1    2    0    0  0.30336867766E+01 -0.15655541250E+03 -0.17283008870E+03  0.27889190202E+03  0.15294330000E+03 0.  0.
<mgrwt>
<rscale>  0 0.21888457E+03</rscale>
<asrwt>0</asrwt>
<pdfrwt beam="1">  1        2 0.36326845E-01 0.21888457E+03</pdfrwt>
<pdfrwt beam="2">  1       -2 0.18769884E+00 0.21888457E+03</pdfrwt>
<totfact> 0.25040494E+01</totfact>
</mgrwt>
</event>
<event>
 4    1  0.3365401E-008  0.1335224E+04  0.7818608E-02  0.9002089E-01
         -2   -1    0    0    0  501 -0.00000000000E+00  0.00000000000E+00  0.58142607106E+03  0.58142607107E+03  0.25500000000E-02 0.  1.
          2   -1    0    0  501    0  0.00000000000E+00 -0.00000000000E+00 -0.33409305157E+04  0.33409305157E+04  0.25500000000E-02 0. -1.
    8880022    1    1    2    0    0  0.12879506399E+04 -0.31719748114E+03 -0.81745852763E+03  0.15655865323E+04  0.15294330000E+03 0.  0.
    8880022    1    1    2    0    0 -0.12879506399E+04  0.31719748114E+03 -0.19420459170E+04  0.23567700545E+04  0.15294330000E+03 0.  0.
<mgrwt>
<rscale>  0 0.13352239E+04</rscale>
<asrwt>0</asrwt>
<pdfrwt beam="1">  1        2 0.51398930E+00 0.13352239E+04</pdfrwt>
<pdfrwt beam="2">  1       -2 0.89450167E-01 0.13352239E+04</pdfrwt>
<totfact> 0.10994234E+00</totfact>
</mgrwt>
</event>
<event>
 4    1  0.3365401E-008  0.5798767E+03  0.7818608E-02  0.9948058E-01
          2   -1    0    0  501    0  0.00000000000E+00  0.00000000000E+00  0.20002720534E+04  0.20002720534E+04  0.25500000000E-02 0. -1.
         -2   -1    0    0    0  501 -0.00000000000E+00 -0.00000000000E+00 -0.26768194144E+03  0.26768194145E+03  0.25500000000E-02 0.  1.
    8880022    1    1    2    0    0  0.22220646402E+03 -0.51331238781E+03  0.17466676751E+03  0.60561163531E+03  0.15294330000E+03 0.  1.
    8880022    1    1    2    0    0 -0.22220646402E+03  0.51331238781E+03  0.15579233445E+04  0.16623423596E+04  0.15294330000E+03 0.  0.
<mgrwt>
<rscale>  0 0.57987669E+03</rscale>
<asrwt>0</asrwt>
<pdfrwt beam="1">  1        2 0.30773417E+00 0.57987669E+03</pdfrwt>
<pdfrwt beam="2">  1       -2 0.41181837E-01 0.57987669E+03</pdfrwt>
<totfact> 0.39417571E+01</totfact>
</mgrwt>
</event>
<event>
 4    1  0.3365401E-008  0.9827547E+03  0.7818608E-02  0.9327664E-01
          2   -1    0    0  501    0  0.00000000000E+00  0.00000000000E+00  0.23244479688E+04  0.23244479689E+04  0.25500000000E-02 0. -1.
         -2   -1    0    0    0  501 -0.00000000000E+00 -0.00000000000E+00 -0.44991197553E+03  0.44991197554E+03  0.25500000000E-02 0.  1.
    8880022    1    1    2    0    0 -0.96914964081E+03  0.56250103073E+02  0.55362473377E+03  0.11279659123E+04  0.15294330000E+03 0.  0.
    8880022    1    1    2    0    0  0.96914964081E+03 -0.56250103073E+02  0.13209112595E+04  0.16463940321E+04  0.15294330000E+03 0.  0.
<mgrwt>
<rscale>  0 0.98275468E+03</rscale>
<asrwt>0</asrwt>
<pdfrwt beam="1">  1        2 0.35760738E+00 0.98275468E+03</pdfrwt>
<pdfrwt beam="2">  1       -2 0.69217227E-01 0.98275468E+03</pdfrwt>
<totfact> 0.84495893E+00</totfact>
</mgrwt>
</event>
<event>
 4    1  0.3365401E-008  0.2223939E+03  0.7818608E-02  0.1132111E+00
          2   -1    0    0  501    0  0.00000000000E+00  0.00000000000E+00  0.21134535190E+04  0.21134535190E+04  0.25500000000E-02 0. -1.
         -2   -1    0    0    0  501 -0.00000000000E+00 -0.00000000000E+00 -0.17163492554E+03  0.17163492556E+03  0.25500000000E-02 0.  1.
    8880022    1    1    2    0    0 -0.80576488957E+02  0.13991010501E+03 -0.90890188282E+02  0.24025005182E+03  0.15294330000E+03 0.  0.
    8880022    1    1    2    0    0  0.80576488957E+02 -0.13991010501E+03  0.20327087817E+04  0.20448383927E+04  0.15294330000E+03 0. -1.
<mgrwt>
<rscale>  0 0.22239393E+03</rscale>
<asrwt>0</asrwt>
<pdfrwt beam="1">  1        2 0.32514668E+00 0.22239393E+03</pdfrwt>
<pdfrwt beam="2">  1       -2 0.26405374E-01 0.22239393E+03</pdfrwt>
<totfact> 0.85687881E+01</totfact>
</mgrwt>
</event>
<event>
 4    1  0.3365401E-008  0.2228623E+03  0.7818608E-02  0.1131767E+00
          2   -1    0    0  501    0  0.00000000000E+00  0.00000000000E+00  0.16797465302E+04  0.16797465302E+04  0.25500000000E-02 0. -1.
         -2   -1    0    0    0  501 -0.00000000000E+00 -0.00000000000E+00 -0.16500995521E+03  0.16500995523E+03  0.25500000000E-02 0.  1.
    8880022    1    1    2    0    0 -0.15874084055E+03  0.32822419171E+02 -0.78291974491E+02  0.23621441942E+03  0.15294330000E+03 0.  1.
    8880022    1    1    2    0    0  0.15874084055E+03 -0.32822419171E+02  0.15930285495E+04  0.16085420660E+04  0.15294330000E+03 0.  0.
<mgrwt>
<rscale>  0 0.22286233E+03</rscale>
<asrwt>0</asrwt>
<pdfrwt beam="1">  1        2 0.25842253E+00 0.22286233E+03</pdfrwt>
<pdfrwt beam="2">  1       -2 0.25386148E-01 0.22286233E+03</pdfrwt>
<totfact> 0.15479023E+02</totfact>
</mgrwt>
</event>
<event>
 4    1  0.3365401E-008  0.9158514E+03  0.7818608E-02  0.9405980E-01
         -2   -1    0    0    0  501 -0.00000000000E+00  0.00000000000E+00  0.20933512528E+04  0.20933512528E+04  0.25500000000E-02 0.  1.
          2   -1    0    0  501    0  0.00000000000E+00 -0.00000000000E+00 -0.54135985942E+03  0.54135985943E+03  0.25500000000E-02 0. -1.
    8880022    1    1    2    0    0 -0.23928386720E+03 -0.87070969360E+03  0.10447201122E+03  0.92179075379E+03  0.15294330000E+03 0.  0.
    8880022    1    1    2    0    0  0.23928386720E+03  0.87070969360E+03  0.14475193821E+04  0.17129203584E+04  0.15294330000E+03 0.  0.
<mgrwt>
<rscale>  0 0.91585140E+03</rscale>
<asrwt>0</asrwt>
<pdfrwt beam="1">  1        2 0.83286131E-01 0.91585140E+03</pdfrwt>
<pdfrwt beam="2">  1       -2 0.32205404E+00 0.91585140E+03</pdfrwt>
<totfact> 0.13321758E+00</totfact>
</mgrwt>
</event>
<event>
 4    1  0.3365401E-008  0.6813533E+03  0.7818608E-02  0.9749663E-01
         -2   -1    0    0    0  501 -0.00000000000E+00  0.00000000000E+00  0.81292300791E+03  0.81292300791E+03  0.25500000000E-02 0.  1.
          2   -1    0    0  501    0  0.00000000000E+00 -0.00000000000E+00 -0.95419862435E+03  0.95419862436E+03  0.25500000000E-02 0. -1.
    8880022    1    1    2    0    0  0.24781642271E+03 -0.61598514661E+03  0.48922922915E+03  0.83880127079E+03  0.15294330000E+03 0.  0.
    8880022    1    1    2    0    0 -0.24781642271E+03  0.61598514661E+03 -0.63050484559E+03  0.92832036148E+03  0.15294330000E+03 0.  0.
<mgrwt>
<rscale>  0 0.68135331E+03</rscale>
<asrwt>0</asrwt>
<pdfrwt beam="1">  1        2 0.14679979E+00 0.68135331E+03</pdfrwt>
<pdfrwt beam="2">  1       -2 0.12506508E+00 0.68135331E+03</pdfrwt>
<totfact> 0.13238491E+01</totfact>
</mgrwt>
</event>
<event>
 4    1  0.3365401E-008  0.6422544E+03  0.7818608E-02  0.9821423E-01
         -2   -1    0    0    0  501 -0.00000000000E+00  0.00000000000E+00  0.72929701961E+03  0.72929701962E+03  0.25500000000E-02 0.  1.
          2   -1    0    0  501    0  0.00000000000E+00 -0.00000000000E+00 -0.10553856857E+04  0.10553856857E+04  0.25500000000E-02 0. -1.
    8880022    1    1    2    0    0 -0.39923155952E+03 -0.47928410177E+03 -0.77093888747E+03  0.10034129307E+04  0.15294330000E+03 0.  0.
    8880022    1    1    2    0    0  0.39923155952E+03  0.47928410177E+03  0.44485022134E+03  0.78126977464E+03  0.15294330000E+03 0.  0.
<mgrwt>
<rscale>  0 0.64225442E+03</rscale>
<asrwt>0</asrwt>
<pdfrwt beam="1">  1        2 0.16236703E+00 0.64225442E+03</pdfrwt>
<pdfrwt beam="2">  1       -2 0.11219954E+00 0.64225442E+03</pdfrwt>
<totfact> 0.14994161E+01</totfact>
</mgrwt>
</event>
<event>
 4    1  0.3365401E-008  0.3421553E+03  0.7818608E-02  0.1065882E+00
          2   -1    0    0  501    0  0.00000000000E+00  0.00000000000E+00  0.21974189153E+04  0.21974189153E+04  0.25500000000E-02 0. -1.
         -2   -1    0    0    0  501 -0.00000000000E+00 -0.00000000000E+00 -0.21542084804E+03  0.21542084806E+03  0.25500000000E-02 0.  1.
    8880022    1    1    2    0    0  0.20542090329E+03 -0.22689389379E+03 -0.55661533046E+02  0.34665320686E+03  0.15294330000E+03 0.  1.
    8880022    1    1    2    0    0 -0.20542090329E+03  0.22689389379E+03  0.20376596003E+04  0.20661865565E+04  0.15294330000E+03 0.  0.
<mgrwt>
<rscale>  0 0.34215529E+03</rscale>
<asrwt>0</asrwt>
<pdfrwt beam="1">  1        2 0.33806446E+00 0.34215529E+03</pdfrwt>
<pdfrwt beam="2">  1       -2 0.33141668E-01 0.34215529E+03</pdfrwt>
<totfact> 0.49137561E+01</totfact>
</mgrwt>
</event>
<event>
 4    1  0.3365401E-008  0.3966156E+03  0.7818608E-02  0.1044958E+00
         -2   -1    0    0    0  501 -0.00000000000E+00  0.00000000000E+00  0.33430712431E+03  0.33430712432E+03  0.25500000000E-02 0.  1.
          2   -1    0    0  501    0  0.00000000000E+00 -0.00000000000E+00 -0.20087137222E+04  0.20087137222E+04  0.25500000000E-02 0. -1.
    8880022    1    1    2    0    0 -0.32384342955E+03  0.17040458265E+03 -0.18623599212E+04  0.19041240553E+04  0.15294330000E+03 0.  0.
    8880022    1    1    2    0    0  0.32384342955E+03 -0.17040458265E+03  0.18795332330E+03  0.43889679129E+03  0.15294330000E+03 0.  1.
<mgrwt>
<rscale>  0 0.39661561E+03</rscale>
<asrwt>0</asrwt>
<pdfrwt beam="1">  1        2 0.30903287E+00 0.39661561E+03</pdfrwt>
<pdfrwt beam="2">  1       -2 0.51431866E-01 0.39661561E+03</pdfrwt>
<totfact> 0.26031162E+01</totfact>
</mgrwt>
</event>
<event>
 4    1  0.3365401E-008  0.2375834E+03  0.7818608E-02  0.1121413E+00
          2   -1    0    0  501    0  0.00000000000E+00  0.00000000000E+00  0.93285594055E+03  0.93285594055E+03  0.25500000000E-02 0. -1.
         -2   -1    0    0    0  501 -0.00000000000E+00 -0.00000000000E+00 -0.27951711357E+03  0.27951711358E+03  0.25500000000E-02 0.  1.
    8880022    1    1    2    0    0 -0.15050343544E+03  0.10199479830E+03  0.86324697023E+03  0.89534418387E+03  0.15294330000E+03 0.  0.
    8880022    1    1    2    0    0  0.15050343544E+03 -0.10199479830E+03 -0.20990814325E+03  0.31702887026E+03  0.15294330000E+03 0.  1.
<mgrwt>
<rscale>  0 0.23758341E+03</rscale>
<asrwt>0</asrwt>
<pdfrwt beam="1">  1        2 0.14351630E+00 0.23758341E+03</pdfrwt>
<pdfrwt beam="2">  1       -2 0.43002632E-01 0.23758341E+03</pdfrwt>
<totfact> 0.15238172E+02</totfact>
</mgrwt>
</event>
<event>
 4    1  0.3365401E-008  0.1881731E+03  0.7818608E-02  0.1160119E+00
          2   -1    0    0  501    0  0.00000000000E+00  0.00000000000E+00  0.12230664595E+04  0.12230664595E+04  0.25500000000E-02 0. -1.
         -2   -1    0    0    0  501 -0.00000000000E+00 -0.00000000000E+00 -0.18243420557E+03  0.18243420559E+03  0.25500000000E-02 0.  1.
    8880022    1    1    2    0    0  0.56724977324E+01  0.10947740271E+03 -0.12426591125E+03  0.22550199256E+03  0.15294330000E+03 0.  0.
    8880022    1    1    2    0    0 -0.56724977324E+01 -0.10947740271E+03  0.11648981652E+04  0.11799986725E+04  0.15294330000E+03 0.  0.
<mgrwt>
<rscale>  0 0.18817314E+03</rscale>
<asrwt>0</asrwt>
<pdfrwt beam="1">  1        2 0.18816407E+00 0.18817314E+03</pdfrwt>
<pdfrwt beam="2">  1       -2 0.28066800E-01 0.18817314E+03</pdfrwt>
<totfact> 0.22959704E+02</totfact>
</mgrwt>
</event>
<event>
 4    1  0.3365401E-008  0.5826197E+03  0.7818608E-02  0.9942135E-01
         -2   -1    0    0    0  501 -0.00000000000E+00  0.00000000000E+00  0.15397908971E+03  0.15397908973E+03  0.25500000000E-02 0.  1.
          2   -1    0    0  501    0  0.00000000000E+00 -0.00000000000E+00 -0.23125588790E+04  0.23125588790E+04  0.25500000000E-02 0. -1.
    8880022    1    1    2    0    0  0.46079475419E+03 -0.32205943416E+03 -0.81269191669E+03  0.99995694361E+03  0.15294330000E+03 0.  1.
    8880022    1    1    2    0    0 -0.46079475419E+03  0.32205943416E+03 -0.13458878726E+04  0.14665810252E+04  0.15294330000E+03 0. -1.
<mgrwt>
<rscale>  0 0.58261972E+03</rscale>
<asrwt>0</asrwt>
<pdfrwt beam="1">  1        2 0.35577827E+00 0.58261972E+03</pdfrwt>
<pdfrwt beam="2">  1       -2 0.23689092E-01 0.58261972E+03</pdfrwt>
<totfact> 0.74561350E+01</totfact>
</mgrwt>
</event>
<event>
 4    1  0.3365401E-008  0.9101000E+03  0.7818608E-02  0.9413043E-01
          2   -1    0    0  501    0  0.00000000000E+00  0.00000000000E+00  0.20184040105E+04  0.20184040105E+04  0.25500000000E-02 0. -1.
         -2   -1    0    0    0  501 -0.00000000000E+00 -0.00000000000E+00 -0.10908251036E+04  0.10908251036E+04  0.25500000000E-02 0.  1.
    8880022    1    1    2    0    0 -0.14847129862E+03 -0.88478621722E+03  0.16916429576E+04  0.19209211139E+04  0.15294330000E+03 0.  0.
    8880022    1    1    2    0    0  0.14847129862E+03  0.88478621722E+03 -0.76406405076E+03  0.11883080002E+04  0.15294330000E+03 0.  0.
<mgrwt>
<rscale>  0 0.91010001E+03</rscale>
<asrwt>0</asrwt>
<pdfrwt beam="1">  1        2 0.31052369E+00 0.91010001E+03</pdfrwt>
<pdfrwt beam="2">  1       -2 0.16781925E+00 0.91010001E+03</pdfrwt>
<totfact> 0.14580311E+00</totfact>
</mgrwt>
</event>
<event>
 4    1  0.3365401E-008  0.3045077E+03  0.7818608E-02  0.1083009E+00
         -2   -1    0    0    0  501 -0.00000000000E+00  0.00000000000E+00  0.32026655843E+03  0.32026655844E+03  0.25500000000E-02 0.  1.
          2   -1    0    0  501    0  0.00000000000E+00 -0.00000000000E+00 -0.53995828282E+03  0.53995828283E+03  0.25500000000E-02 0. -1.
    8880022    1    1    2    0    0 -0.17370698569E+03  0.19788671751E+03  0.18307384219E+03  0.35530403115E+03  0.15294330000E+03 0.  0.
    8880022    1    1    2    0    0  0.17370698569E+03 -0.19788671751E+03 -0.40276556658E+03  0.50492081011E+03  0.15294330000E+03 0.  0.
<mgrwt>
<rscale>  0 0.30450767E+03</rscale>
<asrwt>0</asrwt>
<pdfrwt beam="1">  1        2 0.83070505E-01 0.30450767E+03</pdfrwt>
<pdfrwt beam="2">  1       -2 0.49271778E-01 0.30450767E+03</pdfrwt>
<totfact> 0.22694833E+02</totfact>
</mgrwt>
</event>
<event>
 4    1  0.3365401E-008  0.2557803E+03  0.7818608E-02  0.1109705E+00
         -2   -1    0    0    0  501 -0.00000000000E+00  0.00000000000E+00  0.29495916881E+03  0.29495916882E+03  0.25500000000E-02 0.  1.
          2   -1    0    0  501    0  0.00000000000E+00 -0.00000000000E+00 -0.47110933337E+03  0.47110933338E+03  0.25500000000E-02 0. -1.
    8880022    1    1    2    0    0 -0.86653155832E+01 -0.20483370206E+03  0.19056345052E+03  0.31896397114E+03  0.15294330000E+03 0.  0.
    8880022    1    1    2    0    0  0.86653155832E+01  0.20483370206E+03 -0.36671361509E+03  0.44710453106E+03  0.15294330000E+03 0. -1.
<mgrwt>
<rscale>  0 0.25578035E+03</rscale>
<asrwt>0</asrwt>
<pdfrwt beam="1">  1        2 0.72478359E-01 0.25578035E+03</pdfrwt>
<pdfrwt beam="2">  1       -2 0.45378334E-01 0.25578035E+03</pdfrwt>
<totfact> 0.31272144E+02</totfact>
</mgrwt>
</event>
<event>
 4    1  0.3365401E-008  0.7365969E+03  0.7818608E-02  0.9656616E-01
          2   -1    0    0  501    0  0.00000000000E+00  0.00000000000E+00  0.66743510656E+03  0.66743510656E+03  0.25500000000E-02 0. -1.
         -2   -1    0    0    0  501 -0.00000000000E+00 -0.00000000000E+00 -0.14894340132E+04  0.14894340132E+04  0.25500000000E-02 0.  1.
    8880022    1    1    2    0    0 -0.64175181078E+03  0.32762465459E+03 -0.11378076676E+04  0.13554265906E+04  0.15294330000E+03 0.  0.
    8880022    1    1    2    0    0  0.64175181078E+03 -0.32762465459E+03  0.31580876103E+03  0.80144252913E+03  0.15294330000E+03 0.  0.
<mgrwt>
<rscale>  0 0.73659687E+03</rscale>
<asrwt>0</asrwt>
<pdfrwt beam="1">  1        2 0.10268232E+00 0.73659687E+03</pdfrwt>
<pdfrwt beam="2">  1       -2 0.22914369E+00 0.73659687E+03</pdfrwt>
<totfact> 0.38709324E+00</totfact>
</mgrwt>
</event>
<event>
 4    1  0.3365401E-008  0.3835423E+03  0.7818608E-02  0.1049632E+00
         -2   -1    0    0    0  501 -0.00000000000E+00  0.00000000000E+00  0.37157922516E+03  0.37157922516E+03  0.25500000000E-02 0.  1.
          2   -1    0    0  501    0  0.00000000000E+00 -0.00000000000E+00 -0.32317267759E+04  0.32317267759E+04  0.25500000000E-02 0. -1.
    8880022    1    1    2    0    0  0.22521954864E+03  0.27016509737E+03  0.25762295647E+03  0.46203275386E+03  0.15294330000E+03 0.  0.
    8880022    1    1    2    0    0 -0.22521954864E+03 -0.27016509737E+03 -0.31177705072E+04  0.31412732472E+04  0.15294330000E+03 0. -1.
<mgrwt>
<rscale>  0 0.38354228E+03</rscale>
<asrwt>0</asrwt>
<pdfrwt beam="1">  1        2 0.49718871E+00 0.38354228E+03</pdfrwt>
<pdfrwt beam="2">  1       -2 0.57166037E-01 0.38354228E+03</pdfrwt>
<totfact> 0.42347400E+00</totfact>
</mgrwt>
</event>
<event>
 4    1  0.3365401E-008  0.3675529E+03  0.7818608E-02  0.1055633E+00
          2   -1    0    0  501    0  0.00000000000E+00  0.00000000000E+00  0.31118693287E+04  0.31118693287E+04  0.25500000000E-02 0. -1.
         -2   -1    0    0    0  501 -0.00000000000E+00 -0.00000000000E+00 -0.14248163588E+03  0.14248163590E+03  0.25500000000E-02 0.  1.
    8880022    1    1    2    0    0 -0.27099219932E+03  0.19561875014E+03  0.12787032781E+03  0.38916055973E+03  0.15294330000E+03 0.  0.
    8880022    1    1    2    0    0  0.27099219932E+03 -0.19561875014E+03  0.28415173650E+04  0.28651904049E+04  0.15294330000E+03 0.  0.
<mgrwt>
<rscale>  0 0.36755288E+03</rscale>
<asrwt>0</asrwt>
<pdfrwt beam="1">  1        2 0.47874914E+00 0.36755288E+03</pdfrwt>
<pdfrwt beam="2">  1       -2 0.21920251E-01 0.36755288E+03</pdfrwt>
<totfact> 0.31067120E+01</totfact>
</mgrwt>
</event>
<event>
 4    1  0.3365401E-008  0.4465848E+03  0.7818608E-02  0.1028745E+00
          2   -1    0    0  501    0  0.00000000000E+00  0.00000000000E+00  0.90630382403E+03  0.90630382404E+03  0.25500000000E-02 0. -1.
         -2   -1    0    0    0  501 -0.00000000000E+00 -0.00000000000E+00 -0.44101769968E+03  0.44101769969E+03  0.25500000000E-02 0.  1.
    8880022    1    1    2    0    0  0.15233293347E+03  0.39094885040E+03  0.70948157609E+03  0.83833292079E+03  0.15294330000E+03 0.  0.
    8880022    1    1    2    0    0 -0.15233293347E+03 -0.39094885040E+03 -0.24419545174E+03  0.50898860294E+03  0.15294330000E+03 0.  0.
<mgrwt>
<rscale>  0 0.44658480E+03</rscale>
<asrwt>0</asrwt>
<pdfrwt beam="1">  1        2 0.13943136E+00 0.44658480E+03</pdfrwt>
<pdfrwt beam="2">  1       -2 0.67848877E-01 0.44658480E+03</pdfrwt>
<totfact> 0.60450080E+01</totfact>
</mgrwt>
</event>
<event>
 4    1  0.3365401E-008  0.3068218E+03  0.7818608E-02  0.1081879E+00
          2   -1    0    0  501    0  0.00000000000E+00  0.00000000000E+00  0.85384986076E+03  0.85384986076E+03  0.25500000000E-02 0. -1.
         -2   -1    0    0    0  501 -0.00000000000E+00 -0.00000000000E+00 -0.50606359281E+03  0.50606359282E+03  0.25500000000E-02 0.  1.
    8880022    1    1    2    0    0  0.24703529765E+03  0.98597659202E+02  0.77523630265E+03  0.83374511372E+03  0.15294330000E+03 0.  0.
    8880022    1    1    2    0    0 -0.24703529765E+03 -0.98597659202E+02 -0.42745003471E+03  0.52616833986E+03  0.15294330000E+03 0.  0.
<mgrwt>
<rscale>  0 0.30682176E+03</rscale>
<asrwt>0</asrwt>
<pdfrwt beam="1">  1        2 0.13136152E+00 0.30682176E+03</pdfrwt>
<pdfrwt beam="2">  1       -2 0.77855939E-01 0.30682176E+03</pdfrwt>
<totfact> 0.49652130E+01</totfact>
</mgrwt>
</event>
<event>
 4    1  0.4535443E-008  0.1031373E+04  0.7818608E-02  0.9274789E-01
         -2   -1    0    0    0  501 -0.00000000000E+00  0.00000000000E+00  0.17075035585E+04  0.17075035585E+04  0.25500000000E-02 0.  1.
          2   -1    0    0  501    0  0.00000000000E+00 -0.00000000000E+00 -0.11531312338E+04  0.11531312338E+04  0.25500000000E-02 0. -1.
    8880022    1    1    2    0    0 -0.83753081564E+03  0.58213476302E+03 -0.69264331339E+03  0.12423707828E+04  0.15294330000E+03 0.  0.
    8880022    1    1    2    0    0  0.83753081564E+03 -0.58213476302E+03  0.12470156381E+04  0.16182640094E+04  0.15294330000E+03 0.  0.
<mgrwt>
<rscale>  0 0.10313731E+04</rscale>
<asrwt>0</asrwt>
<pdfrwt beam="1">  1        2 0.17740480E+00 0.10313731E+04</pdfrwt>
<pdfrwt beam="2">  1       -2 0.26269286E+00 0.10313731E+04</pdfrwt>
<totfact> 0.10795000E+00</totfact>
</mgrwt>
</event>
<event>
 4    1  0.3365401E-008  0.4917233E+03  0.7818608E-02  0.1015962E+00
          2   -1    0    0  501    0  0.00000000000E+00  0.00000000000E+00  0.10317685198E+04  0.10317685198E+04  0.25500000000E-02 0. -1.
         -2   -1    0    0    0  501 -0.00000000000E+00 -0.00000000000E+00 -0.29606485457E+03  0.29606485458E+03  0.25500000000E-02 0.  1.
    8880022    1    1    2    0    0  0.44985445998E+03 -0.12661387008E+03  0.67097972350E+03  0.83186870937E+03  0.15294330000E+03 0. -1.
    8880022    1    1    2    0    0 -0.44985445998E+03  0.12661387008E+03  0.64723941694E+02  0.49596466498E+03  0.15294330000E+03 0.  0.
<mgrwt>
<rscale>  0 0.49172326E+03</rscale>
<asrwt>0</asrwt>
<pdfrwt beam="1">  1        2 0.15873361E+00 0.49172326E+03</pdfrwt>
<pdfrwt beam="2">  1       -2 0.45548440E-01 0.49172326E+03</pdfrwt>
<totfact> 0.11389902E+02</totfact>
</mgrwt>
</event>
<event>
 4    1  0.3365401E-008  0.3747404E+03  0.7818608E-02  0.1052895E+00
          2   -1    0    0  501    0  0.00000000000E+00  0.00000000000E+00  0.23226193409E+04  0.23226193409E+04  0.25500000000E-02 0. -1.
         -2   -1    0    0    0  501 -0.00000000000E+00 -0.00000000000E+00 -0.15767642441E+03  0.15767642443E+03  0.25500000000E-02 0.  1.
    8880022    1    1    2    0    0 -0.17141982044E+03 -0.29606405526E+03  0.10870383236E+03  0.39018823130E+03  0.15294330000E+03 0.  0.
    8880022    1    1    2    0    0  0.17141982044E+03  0.29606405526E+03  0.20562390841E+04  0.20901075340E+04  0.15294330000E+03 0.  0.
<mgrwt>
<rscale>  0 0.37474035E+03</rscale>
<asrwt>0</asrwt>
<pdfrwt beam="1">  1        2 0.35732606E+00 0.37474035E+03</pdfrwt>
<pdfrwt beam="2">  1       -2 0.24257911E-01 0.37474035E+03</pdfrwt>
<totfact> 0.73494789E+01</totfact>
</mgrwt>
</event>
<event>
 4    1  0.3365401E-008  0.5179043E+03  0.7818608E-02  0.1009208E+00
         -2   -1    0    0    0  501 -0.00000000000E+00  0.00000000000E+00  0.37410973428E+03  0.37410973429E+03  0.25500000000E-02 0.  1.
          2   -1    0    0  501    0  0.00000000000E+00 -0.00000000000E+00 -0.13697162470E+04  0.13697162470E+04  0.25500000000E-02 0. -1.
    8880022    1    1    2    0    0 -0.27506301215E+03 -0.41130717288E+03 -0.10997118270E+04  0.12155620126E+04  0.15294330000E+03 0.  0.
    8880022    1    1    2    0    0  0.27506301215E+03  0.41130717288E+03  0.10410531427E+03  0.52826396867E+03  0.15294330000E+03 0.  0.
<mgrwt>
<rscale>  0 0.51790434E+03</rscale>
<asrwt>0</asrwt>
<pdfrwt beam="1">  1        2 0.21072557E+00 0.51790434E+03</pdfrwt>
<pdfrwt beam="2">  1       -2 0.57555344E-01 0.51790434E+03</pdfrwt>
<totfact> 0.44714301E+01</totfact>
</mgrwt>
</event>
<event>
 4    1  0.3365401E-008  0.1111799E+04  0.7818608E-02  0.9193767E-01
          2   -1    0    0  501    0  0.00000000000E+00  0.00000000000E+00  0.97354181792E+03  0.97354181792E+03  0.25500000000E-02 0. -1.
         -2   -1    0    0    0  501 -0.00000000000E+00 -0.00000000000E+00 -0.20446683115E+04  0.20446683115E+04  0.25500000000E-02 0.  1.
    8880022    1    1    2    0    0 -0.47470144917E+03 -0.99366237115E+03  0.39351506884E+03  0.11793863388E+04  0.15294330000E+03 0.  0.
    8880022    1    1    2    0    0  0.47470144917E+03  0.99366237115E+03 -0.14646415625E+04  0.18388237907E+04  0.15294330000E+03 0.  0.
<mgrwt>
<rscale>  0 0.11117995E+04</rscale>
<asrwt>0</asrwt>
<pdfrwt beam="1">  1        2 0.14977566E+00 0.11117995E+04</pdfrwt>
<pdfrwt beam="2">  1       -2 0.31456436E+00 0.11117995E+04</pdfrwt>
<totfact> 0.67146917E-01</totfact>
</mgrwt>
</event>
<event>
 4    1  0.3365401E-008  0.5366308E+03  0.7818608E-02  0.1004637E+00
         -2   -1    0    0    0  501 -0.00000000000E+00  0.00000000000E+00  0.25799180714E+03  0.25799180716E+03  0.25500000000E-02 0.  1.
          2   -1    0    0  501    0  0.00000000000E+00 -0.00000000000E+00 -0.12710761796E+04  0.12710761796E+04  0.25500000000E-02 0. -1.
    8880022    1    1    2    0    0 -0.42634919992E+03  0.28776256325E+03 -0.77340726233E+03  0.94134551548E+03  0.15294330000E+03 0.  0.
    8880022    1    1    2    0    0  0.42634919992E+03 -0.28776256325E+03 -0.23967711008E+03  0.58772247123E+03  0.15294330000E+03 0.  0.
<mgrwt>
<rscale>  0 0.53663077E+03</rscale>
<asrwt>0</asrwt>
<pdfrwt beam="1">  1        2 0.19555018E+00 0.53663077E+03</pdfrwt>
<pdfrwt beam="2">  1       -2 0.39691048E-01 0.53663077E+03</pdfrwt>
<totfact> 0.10699419E+02</totfact>
</mgrwt>
</event>
<event>
 4    1  0.3365401E-008  0.6293855E+03  0.7818608E-02  0.9846249E-01
          2   -1    0    0  501    0  0.00000000000E+00  0.00000000000E+00  0.61678904430E+03  0.61678904430E+03  0.25500000000E-02 0. -1.
         -2   -1    0    0    0  501 -0.00000000000E+00 -0.00000000000E+00 -0.85711142415E+03  0.85711142415E+03  0.25500000000E-02 0.  1.
    8880022    1    1    2    0    0  0.60454141837E+03  0.85230066411E+02  0.24882455745E+03  0.67678637999E+03  0.15294330000E+03 0. -1.
    8880022    1    1    2    0    0 -0.60454141837E+03 -0.85230066411E+02 -0.48914693729E+03  0.79711408846E+03  0.15294330000E+03 0.  0.
<mgrwt>
<rscale>  0 0.62938553E+03</rscale>
<asrwt>0</asrwt>
<pdfrwt beam="1">  1        2 0.94890622E-01 0.62938553E+03</pdfrwt>
<pdfrwt beam="2">  1       -2 0.13186330E+00 0.62938553E+03</pdfrwt>
<totfact> 0.20604314E+01</totfact>
</mgrwt>
</event>
<event>
 4    1  0.3365401E-008  0.4043262E+03  0.7818608E-02  0.1042292E+00
          2   -1    0    0  501    0  0.00000000000E+00  0.00000000000E+00  0.13780803687E+04  0.13780803687E+04  0.25500000000E-02 0. -1.
         -2   -1    0    0    0  501 -0.00000000000E+00 -0.00000000000E+00 -0.13376220308E+03  0.13376220310E+03  0.25500000000E-02 0.  1.
    8880022    1    1    2    0    0  0.33748600456E+03  0.16183699207E+03  0.87642130304E+03  0.96519115656E+03  0.15294330000E+03 0.  0.
    8880022    1    1    2    0    0 -0.33748600456E+03 -0.16183699207E+03  0.36789686257E+03  0.54665141523E+03  0.15294330000E+03 0.  0.
<mgrwt>
<rscale>  0 0.40432619E+03</rscale>
<asrwt>0</asrwt>
<pdfrwt beam="1">  1        2 0.21201236E+00 0.40432619E+03</pdfrwt>
<pdfrwt beam="2">  1       -2 0.20578801E-01 0.40432619E+03</pdfrwt>
<totfact> 0.31452509E+02</totfact>
</mgrwt>
</event>
<event>
 4    1  0.3365401E-008  0.3264850E+03  0.7818608E-02  0.1072703E+00
         -2   -1    0    0    0  501 -0.00000000000E+00  0.00000000000E+00  0.28121393159E+03  0.28121393160E+03  0.25500000000E-02 0.  1.
          2   -1    0    0  501    0  0.00000000000E+00 -0.00000000000E+00 -0.94738414007E+03  0.94738414008E+03  0.25500000000E-02 0. -1.
    8880022    1    1    2    0    0 -0.23748824278E+03 -0.16370738963E+03 -0.80888131439E+03  0.87228516476E+03  0.15294330000E+03 0.  0.
    8880022    1    1    2    0    0  0.23748824278E+03  0.16370738963E+03  0.14271110590E+03  0.35631290692E+03  0.15294330000E+03 0.  0.
<mgrwt>
<rscale>  0 0.32648496E+03</rscale>
<asrwt>0</asrwt>
<pdfrwt beam="1">  1        2 0.14575140E+00 0.32648496E+03</pdfrwt>
<pdfrwt beam="2">  1       -2 0.43263682E-01 0.32648496E+03</pdfrwt>
<totfact> 0.14533607E+02</totfact>
</mgrwt>
</event>
<event>
 4    1  0.3365401E-008  0.5531545E+03  0.7818608E-02  0.1000766E+00
          2   -1    0    0  501    0  0.00000000000E+00  0.00000000000E+00  0.85391073995E+03  0.85391073996E+03  0.25500000000E-02 0. -1.
         -2   -1    0    0    0  501 -0.00000000000E+00 -0.00000000000E+00 -0.86875621518E+03  0.86875621519E+03  0.25500000000E-02 0.  1.
    8880022    1    1    2    0    0  0.53149372382E+03  0.10133420601E+02 -0.66764445533E+03  0.86702308874E+03  0.15294330000E+03 0.  0.
    8880022    1    1    2    0    0 -0.53149372382E+03 -0.10133420601E+02  0.65279898010E+03  0.85564386640E+03  0.15294330000E+03 0.  0.
<mgrwt>
<rscale>  0 0.55315452E+03</rscale>
<asrwt>0</asrwt>
<pdfrwt beam="1">  1        2 0.13137088E+00 0.55315452E+03</pdfrwt>
<pdfrwt beam="2">  1       -2 0.13365480E+00 0.55315452E+03</pdfrwt>
<totfact> 0.13293423E+01</totfact>
</mgrwt>
</event>
<event>
 4    1  0.3365401E-008  0.3834447E+03  0.7818608E-02  0.1049668E+00
          2   -1    0    0  501    0  0.00000000000E+00  0.00000000000E+00  0.67637531827E+03  0.67637531827E+03  0.25500000000E-02 0. -1.
         -2   -1    0    0    0  501 -0.00000000000E+00 -0.00000000000E+00 -0.42223051330E+03  0.42223051331E+03  0.25500000000E-02 0.  1.
    8880022    1    1    2    0    0 -0.47772267090E+02 -0.34836192806E+03  0.50968260944E+03  0.63781363877E+03  0.15294330000E+03 0.  0.
    8880022    1    1    2    0    0  0.47772267090E+02  0.34836192806E+03 -0.25553780447E+03  0.46079219281E+03  0.15294330000E+03 0.  0.
<mgrwt>
<rscale>  0 0.38344475E+03</rscale>
<asrwt>0</asrwt>
<pdfrwt beam="1">  1        2 0.10405774E+00 0.38344475E+03</pdfrwt>
<pdfrwt beam="2">  1       -2 0.64958542E-01 0.38344475E+03</pdfrwt>
<totfact> 0.97585016E+01</totfact>
</mgrwt>
</event>
<event>
 4    1  0.3365401E-008  0.1036746E+04  0.7818608E-02  0.9269135E-01
         -2   -1    0    0    0  501 -0.00000000000E+00  0.00000000000E+00  0.94322970262E+03  0.94322970263E+03  0.25500000000E-02 0.  1.
          2   -1    0    0  501    0  0.00000000000E+00 -0.00000000000E+00 -0.16562909581E+04  0.16562909581E+04  0.25500000000E-02 0. -1.
    8880022    1    1    2    0    0  0.98258128428E+03 -0.29323305753E+03  0.36947119095E+03  0.11006144739E+04  0.15294330000E+03 0.  0.
    8880022    1    1    2    0    0 -0.98258128428E+03  0.29323305753E+03 -0.10825324464E+04  0.14989061868E+04  0.15294330000E+03 0.  0.
<mgrwt>
<rscale>  0 0.10367465E+04</rscale>
<asrwt>0</asrwt>
<pdfrwt beam="1">  1        2 0.25481399E+00 0.10367465E+04</pdfrwt>
<pdfrwt beam="2">  1       -2 0.14511226E+00 0.10367465E+04</pdfrwt>
<totfact> 0.33570374E+00</totfact>
</mgrwt>
</event>
<event>
 4    1  0.3365401E-008  0.1117672E+04  0.7818608E-02  0.9188137E-01
          2   -1    0    0  501    0  0.00000000000E+00  0.00000000000E+00  0.20139875337E+04  0.20139875337E+04  0.25500000000E-02 0. -1.
         -2   -1    0    0    0  501 -0.00000000000E+00 -0.00000000000E+00 -0.10684159113E+04  0.10684159113E+04  0.25500000000E-02 0.  1.
    8880022    1    1    2    0    0 -0.10692175330E+04  0.28735473531E+03 -0.52538570026E+03  0.12349982445E+04  0.15294330000E+03 0.  0.
    8880022    1    1    2    0    0  0.10692175330E+04 -0.28735473531E+03  0.14709573226E+04  0.18474052005E+04  0.15294330000E+03 0.  0.
<mgrwt>
<rscale>  0 0.11176719E+04</rscale>
<asrwt>0</asrwt>
<pdfrwt beam="1">  1        2 0.30984423E+00 0.11176719E+04</pdfrwt>
<pdfrwt beam="2">  1       -2 0.16437168E+00 0.11176719E+04</pdfrwt>
<totfact> 0.15081050E+00</totfact>
</mgrwt>
</event>
<event>
 4    1  0.3460272E-008  0.9706467E+03  0.7818608E-02  0.9341338E-01
         -2   -1    0    0    0  501 -0.00000000000E+00  0.00000000000E+00  0.13776764704E+04  0.13776764704E+04  0.25500000000E-02 0.  1.
          2   -1    0    0  501    0  0.00000000000E+00 -0.00000000000E+00 -0.13195010531E+04  0.13195010531E+04  0.25500000000E-02 0. -1.
    8880022    1    1    2    0    0  0.79966839322E+03  0.52848254942E+03  0.96508884981E+03  0.13687773688E+04  0.15294330000E+03 0.  0.
    8880022    1    1    2    0    0 -0.79966839322E+03 -0.52848254942E+03 -0.90691343249E+03  0.13284001548E+04  0.15294330000E+03 0.  0.
<mgrwt>
<rscale>  0 0.97064669E+03</rscale>
<asrwt>0</asrwt>
<pdfrwt beam="1">  1        2 0.20300016E+00 0.97064669E+03</pdfrwt>
<pdfrwt beam="2">  1       -2 0.21195023E+00 0.97064669E+03</pdfrwt>
<totfact> 0.17866683E+00</totfact>
</mgrwt>
</event>
<event>
 4    1  0.3365401E-008  0.4624073E+03  0.7818608E-02  0.1024085E+00
         -2   -1    0    0    0  501 -0.00000000000E+00  0.00000000000E+00  0.12795065906E+03  0.12795065909E+03  0.25500000000E-02 0.  1.
          2   -1    0    0  501    0  0.00000000000E+00 -0.00000000000E+00 -0.21319252638E+04  0.21319252638E+04  0.25500000000E-02 0. -1.
    8880022    1    1    2    0    0  0.83094819409E+02  0.42839718852E+03 -0.47666163081E+03  0.66409853444E+03  0.15294330000E+03 0.  0.
    8880022    1    1    2    0    0 -0.83094819409E+02 -0.42839718852E+03 -0.15273129739E+04  0.15957773884E+04  0.15294330000E+03 0.  0.
<mgrwt>
<rscale>  0 0.46240735E+03</rscale>
<asrwt>0</asrwt>
<pdfrwt beam="1">  1        2 0.32798848E+00 0.46240735E+03</pdfrwt>
<pdfrwt beam="2">  1       -2 0.19684718E-01 0.46240735E+03</pdfrwt>
<totfact> 0.13207109E+02</totfact>
</mgrwt>
</event>
<event>
 4    1  0.3365401E-008  0.9831485E+03  0.7818608E-02  0.9327223E-01
         -2   -1    0    0    0  501 -0.00000000000E+00  0.00000000000E+00  0.57774911512E+03  0.57774911512E+03  0.25500000000E-02 0.  1.
          2   -1    0    0  501    0  0.00000000000E+00 -0.00000000000E+00 -0.20027337251E+04  0.20027337251E+04  0.25500000000E-02 0. -1.
    8880022    1    1    2    0    0 -0.78109173899E+03 -0.57713520887E+03 -0.18897218313E+03  0.10011450909E+04  0.15294330000E+03 0.  0.
    8880022    1    1    2    0    0  0.78109173899E+03  0.57713520887E+03 -0.12360124268E+04  0.15793377493E+04  0.15294330000E+03 0.  0.
<mgrwt>
<rscale>  0 0.98314852E+03</rscale>
<asrwt>0</asrwt>
<pdfrwt beam="1">  1        2 0.30811288E+00 0.98314852E+03</pdfrwt>
<pdfrwt beam="2">  1       -2 0.88884480E-01 0.98314852E+03</pdfrwt>
<totfact> 0.72663504E+00</totfact>
</mgrwt>
</event>
<event>
 4    1  0.3365401E-008  0.8039702E+03  0.7818608E-02  0.9554288E-01
         -2   -1    0    0    0  501 -0.00000000000E+00  0.00000000000E+00  0.88028598404E+03  0.88028598405E+03  0.25500000000E-02 0.  1.
          2   -1    0    0  501    0  0.00000000000E+00 -0.00000000000E+00 -0.12336844092E+04  0.12336844092E+04  0.25500000000E-02 0. -1.
    8880022    1    1    2    0    0  0.62340635954E+03 -0.48408767766E+03 -0.84920679844E+03  0.11694101968E+04  0.15294330000E+03 0.  0.
    8880022    1    1    2    0    0 -0.62340635954E+03  0.48408767766E+03  0.49580837327E+03  0.94456019649E+03  0.15294330000E+03 0.  0.
<mgrwt>
<rscale>  0 0.80397016E+03</rscale>
<asrwt>0</asrwt>
<pdfrwt beam="1">  1        2 0.18979760E+00 0.80397016E+03</pdfrwt>
<pdfrwt beam="2">  1       -2 0.13542861E+00 0.80397016E+03</pdfrwt>
<totfact> 0.71752860E+00</totfact>
</mgrwt>
</event>
<event>
 4    1  0.3365401E-008  0.2279388E+03  0.7818608E-02  0.1128099E+00
         -2   -1    0    0    0  501 -0.00000000000E+00  0.00000000000E+00  0.31586297543E+03  0.31586297544E+03  0.25500000000E-02 0.  1.
          2   -1    0    0  501    0  0.00000000000E+00 -0.00000000000E+00 -0.15082639572E+04  0.15082639572E+04  0.25500000000E-02 0. -1.
    8880022    1    1    2    0    0 -0.16877827129E+03  0.88511563651E+01  0.26469334028E+03  0.34931170211E+03  0.15294330000E+03 0.  0.
    8880022    1    1    2    0    0  0.16877827129E+03 -0.88511563651E+01 -0.14570943220E+04  0.14748152305E+04  0.15294330000E+03 0. -1.
<mgrwt>
<rscale>  0 0.22793881E+03</rscale>
<asrwt>0</asrwt>
<pdfrwt beam="1">  1        2 0.23204060E+00 0.22793881E+03</pdfrwt>
<pdfrwt beam="2">  1       -2 0.48594305E-01 0.22793881E+03</pdfrwt>
<totfact> 0.56519323E+01</totfact>
</mgrwt>
</event>
<event>
 4    1  0.3365401E-008  0.9996453E+03  0.7818608E-02  0.9308934E-01
          2   -1    0    0  501    0  0.00000000000E+00  0.00000000000E+00  0.85988994066E+03  0.85988994067E+03  0.25500000000E-02 0. -1.
         -2   -1    0    0    0  501 -0.00000000000E+00 -0.00000000000E+00 -0.17687424847E+04  0.17687424847E+04  0.25500000000E-02 0.  1.
    8880022    1    1    2    0    0 -0.82817559124E+03  0.53853899838E+03  0.31528654901E+03  0.10481871606E+04  0.15294330000E+03 0.  0.
    8880022    1    1    2    0    0  0.82817559124E+03 -0.53853899838E+03 -0.12241390931E+04  0.15804452647E+04  0.15294330000E+03 0.  0.
<mgrwt>
<rscale>  0 0.99964529E+03</rscale>
<asrwt>0</asrwt>
<pdfrwt beam="1">  1        2 0.13229076E+00 0.99964529E+03</pdfrwt>
<pdfrwt beam="2">  1       -2 0.27211423E+00 0.99964529E+03</pdfrwt>
<totfact> 0.14700008E+00</totfact>
</mgrwt>
</event>
<event>
 4    1  0.3365401E-008  0.2669961E+03  0.7818608E-02  0.1103011E+00
          2   -1    0    0  501    0  0.00000000000E+00  0.00000000000E+00  0.24972967399E+04  0.24972967399E+04  0.25500000000E-02 0. -1.
         -2   -1    0    0    0  501 -0.00000000000E+00 -0.00000000000E+00 -0.17743054207E+03  0.17743054208E+03  0.25500000000E-02 0.  1.
    8880022    1    1    2    0    0  0.17222897184E+03 -0.13502752538E+03  0.23850024339E+04  0.23999007301E+04  0.15294330000E+03 0.  0.
    8880022    1    1    2    0    0 -0.17222897184E+03  0.13502752538E+03 -0.65136236121E+02  0.27482655188E+03  0.15294330000E+03 0.  0.
<mgrwt>
<rscale>  0 0.26699608E+03</rscale>
<asrwt>0</asrwt>
<pdfrwt beam="1">  1        2 0.38419948E+00 0.26699608E+03</pdfrwt>
<pdfrwt beam="2">  1       -2 0.27297007E-01 0.26699608E+03</pdfrwt>
<totfact> 0.49435814E+01</totfact>
</mgrwt>
</event>
<event>
 4    1  0.3365401E-008  0.5753080E+03  0.7818608E-02  0.9958001E-01
         -2   -1    0    0    0  501 -0.00000000000E+00  0.00000000000E+00  0.51615664036E+03  0.51615664037E+03  0.25500000000E-02 0.  1.
          2   -1    0    0  501    0  0.00000000000E+00 -0.00000000000E+00 -0.15927749457E+04  0.15927749457E+04  0.25500000000E-02 0. -1.
    8880022    1    1    2    0    0 -0.55151383896E+03 -0.58481686480E+02 -0.13533288509E+04  0.14705367230E+04  0.15294330000E+03 0.  0.
    8880022    1    1    2    0    0  0.55151383896E+03  0.58481686480E+02  0.27671054547E+03  0.63839486308E+03  0.15294330000E+03 0.  0.
<mgrwt>
<rscale>  0 0.57530798E+03</rscale>
<asrwt>0</asrwt>
<pdfrwt beam="1">  1        2 0.24504230E+00 0.57530798E+03</pdfrwt>
<pdfrwt beam="2">  1       -2 0.79408714E-01 0.57530798E+03</pdfrwt>
<totfact> 0.16657097E+01</totfact>
</mgrwt>
</event>
<event>
 4    1  0.3365401E-008  0.7382219E+03  0.7818608E-02  0.9654012E-01
         -2   -1    0    0    0  501 -0.00000000000E+00  0.00000000000E+00  0.41020253657E+03  0.41020253657E+03  0.25500000000E-02 0.  1.
          2   -1    0    0  501    0  0.00000000000E+00 -0.00000000000E+00 -0.17608507948E+04  0.17608507948E+04  0.25500000000E-02 0. -1.
    8880022    1    1    2    0    0 -0.70228883117E+03 -0.16843492754E+03 -0.12131923776E+04  0.14201434171E+04  0.15294330000E+03 0.  0.
    8880022    1    1    2    0    0  0.70228883117E+03  0.16843492754E+03 -0.13745588068E+03  0.75090991427E+03  0.15294330000E+03 0.  0.
<mgrwt>
<rscale>  0 0.73822190E+03</rscale>
<asrwt>0</asrwt>
<pdfrwt beam="1">  1        2 0.27090012E+00 0.73822190E+03</pdfrwt>
<pdfrwt beam="2">  1       -2 0.63108084E-01 0.73822190E+03</pdfrwt>
<totfact> 0.21741649E+01</totfact>
</mgrwt>
</event>
<event>
 4    1  0.3365401E-008  0.4232242E+03  0.7818608E-02  0.1036022E+00
         -2   -1    0    0    0  501 -0.00000000000E+00  0.00000000000E+00  0.44149643790E+03  0.44149643791E+03  0.25500000000E-02 0.  1.
          2   -1    0    0  501    0  0.00000000000E+00 -0.00000000000E+00 -0.58214306945E+03  0.58214306946E+03  0.25500000000E-02 0. -1.
    8880022    1    1    2    0    0 -0.39373141957E+03  0.26507451064E+02  0.21144644155E+03  0.47310498451E+03  0.15294330000E+03 0.  0.
    8880022    1    1    2    0    0  0.39373141957E+03 -0.26507451064E+02 -0.35209307309E+03  0.55053452285E+03  0.15294330000E+03 0.  0.
<mgrwt>
<rscale>  0 0.42322421E+03</rscale>
<asrwt>0</asrwt>
<pdfrwt beam="1">  1        2 0.89560473E-01 0.42322421E+03</pdfrwt>
<pdfrwt beam="2">  1       -2 0.67922529E-01 0.42322421E+03</pdfrwt>
<totfact> 0.10573547E+02</totfact>
</mgrwt>
</event>
<event>
 4    1  0.3365401E-008  0.5046254E+03  0.7818608E-02  0.1012579E+00
          2   -1    0    0  501    0  0.00000000000E+00  0.00000000000E+00  0.27589710204E+04  0.27589710204E+04  0.25500000000E-02 0. -1.
         -2   -1    0    0    0  501 -0.00000000000E+00 -0.00000000000E+00 -0.15194570850E+03  0.15194570853E+03  0.25500000000E-02 0.  1.
    8880022    1    1    2    0    0  0.40506844356E+03 -0.25918086825E+03  0.39159976167E+03  0.63874657948E+03  0.15294330000E+03 0.  0.
    8880022    1    1    2    0    0 -0.40506844356E+03  0.25918086825E+03  0.22154255502E+04  0.22721701494E+04  0.15294330000E+03 0.  0.
<mgrwt>
<rscale>  0 0.50462542E+03</rscale>
<asrwt>0</asrwt>
<pdfrwt beam="1">  1        2 0.42445711E+00 0.50462542E+03</pdfrwt>
<pdfrwt beam="2">  1       -2 0.23376261E-01 0.50462542E+03</pdfrwt>
<totfact> 0.43355854E+01</totfact>
</mgrwt>
</event>
<event>
 4    1  0.3365401E-008  0.2085875E+03  0.7818608E-02  0.1142689E+00
          2   -1    0    0  501    0  0.00000000000E+00  0.00000000000E+00  0.30612268615E+04  0.30612268615E+04  0.25500000000E-02 0. -1.
         -2   -1    0    0    0  501 -0.00000000000E+00 -0.00000000000E+00 -0.92168344272E+02  0.92168344308E+02  0.25500000000E-02 0.  1.
    8880022    1    1    2    0    0 -0.13258901446E+03 -0.50371211601E+02  0.34486266629E+02  0.21141916024E+03  0.15294330000E+03 0.  0.
    8880022    1    1    2    0    0  0.13258901446E+03  0.50371211601E+02  0.29345722506E+04  0.29419760455E+04  0.15294330000E+03 0. -1.
<mgrwt>
<rscale>  0 0.20858753E+03</rscale>
<asrwt>0</asrwt>
<pdfrwt beam="1">  1        2 0.47095803E+00 0.20858753E+03</pdfrwt>
<pdfrwt beam="2">  1       -2 0.14179744E-01 0.20858753E+03</pdfrwt>
<totfact> 0.74419221E+01</totfact>
</mgrwt>
</event>
<event>
 4    1  0.3365401E-008  0.1068842E+04  0.7818608E-02  0.9236104E-01
          2   -1    0    0  501    0  0.00000000000E+00  0.00000000000E+00  0.33930351528E+04  0.33930351528E+04  0.25500000000E-02 0. -1.
         -2   -1    0    0    0  501 -0.00000000000E+00 -0.00000000000E+00 -0.44083511910E+03  0.44083511911E+03  0.25500000000E-02 0.  1.
    8880022    1    1    2    0    0 -0.11260922289E+03 -0.10518321582E+04  0.54440228882E+03  0.11994987417E+04  0.15294330000E+03 0.  0.
    8880022    1    1    2    0    0  0.11260922289E+03  0.10518321582E+04  0.24077977448E+04  0.26343715302E+04  0.15294330000E+03 0.  0.
<mgrwt>
<rscale>  0 0.10688421E+04</rscale>
<asrwt>0</asrwt>
<pdfrwt beam="1">  1        2 0.52200543E+00 0.10688421E+04</pdfrwt>
<pdfrwt beam="2">  1       -2 0.67820785E-01 0.10688421E+04</pdfrwt>
<totfact> 0.19615118E+00</totfact>
</mgrwt>
</event>
<event>
 4    1  0.3365401E-008  0.4946735E+03  0.7818608E-02  0.1015179E+00
          2   -1    0    0  501    0  0.00000000000E+00  0.00000000000E+00  0.22494744690E+04  0.22494744690E+04  0.25500000000E-02 0. -1.
         -2   -1    0    0    0  501 -0.00000000000E+00 -0.00000000000E+00 -0.27409243412E+03  0.27409243414E+03  0.25500000000E-02 0.  1.
    8880022    1    1    2    0    0 -0.45193883456E+03 -0.13061958920E+03  0.77798127611E+01  0.49473464177E+03  0.15294330000E+03 0.  0.
    8880022    1    1    2    0    0  0.45193883456E+03  0.13061958920E+03  0.19676022221E+04  0.20288322613E+04  0.15294330000E+03 0.  0.
<mgrwt>
<rscale>  0 0.49467347E+03</rscale>
<asrwt>0</asrwt>
<pdfrwt beam="1">  1        2 0.34607298E+00 0.49467347E+03</pdfrwt>
<pdfrwt beam="2">  1       -2 0.42168068E-01 0.49467347E+03</pdfrwt>
<totfact> 0.28005312E+01</totfact>
</mgrwt>
</event>
<event>
 4    1  0.3365401E-008  0.4194240E+03  0.7818608E-02  0.1037254E+00
         -2   -1    0    0    0  501 -0.00000000000E+00  0.00000000000E+00  0.10416819992E+03  0.10416819995E+03  0.25500000000E-02 0.  1.
          2   -1    0    0  501    0  0.00000000000E+00 -0.00000000000E+00 -0.19097016914E+04  0.19097016914E+04  0.25500000000E-02 0. -1.
    8880022    1    1    2    0    0  0.35504827951E+03  0.16268238690E+03 -0.12452538645E+04  0.13139915068E+04  0.15294330000E+03 0.  0.
    8880022    1    1    2    0    0 -0.35504827951E+03 -0.16268238690E+03 -0.56027962699E+03  0.69987838460E+03  0.15294330000E+03 0.  0.
<mgrwt>
<rscale>  0 0.41942400E+03</rscale>
<asrwt>0</asrwt>
<pdfrwt beam="1">  1        2 0.29380024E+00 0.41942400E+03</pdfrwt>
<pdfrwt beam="2">  1       -2 0.16025878E-01 0.41942400E+03</pdfrwt>
<totfact> 0.24861631E+02</totfact>
</mgrwt>
</event>
<event>
 4    1  0.3365401E-008  0.4512930E+03  0.7818608E-02  0.1027337E+00
         -2   -1    0    0    0  501 -0.00000000000E+00  0.00000000000E+00  0.28059413047E+03  0.28059413048E+03  0.25500000000E-02 0.  1.
          2   -1    0    0  501    0  0.00000000000E+00 -0.00000000000E+00 -0.16814421995E+04  0.16814421995E+04  0.25500000000E-02 0. -1.
    8880022    1    1    2    0    0 -0.40435305378E+03  0.12950804183E+03 -0.14399876059E+04  0.15090492647E+04  0.15294330000E+03 0.  0.
    8880022    1    1    2    0    0  0.40435305378E+03 -0.12950804183E+03  0.39139536871E+02  0.45298706533E+03  0.15294330000E+03 0.  0.
<mgrwt>
<rscale>  0 0.45129301E+03</rscale>
<asrwt>0</asrwt>
<pdfrwt beam="1">  1        2 0.25868341E+00 0.45129301E+03</pdfrwt>
<pdfrwt beam="2">  1       -2 0.43168329E-01 0.45129301E+03</pdfrwt>
<totfact> 0.54578614E+01</totfact>
</mgrwt>
</event>
<event>
 4    1  0.3365401E-008  0.4566029E+03  0.7818608E-02  0.1025771E+00
         -2   -1    0    0    0  501 -0.00000000000E+00  0.00000000000E+00  0.10577433367E+04  0.10577433367E+04  0.25500000000E-02 0.  1.
          2   -1    0    0  501    0  0.00000000000E+00 -0.00000000000E+00 -0.12417363021E+04  0.12417363021E+04  0.25500000000E-02 0. -1.
    8880022    1    1    2    0    0 -0.41080275681E+03 -0.12781090615E+03 -0.11465447519E+04  0.12341195460E+04  0.15294330000E+03 0.  0.
    8880022    1    1    2    0    0  0.41080275681E+03  0.12781090615E+03  0.96255178646E+03  0.10653600928E+04  0.15294330000E+03 0.  0.
<mgrwt>
<rscale>  0 0.45660288E+03</rscale>
<asrwt>0</asrwt>
<pdfrwt beam="1">  1        2 0.19103635E+00 0.45660288E+03</pdfrwt>
<pdfrwt beam="2">  1       -2 0.16272974E+00 0.45660288E+03</pdfrwt>
<totfact> 0.46508647E+00</totfact>
</mgrwt>
</event>
<event>
 4    1  0.3365401E-008  0.5222228E+03  0.7818608E-02  0.1008136E+00
          2   -1    0    0  501    0  0.00000000000E+00  0.00000000000E+00  0.15068522183E+04  0.15068522183E+04  0.25500000000E-02 0. -1.
         -2   -1    0    0    0  501 -0.00000000000E+00 -0.00000000000E+00 -0.62461041271E+03  0.62461041271E+03  0.25500000000E-02 0.  1.
    8880022    1    1    2    0    0 -0.38761733034E+02  0.49781777861E+03 -0.45703482704E+03  0.69397226083E+03  0.15294330000E+03 0.  0.
    8880022    1    1    2    0    0  0.38761733034E+02 -0.49781777861E+03  0.13392766327E+04  0.14374903702E+04  0.15294330000E+03 0.  0.
<mgrwt>
<rscale>  0 0.52222281E+03</rscale>
<asrwt>0</asrwt>
<pdfrwt beam="1">  1        2 0.23182341E+00 0.52222281E+03</pdfrwt>
<pdfrwt beam="2">  1       -2 0.96093912E-01 0.52222281E+03</pdfrwt>
<totfact> 0.12129669E+01</totfact>
</mgrwt>
</event>
<event>
 4    1  0.3365401E-008  0.2132958E+03  0.7818608E-02  0.1138982E+00
         -2   -1    0    0    0  501 -0.00000000000E+00  0.00000000000E+00  0.17165094502E+03  0.17165094504E+03  0.25500000000E-02 0.  1.
          2   -1    0    0  501    0  0.00000000000E+00 -0.00000000000E+00 -0.23356843269E+04  0.23356843269E+04  0.25500000000E-02 0. -1.
    8880022    1    1    2    0    0 -0.10741532072E+03  0.10278809147E+03 -0.22624124732E+04  0.22724447837E+04  0.15294330000E+03 0. -1.
    8880022    1    1    2    0    0  0.10741532072E+03 -0.10278809147E+03  0.98379091309E+02  0.23489048830E+03  0.15294330000E+03 0.  0.
<mgrwt>
<rscale>  0 0.21329579E+03</rscale>
<asrwt>0</asrwt>
<pdfrwt beam="1">  1        2 0.35933603E+00 0.21329579E+03</pdfrwt>
<pdfrwt beam="2">  1       -2 0.26407839E-01 0.21329579E+03</pdfrwt>
<totfact> 0.65610041E+01</totfact>
</mgrwt>
</event>
<event>
 4    1  0.3365401E-008  0.4105079E+03  0.7818608E-02  0.1040201E+00
          2   -1    0    0  501    0  0.00000000000E+00  0.00000000000E+00  0.17787249206E+04  0.17787249206E+04  0.25500000000E-02 0. -1.
         -2   -1    0    0    0  501 -0.00000000000E+00 -0.00000000000E+00 -0.32569548010E+03  0.32569548011E+03  0.25500000000E-02 0.  1.
    8880022    1    1    2    0    0  0.17188623217E+03  0.33997090159E+03 -0.15954010583E+03  0.44042001444E+03  0.15294330000E+03 0.  0.
    8880022    1    1    2    0    0 -0.17188623217E+03 -0.33997090159E+03  0.16125695463E+04  0.16640003863E+04  0.15294330000E+03 0.  0.
<mgrwt>
<rscale>  0 0.41050791E+03</rscale>
<asrwt>0</asrwt>
<pdfrwt beam="1">  1        2 0.27364999E+00 0.41050791E+03</pdfrwt>
<pdfrwt beam="2">  1       -2 0.50106996E-01 0.41050791E+03</pdfrwt>
<totfact> 0.36279989E+01</totfact>
</mgrwt>
</event>
<event>
 4    1  0.3365401E-008  0.5580817E+03  0.7818608E-02  0.9996405E-01
          2   -1    0    0  501    0  0.00000000000E+00  0.00000000000E+00  0.21291155393E+04  0.21291155393E+04  0.25500000000E-02 0. -1.
         -2   -1    0    0    0  501 -0.00000000000E+00 -0.00000000000E+00 -0.87597542692E+03  0.87597542692E+03  0.25500000000E-02 0.  1.
    8880022    1    1    2    0    0 -0.17636305955E+03 -0.50691179068E+03  0.19979296285E+04  0.20744102646E+04  0.15294330000E+03 0.  0.
    8880022    1    1    2    0    0  0.17636305955E+03  0.50691179068E+03 -0.74478951606E+03  0.93068070172E+03  0.15294330000E+03 0.  1.
<mgrwt>
<rscale>  0 0.55808167E+03</rscale>
<asrwt>0</asrwt>
<pdfrwt beam="1">  1        2 0.32755623E+00 0.55808167E+03</pdfrwt>
<pdfrwt beam="2">  1       -2 0.13476545E+00 0.55808167E+03</pdfrwt>
<totfact> 0.24321373E+00</totfact>
</mgrwt>
</event>
<event>
 4    1  0.3365401E-008  0.4688569E+03  0.7818608E-02  0.1022243E+00
         -2   -1    0    0    0  501 -0.00000000000E+00  0.00000000000E+00  0.21772684383E+03  0.21772684385E+03  0.25500000000E-02 0.  1.
          2   -1    0    0  501    0  0.00000000000E+00 -0.00000000000E+00 -0.14566716340E+04  0.14566716340E+04  0.25500000000E-02 0. -1.
    8880022    1    1    2    0    0 -0.41495180535E+03  0.15572470848E+03 -0.10832552074E+04  0.11803680286E+04  0.15294330000E+03 0.  0.
    8880022    1    1    2    0    0  0.41495180535E+03 -0.15572470848E+03 -0.15568958281E+03  0.49403044927E+03  0.15294330000E+03 0.  0.
<mgrwt>
<rscale>  0 0.46885695E+03</rscale>
<asrwt>0</asrwt>
<pdfrwt beam="1">  1        2 0.22410332E+00 0.46885695E+03</pdfrwt>
<pdfrwt beam="2">  1       -2 0.33496438E-01 0.46885695E+03</pdfrwt>
<totfact> 0.11729532E+02</totfact>
</mgrwt>
</event>
<event>
 4    1  0.3365401E-008  0.1411517E+04  0.7818608E-02  0.8945524E-01
         -2   -1    0    0    0  501 -0.00000000000E+00  0.00000000000E+00  0.12840030322E+04  0.12840030322E+04  0.25500000000E-02 0.  1.
          2   -1    0    0  501    0  0.00000000000E+00 -0.00000000000E+00 -0.16432021148E+04  0.16432021148E+04  0.25500000000E-02 0. -1.
    8880022    1    1    2    0    0 -0.11080163780E+04  0.86098114669E+03  0.16578764239E+03  0.14212199070E+04  0.15294330000E+03 0.  0.
    8880022    1    1    2    0    0  0.11080163780E+04 -0.86098114669E+03 -0.52498672498E+03  0.15059852400E+04  0.15294330000E+03 0.  0.
<mgrwt>
<rscale>  0 0.14115171E+04</rscale>
<asrwt>0</asrwt>
<pdfrwt beam="1">  1        2 0.25280032E+00 0.14115171E+04</pdfrwt>
<pdfrwt beam="2">  1       -2 0.19753893E+00 0.14115171E+04</pdfrwt>
<totfact> 0.13821601E+00</totfact>
</mgrwt>
</event>
<event>
 4    1  0.3365401E-008  0.2736512E+03  0.7818608E-02  0.1099208E+00
         -2   -1    0    0    0  501 -0.00000000000E+00  0.00000000000E+00  0.57588809569E+02  0.57588809626E+02  0.25500000000E-02 0.  1.
          2   -1    0    0  501    0  0.00000000000E+00 -0.00000000000E+00 -0.16294331395E+04  0.16294331395E+04  0.25500000000E-02 0. -1.
    8880022    1    1    2    0    0  0.63676045584E+02 -0.21780422483E+03 -0.40684068031E+03  0.49031042342E+03  0.15294330000E+03 0.  0.
    8880022    1    1    2    0    0 -0.63676045584E+02  0.21780422483E+03 -0.11650036496E+04  0.11967115257E+04  0.15294330000E+03 0.  0.
<mgrwt>
<rscale>  0 0.27365119E+03</rscale>
<asrwt>0</asrwt>
<pdfrwt beam="1">  1        2 0.25068199E+00 0.27365119E+03</pdfrwt>
<pdfrwt beam="2">  1       -2 0.88598181E-02 0.27365119E+03</pdfrwt>
<totfact> 0.93792407E+02</totfact>
</mgrwt>
</event>
<event>
 4    1  0.3365401E-008  0.5403501E+03  0.7818608E-02  0.1003752E+00
         -2   -1    0    0    0  501 -0.00000000000E+00  0.00000000000E+00  0.18804537653E+03  0.18804537655E+03  0.25500000000E-02 0.  1.
          2   -1    0    0  501    0  0.00000000000E+00 -0.00000000000E+00 -0.25059424308E+04  0.25059424308E+04  0.25500000000E-02 0. -1.
    8880022    1    1    2    0    0  0.46198955270E+03 -0.23484520811E+03 -0.19897198695E+04  0.20617864658E+04  0.15294330000E+03 0.  0.
    8880022    1    1    2    0    0 -0.46198955270E+03  0.23484520811E+03 -0.32817718474E+03  0.63220134149E+03  0.15294330000E+03 0.  0.
<mgrwt>
<rscale>  0 0.54035014E+03</rscale>
<asrwt>0</asrwt>
<pdfrwt beam="1">  1        2 0.38552958E+00 0.54035014E+03</pdfrwt>
<pdfrwt beam="2">  1       -2 0.28930060E-01 0.54035014E+03</pdfrwt>
<totfact> 0.40849776E+01</totfact>
</mgrwt>
</event>
<event>
 4    1  0.3365401E-008  0.5742861E+03  0.7818608E-02  0.9960239E-01
         -2   -1    0    0    0  501 -0.00000000000E+00  0.00000000000E+00  0.19171713188E+03  0.19171713190E+03  0.25500000000E-02 0.  1.
          2   -1    0    0  501    0  0.00000000000E+00 -0.00000000000E+00 -0.35350251535E+04  0.35350251535E+04  0.25500000000E-02 0. -1.
    8880022    1    1    2    0    0 -0.47382896256E+03 -0.28617989715E+03 -0.30067503456E+04  0.30611030876E+04  0.15294330000E+03 0.  0.
    8880022    1    1    2    0    0  0.47382896256E+03  0.28617989715E+03 -0.33655767598E+03  0.66563919774E+03  0.15294330000E+03 0.  0.
<mgrwt>
<rscale>  0 0.57428605E+03</rscale>
<asrwt>0</asrwt>
<pdfrwt beam="1">  1        2 0.54384998E+00 0.57428605E+03</pdfrwt>
<pdfrwt beam="2">  1       -2 0.29494946E-01 0.57428605E+03</pdfrwt>
<totfact> 0.91459028E+00</totfact>
</mgrwt>
</event>
<event>
 4    1  0.3365401E-008  0.2970095E+03  0.7818608E-02  0.1086745E+00
         -2   -1    0    0    0  501 -0.00000000000E+00  0.00000000000E+00  0.21233234806E+03  0.21233234807E+03  0.25500000000E-02 0.  1.
          2   -1    0    0  501    0  0.00000000000E+00 -0.00000000000E+00 -0.91185280369E+03  0.91185280369E+03  0.25500000000E-02 0. -1.
    8880022    1    1    2    0    0  0.13468009242E+03  0.21606543446E+03 -0.76448517995E+03  0.82015379206E+03  0.15294330000E+03 0. -1.
    8880022    1    1    2    0    0 -0.13468009242E+03 -0.21606543446E+03  0.64964724315E+02  0.30403135970E+03  0.15294330000E+03 0.  0.
<mgrwt>
<rscale>  0 0.29700952E+03</rscale>
<asrwt>0</asrwt>
<pdfrwt beam="1">  1        2 0.14028504E+00 0.29700952E+03</pdfrwt>
<pdfrwt beam="2">  1       -2 0.32666516E-01 0.29700952E+03</pdfrwt>
<totfact> 0.26229095E+02</totfact>
</mgrwt>
</event>
<event>
 4    1  0.3365401E-008  0.9548902E+03  0.7818608E-02  0.9359453E-01
          2   -1    0    0  501    0  0.00000000000E+00  0.00000000000E+00  0.99974387669E+03  0.99974387669E+03  0.25500000000E-02 0. -1.
         -2   -1    0    0    0  501 -0.00000000000E+00 -0.00000000000E+00 -0.17432246401E+04  0.17432246401E+04  0.25500000000E-02 0.  1.
    8880022    1    1    2    0    0 -0.60172785676E+02  0.94063956637E+03  0.57528278407E+03  0.11147939238E+04  0.15294330000E+03 0.  0.
    8880022    1    1    2    0    0  0.60172785676E+02 -0.94063956637E+03 -0.13187635474E+04  0.16281745929E+04  0.15294330000E+03 0.  0.
<mgrwt>
<rscale>  0 0.95489016E+03</rscale>
<asrwt>0</asrwt>
<pdfrwt beam="1">  1        2 0.15380675E+00 0.95489016E+03</pdfrwt>
<pdfrwt beam="2">  1       -2 0.26818841E+00 0.95489016E+03</pdfrwt>
<totfact> 0.12595225E+00</totfact>
</mgrwt>
</event>
<event>
 4    1  0.3365401E-008  0.3460885E+03  0.7818608E-02  0.1064232E+00
          2   -1    0    0  501    0  0.00000000000E+00  0.00000000000E+00  0.11257411530E+04  0.11257411530E+04  0.25500000000E-02 0. -1.
         -2   -1    0    0    0  501 -0.00000000000E+00 -0.00000000000E+00 -0.22558504739E+03  0.22558504740E+03  0.25500000000E-02 0.  1.
    8880022    1    1    2    0    0  0.30229762344E+03  0.70723068620E+02 -0.41042968092E+02  0.34851367809E+03  0.15294330000E+03 0.  0.
    8880022    1    1    2    0    0 -0.30229762344E+03 -0.70723068620E+02  0.94119907373E+03  0.10028125223E+04  0.15294330000E+03 0.  0.
<mgrwt>
<rscale>  0 0.34608851E+03</rscale>
<asrwt>0</asrwt>
<pdfrwt beam="1">  1        2 0.17319095E+00 0.34608851E+03</pdfrwt>
<pdfrwt beam="2">  1       -2 0.34705392E-01 0.34608851E+03</pdfrwt>
<totfact> 0.17196470E+02</totfact>
</mgrwt>
</event>
<event>
 4    1  0.3365401E-008  0.4691079E+03  0.7818608E-02  0.1022172E+00
         -2   -1    0    0    0  501 -0.00000000000E+00  0.00000000000E+00  0.19268313022E+03  0.19268313023E+03  0.25500000000E-02 0.  1.
          2   -1    0    0  501    0  0.00000000000E+00 -0.00000000000E+00 -0.30912777219E+04  0.30912777219E+04  0.25500000000E-02 0. -1.
    8880022    1    1    2    0    0 -0.41361987024E+03  0.15996614581E+03 -0.27531405017E+04  0.27928202305E+04  0.15294330000E+03 0.  0.
    8880022    1    1    2    0    0  0.41361987024E+03 -0.15996614581E+03 -0.14545408993E+03  0.49114062157E+03  0.15294330000E+03 0.  0.
<mgrwt>
<rscale>  0 0.46910790E+03</rscale>
<asrwt>0</asrwt>
<pdfrwt beam="1">  1        2 0.47558115E+00 0.46910790E+03</pdfrwt>
<pdfrwt beam="2">  1       -2 0.29643561E-01 0.46910790E+03</pdfrwt>
<totfact> 0.18050599E+01</totfact>
</mgrwt>
</event>
<event>
 4    1  0.3365401E-008  0.7048997E+03  0.7818608E-02  0.9708890E-01
          2   -1    0    0  501    0  0.00000000000E+00  0.00000000000E+00  0.79542171481E+03  0.79542171481E+03  0.25500000000E-02 0. -1.
         -2   -1    0    0    0  501 -0.00000000000E+00 -0.00000000000E+00 -0.18918050480E+04  0.18918050480E+04  0.25500000000E-02 0.  1.
    8880022    1    1    2    0    0  0.20080905886E+03  0.65815468672E+03 -0.16478201460E+04  0.17922596788E+04  0.15294330000E+03 0.  0.
    8880022    1    1    2    0    0 -0.20080905886E+03 -0.65815468672E+03  0.55143681284E+03  0.89496708395E+03  0.15294330000E+03 0.  0.
<mgrwt>
<rscale>  0 0.70489965E+03</rscale>
<asrwt>0</asrwt>
<pdfrwt beam="1">  1        2 0.12237257E+00 0.70489965E+03</pdfrwt>
<pdfrwt beam="2">  1       -2 0.29104693E+00 0.70489965E+03</pdfrwt>
<totfact> 0.13144151E+00</totfact>
</mgrwt>
</event>
<event>
 4    1  0.3365401E-008  0.5266386E+03  0.7818608E-02  0.1007051E+00
         -2   -1    0    0    0  501 -0.00000000000E+00  0.00000000000E+00  0.24514254951E+04  0.24514254951E+04  0.25500000000E-02 0.  1.
          2   -1    0    0  501    0  0.00000000000E+00 -0.00000000000E+00 -0.39075537840E+03  0.39075537841E+03  0.25500000000E-02 0. -1.
    8880022    1    1    2    0    0 -0.42354571578E+03 -0.27306699694E+03  0.22281588397E+04  0.22895501799E+04  0.15294330000E+03 0.  0.
    8880022    1    1    2    0    0  0.42354571578E+03  0.27306699694E+03 -0.16748872303E+03  0.55263069362E+03  0.15294330000E+03 0.  0.
<mgrwt>
<rscale>  0 0.52663860E+03</rscale>
<asrwt>0</asrwt>
<pdfrwt beam="1">  1        2 0.60116211E-01 0.52663860E+03</pdfrwt>
<pdfrwt beam="2">  1       -2 0.37714239E+00 0.52663860E+03</pdfrwt>
<totfact> 0.94741682E-01</totfact>
</mgrwt>
</event>
<event>
 4    1  0.3365401E-008  0.4153860E+03  0.7818608E-02  0.1038579E+00
          2   -1    0    0  501    0  0.00000000000E+00  0.00000000000E+00  0.86499310790E+03  0.86499310790E+03  0.25500000000E-02 0. -1.
         -2   -1    0    0    0  501 -0.00000000000E+00 -0.00000000000E+00 -0.50290642366E+03  0.50290642367E+03  0.25500000000E-02 0.  1.
    8880022    1    1    2    0    0 -0.28435432294E+03  0.26133601911E+03  0.71230689638E+03  0.82457665715E+03  0.15294330000E+03 0.  0.
    8880022    1    1    2    0    0  0.28435432294E+03 -0.26133601911E+03 -0.35022021215E+03  0.54332287442E+03  0.15294330000E+03 0.  0.
<mgrwt>
<rscale>  0 0.41538602E+03</rscale>
<asrwt>0</asrwt>
<pdfrwt beam="1">  1        2 0.13307586E+00 0.41538602E+03</pdfrwt>
<pdfrwt beam="2">  1       -2 0.77370221E-01 0.41538602E+03</pdfrwt>
<totfact> 0.48572236E+01</totfact>
</mgrwt>
</event>
<event>
 4    1  0.3365401E-008  0.6769794E+03  0.7818608E-02  0.9757431E-01
         -2   -1    0    0    0  501 -0.00000000000E+00  0.00000000000E+00  0.30241791200E+03  0.30241791201E+03  0.25500000000E-02 0.  1.
          2   -1    0    0  501    0  0.00000000000E+00 -0.00000000000E+00 -0.42601185676E+04  0.42601185676E+04  0.25500000000E-02 0. -1.
    8880022    1    1    2    0    0 -0.35769082882E+03 -0.55404574791E+03 -0.38099415546E+04  0.38696195836E+04  0.15294330000E+03 0.  0.
    8880022    1    1    2    0    0  0.35769082882E+03  0.55404574791E+03 -0.14775910105E+03  0.69291689600E+03  0.15294330000E+03 0.  0.
<mgrwt>
<rscale>  0 0.67697937E+03</rscale>
<asrwt>0</asrwt>
<pdfrwt beam="1">  1        2 0.65540281E+00 0.67697937E+03</pdfrwt>
<pdfrwt beam="2">  1       -2 0.46525836E-01 0.67697937E+03</pdfrwt>
<totfact> 0.10357574E+00</totfact>
</mgrwt>
</event>
<event>
 4    1  0.3365401E-008  0.6122630E+03  0.7818608E-02  0.9880286E-01
         -2   -1    0    0    0  501 -0.00000000000E+00  0.00000000000E+00  0.75942403172E+03  0.75942403173E+03  0.25500000000E-02 0.  1.
          2   -1    0    0  501    0  0.00000000000E+00 -0.00000000000E+00 -0.84816228784E+03  0.84816228784E+03  0.25500000000E-02 0. -1.
    8880022    1    1    2    0    0 -0.38884286672E+03 -0.44752155556E+03  0.47531516410E+03  0.77510675131E+03  0.15294330000E+03 0.  0.
    8880022    1    1    2    0    0  0.38884286672E+03  0.44752155556E+03 -0.56405342022E+03  0.83247956826E+03  0.15294330000E+03 0.  0.
<mgrwt>
<rscale>  0 0.61226299E+03</rscale>
<asrwt>0</asrwt>
<pdfrwt beam="1">  1        2 0.13048651E+00 0.61226299E+03</pdfrwt>
<pdfrwt beam="2">  1       -2 0.11683447E+00 0.61226299E+03</pdfrwt>
<totfact> 0.18613207E+01</totfact>
</mgrwt>
</event>
<event>
 4    1  0.3365401E-008  0.1543694E+03  0.7818608E-02  0.1195204E+00
         -2   -1    0    0    0  501 -0.00000000000E+00  0.00000000000E+00  0.97887239345E+02  0.97887239378E+02  0.25500000000E-02 0.  1.
          2   -1    0    0  501    0  0.00000000000E+00 -0.00000000000E+00 -0.48738805868E+03  0.48738805869E+03  0.25500000000E-02 0. -1.
    8880022    1    1    2    0    0  0.98567867344E+01  0.18469360662E+02 -0.40178318459E+03  0.43041799912E+03  0.15294330000E+03 0.  0.
    8880022    1    1    2    0    0 -0.98567867344E+01 -0.18469360662E+02  0.12282365252E+02  0.15485729895E+03  0.15294330000E+03 0.  1.
<mgrwt>
<rscale>  0 0.15436945E+03</rscale>
<asrwt>0</asrwt>
<pdfrwt beam="1">  1        2 0.74982777E-01 0.15436945E+03</pdfrwt>
<pdfrwt beam="2">  1       -2 0.15059576E-01 0.15436945E+03</pdfrwt>
<totfact> 0.21440313E+03</totfact>
</mgrwt>
</event>
<event>
 4    1  0.3365401E-008  0.2683607E+03  0.7818608E-02  0.1102222E+00
         -2   -1    0    0    0  501 -0.00000000000E+00  0.00000000000E+00  0.12673712448E+03  0.12673712450E+03  0.25500000000E-02 0.  1.
          2   -1    0    0  501    0  0.00000000000E+00 -0.00000000000E+00 -0.12674597748E+04  0.12674597748E+04  0.25500000000E-02 0. -1.
    8880022    1    1    2    0    0 -0.22046480844E+03 -0.45893450337E+01 -0.10881267362E+04  0.11207306728E+04  0.15294330000E+03 0.  0.
    8880022    1    1    2    0    0  0.22046480844E+03  0.45893450337E+01 -0.52595914115E+02  0.27346622652E+03  0.15294330000E+03 0.  1.
<mgrwt>
<rscale>  0 0.26836067E+03</rscale>
<asrwt>0</asrwt>
<pdfrwt beam="1">  1        2 0.19499380E+00 0.26836067E+03</pdfrwt>
<pdfrwt beam="2">  1       -2 0.19498020E-01 0.26836067E+03</pdfrwt>
<totfact> 0.40438245E+02</totfact>
</mgrwt>
</event>
<event>
 4    1  0.3365401E-008  0.6021573E+03  0.7818608E-02  0.9900940E-01
         -2   -1    0    0    0  501 -0.00000000000E+00  0.00000000000E+00  0.80770190493E+03  0.80770190493E+03  0.25500000000E-02 0.  1.
          2   -1    0    0  501    0  0.00000000000E+00 -0.00000000000E+00 -0.26162656550E+04  0.26162656550E+04  0.25500000000E-02 0. -1.
    8880022    1    1    2    0    0  0.47746483288E+02  0.58044988225E+03  0.65391678667E+03  0.88893228616E+03  0.15294330000E+03 0.  0.
    8880022    1    1    2    0    0 -0.47746483288E+02 -0.58044988225E+03 -0.24624805367E+04  0.25350352737E+04  0.15294330000E+03 0.  0.
<mgrwt>
<rscale>  0 0.60215733E+03</rscale>
<asrwt>0</asrwt>
<pdfrwt beam="1">  1        2 0.40250240E+00 0.60215733E+03</pdfrwt>
<pdfrwt beam="2">  1       -2 0.12426183E+00 0.60215733E+03</pdfrwt>
<totfact> 0.15813263E+00</totfact>
</mgrwt>
</event>
<event>
 4    1  0.3365401E-008  0.2806732E+03  0.7818608E-02  0.1095322E+00
          2   -1    0    0  501    0  0.00000000000E+00  0.00000000000E+00  0.82995813401E+03  0.82995813401E+03  0.25500000000E-02 0. -1.
         -2   -1    0    0    0  501 -0.00000000000E+00 -0.00000000000E+00 -0.10879845664E+03  0.10879845667E+03  0.25500000000E-02 0.  1.
    8880022    1    1    2    0    0  0.99966601404E+02 -0.21305503551E+03  0.19292204014E+03  0.34058234854E+03  0.15294330000E+03 0. -1.
    8880022    1    1    2    0    0 -0.99966601404E+02  0.21305503551E+03  0.52823763723E+03  0.59817424214E+03  0.15294330000E+03 0.  1.
<mgrwt>
<rscale>  0 0.28067316E+03</rscale>
<asrwt>0</asrwt>
<pdfrwt beam="1">  1        2 0.12768587E+00 0.28067316E+03</pdfrwt>
<pdfrwt beam="2">  1       -2 0.16738223E-01 0.28067316E+03</pdfrwt>
<totfact> 0.96530480E+02</totfact>
</mgrwt>
</event>
<event>
 4    1  0.4875359E-008  0.7009619E+03  0.7818608E-02  0.9715589E-01
         -2   -1    0    0    0  501 -0.00000000000E+00  0.00000000000E+00  0.15284533238E+04  0.15284533238E+04  0.25500000000E-02 0.  1.
          2   -1    0    0  501    0  0.00000000000E+00 -0.00000000000E+00 -0.11860396520E+04  0.11860396520E+04  0.25500000000E-02 0. -1.
    8880022    1    1    2    0    0  0.55848251916E+03  0.39503569677E+03 -0.98759673284E+03  0.12110717921E+04  0.15294330000E+03 0.  0.
    8880022    1    1    2    0    0 -0.55848251916E+03 -0.39503569677E+03  0.13300104046E+04  0.15034211836E+04  0.15294330000E+03 0.  0.
<mgrwt>
<rscale>  0 0.70096190E+03</rscale>
<asrwt>0</asrwt>
<pdfrwt beam="1">  1        2 0.18246764E+00 0.70096190E+03</pdfrwt>
<pdfrwt beam="2">  1       -2 0.23514666E+00 0.70096190E+03</pdfrwt>
<totfact> 0.15986273E+00</totfact>
</mgrwt>
</event>
<event>
 4    1  0.3365401E-008  0.2833476E+03  0.7818608E-02  0.1093874E+00
          2   -1    0    0  501    0  0.00000000000E+00  0.00000000000E+00  0.16311446690E+03  0.16311446692E+03  0.25500000000E-02 0. -1.
         -2   -1    0    0    0  501 -0.00000000000E+00 -0.00000000000E+00 -0.13352722976E+04  0.13352722976E+04  0.25500000000E-02 0.  1.
    8880022    1    1    2    0    0  0.13763564157E+03 -0.19480919046E+03  0.92267242726E+01  0.28349775303E+03  0.15294330000E+03 0. -1.
    8880022    1    1    2    0    0 -0.13763564157E+03  0.19480919046E+03 -0.11813845550E+04  0.12148890115E+04  0.15294330000E+03 0.  0.
<mgrwt>
<rscale>  0 0.28334757E+03</rscale>
<asrwt>0</asrwt>
<pdfrwt beam="1">  1        2 0.25094534E-01 0.28334757E+03</pdfrwt>
<pdfrwt beam="2">  1       -2 0.20542650E+00 0.28334757E+03</pdfrwt>
<totfact> 0.28630006E+01</totfact>
</mgrwt>
</event>
<event>
 4    1  0.3365401E-008  0.8551330E+03  0.7818608E-02  0.9483473E-01
          2   -1    0    0  501    0  0.00000000000E+00  0.00000000000E+00  0.33930672357E+04  0.33930672357E+04  0.25500000000E-02 0. -1.
         -2   -1    0    0    0  501 -0.00000000000E+00 -0.00000000000E+00 -0.38279215333E+03  0.38279215334E+03  0.25500000000E-02 0.  1.
    8880022    1    1    2    0    0  0.30279979201E+03  0.78496695660E+03  0.27531654582E+04  0.28829104270E+04  0.15294330000E+03 0.  0.
    8880022    1    1    2    0    0 -0.30279979201E+03 -0.78496695660E+03  0.25710962422E+03  0.89294896208E+03  0.15294330000E+03 0.  0.
<mgrwt>
<rscale>  0 0.85513302E+03</rscale>
<asrwt>0</asrwt>
<pdfrwt beam="1">  1        2 0.52201037E+00 0.85513302E+03</pdfrwt>
<pdfrwt beam="2">  1       -2 0.58891098E-01 0.85513302E+03</pdfrwt>
<totfact> 0.27512503E+00</totfact>
</mgrwt>
</event>
<event>
 4    1  0.3365401E-008  0.4350180E+03  0.7818608E-02  0.1032286E+00
         -2   -1    0    0    0  501 -0.00000000000E+00  0.00000000000E+00  0.15826141383E+03  0.15826141385E+03  0.25500000000E-02 0.  1.
          2   -1    0    0  501    0  0.00000000000E+00 -0.00000000000E+00 -0.21217987915E+04  0.21217987915E+04  0.25500000000E-02 0. -1.
    8880022    1    1    2    0    0 -0.30921068040E+03  0.26502408193E+03 -0.22861816464E+03  0.49143354291E+03  0.15294330000E+03 0.  0.
    8880022    1    1    2    0    0  0.30921068040E+03 -0.26502408193E+03 -0.17349192131E+04  0.17886266625E+04  0.15294330000E+03 0.  0.
<mgrwt>
<rscale>  0 0.43501800E+03</rscale>
<asrwt>0</asrwt>
<pdfrwt beam="1">  1        2 0.32643056E+00 0.43501800E+03</pdfrwt>
<pdfrwt beam="2">  1       -2 0.24347911E-01 0.43501800E+03</pdfrwt>
<totfact> 0.92536565E+01</totfact>
</mgrwt>
</event>
<event>
 4    1  0.3365401E-008  0.5128753E+03  0.7818608E-02  0.1010472E+00
          2   -1    0    0  501    0  0.00000000000E+00  0.00000000000E+00  0.18554907048E+04  0.18554907048E+04  0.25500000000E-02 0. -1.
         -2   -1    0    0    0  501 -0.00000000000E+00 -0.00000000000E+00 -0.16736031475E+03  0.16736031476E+03  0.25500000000E-02 0.  1.
    8880022    1    1    2    0    0  0.32190979581E+03  0.36881362262E+03  0.12396136598E+04  0.13415226734E+04  0.15294330000E+03 0.  0.
    8880022    1    1    2    0    0 -0.32190979581E+03 -0.36881362262E+03  0.44851673029E+03  0.68132834613E+03  0.15294330000E+03 0.  0.
<mgrwt>
<rscale>  0 0.51287528E+03</rscale>
<asrwt>0</asrwt>
<pdfrwt beam="1">  1        2 0.28546010E+00 0.51287528E+03</pdfrwt>
<pdfrwt beam="2">  1       -2 0.25747741E-01 0.51287528E+03</pdfrwt>
<totfact> 0.11490854E+02</totfact>
</mgrwt>
</event>
<event>
 4    1  0.3365401E-008  0.4033673E+03  0.7818608E-02  0.1042620E+00
         -2   -1    0    0    0  501 -0.00000000000E+00  0.00000000000E+00  0.26680023256E+03  0.26680023257E+03  0.25500000000E-02 0.  1.
          2   -1    0    0  501    0  0.00000000000E+00 -0.00000000000E+00 -0.19205458729E+04  0.19205458729E+04  0.25500000000E-02 0. -1.
    8880022    1    1    2    0    0 -0.29686112995E+03  0.22624545409E+03  0.76626762436E+02  0.41058111222E+03  0.15294330000E+03 0.  0.
    8880022    1    1    2    0    0  0.29686112995E+03 -0.22624545409E+03 -0.17303724028E+04  0.17767649933E+04  0.15294330000E+03 0.  0.
<mgrwt>
<rscale>  0 0.40336731E+03</rscale>
<asrwt>0</asrwt>
<pdfrwt beam="1">  1        2 0.29546859E+00 0.40336731E+03</pdfrwt>
<pdfrwt beam="2">  1       -2 0.41046191E-01 0.40336731E+03</pdfrwt>
<totfact> 0.45294704E+01</totfact>
</mgrwt>
</event>
<event>
 4    1  0.3365401E-008  0.7272560E+03  0.7818608E-02  0.9671724E-01
         -2   -1    0    0    0  501 -0.00000000000E+00  0.00000000000E+00  0.80625348175E+03  0.80625348176E+03  0.25500000000E-02 0.  1.
          2   -1    0    0  501    0  0.00000000000E+00 -0.00000000000E+00 -0.12300294126E+04  0.12300294126E+04  0.25500000000E-02 0. -1.
    8880022    1    1    2    0    0 -0.88166768011E+02 -0.70550422336E+03 -0.90742127149E+03  0.11628906247E+04  0.15294330000E+03 0.  0.
    8880022    1    1    2    0    0  0.88166768011E+02  0.70550422336E+03  0.48364534062E+03  0.87339226964E+03  0.15294330000E+03 0.  0.
<mgrwt>
<rscale>  0 0.72725597E+03</rscale>
<asrwt>0</asrwt>
<pdfrwt beam="1">  1        2 0.18923529E+00 0.72725597E+03</pdfrwt>
<pdfrwt beam="2">  1       -2 0.12403900E+00 0.72725597E+03</pdfrwt>
<totfact> 0.90938281E+00</totfact>
</mgrwt>
</event>
<event>
 4    1  0.3365401E-008  0.8456678E+03  0.7818608E-02  0.9496170E-01
         -2   -1    0    0    0  501 -0.00000000000E+00  0.00000000000E+00  0.18103955856E+04  0.18103955856E+04  0.25500000000E-02 0.  1.
          2   -1    0    0  501    0  0.00000000000E+00 -0.00000000000E+00 -0.12072279560E+04  0.12072279560E+04  0.25500000000E-02 0. -1.
    8880022    1    1    2    0    0  0.55727674143E+03 -0.61741803423E+03  0.15391611023E+04  0.17561807844E+04  0.15294330000E+03 0.  0.
    8880022    1    1    2    0    0 -0.55727674143E+03  0.61741803423E+03 -0.93599347281E+03  0.12614427572E+04  0.15294330000E+03 0.  0.
<mgrwt>
<rscale>  0 0.84566781E+03</rscale>
<asrwt>0</asrwt>
<pdfrwt beam="1">  1        2 0.18572738E+00 0.84566781E+03</pdfrwt>
<pdfrwt beam="2">  1       -2 0.27852240E+00 0.84566781E+03</pdfrwt>
<totfact> 0.82695392E-01</totfact>
</mgrwt>
</event>
<event>
 4    1  0.3365401E-008  0.8543830E+03  0.7818608E-02  0.9484473E-01
          2   -1    0    0  501    0  0.00000000000E+00  0.00000000000E+00  0.22484567161E+04  0.22484567161E+04  0.25500000000E-02 0. -1.
         -2   -1    0    0    0  501 -0.00000000000E+00 -0.00000000000E+00 -0.48314933844E+03  0.48314933844E+03  0.25500000000E-02 0.  1.
    8880022    1    1    2    0    0 -0.45149587304E+03  0.70903462622E+03  0.16649220011E+04  0.18713459187E+04  0.15294330000E+03 0.  0.
    8880022    1    1    2    0    0  0.45149587304E+03 -0.70903462622E+03  0.10038537658E+03  0.86026013589E+03  0.15294330000E+03 0.  0.
<mgrwt>
<rscale>  0 0.85438298E+03</rscale>
<asrwt>0</asrwt>
<pdfrwt beam="1">  1        2 0.34591642E+00 0.85438298E+03</pdfrwt>
<pdfrwt beam="2">  1       -2 0.74330667E-01 0.85438298E+03</pdfrwt>
<totfact> 0.81001242E+00</totfact>
</mgrwt>
</event>
<event>
 4    1  0.3365401E-008  0.2489419E+03  0.7818608E-02  0.1113975E+00
         -2   -1    0    0    0  501 -0.00000000000E+00  0.00000000000E+00  0.45799039577E+03  0.45799039578E+03  0.25500000000E-02 0.  1.
          2   -1    0    0  501    0  0.00000000000E+00 -0.00000000000E+00 -0.39348452416E+03  0.39348452417E+03  0.25500000000E-02 0. -1.
    8880022    1    1    2    0    0  0.19524028518E+03  0.21486510887E+02 -0.31259857803E+03  0.39961226596E+03  0.15294330000E+03 0. -1.
    8880022    1    1    2    0    0 -0.19524028518E+03 -0.21486510887E+02  0.37710444965E+03  0.45186265398E+03  0.15294330000E+03 0.  0.
<mgrwt>
<rscale>  0 0.24894195E+03</rscale>
<asrwt>0</asrwt>
<pdfrwt beam="1">  1        2 0.60536081E-01 0.24894195E+03</pdfrwt>
<pdfrwt beam="2">  1       -2 0.70460060E-01 0.24894195E+03</pdfrwt>
<totfact> 0.15458799E+02</totfact>
</mgrwt>
</event>
<event>
 4    1  0.3365401E-008  0.5328987E+03  0.7818608E-02  0.1005532E+00
          2   -1    0    0  501    0  0.00000000000E+00  0.00000000000E+00  0.62257799753E+03  0.62257799753E+03  0.25500000000E-02 0. -1.
         -2   -1    0    0    0  501 -0.00000000000E+00 -0.00000000000E+00 -0.83121915091E+03  0.83121915091E+03  0.25500000000E-02 0.  1.
    8880022    1    1    2    0    0 -0.49472666232E+03 -0.12583680903E+03 -0.59261199468E+03  0.79697553423E+03  0.15294330000E+03 0.  0.
    8880022    1    1    2    0    0  0.49472666232E+03  0.12583680903E+03  0.38397084130E+03  0.65682161421E+03  0.15294330000E+03 0.  0.
<mgrwt>
<rscale>  0 0.53289870E+03</rscale>
<asrwt>0</asrwt>
<pdfrwt beam="1">  1        2 0.95781231E-01 0.53289870E+03</pdfrwt>
<pdfrwt beam="2">  1       -2 0.12787987E+00 0.53289870E+03</pdfrwt>
<totfact> 0.22256269E+01</totfact>
</mgrwt>
</event>
<event>
 4    1  0.3365401E-008  0.7920180E+03  0.7818608E-02  0.9571643E-01
         -2   -1    0    0    0  501 -0.00000000000E+00  0.00000000000E+00  0.85616761165E+03  0.85616761166E+03  0.25500000000E-02 0.  1.
          2   -1    0    0  501    0  0.00000000000E+00 -0.00000000000E+00 -0.15874003864E+04  0.15874003864E+04  0.25500000000E-02 0. -1.
    8880022    1    1    2    0    0 -0.76846952552E+03  0.11556550489E+03 -0.12621457950E+04  0.14900686086E+04  0.15294330000E+03 0.  0.
    8880022    1    1    2    0    0  0.76846952552E+03 -0.11556550489E+03  0.53091302025E+03  0.95349938943E+03  0.15294330000E+03 0.  0.
<mgrwt>
<rscale>  0 0.79201796E+03</rscale>
<asrwt>0</asrwt>
<pdfrwt beam="1">  1        2 0.24421544E+00 0.79201796E+03</pdfrwt>
<pdfrwt beam="2">  1       -2 0.13171809E+00 0.79201796E+03</pdfrwt>
<totfact> 0.48607545E+00</totfact>
</mgrwt>
</event>
<event>
 4    1  0.3365401E-008  0.3926670E+03  0.7818608E-02  0.1046349E+00
         -2   -1    0    0    0  501 -0.00000000000E+00  0.00000000000E+00  0.55784357040E+03  0.55784357040E+03  0.25500000000E-02 0.  1.
          2   -1    0    0  501    0  0.00000000000E+00 -0.00000000000E+00 -0.91986277560E+03  0.91986277560E+03  0.25500000000E-02 0. -1.
    8880022    1    1    2    0    0 -0.31735851511E+03  0.17343379313E+03 -0.79896723240E+03  0.89024490966E+03  0.15294330000E+03 0.  0.
    8880022    1    1    2    0    0  0.31735851511E+03 -0.17343379313E+03  0.43694802719E+03  0.58746143635E+03  0.15294330000E+03 0.  0.
<mgrwt>
<rscale>  0 0.39266698E+03</rscale>
<asrwt>0</asrwt>
<pdfrwt beam="1">  1        2 0.14151735E+00 0.39266698E+03</pdfrwt>
<pdfrwt beam="2">  1       -2 0.85822088E-01 0.39266698E+03</pdfrwt>
<totfact> 0.35560619E+01</totfact>
</mgrwt>
</event>
<event>
 4    1  0.3365401E-008  0.1689182E+04  0.7818608E-02  0.8767559E-01
          2   -1    0    0  501    0  0.00000000000E+00  0.00000000000E+00  0.16685285232E+04  0.16685285232E+04  0.25500000000E-02 0. -1.
         -2   -1    0    0    0  501 -0.00000000000E+00 -0.00000000000E+00 -0.19826980248E+04  0.19826980248E+04  0.25500000000E-02 0.  1.
    8880022    1    1    2    0    0  0.14549688617E+04 -0.84439869966E+03 -0.83402324788E+03  0.18838603938E+04  0.15294330000E+03 0.  0.
    8880022    1    1    2    0    0 -0.14549688617E+04  0.84439869966E+03  0.51985374627E+03  0.17673661542E+04  0.15294330000E+03 0.  0.
<mgrwt>
<rscale>  0 0.16891818E+04</rscale>
<asrwt>0</asrwt>
<pdfrwt beam="1">  1        2 0.25669670E+00 0.16891818E+04</pdfrwt>
<pdfrwt beam="2">  1       -2 0.30503047E+00 0.16891818E+04</pdfrwt>
<totfact> 0.27843753E-01</totfact>
</mgrwt>
</event>
<event>
 4    1  0.3365401E-008  0.1395577E+04  0.7818608E-02  0.8957027E-01
         -2   -1    0    0    0  501 -0.00000000000E+00  0.00000000000E+00  0.25522534297E+04  0.25522534297E+04  0.25500000000E-02 0.  1.
          2   -1    0    0  501    0  0.00000000000E+00 -0.00000000000E+00 -0.13026475156E+04  0.13026475156E+04  0.25500000000E-02 0. -1.
    8880022    1    1    2    0    0  0.37432718332E+03  0.13357103036E+04  0.18652637851E+04  0.23295586484E+04  0.15294330000E+03 0.  0.
    8880022    1    1    2    0    0 -0.37432718332E+03 -0.13357103036E+04 -0.61565787099E+03  0.15253422968E+04  0.15294330000E+03 0.  0.
<mgrwt>
<rscale>  0 0.13955768E+04</rscale>
<asrwt>0</asrwt>
<pdfrwt beam="1">  1        2 0.20040731E+00 0.13955768E+04</pdfrwt>
<pdfrwt beam="2">  1       -2 0.39265437E+00 0.13955768E+04</pdfrwt>
<totfact> 0.13070630E-01</totfact>
</mgrwt>
</event>
<event>
 4    1  0.3365401E-008  0.3485831E+03  0.7818608E-02  0.1063198E+00
         -2   -1    0    0    0  501 -0.00000000000E+00  0.00000000000E+00  0.26264552642E+03  0.26264552643E+03  0.25500000000E-02 0.  1.
          2   -1    0    0  501    0  0.00000000000E+00 -0.00000000000E+00 -0.21196371721E+04  0.21196371721E+04  0.25500000000E-02 0. -1.
    8880022    1    1    2    0    0 -0.31284787294E+03  0.15642955093E+02  0.12466212772E+03  0.37020371791E+03  0.15294330000E+03 0.  0.
    8880022    1    1    2    0    0  0.31284787294E+03 -0.15642955093E+02 -0.19816537734E+04  0.20120789806E+04  0.15294330000E+03 0.  0.
<mgrwt>
<rscale>  0 0.34858306E+03</rscale>
<asrwt>0</asrwt>
<pdfrwt beam="1">  1        2 0.32609802E+00 0.34858306E+03</pdfrwt>
<pdfrwt beam="2">  1       -2 0.40407005E-01 0.34858306E+03</pdfrwt>
<totfact> 0.37080196E+01</totfact>
</mgrwt>
</event>
<event>
 4    1  0.3365401E-008  0.2128741E+03  0.7818608E-02  0.1139310E+00
          2   -1    0    0  501    0  0.00000000000E+00  0.00000000000E+00  0.14830733466E+04  0.14830733466E+04  0.25500000000E-02 0. -1.
         -2   -1    0    0    0  501 -0.00000000000E+00 -0.00000000000E+00 -0.32115417267E+03  0.32115417268E+03  0.25500000000E-02 0.  1.
    8880022    1    1    2    0    0 -0.19996307194E+02  0.14671014525E+03 -0.27716762894E+03  0.34948142521E+03  0.15294330000E+03 0.  1.
    8880022    1    1    2    0    0  0.19996307194E+02 -0.14671014525E+03  0.14390868029E+04  0.14547460941E+04  0.15294330000E+03 0.  0.
<mgrwt>
<rscale>  0 0.21287408E+03</rscale>
<asrwt>0</asrwt>
<pdfrwt beam="1">  1        2 0.22816513E+00 0.21287408E+03</pdfrwt>
<pdfrwt beam="2">  1       -2 0.49408335E-01 0.21287408E+03</pdfrwt>
<totfact> 0.56703060E+01</totfact>
</mgrwt>
</event>
<event>
 4    1  0.3365401E-008  0.1000485E+04  0.7818608E-02  0.9308013E-01
         -2   -1    0    0    0  501 -0.00000000000E+00  0.00000000000E+00  0.16949600944E+04  0.16949600944E+04  0.25500000000E-02 0.  1.
          2   -1    0    0  501    0  0.00000000000E+00 -0.00000000000E+00 -0.16667473855E+04  0.16667473855E+04  0.25500000000E-02 0. -1.
    8880022    1    1    2    0    0 -0.74558423057E+03  0.64937114514E+03  0.13647463537E+04  0.16921888169E+04  0.15294330000E+03 0.  0.
    8880022    1    1    2    0    0  0.74558423057E+03 -0.64937114514E+03 -0.13365336448E+04  0.16695186629E+04  0.15294330000E+03 0.  0.
<mgrwt>
<rscale>  0 0.10004851E+04</rscale>
<asrwt>0</asrwt>
<pdfrwt beam="1">  1        2 0.25642267E+00 0.10004851E+04</pdfrwt>
<pdfrwt beam="2">  1       -2 0.26076309E+00 0.10004851E+04</pdfrwt>
<totfact> 0.56538736E-01</totfact>
</mgrwt>
</event>
<event>
 4    1  0.3365401E-008  0.1660469E+03  0.7818608E-02  0.1182034E+00
         -2   -1    0    0    0  501 -0.00000000000E+00  0.00000000000E+00  0.75383218506E+02  0.75383218549E+02  0.25500000000E-02 0.  1.
          2   -1    0    0  501    0  0.00000000000E+00 -0.00000000000E+00 -0.44947574621E+03  0.44947574621E+03  0.25500000000E-02 0. -1.
    8880022    1    1    2    0    0  0.63410106034E+02 -0.12612384372E+02 -0.30030812307E+03  0.34315672160E+03  0.15294330000E+03 0.  0.
    8880022    1    1    2    0    0 -0.63410106034E+02  0.12612384372E+02 -0.73784404631E+02  0.18170224316E+03  0.15294330000E+03 0.  0.
<mgrwt>
<rscale>  0 0.16604688E+03</rscale>
<asrwt>0</asrwt>
<pdfrwt beam="1">  1        2 0.69150113E-01 0.16604688E+03</pdfrwt>
<pdfrwt beam="2">  1       -2 0.11597419E-01 0.16604688E+03</pdfrwt>
<totfact> 0.35847664E+03</totfact>
</mgrwt>
</event>
<event>
 4    1  0.3365401E-008  0.5012896E+03  0.7818608E-02  0.1013443E+00
         -2   -1    0    0    0  501 -0.00000000000E+00  0.00000000000E+00  0.47576961852E+03  0.47576961853E+03  0.25500000000E-02 0.  1.
          2   -1    0    0  501    0  0.00000000000E+00 -0.00000000000E+00 -0.60955792377E+03  0.60955792377E+03  0.25500000000E-02 0. -1.
    8880022    1    1    2    0    0  0.14862781711E+03  0.45366217002E+03 -0.26517504092E+03  0.56710585243E+03  0.15294330000E+03 0.  0.
    8880022    1    1    2    0    0 -0.14862781711E+03 -0.45366217002E+03  0.13138673567E+03  0.51822168987E+03  0.15294330000E+03 0.  0.
<mgrwt>
<rscale>  0 0.50128958E+03</rscale>
<asrwt>0</asrwt>
<pdfrwt beam="1">  1        2 0.93778142E-01 0.50128958E+03</pdfrwt>
<pdfrwt beam="2">  1       -2 0.73195326E-01 0.50128958E+03</pdfrwt>
<totfact> 0.84501827E+01</totfact>
</mgrwt>
</event>
<event>
 4    1  0.3365401E-008  0.3167130E+03  0.7818608E-02  0.1077172E+00
         -2   -1    0    0    0  501 -0.00000000000E+00  0.00000000000E+00  0.17291513782E+03  0.17291513784E+03  0.25500000000E-02 0.  1.
          2   -1    0    0  501    0  0.00000000000E+00 -0.00000000000E+00 -0.19306411426E+04  0.19306411426E+04  0.25500000000E-02 0. -1.
    8880022    1    1    2    0    0 -0.19886783115E+03 -0.19330567169E+03  0.82390482276E+00  0.31671411211E+03  0.15294330000E+03 0.  0.
    8880022    1    1    2    0    0  0.19886783115E+03  0.19330567169E+03 -0.17585499096E+04  0.17868421683E+04  0.15294330000E+03 0.  0.
<mgrwt>
<rscale>  0 0.31671304E+03</rscale>
<asrwt>0</asrwt>
<pdfrwt beam="1">  1        2 0.29702170E+00 0.31671304E+03</pdfrwt>
<pdfrwt beam="2">  1       -2 0.26602330E-01 0.31671304E+03</pdfrwt>
<totfact> 0.10250697E+02</totfact>
</mgrwt>
</event>
<event>
 4    1  0.3365401E-008  0.4977432E+03  0.7818608E-02  0.1014370E+00
         -2   -1    0    0    0  501 -0.00000000000E+00  0.00000000000E+00  0.70019106442E+03  0.70019106443E+03  0.25500000000E-02 0.  1.
          2   -1    0    0  501    0  0.00000000000E+00 -0.00000000000E+00 -0.68235147057E+03  0.68235147057E+03  0.25500000000E-02 0. -1.
    8880022    1    1    2    0    0  0.11627093666E+03  0.45917069104E+03  0.48857217229E+03  0.69746044675E+03  0.15294330000E+03 0.  0.
    8880022    1    1    2    0    0 -0.11627093666E+03 -0.45917069104E+03 -0.47073257844E+03  0.68508208825E+03  0.15294330000E+03 0.  0.
<mgrwt>
<rscale>  0 0.49774321E+03</rscale>
<asrwt>0</asrwt>
<pdfrwt beam="1">  1        2 0.10497715E+00 0.49774321E+03</pdfrwt>
<pdfrwt beam="2">  1       -2 0.10772170E+00 0.49774321E+03</pdfrwt>
<totfact> 0.30417058E+01</totfact>
</mgrwt>
</event>
<event>
 4    1  0.3365401E-008  0.6802779E+03  0.7818608E-02  0.9751567E-01
         -2   -1    0    0    0  501 -0.00000000000E+00  0.00000000000E+00  0.21585108419E+03  0.21585108420E+03  0.25500000000E-02 0.  1.
          2   -1    0    0  501    0  0.00000000000E+00 -0.00000000000E+00 -0.25584450934E+04  0.25584450934E+04  0.25500000000E-02 0. -1.
    8880022    1    1    2    0    0 -0.53233894429E+03  0.39497044136E+03 -0.17296186552E+04  0.18585905269E+04  0.15294330000E+03 0.  0.
    8880022    1    1    2    0    0  0.53233894429E+03 -0.39497044136E+03 -0.61297535403E+03  0.91570565075E+03  0.15294330000E+03 0.  0.
<mgrwt>
<rscale>  0 0.68027792E+03</rscale>
<asrwt>0</asrwt>
<pdfrwt beam="1">  1        2 0.39360692E+00 0.68027792E+03</pdfrwt>
<pdfrwt beam="2">  1       -2 0.33207861E-01 0.68027792E+03</pdfrwt>
<totfact> 0.28796014E+01</totfact>
</mgrwt>
</event>
<event>
 4    1  0.3365401E-008  0.5473291E+03  0.7818608E-02  0.1002114E+00
         -2   -1    0    0    0  501 -0.00000000000E+00  0.00000000000E+00  0.98700040527E+03  0.98700040527E+03  0.25500000000E-02 0.  1.
          2   -1    0    0  501    0  0.00000000000E+00 -0.00000000000E+00 -0.41520947484E+03  0.41520947485E+03  0.25500000000E-02 0. -1.
    8880022    1    1    2    0    0 -0.52496885472E+03  0.24189758487E+02 -0.77739720249E+02  0.55282235842E+03  0.15294330000E+03 0.  0.
    8880022    1    1    2    0    0  0.52496885472E+03 -0.24189758487E+02  0.64953065067E+03  0.84938752170E+03  0.15294330000E+03 0.  1.
<mgrwt>
<rscale>  0 0.54732906E+03</rscale>
<asrwt>0</asrwt>
<pdfrwt beam="1">  1        2 0.63878381E-01 0.54732906E+03</pdfrwt>
<pdfrwt beam="2">  1       -2 0.15184622E+00 0.54732906E+03</pdfrwt>
<totfact> 0.22832503E+01</totfact>
</mgrwt>
</event>
<event>
 4    1  0.3365401E-008  0.6869017E+03  0.7818608E-02  0.9739898E-01
         -2   -1    0    0    0  501 -0.00000000000E+00  0.00000000000E+00  0.73941531082E+03  0.73941531082E+03  0.25500000000E-02 0.  1.
          2   -1    0    0  501    0  0.00000000000E+00 -0.00000000000E+00 -0.15825650318E+04  0.15825650318E+04  0.25500000000E-02 0. -1.
    8880022    1    1    2    0    0 -0.43341715578E+03  0.51048205430E+03  0.47530986549E+03  0.83531639511E+03  0.15294330000E+03 0.  0.
    8880022    1    1    2    0    0  0.43341715578E+03 -0.51048205430E+03 -0.13184595865E+04  0.14866639476E+04  0.15294330000E+03 0.  0.
<mgrwt>
<rscale>  0 0.68690175E+03</rscale>
<asrwt>0</asrwt>
<pdfrwt beam="1">  1        2 0.24347154E+00 0.68690175E+03</pdfrwt>
<pdfrwt beam="2">  1       -2 0.11375620E+00 0.68690175E+03</pdfrwt>
<totfact> 0.71583738E+00</totfact>
</mgrwt>
</event>
<event>
 4    1  0.3365401E-008  0.9657771E+03  0.7818608E-02  0.9346897E-01
         -2   -1    0    0    0  501 -0.00000000000E+00  0.00000000000E+00  0.16757844981E+04  0.16757844981E+04  0.25500000000E-02 0.  1.
          2   -1    0    0  501    0  0.00000000000E+00 -0.00000000000E+00 -0.61954900547E+03  0.61954900547E+03  0.25500000000E-02 0. -1.
    8880022    1    1    2    0    0 -0.85586687345E+03 -0.42050646661E+03  0.89397002140E+03  0.13160196981E+04  0.15294330000E+03 0.  0.
    8880022    1    1    2    0    0  0.85586687345E+03  0.42050646661E+03  0.16226547126E+03  0.97931380553E+03  0.15294330000E+03 0.  0.
<mgrwt>
<rscale>  0 0.96577712E+03</rscale>
<asrwt>0</asrwt>
<pdfrwt beam="1">  1        2 0.95315232E-01 0.96577712E+03</pdfrwt>
<pdfrwt beam="2">  1       -2 0.25781300E+00 0.96577712E+03</pdfrwt>
<totfact> 0.27545355E+00</totfact>
</mgrwt>
</event>
<event>
 4    1  0.3365401E-008  0.4842126E+03  0.7818608E-02  0.1017984E+00
         -2   -1    0    0    0  501 -0.00000000000E+00  0.00000000000E+00  0.55916427510E+03  0.55916427510E+03  0.25500000000E-02 0.  1.
          2   -1    0    0  501    0  0.00000000000E+00 -0.00000000000E+00 -0.11503232527E+04  0.11503232528E+04  0.25500000000E-02 0. -1.
    8880022    1    1    2    0    0  0.32722804161E+03  0.32247793315E+03 -0.97695938075E+03  0.10903721811E+04  0.15294330000E+03 0.  0.
    8880022    1    1    2    0    0 -0.32722804161E+03 -0.32247793315E+03  0.38580040310E+03  0.61911534679E+03  0.15294330000E+03 0.  0.
<mgrwt>
<rscale>  0 0.48421262E+03</rscale>
<asrwt>0</asrwt>
<pdfrwt beam="1">  1        2 0.17697281E+00 0.48421262E+03</pdfrwt>
<pdfrwt beam="2">  1       -2 0.86025273E-01 0.48421262E+03</pdfrwt>
<totfact> 0.25088666E+01</totfact>
</mgrwt>
</event>
<event>
 4    1  0.3365401E-008  0.2114132E+03  0.7818608E-02  0.1140452E+00
          2   -1    0    0  501    0  0.00000000000E+00  0.00000000000E+00  0.15876696718E+04  0.15876696718E+04  0.25500000000E-02 0. -1.
         -2   -1    0    0    0  501 -0.00000000000E+00 -0.00000000000E+00 -0.17732214690E+03  0.17732214692E+03  0.25500000000E-02 0.  1.
    8880022    1    1    2    0    0 -0.12982852507E+03  0.66696765235E+02 -0.10424384096E+03  0.23571664304E+03  0.15294330000E+03 0.  0.
    8880022    1    1    2    0    0  0.12982852507E+03 -0.66696765235E+02  0.15145913658E+04  0.15292751757E+04  0.15294330000E+03 0. -1.
<mgrwt>
<rscale>  0 0.21141324E+03</rscale>
<asrwt>0</asrwt>
<pdfrwt beam="1">  1        2 0.24425687E+00 0.21141324E+03</pdfrwt>
<pdfrwt beam="2">  1       -2 0.27280331E-01 0.21141324E+03</pdfrwt>
<totfact> 0.15274682E+02</totfact>
</mgrwt>
</event>
<event>
 4    1  0.3365401E-008  0.3053336E+03  0.7818608E-02  0.1082604E+00
         -2   -1    0    0    0  501 -0.00000000000E+00  0.00000000000E+00  0.12326301262E+03  0.12326301264E+03  0.25500000000E-02 0.  1.
          2   -1    0    0  501    0  0.00000000000E+00 -0.00000000000E+00 -0.16165021466E+04  0.16165021466E+04  0.25500000000E-02 0. -1.
    8880022    1    1    2    0    0  0.26344701036E+03  0.20800144438E+02 -0.13811652609E+04  0.14145126738E+04  0.15294330000E+03 0.  0.
    8880022    1    1    2    0    0 -0.26344701036E+03 -0.20800144438E+02 -0.11207387308E+03  0.32525248549E+03  0.15294330000E+03 0.  0.
<mgrwt>
<rscale>  0 0.30533363E+03</rscale>
<asrwt>0</asrwt>
<pdfrwt beam="1">  1        2 0.24869262E+00 0.30533363E+03</pdfrwt>
<pdfrwt beam="2">  1       -2 0.18963542E-01 0.30533363E+03</pdfrwt>
<totfact> 0.27250205E+02</totfact>
</mgrwt>
</event>
<event>
 4    1  0.3365401E-008  0.7027253E+03  0.7818608E-02  0.9712583E-01
          2   -1    0    0  501    0  0.00000000000E+00  0.00000000000E+00  0.21179301207E+04  0.21179301207E+04  0.25500000000E-02 0. -1.
         -2   -1    0    0    0  501 -0.00000000000E+00 -0.00000000000E+00 -0.24688644545E+03  0.24688644546E+03  0.25500000000E-02 0.  1.
    8880022    1    1    2    0    0  0.96109449817E+01 -0.68581256612E+03  0.65674882328E+03  0.96184297887E+03  0.15294330000E+03 0.  0.
    8880022    1    1    2    0    0 -0.96109449817E+01  0.68581256612E+03  0.12142948520E+04  0.14029735873E+04  0.15294330000E+03 0.  0.
<mgrwt>
<rscale>  0 0.70272534E+03</rscale>
<asrwt>0</asrwt>
<pdfrwt beam="1">  1        2 0.32583540E+00 0.70272534E+03</pdfrwt>
<pdfrwt beam="2">  1       -2 0.37982530E-01 0.70272534E+03</pdfrwt>
<totfact> 0.39072187E+01</totfact>
</mgrwt>
</event>
<event>
 4    1  0.3365401E-008  0.3884346E+03  0.7818608E-02  0.1047860E+00
         -2   -1    0    0    0  501 -0.00000000000E+00  0.00000000000E+00  0.21903950195E+03  0.21903950196E+03  0.25500000000E-02 0.  1.
          2   -1    0    0  501    0  0.00000000000E+00 -0.00000000000E+00 -0.70535505150E+03  0.70535505151E+03  0.25500000000E-02 0. -1.
    8880022    1    1    2    0    0 -0.18944949732E+03 -0.30265276353E+03 -0.17241760567E+03  0.42498151850E+03  0.15294330000E+03 0. -1.
    8880022    1    1    2    0    0  0.18944949732E+03  0.30265276353E+03 -0.31389794389E+03  0.49941303497E+03  0.15294330000E+03 0.  0.
<mgrwt>
<rscale>  0 0.38843463E+03</rscale>
<asrwt>0</asrwt>
<pdfrwt beam="1">  1        2 0.10851616E+00 0.38843463E+03</pdfrwt>
<pdfrwt beam="2">  1       -2 0.33698385E-01 0.38843463E+03</pdfrwt>
<totfact> 0.34232607E+02</totfact>
</mgrwt>
</event>
<event>
 4    1  0.3365401E-008  0.7503921E+03  0.7818608E-02  0.9634735E-01
          2   -1    0    0  501    0  0.00000000000E+00  0.00000000000E+00  0.76732085190E+03  0.76732085191E+03  0.25500000000E-02 0. -1.
         -2   -1    0    0    0  501 -0.00000000000E+00 -0.00000000000E+00 -0.11028944688E+04  0.11028944688E+04  0.25500000000E-02 0.  1.
    8880022    1    1    2    0    0  0.49509185815E+03 -0.54275282649E+03 -0.70871770559E+03  0.10321671463E+04  0.15294330000E+03 0.  0.
    8880022    1    1    2    0    0 -0.49509185815E+03  0.54275282649E+03  0.37314408870E+03  0.83804817440E+03  0.15294330000E+03 0.  0.
<mgrwt>
<rscale>  0 0.75039205E+03</rscale>
<asrwt>0</asrwt>
<pdfrwt beam="1">  1        2 0.11804936E+00 0.75039205E+03</pdfrwt>
<pdfrwt beam="2">  1       -2 0.16967607E+00 0.75039205E+03</pdfrwt>
<totfact> 0.79360480E+00</totfact>
</mgrwt>
</event>
<event>
 4    1  0.3365401E-008  0.8132235E+03  0.7818608E-02  0.9541071E-01
         -2   -1    0    0    0  501 -0.00000000000E+00  0.00000000000E+00  0.13990833567E+04  0.13990833567E+04  0.25500000000E-02 0.  1.
          2   -1    0    0  501    0  0.00000000000E+00 -0.00000000000E+00 -0.58016005519E+03  0.58016005520E+03  0.25500000000E-02 0. -1.
    8880022    1    1    2    0    0 -0.64595975174E+03  0.46976255917E+03  0.83539271897E+03  0.11658531257E+04  0.15294330000E+03 0.  0.
    8880022    1    1    2    0    0  0.64595975174E+03 -0.46976255917E+03 -0.16469417481E+02  0.81339028614E+03  0.15294330000E+03 0.  0.
<mgrwt>
<rscale>  0 0.81322353E+03</rscale>
<asrwt>0</asrwt>
<pdfrwt beam="1">  1        2 0.89255393E-01 0.81322353E+03</pdfrwt>
<pdfrwt beam="2">  1       -2 0.21524359E+00 0.81322353E+03</pdfrwt>
<totfact> 0.55550338E+00</totfact>
</mgrwt>
</event>
<event>
 4    1  0.3365401E-008  0.5243082E+03  0.7818608E-02  0.1007622E+00
          2   -1    0    0  501    0  0.00000000000E+00  0.00000000000E+00  0.19801368130E+03  0.19801368131E+03  0.25500000000E-02 0. -1.
         -2   -1    0    0    0  501 -0.00000000000E+00 -0.00000000000E+00 -0.14540748127E+04  0.14540748127E+04  0.25500000000E-02 0.  1.
    8880022    1    1    2    0    0 -0.39914915072E+03 -0.30362370792E+03 -0.45232099104E+03  0.69245457070E+03  0.15294330000E+03 0.  0.
    8880022    1    1    2    0    0  0.39914915072E+03  0.30362370792E+03 -0.80374014034E+03  0.95963392330E+03  0.15294330000E+03 0. -1.
<mgrwt>
<rscale>  0 0.52430817E+03</rscale>
<asrwt>0</asrwt>
<pdfrwt beam="1">  1        2 0.30463644E-01 0.52430817E+03</pdfrwt>
<pdfrwt beam="2">  1       -2 0.22370381E+00 0.52430817E+03</pdfrwt>
<totfact> 0.17110827E+01</totfact>
</mgrwt>
</event>
<event>
 4    1  0.3365401E-008  0.4958662E+03  0.7818608E-02  0.1014864E+00
         -2   -1    0    0    0  501 -0.00000000000E+00  0.00000000000E+00  0.96608600445E+02  0.96608600479E+02  0.25500000000E-02 0.  1.
          2   -1    0    0  501    0  0.00000000000E+00 -0.00000000000E+00 -0.30392993201E+04  0.30392993201E+04  0.25500000000E-02 0. -1.
    8880022    1    1    2    0    0  0.47168914595E+03  0.10000478537E+01 -0.21035766944E+04  0.21612307171E+04  0.15294330000E+03 0.  0.
    8880022    1    1    2    0    0 -0.47168914595E+03 -0.10000478537E+01 -0.83911402526E+03  0.97467720343E+03  0.15294330000E+03 0.  0.
<mgrwt>
<rscale>  0 0.49586622E+03</rscale>
<asrwt>0</asrwt>
<pdfrwt beam="1">  1        2 0.46758444E+00 0.49586622E+03</pdfrwt>
<pdfrwt beam="2">  1       -2 0.14862864E-01 0.49586622E+03</pdfrwt>
<totfact> 0.64612243E+01</totfact>
</mgrwt>
</event>
<event>
 4    1  0.3365401E-008  0.9087106E+03  0.7818608E-02  0.9414758E-01
         -2   -1    0    0    0  501 -0.00000000000E+00  0.00000000000E+00  0.11570869600E+04  0.11570869600E+04  0.25500000000E-02 0.  1.
          2   -1    0    0  501    0  0.00000000000E+00 -0.00000000000E+00 -0.82235463125E+03  0.82235463125E+03  0.25500000000E-02 0. -1.
    8880022    1    1    2    0    0 -0.85086245325E+03  0.27999349675E+03  0.52720452922E+03  0.10505710548E+04  0.15294330000E+03 0.  0.
    8880022    1    1    2    0    0  0.85086245325E+03 -0.27999349675E+03 -0.19247220043E+03  0.92887053647E+03  0.15294330000E+03 0.  0.
<mgrwt>
<rscale>  0 0.90871058E+03</rscale>
<asrwt>0</asrwt>
<pdfrwt beam="1">  1        2 0.12651610E+00 0.90871058E+03</pdfrwt>
<pdfrwt beam="2">  1       -2 0.17801338E+00 0.90871058E+03</pdfrwt>
<totfact> 0.62185655E+00</totfact>
</mgrwt>
</event>
<event>
 4    1  0.3365401E-008  0.1665682E+03  0.7818608E-02  0.1181475E+00
         -2   -1    0    0    0  501 -0.00000000000E+00  0.00000000000E+00  0.67212388908E+03  0.67212388908E+03  0.25500000000E-02 0.  1.
          2   -1    0    0  501    0  0.00000000000E+00 -0.00000000000E+00 -0.58024923428E+02  0.58024923484E+02  0.25500000000E-02 0. -1.
    8880022    1    1    2    0    0 -0.53789203826E+02  0.38210475596E+02  0.11092965015E+03  0.20012585838E+03  0.15294330000E+03 0.  1.
    8880022    1    1    2    0    0  0.53789203826E+02 -0.38210475596E+02  0.50316931550E+03  0.53002295419E+03  0.15294330000E+03 0.  1.
<mgrwt>
<rscale>  0 0.16656822E+03</rscale>
<asrwt>0</asrwt>
<pdfrwt beam="1">  1        2 0.89269113E-02 0.16656822E+03</pdfrwt>
<pdfrwt beam="2">  1       -2 0.10340368E+00 0.16656822E+03</pdfrwt>
<totfact> 0.57953947E+02</totfact>
</mgrwt>
</event>
<event>
 4    1  0.3365401E-008  0.6478900E+03  0.7818608E-02  0.9810746E-01
         -2   -1    0    0    0  501 -0.00000000000E+00  0.00000000000E+00  0.14532498423E+04  0.14532498423E+04  0.25500000000E-02 0.  1.
          2   -1    0    0  501    0  0.00000000000E+00 -0.00000000000E+00 -0.75792236583E+03  0.75792236584E+03  0.25500000000E-02 0. -1.
    8880022    1    1    2    0    0 -0.58542942018E+03 -0.23160794468E+03 -0.52210387011E+03  0.83207809144E+03  0.15294330000E+03 0.  0.
    8880022    1    1    2    0    0  0.58542942018E+03  0.23160794468E+03  0.12174313465E+04  0.13790941167E+04  0.15294330000E+03 0.  0.
<mgrwt>
<rscale>  0 0.64789004E+03</rscale>
<asrwt>0</asrwt>
<pdfrwt beam="1">  1        2 0.11660344E+00 0.64789004E+03</pdfrwt>
<pdfrwt beam="2">  1       -2 0.22357690E+00 0.64789004E+03</pdfrwt>
<totfact> 0.36157102E+00</totfact>
</mgrwt>
</event>
<event>
 4    1  0.3365401E-008  0.9615678E+03  0.7818608E-02  0.9351731E-01
         -2   -1    0    0    0  501 -0.00000000000E+00  0.00000000000E+00  0.19079938848E+04  0.19079938848E+04  0.25500000000E-02 0.  1.
          2   -1    0    0  501    0  0.00000000000E+00 -0.00000000000E+00 -0.85821245410E+03  0.85821245410E+03  0.25500000000E-02 0. -1.
    8880022    1    1    2    0    0  0.76131084035E+03 -0.56712140903E+03 -0.38768359138E+03  0.10367791994E+04  0.15294330000E+03 0.  0.
    8880022    1    1    2    0    0 -0.76131084035E+03  0.56712140903E+03  0.14374650220E+04  0.17294271395E+04  0.15294330000E+03 0.  0.
<mgrwt>
<rscale>  0 0.96156775E+03</rscale>
<asrwt>0</asrwt>
<pdfrwt beam="1">  1        2 0.13203269E+00 0.96156775E+03</pdfrwt>
<pdfrwt beam="2">  1       -2 0.29353752E+00 0.96156775E+03</pdfrwt>
<totfact> 0.10998268E+00</totfact>
</mgrwt>
</event>
<event>
 4    1  0.3365401E-008  0.5731527E+03  0.7818608E-02  0.9962726E-01
         -2   -1    0    0    0  501 -0.00000000000E+00  0.00000000000E+00  0.23029836245E+03  0.23029836246E+03  0.25500000000E-02 0.  1.
          2   -1    0    0  501    0  0.00000000000E+00 -0.00000000000E+00 -0.21472792941E+04  0.21472792941E+04  0.25500000000E-02 0. -1.
    8880022    1    1    2    0    0  0.27314242638E+03 -0.48010996694E+03 -0.16472748726E+04  0.17441383329E+04  0.15294330000E+03 0.  0.
    8880022    1    1    2    0    0 -0.27314242638E+03  0.48010996694E+03 -0.26970605907E+03  0.63343932366E+03  0.15294330000E+03 0.  0.
<mgrwt>
<rscale>  0 0.57315270E+03</rscale>
<asrwt>0</asrwt>
<pdfrwt beam="1">  1        2 0.33035065E+00 0.57315270E+03</pdfrwt>
<pdfrwt beam="2">  1       -2 0.35430519E-01 0.57315270E+03</pdfrwt>
<totfact> 0.43876350E+01</totfact>
</mgrwt>
</event>
<event>
 4    1  0.3365401E-008  0.2096331E+03  0.7818608E-02  0.1141857E+00
         -2   -1    0    0    0  501 -0.00000000000E+00  0.00000000000E+00  0.34747404371E+03  0.34747404371E+03  0.25500000000E-02 0.  1.
          2   -1    0    0  501    0  0.00000000000E+00 -0.00000000000E+00 -0.20772357653E+04  0.20772357653E+04  0.25500000000E-02 0. -1.
    8880022    1    1    2    0    0 -0.11768437125E+03 -0.81882624296E+02  0.30998727363E+03  0.37421669956E+03  0.15294330000E+03 0.  1.
    8880022    1    1    2    0    0  0.11768437125E+03  0.81882624296E+02 -0.20397489952E+04  0.20504931094E+04  0.15294330000E+03 0.  0.
<mgrwt>
<rscale>  0 0.20963308E+03</rscale>
<asrwt>0</asrwt>
<pdfrwt beam="1">  1        2 0.31957473E+00 0.20963308E+03</pdfrwt>
<pdfrwt beam="2">  1       -2 0.53457546E-01 0.20963308E+03</pdfrwt>
<totfact> 0.23710113E+01</totfact>
</mgrwt>
</event>
<event>
 4    1  0.3365401E-008  0.1740064E+03  0.7818608E-02  0.1173733E+00
          2   -1    0    0  501    0  0.00000000000E+00  0.00000000000E+00  0.29133385509E+03  0.29133385510E+03  0.25500000000E-02 0. -1.
         -2   -1    0    0    0  501 -0.00000000000E+00 -0.00000000000E+00 -0.33676264627E+03  0.33676264627E+03  0.25500000000E-02 0.  1.
    8880022    1    1    2    0    0  0.48436777478E+02  0.67382956606E+02 -0.28384432299E+03  0.33293518433E+03  0.15294330000E+03 0.  1.
    8880022    1    1    2    0    0 -0.48436777478E+02 -0.67382956606E+02  0.23841553181E+03  0.29516131704E+03  0.15294330000E+03 0.  0.
<mgrwt>
<rscale>  0 0.17400643E+03</rscale>
<asrwt>0</asrwt>
<pdfrwt beam="1">  1        2 0.44820593E-01 0.17400643E+03</pdfrwt>
<pdfrwt beam="2">  1       -2 0.51809638E-01 0.17400643E+03</pdfrwt>
<totfact> 0.40602761E+02</totfact>
</mgrwt>
</event>
<event>
 4    1  0.3365401E-008  0.9054310E+03  0.7818608E-02  0.9418818E-01
          2   -1    0    0  501    0  0.00000000000E+00  0.00000000000E+00  0.23618554293E+04  0.23618554293E+04  0.25500000000E-02 0. -1.
         -2   -1    0    0    0  501 -0.00000000000E+00 -0.00000000000E+00 -0.36040532282E+03  0.36040532283E+03  0.25500000000E-02 0.  1.
    8880022    1    1    2    0    0  0.15065997383E+03 -0.87961085443E+03  0.12622301132E+04  0.15533931230E+04  0.15294330000E+03 0.  0.
    8880022    1    1    2    0    0 -0.15065997383E+03  0.87961085443E+03  0.73921999326E+03  0.11688676291E+04  0.15294330000E+03 0.  0.
<mgrwt>
<rscale>  0 0.90543102E+03</rscale>
<asrwt>0</asrwt>
<pdfrwt beam="1">  1        2 0.36336238E+00 0.90543102E+03</pdfrwt>
<pdfrwt beam="2">  1       -2 0.55446972E-01 0.90543102E+03</pdfrwt>
<totfact> 0.13050112E+01</totfact>
</mgrwt>
</event>
<event>
 4    1  0.3365401E-008  0.5015907E+03  0.7818608E-02  0.1013365E+00
         -2   -1    0    0    0  501 -0.00000000000E+00  0.00000000000E+00  0.12737433988E+04  0.12737433988E+04  0.25500000000E-02 0.  1.
          2   -1    0    0  501    0  0.00000000000E+00 -0.00000000000E+00 -0.17196871104E+04  0.17196871104E+04  0.25500000000E-02 0. -1.
    8880022    1    1    2    0    0  0.47724090630E+03  0.21041033086E+02  0.11851662330E+04  0.12869391052E+04  0.15294330000E+03 0.  1.
    8880022    1    1    2    0    0 -0.47724090630E+03 -0.21041033086E+02 -0.16311099445E+04  0.17064914040E+04  0.15294330000E+03 0.  0.
<mgrwt>
<rscale>  0 0.50159073E+03</rscale>
<asrwt>0</asrwt>
<pdfrwt beam="1">  1        2 0.26456725E+00 0.50159073E+03</pdfrwt>
<pdfrwt beam="2">  1       -2 0.19596052E+00 0.50159073E+03</pdfrwt>
<totfact> 0.14850579E+00</totfact>
</mgrwt>
</event>
<event>
 4    1  0.3365401E-008  0.2288105E+03  0.7818608E-02  0.1127480E+00
          2   -1    0    0  501    0  0.00000000000E+00  0.00000000000E+00  0.19306663743E+03  0.19306663744E+03  0.25500000000E-02 0. -1.
         -2   -1    0    0    0  501 -0.00000000000E+00 -0.00000000000E+00 -0.34093847347E+03  0.34093847348E+03  0.25500000000E-02 0.  1.
    8880022    1    1    2    0    0 -0.16846137362E+03 -0.24152886625E+02  0.46845762831E+02  0.23355679147E+03  0.15294330000E+03 0.  0.
    8880022    1    1    2    0    0  0.16846137362E+03  0.24152886625E+02 -0.19471759887E+03  0.30044831945E+03  0.15294330000E+03 0.  0.
<mgrwt>
<rscale>  0 0.22881051E+03</rscale>
<asrwt>0</asrwt>
<pdfrwt beam="1">  1        2 0.29702560E-01 0.22881051E+03</pdfrwt>
<pdfrwt beam="2">  1       -2 0.52452073E-01 0.22881051E+03</pdfrwt>
<totfact> 0.61905202E+02</totfact>
</mgrwt>
</event>
<event>
 4    1  0.3365401E-008  0.1222996E+04  0.7818608E-02  0.9092963E-01
          2   -1    0    0  501    0  0.00000000000E+00  0.00000000000E+00  0.21329033630E+04  0.21329033630E+04  0.25500000000E-02 0. -1.
         -2   -1    0    0    0  501 -0.00000000000E+00 -0.00000000000E+00 -0.91439582370E+03  0.91439582371E+03  0.25500000000E-02 0.  1.
    8880022    1    1    2    0    0  0.56477188293E+03  0.10739459886E+04  0.13448620948E+04  0.18177934352E+04  0.15294330000E+03 0.  0.
    8880022    1    1    2    0    0 -0.56477188293E+03 -0.10739459886E+04 -0.12635455555E+03  0.12295057514E+04  0.15294330000E+03 0.  0.
<mgrwt>
<rscale>  0 0.12229959E+04</rscale>
<asrwt>0</asrwt>
<pdfrwt beam="1">  1        2 0.32813898E+00 0.12229959E+04</pdfrwt>
<pdfrwt beam="2">  1       -2 0.14067628E+00 0.12229959E+04</pdfrwt>
<totfact> 0.19425374E+00</totfact>
</mgrwt>
</event>
<event>
 4    1  0.3365401E-008  0.4159465E+03  0.7818608E-02  0.1038394E+00
         -2   -1    0    0    0  501 -0.00000000000E+00  0.00000000000E+00  0.10782998034E+03  0.10782998037E+03  0.25500000000E-02 0.  1.
          2   -1    0    0  501    0  0.00000000000E+00 -0.00000000000E+00 -0.31675998233E+04  0.31675998233E+04  0.25500000000E-02 0. -1.
    8880022    1    1    2    0    0  0.37610333208E+03 -0.90366576626E+02 -0.26803374776E+04  0.27124196728E+04  0.15294330000E+03 0.  0.
    8880022    1    1    2    0    0 -0.37610333208E+03  0.90366576626E+02 -0.37943236536E+03  0.56301013088E+03  0.15294330000E+03 0.  0.
<mgrwt>
<rscale>  0 0.41594650E+03</rscale>
<asrwt>0</asrwt>
<pdfrwt beam="1">  1        2 0.48732298E+00 0.41594650E+03</pdfrwt>
<pdfrwt beam="2">  1       -2 0.16589230E-01 0.41594650E+03</pdfrwt>
<totfact> 0.45661078E+01</totfact>
</mgrwt>
</event>
<event>
 4    1  0.3365401E-008  0.4783790E+03  0.7818608E-02  0.1019582E+00
         -2   -1    0    0    0  501 -0.00000000000E+00  0.00000000000E+00  0.69865916100E+03  0.69865916101E+03  0.25500000000E-02 0.  1.
          2   -1    0    0  501    0  0.00000000000E+00 -0.00000000000E+00 -0.60625944108E+03  0.60625944109E+03  0.25500000000E-02 0. -1.
    8880022    1    1    2    0    0  0.23191934256E+03  0.38944608091E+03 -0.39618398121E+03  0.62113463225E+03  0.15294330000E+03 0.  0.
    8880022    1    1    2    0    0 -0.23191934256E+03 -0.38944608091E+03  0.48858370114E+03  0.68378396985E+03  0.15294330000E+03 0.  0.
<mgrwt>
<rscale>  0 0.47837902E+03</rscale>
<asrwt>0</asrwt>
<pdfrwt beam="1">  1        2 0.93270684E-01 0.47837902E+03</pdfrwt>
<pdfrwt beam="2">  1       -2 0.10748602E+00 0.47837902E+03</pdfrwt>
<totfact> 0.35382686E+01</totfact>
</mgrwt>
</event>
<event>
 4    1  0.3365401E-008  0.7609007E+03  0.7818608E-02  0.9618402E-01
         -2   -1    0    0    0  501 -0.00000000000E+00  0.00000000000E+00  0.10063265053E+04  0.10063265053E+04  0.25500000000E-02 0.  1.
          2   -1    0    0  501    0  0.00000000000E+00 -0.00000000000E+00 -0.68396326898E+03  0.68396326898E+03  0.25500000000E-02 0. -1.
    8880022    1    1    2    0    0 -0.72885081367E+03  0.15605977634E+03  0.49800034404E+03  0.90938119513E+03  0.15294330000E+03 0.  0.
    8880022    1    1    2    0    0  0.72885081367E+03 -0.15605977634E+03 -0.17563710771E+03  0.78090857916E+03  0.15294330000E+03 0.  0.
<mgrwt>
<rscale>  0 0.76090066E+03</rscale>
<asrwt>0</asrwt>
<pdfrwt beam="1">  1        2 0.10522512E+00 0.76090066E+03</pdfrwt>
<pdfrwt beam="2">  1       -2 0.15481946E+00 0.76090066E+03</pdfrwt>
<totfact> 0.11784999E+01</totfact>
</mgrwt>
</event>
<event>
 4    1  0.3365401E-008  0.4994674E+03  0.7818608E-02  0.1013918E+00
         -2   -1    0    0    0  501 -0.00000000000E+00  0.00000000000E+00  0.27078762492E+03  0.27078762493E+03  0.25500000000E-02 0.  1.
          2   -1    0    0  501    0  0.00000000000E+00 -0.00000000000E+00 -0.11857848861E+04  0.11857848861E+04  0.25500000000E-02 0. -1.
    8880022    1    1    2    0    0  0.27108491478E+03  0.39062638466E+03 -0.11352367677E+03  0.51220628814E+03  0.15294330000E+03 0.  0.
    8880022    1    1    2    0    0 -0.27108491478E+03 -0.39062638466E+03 -0.80147358444E+03  0.94436622292E+03  0.15294330000E+03 0.  0.
<mgrwt>
<rscale>  0 0.49946737E+03</rscale>
<asrwt>0</asrwt>
<pdfrwt beam="1">  1        2 0.18242844E+00 0.49946737E+03</pdfrwt>
<pdfrwt beam="2">  1       -2 0.41659635E-01 0.49946737E+03</pdfrwt>
<totfact> 0.10959135E+02</totfact>
</mgrwt>
</event>
<event>
 4    1  0.3365401E-008  0.5733420E+03  0.7818608E-02  0.9962311E-01
         -2   -1    0    0    0  501 -0.00000000000E+00  0.00000000000E+00  0.17797066735E+04  0.17797066735E+04  0.25500000000E-02 0.  1.
          2   -1    0    0  501    0  0.00000000000E+00 -0.00000000000E+00 -0.58102388488E+03  0.58102388488E+03  0.25500000000E-02 0. -1.
    8880022    1    1    2    0    0 -0.27507191764E+03 -0.47923353438E+03 -0.37551744299E+03  0.68537168263E+03  0.15294330000E+03 0.  0.
    8880022    1    1    2    0    0  0.27507191764E+03  0.47923353438E+03  0.15742002316E+04  0.16753588758E+04  0.15294330000E+03 0.  0.
<mgrwt>
<rscale>  0 0.57334195E+03</rscale>
<asrwt>0</asrwt>
<pdfrwt beam="1">  1        2 0.89388291E-01 0.57334195E+03</pdfrwt>
<pdfrwt beam="2">  1       -2 0.27380102E+00 0.57334195E+03</pdfrwt>
<totfact> 0.25294719E+00</totfact>
</mgrwt>
</event>
<event>
 4    1  0.3365401E-008  0.4811327E+03  0.7818608E-02  0.1018824E+00
          2   -1    0    0  501    0  0.00000000000E+00  0.00000000000E+00  0.11713609012E+04  0.11713609012E+04  0.25500000000E-02 0. -1.
         -2   -1    0    0    0  501 -0.00000000000E+00 -0.00000000000E+00 -0.54218578906E+03  0.54218578906E+03  0.25500000000E-02 0.  1.
    8880022    1    1    2    0    0  0.22094550818E+02 -0.45564117076E+03  0.99759528003E+03  0.11075581436E+04  0.15294330000E+03 0.  0.
    8880022    1    1    2    0    0 -0.22094550818E+02  0.45564117076E+03 -0.36842016784E+03  0.60598854672E+03  0.15294330000E+03 0.  0.
<mgrwt>
<rscale>  0 0.48113272E+03</rscale>
<asrwt>0</asrwt>
<pdfrwt beam="1">  1        2 0.18020937E+00 0.48113272E+03</pdfrwt>
<pdfrwt beam="2">  1       -2 0.83413199E-01 0.48113272E+03</pdfrwt>
<totfact> 0.26155509E+01</totfact>
</mgrwt>
</event>
<event>
 4    1  0.3365401E-008  0.3946738E+03  0.7818608E-02  0.1045640E+00
         -2   -1    0    0    0  501 -0.00000000000E+00  0.00000000000E+00  0.87849335254E+03  0.87849335255E+03  0.25500000000E-02 0.  1.
          2   -1    0    0  501    0  0.00000000000E+00 -0.00000000000E+00 -0.30304778989E+03  0.30304778990E+03  0.25500000000E-02 0. -1.
    8880022    1    1    2    0    0  0.35503396470E+03 -0.79539952784E+02 -0.92810660080E+02  0.40543950451E+03  0.15294330000E+03 0.  0.
    8880022    1    1    2    0    0 -0.35503396470E+03  0.79539952784E+02  0.66825622273E+03  0.77610163794E+03  0.15294330000E+03 0.  0.
<mgrwt>
<rscale>  0 0.39467376E+03</rscale>
<asrwt>0</asrwt>
<pdfrwt beam="1">  1        2 0.46622737E-01 0.39467376E+03</pdfrwt>
<pdfrwt beam="2">  1       -2 0.13515282E+00 0.39467376E+03</pdfrwt>
<totfact> 0.44449442E+01</totfact>
</mgrwt>
</event>
<event>
 4    1  0.3365401E-008  0.3441143E+03  0.7818608E-02  0.1065057E+00
         -2   -1    0    0    0  501 -0.00000000000E+00  0.00000000000E+00  0.12411139278E+03  0.12411139280E+03  0.25500000000E-02 0.  1.
          2   -1    0    0  501    0  0.00000000000E+00 -0.00000000000E+00 -0.35761034105E+04  0.35761034105E+04  0.25500000000E-02 0. -1.
    8880022    1    1    2    0    0 -0.15748062105E+03  0.26499593035E+03 -0.14180130339E+03  0.37218577588E+03  0.15294330000E+03 0.  0.
    8880022    1    1    2    0    0  0.15748062105E+03 -0.26499593035E+03 -0.33101907144E+04  0.33280290275E+04  0.15294330000E+03 0.  0.
<mgrwt>
<rscale>  0 0.34411429E+03</rscale>
<asrwt>0</asrwt>
<pdfrwt beam="1">  1        2 0.55016968E+00 0.34411429E+03</pdfrwt>
<pdfrwt beam="2">  1       -2 0.19094063E-01 0.34411429E+03</pdfrwt>
<totfact> 0.19993038E+01</totfact>
</mgrwt>
</event>
<event>
 4    1  0.3365401E-008  0.6360079E+03  0.7818608E-02  0.9833394E-01
         -2   -1    0    0    0  501 -0.00000000000E+00  0.00000000000E+00  0.11074650162E+04  0.11074650162E+04  0.25500000000E-02 0.  1.
          2   -1    0    0  501    0  0.00000000000E+00 -0.00000000000E+00 -0.10321801243E+04  0.10321801243E+04  0.25500000000E-02 0. -1.
    8880022    1    1    2    0    0 -0.62030194158E+02  0.61422034245E+03  0.89759180040E+03  0.11000804822E+04  0.15294330000E+03 0.  0.
    8880022    1    1    2    0    0  0.62030194158E+02 -0.61422034245E+03 -0.82230690846E+03  0.10395646583E+04  0.15294330000E+03 0.  0.
<mgrwt>
<rscale>  0 0.63600788E+03</rscale>
<asrwt>0</asrwt>
<pdfrwt beam="1">  1        2 0.15879694E+00 0.63600788E+03</pdfrwt>
<pdfrwt beam="2">  1       -2 0.17037923E+00 0.63600788E+03</pdfrwt>
<totfact> 0.52826979E+00</totfact>
</mgrwt>
</event>
<event>
 4    1  0.3365401E-008  0.9730716E+03  0.7818608E-02  0.9338583E-01
         -2   -1    0    0    0  501 -0.00000000000E+00  0.00000000000E+00  0.76413884029E+03  0.76413884029E+03  0.25500000000E-02 0.  1.
          2   -1    0    0  501    0  0.00000000000E+00 -0.00000000000E+00 -0.26572064441E+04  0.26572064441E+04  0.25500000000E-02 0. -1.
    8880022    1    1    2    0    0  0.58398117439E+03  0.76317936012E+03  0.30316074470E+03  0.10192030406E+04  0.15294330000E+03 0.  0.
    8880022    1    1    2    0    0 -0.58398117439E+03 -0.76317936012E+03 -0.21962283485E+04  0.24021422438E+04  0.15294330000E+03 0.  0.
<mgrwt>
<rscale>  0 0.97307163E+03</rscale>
<asrwt>0</asrwt>
<pdfrwt beam="1">  1        2 0.40880099E+00 0.97307163E+03</pdfrwt>
<pdfrwt beam="2">  1       -2 0.11755982E+00 0.97307163E+03</pdfrwt>
<totfact> 0.15961322E+00</totfact>
</mgrwt>
</event>
<event>
 4    1  0.3365401E-008  0.2092929E+03  0.7818608E-02  0.1142127E+00
         -2   -1    0    0    0  501 -0.00000000000E+00  0.00000000000E+00  0.87627191714E+03  0.87627191715E+03  0.25500000000E-02 0.  1.
          2   -1    0    0  501    0  0.00000000000E+00 -0.00000000000E+00 -0.12720657374E+04  0.12720657374E+04  0.25500000000E-02 0. -1.
    8880022    1    1    2    0    0 -0.11792372411E+03  0.80658793531E+02 -0.12507483581E+04  0.12681383813E+04  0.15294330000E+03 0.  0.
    8880022    1    1    2    0    0  0.11792372411E+03 -0.80658793531E+02  0.85495453792E+03  0.88019927323E+03  0.15294330000E+03 0.  1.
<mgrwt>
<rscale>  0 0.20929285E+03</rscale>
<asrwt>0</asrwt>
<pdfrwt beam="1">  1        2 0.19570242E+00 0.20929285E+03</pdfrwt>
<pdfrwt beam="2">  1       -2 0.13481106E+00 0.20929285E+03</pdfrwt>
<totfact> 0.79334596E+00</totfact>
</mgrwt>
</event>
<event>
 4    1  0.3963123E-008  0.5639368E+03  0.7818608E-02  0.9983186E-01
         -2   -1    0    0    0  501 -0.00000000000E+00  0.00000000000E+00  0.94571912286E+03  0.94571912286E+03  0.25500000000E-02 0.  1.
          2   -1    0    0  501    0  0.00000000000E+00 -0.00000000000E+00 -0.18741449394E+04  0.18741449394E+04  0.25500000000E-02 0. -1.
    8880022    1    1    2    0    0  0.35155093584E+03  0.41357587747E+03 -0.17414041817E+04  0.18304407240E+04  0.15294330000E+03 0. -1.
    8880022    1    1    2    0    0 -0.35155093584E+03 -0.41357587747E+03  0.81297836522E+03  0.98942333823E+03  0.15294330000E+03 0.  0.
<mgrwt>
<rscale>  0 0.56393680E+03</rscale>
<asrwt>0</asrwt>
<pdfrwt beam="1">  1        2 0.28832999E+00 0.56393680E+03</pdfrwt>
<pdfrwt beam="2">  1       -2 0.14549525E+00 0.56393680E+03</pdfrwt>
<totfact> 0.27387604E+00</totfact>
</mgrwt>
</event>
<event>
 4    1  0.3365401E-008  0.9643272E+03  0.7818608E-02  0.9348559E-01
         -2   -1    0    0    0  501 -0.00000000000E+00  0.00000000000E+00  0.18263254231E+04  0.18263254231E+04  0.25500000000E-02 0.  1.
          2   -1    0    0  501    0  0.00000000000E+00 -0.00000000000E+00 -0.54398996543E+03  0.54398996543E+03  0.25500000000E-02 0. -1.
    8880022    1    1    2    0    0 -0.42407808142E+03 -0.85246290920E+03  0.94097185045E+03  0.13473510705E+04  0.15294330000E+03 0.  0.
    8880022    1    1    2    0    0  0.42407808142E+03  0.85246290920E+03  0.34136360723E+03  0.10229643181E+04  0.15294330000E+03 0.  0.
<mgrwt>
<rscale>  0 0.96432717E+03</rscale>
<asrwt>0</asrwt>
<pdfrwt beam="1">  1        2 0.83690764E-01 0.96432717E+03</pdfrwt>
<pdfrwt beam="2">  1       -2 0.28097314E+00 0.96432717E+03</pdfrwt>
<totfact> 0.23351684E+00</totfact>
</mgrwt>
</event>
<event>
 4    1  0.3365401E-008  0.4534940E+03  0.7818608E-02  0.1026685E+00
         -2   -1    0    0    0  501 -0.00000000000E+00  0.00000000000E+00  0.30261990070E+03  0.30261990071E+03  0.25500000000E-02 0.  1.
          2   -1    0    0  501    0  0.00000000000E+00 -0.00000000000E+00 -0.23732040272E+04  0.23732040272E+04  0.25500000000E-02 0. -1.
    8880022    1    1    2    0    0  0.42462864178E+03 -0.44222962454E+02 -0.21655237948E+04  0.22124986130E+04  0.15294330000E+03 0.  0.
    8880022    1    1    2    0    0 -0.42462864178E+03  0.44222962454E+02  0.94939668255E+02  0.46332531492E+03  0.15294330000E+03 0.  0.
<mgrwt>
<rscale>  0 0.45349400E+03</rscale>
<asrwt>0</asrwt>
<pdfrwt beam="1">  1        2 0.36510830E+00 0.45349400E+03</pdfrwt>
<pdfrwt beam="2">  1       -2 0.46556909E-01 0.45349400E+03</pdfrwt>
<totfact> 0.19897519E+01</totfact>
</mgrwt>
</event>
<event>
 4    1  0.3365401E-008  0.5973858E+03  0.7818608E-02  0.9910845E-01
         -2   -1    0    0    0  501 -0.00000000000E+00  0.00000000000E+00  0.31562767882E+03  0.31562767883E+03  0.25500000000E-02 0.  1.
          2   -1    0    0  501    0  0.00000000000E+00 -0.00000000000E+00 -0.15134262147E+04  0.15134262147E+04  0.25500000000E-02 0. -1.
    8880022    1    1    2    0    0  0.19513887628E+03 -0.54350613198E+03 -0.13898296993E+03  0.61334004881E+03  0.15294330000E+03 0.  0.
    8880022    1    1    2    0    0 -0.19513887628E+03  0.54350613198E+03 -0.10588155660E+04  0.12157138447E+04  0.15294330000E+03 0.  0.
<mgrwt>
<rscale>  0 0.59738576E+03</rscale>
<asrwt>0</asrwt>
<pdfrwt beam="1">  1        2 0.23283480E+00 0.59738576E+03</pdfrwt>
<pdfrwt beam="2">  1       -2 0.48558105E-01 0.59738576E+03</pdfrwt>
<totfact> 0.52119870E+01</totfact>
</mgrwt>
</event>
<event>
 4    1  0.3365401E-008  0.2143419E+03  0.7818608E-02  0.1138173E+00
         -2   -1    0    0    0  501 -0.00000000000E+00  0.00000000000E+00  0.44089004003E+03  0.44089004004E+03  0.25500000000E-02 0.  1.
          2   -1    0    0  501    0  0.00000000000E+00 -0.00000000000E+00 -0.11829680609E+04  0.11829680609E+04  0.25500000000E-02 0. -1.
    8880022    1    1    2    0    0 -0.13805784772E+03  0.59083124709E+02 -0.11463837356E+04  0.11662495904E+04  0.15294330000E+03 0. -1.
    8880022    1    1    2    0    0  0.13805784772E+03 -0.59083124709E+02  0.40430571471E+03  0.45760851052E+03  0.15294330000E+03 0.  0.
<mgrwt>
<rscale>  0 0.21434187E+03</rscale>
<asrwt>0</asrwt>
<pdfrwt beam="1">  1        2 0.18199508E+00 0.21434187E+03</pdfrwt>
<pdfrwt beam="2">  1       -2 0.67829237E-01 0.21434187E+03</pdfrwt>
<totfact> 0.43119489E+01</totfact>
</mgrwt>
</event>
<event>
 4    1  0.3365401E-008  0.3128025E+03  0.7818608E-02  0.1079010E+00
          2   -1    0    0  501    0  0.00000000000E+00  0.00000000000E+00  0.25017838781E+04  0.25017838781E+04  0.25500000000E-02 0. -1.
         -2   -1    0    0    0  501 -0.00000000000E+00 -0.00000000000E+00 -0.12266194163E+03  0.12266194166E+03  0.25500000000E-02 0.  1.
    8880022    1    1    2    0    0 -0.13015601915E+03  0.23981903359E+03  0.10655636404E+03  0.33045373341E+03  0.15294330000E+03 0.  0.
    8880022    1    1    2    0    0  0.13015601915E+03 -0.23981903359E+03  0.22725655724E+04  0.22939920863E+04  0.15294330000E+03 0.  0.
<mgrwt>
<rscale>  0 0.31280251E+03</rscale>
<asrwt>0</asrwt>
<pdfrwt beam="1">  1        2 0.38488977E+00 0.31280251E+03</pdfrwt>
<pdfrwt beam="2">  1       -2 0.18871071E-01 0.31280251E+03</pdfrwt>
<totfact> 0.92338937E+01</totfact>
</mgrwt>
</event>
<event>
 4    1  0.3365401E-008  0.3138216E+03  0.7818608E-02  0.1078528E+00
          2   -1    0    0  501    0  0.00000000000E+00  0.00000000000E+00  0.13265874715E+04  0.13265874715E+04  0.25500000000E-02 0. -1.
         -2   -1    0    0    0  501 -0.00000000000E+00 -0.00000000000E+00 -0.32351238405E+03  0.32351238406E+03  0.25500000000E-02 0.  1.
    8880022    1    1    2    0    0  0.22873217679E+03 -0.15091039541E+03  0.12257618069E+04  0.12652968096E+04  0.15294330000E+03 0.  0.
    8880022    1    1    2    0    0 -0.22873217679E+03  0.15091039541E+03 -0.22268671945E+03  0.38480304596E+03  0.15294330000E+03 0.  0.
<mgrwt>
<rscale>  0 0.31382162E+03</rscale>
<asrwt>0</asrwt>
<pdfrwt beam="1">  1        2 0.20409038E+00 0.31382162E+03</pdfrwt>
<pdfrwt beam="2">  1       -2 0.49771136E-01 0.31382162E+03</pdfrwt>
<totfact> 0.66022695E+01</totfact>
</mgrwt>
</event>
<event>
 4    1  0.3365401E-008  0.5330734E+03  0.7818608E-02  0.1005489E+00
         -2   -1    0    0    0  501 -0.00000000000E+00  0.00000000000E+00  0.38799865800E+03  0.38799865801E+03  0.25500000000E-02 0.  1.
          2   -1    0    0  501    0  0.00000000000E+00 -0.00000000000E+00 -0.11603588130E+04  0.11603588130E+04  0.25500000000E-02 0. -1.
    8880022    1    1    2    0    0  0.45756689816E+03  0.22673364604E+03 -0.85634468398E+03  0.10087088199E+04  0.15294330000E+03 0.  0.
    8880022    1    1    2    0    0 -0.45756689816E+03 -0.22673364604E+03  0.83984528979E+02  0.53964865113E+03  0.15294330000E+03 0.  0.
<mgrwt>
<rscale>  0 0.53307341E+03</rscale>
<asrwt>0</asrwt>
<pdfrwt beam="1">  1        2 0.17851674E+00 0.53307341E+03</pdfrwt>
<pdfrwt beam="2">  1       -2 0.59692102E-01 0.53307341E+03</pdfrwt>
<totfact> 0.54554060E+01</totfact>
</mgrwt>
</event>
<event>
 4    1  0.3365401E-008  0.1723564E+03  0.7818608E-02  0.1175413E+00
          2   -1    0    0  501    0  0.00000000000E+00  0.00000000000E+00  0.21107678007E+04  0.21107678007E+04  0.25500000000E-02 0. -1.
         -2   -1    0    0    0  501 -0.00000000000E+00 -0.00000000000E+00 -0.32122014328E+03  0.32122014329E+03  0.25500000000E-02 0.  1.
    8880022    1    1    2    0    0  0.59245036021E+02  0.52963204849E+02  0.20838307423E+04  0.20909465060E+04  0.15294330000E+03 0.  0.
    8880022    1    1    2    0    0 -0.59245036021E+02 -0.52963204849E+02 -0.29428308489E+03  0.34104143799E+03  0.15294330000E+03 0.  0.
<mgrwt>
<rscale>  0 0.17235640E+03</rscale>
<asrwt>0</asrwt>
<pdfrwt beam="1">  1        2 0.32473352E+00 0.17235640E+03</pdfrwt>
<pdfrwt beam="2">  1       -2 0.49418481E-01 0.17235640E+03</pdfrwt>
<totfact> 0.27233766E+01</totfact>
</mgrwt>
</event>
<event>
 4    1  0.3365401E-008  0.4162576E+03  0.7818608E-02  0.1038291E+00
         -2   -1    0    0    0  501 -0.00000000000E+00  0.00000000000E+00  0.76999729738E+03  0.76999729739E+03  0.25500000000E-02 0.  1.
          2   -1    0    0  501    0  0.00000000000E+00 -0.00000000000E+00 -0.15615883184E+04  0.15615883184E+04  0.25500000000E-02 0. -1.
    8880022    1    1    2    0    0 -0.38512682973E+03 -0.39446436565E+02 -0.14743261929E+04  0.15319621642E+04  0.15294330000E+03 0.  0.
    8880022    1    1    2    0    0  0.38512682973E+03  0.39446436565E+02  0.68273517192E+03  0.79962345159E+03  0.15294330000E+03 0.  1.
<mgrwt>
<rscale>  0 0.41625755E+03</rscale>
<asrwt>0</asrwt>
<pdfrwt beam="1">  1        2 0.24024436E+00 0.41625755E+03</pdfrwt>
<pdfrwt beam="2">  1       -2 0.11846112E+00 0.41625755E+03</pdfrwt>
<totfact> 0.70401399E+00</totfact>
</mgrwt>
</event>
<event>
 4    1  0.3365401E-008  0.4332464E+03  0.7818608E-02  0.1032839E+00
         -2   -1    0    0    0  501 -0.00000000000E+00  0.00000000000E+00  0.44647268032E+03  0.44647268033E+03  0.25500000000E-02 0.  1.
          2   -1    0    0  501    0  0.00000000000E+00 -0.00000000000E+00 -0.27353806083E+04  0.27353806083E+04  0.25500000000E-02 0. -1.
    8880022    1    1    2    0    0 -0.30457300518E+03  0.26748095121E+03  0.31911717210E+03  0.53808753683E+03  0.15294330000E+03 0.  0.
    8880022    1    1    2    0    0  0.30457300518E+03 -0.26748095121E+03 -0.26080251001E+04  0.26437657518E+04  0.15294330000E+03 0.  0.
<mgrwt>
<rscale>  0 0.43324638E+03</rscale>
<asrwt>0</asrwt>
<pdfrwt beam="1">  1        2 0.42082778E+00 0.43324638E+03</pdfrwt>
<pdfrwt beam="2">  1       -2 0.68688106E-01 0.43324638E+03</pdfrwt>
<totfact> 0.55984486E+00</totfact>
</mgrwt>
</event>
<event>
 4    1  0.3365401E-008  0.5363898E+03  0.7818608E-02  0.1004694E+00
          2   -1    0    0  501    0  0.00000000000E+00  0.00000000000E+00  0.13225219396E+04  0.13225219396E+04  0.25500000000E-02 0. -1.
         -2   -1    0    0    0  501 -0.00000000000E+00 -0.00000000000E+00 -0.34268824380E+03  0.34268824381E+03  0.25500000000E-02 0.  1.
    8880022    1    1    2    0    0  0.51211237271E+03 -0.45423945207E+02  0.99305267747E+03  0.11286574725E+04  0.15294330000E+03 0.  0.
    8880022    1    1    2    0    0 -0.51211237271E+03  0.45423945207E+02 -0.13218981641E+02  0.53655271090E+03  0.15294330000E+03 0.  0.
<mgrwt>
<rscale>  0 0.53638985E+03</rscale>
<asrwt>0</asrwt>
<pdfrwt beam="1">  1        2 0.20346491E+00 0.53638985E+03</pdfrwt>
<pdfrwt beam="2">  1       -2 0.52721268E-01 0.53638985E+03</pdfrwt>
<totfact> 0.56832302E+01</totfact>
</mgrwt>
</event>
<event>
 4    1  0.3365401E-008  0.6002276E+03  0.7818608E-02  0.9904934E-01
         -2   -1    0    0    0  501 -0.00000000000E+00  0.00000000000E+00  0.83736446624E+03  0.83736446625E+03  0.25500000000E-02 0.  1.
          2   -1    0    0  501    0  0.00000000000E+00 -0.00000000000E+00 -0.12611059366E+04  0.12611059367E+04  0.25500000000E-02 0. -1.
    8880022    1    1    2    0    0  0.54810298100E+03  0.19095711987E+03  0.63977865380E+03  0.87726271908E+03  0.15294330000E+03 0.  0.
    8880022    1    1    2    0    0 -0.54810298100E+03 -0.19095711987E+03 -0.10635201242E+04  0.12212076838E+04  0.15294330000E+03 0.  0.
<mgrwt>
<rscale>  0 0.60022758E+03</rscale>
<asrwt>0</asrwt>
<pdfrwt beam="1">  1        2 0.19401630E+00 0.60022758E+03</pdfrwt>
<pdfrwt beam="2">  1       -2 0.12882530E+00 0.60022758E+03</pdfrwt>
<totfact> 0.80844669E+00</totfact>
</mgrwt>
</event>
<event>
 4    1  0.3365401E-008  0.4913263E+03  0.7818608E-02  0.1016068E+00
          2   -1    0    0  501    0  0.00000000000E+00  0.00000000000E+00  0.22922950214E+03  0.22922950215E+03  0.25500000000E-02 0. -1.
         -2   -1    0    0    0  501 -0.00000000000E+00 -0.00000000000E+00 -0.15246079291E+04  0.15246079291E+04  0.25500000000E-02 0.  1.
    8880022    1    1    2    0    0 -0.25703120063E+03 -0.38980105116E+03 -0.16002057339E+03  0.51672829854E+03  0.15294330000E+03 0.  0.
    8880022    1    1    2    0    0  0.25703120063E+03  0.38980105116E+03 -0.11353578536E+04  0.12371091327E+04  0.15294330000E+03 0.  0.
<mgrwt>
<rscale>  0 0.49132632E+03</rscale>
<asrwt>0</asrwt>
<pdfrwt beam="1">  1        2 0.35266078E-01 0.49132632E+03</pdfrwt>
<pdfrwt beam="2">  1       -2 0.23455506E+00 0.49132632E+03</pdfrwt>
<totfact> 0.12528187E+01</totfact>
</mgrwt>
</event>
<event>
 4    1  0.3365401E-008  0.5122503E+03  0.7818608E-02  0.1010630E+00
          2   -1    0    0  501    0  0.00000000000E+00  0.00000000000E+00  0.42211766644E+03  0.42211766645E+03  0.25500000000E-02 0. -1.
         -2   -1    0    0    0  501 -0.00000000000E+00 -0.00000000000E+00 -0.10227762297E+04  0.10227762297E+04  0.25500000000E-02 0.  1.
    8880022    1    1    2    0    0 -0.44427117195E+03  0.20403871227E+03  0.15211789163E+03  0.53435959456E+03  0.15294330000E+03 0.  0.
    8880022    1    1    2    0    0  0.44427117195E+03 -0.20403871227E+03 -0.75277645488E+03  0.91053430159E+03  0.15294330000E+03 0.  0.
<mgrwt>
<rscale>  0 0.51225025E+03</rscale>
<asrwt>0</asrwt>
<pdfrwt beam="1">  1        2 0.64941180E-01 0.51225025E+03</pdfrwt>
<pdfrwt beam="2">  1       -2 0.15735019E+00 0.51225025E+03</pdfrwt>
<totfact> 0.20475756E+01</totfact>
</mgrwt>
</event>
<event>
 4    1  0.3365401E-008  0.7455504E+03  0.7818608E-02  0.9642357E-01
          2   -1    0    0  501    0  0.00000000000E+00  0.00000000000E+00  0.22070545870E+04  0.22070545870E+04  0.25500000000E-02 0. -1.
         -2   -1    0    0    0  501 -0.00000000000E+00 -0.00000000000E+00 -0.60862073066E+03  0.60862073067E+03  0.25500000000E-02 0.  1.
    8880022    1    1    2    0    0 -0.60676716099E+03 -0.40532377552E+03  0.18771062594E+04  0.20197458535E+04  0.15294330000E+03 0.  0.
    8880022    1    1    2    0    0  0.60676716099E+03  0.40532377552E+03 -0.27867240308E+03  0.79592946415E+03  0.15294330000E+03 0.  0.
<mgrwt>
<rscale>  0 0.74555040E+03</rscale>
<asrwt>0</asrwt>
<pdfrwt beam="1">  1        2 0.33954687E+00 0.74555040E+03</pdfrwt>
<pdfrwt beam="2">  1       -2 0.93633956E-01 0.74555040E+03</pdfrwt>
<totfact> 0.51410723E+00</totfact>
</mgrwt>
</event>
<event>
 4    1  0.3365401E-008  0.1718236E+03  0.7818608E-02  0.1175959E+00
          2   -1    0    0  501    0  0.00000000000E+00  0.00000000000E+00  0.14361614092E+04  0.14361614092E+04  0.25500000000E-02 0. -1.
         -2   -1    0    0    0  501 -0.00000000000E+00 -0.00000000000E+00 -0.19411405752E+03  0.19411405754E+03  0.25500000000E-02 0.  1.
    8880022    1    1    2    0    0  0.74180952296E+02  0.25077392589E+02 -0.14974399954E+03  0.22791798463E+03  0.15294330000E+03 0.  1.
    8880022    1    1    2    0    0 -0.74180952296E+02 -0.25077392589E+02  0.13917913512E+04  0.14023574821E+04  0.15294330000E+03 0.  0.
<mgrwt>
<rscale>  0 0.17182358E+03</rscale>
<asrwt>0</asrwt>
<pdfrwt beam="1">  1        2 0.22094792E+00 0.17182358E+03</pdfrwt>
<pdfrwt beam="2">  1       -2 0.29863700E-01 0.17182358E+03</pdfrwt>
<totfact> 0.15804497E+02</totfact>
</mgrwt>
</event>
<event>
 4    1  0.3365401E-008  0.1263867E+04  0.7818608E-02  0.9058720E-01
         -2   -1    0    0    0  501 -0.00000000000E+00  0.00000000000E+00  0.21284388124E+04  0.21284388124E+04  0.25500000000E-02 0.  1.
          2   -1    0    0  501    0  0.00000000000E+00 -0.00000000000E+00 -0.13987448149E+04  0.13987448149E+04  0.25500000000E-02 0. -1.
    8880022    1    1    2    0    0 -0.25517415031E+03 -0.12283543208E+04 -0.83576761729E+03  0.15152119811E+04  0.15294330000E+03 0.  0.
    8880022    1    1    2    0    0  0.25517415031E+03  0.12283543208E+04  0.15654616148E+04  0.20119716461E+04  0.15294330000E+03 0.  0.
<mgrwt>
<rscale>  0 0.12638670E+04</rscale>
<asrwt>0</asrwt>
<pdfrwt beam="1">  1        2 0.21519151E+00 0.12638670E+04</pdfrwt>
<pdfrwt beam="2">  1       -2 0.32745212E+00 0.12638670E+04</pdfrwt>
<totfact> 0.30263945E-01</totfact>
</mgrwt>
</event>
<event>
 4    1  0.3365401E-008  0.3983107E+03  0.7818608E-02  0.1044366E+00
          2   -1    0    0  501    0  0.00000000000E+00  0.00000000000E+00  0.88341425398E+03  0.88341425398E+03  0.25500000000E-02 0. -1.
         -2   -1    0    0    0  501 -0.00000000000E+00 -0.00000000000E+00 -0.46132737693E+03  0.46132737694E+03  0.25500000000E-02 0.  1.
    8880022    1    1    2    0    0 -0.20160574564E+03 -0.30759530526E+03 -0.31440162371E+03  0.50744436395E+03  0.15294330000E+03 0.  0.
    8880022    1    1    2    0    0  0.20160574564E+03  0.30759530526E+03  0.73648850076E+03  0.83729726696E+03  0.15294330000E+03 0. -1.
<mgrwt>
<rscale>  0 0.39831068E+03</rscale>
<asrwt>0</asrwt>
<pdfrwt beam="1">  1        2 0.13590988E+00 0.39831068E+03</pdfrwt>
<pdfrwt beam="2">  1       -2 0.70973443E-01 0.39831068E+03</pdfrwt>
<totfact> 0.57183090E+01</totfact>
</mgrwt>
</event>
<event>
 4    1  0.3365401E-008  0.4117982E+03  0.7818608E-02  0.1039769E+00
          2   -1    0    0  501    0  0.00000000000E+00  0.00000000000E+00  0.72149059849E+03  0.72149059849E+03  0.25500000000E-02 0. -1.
         -2   -1    0    0    0  501 -0.00000000000E+00 -0.00000000000E+00 -0.17915630076E+04  0.17915630076E+04  0.25500000000E-02 0.  1.
    8880022    1    1    2    0    0  0.38204728272E+03  0.15031509179E+02 -0.17062434799E+04  0.17552334712E+04  0.15294330000E+03 0.  0.
    8880022    1    1    2    0    0 -0.38204728272E+03 -0.15031509179E+02  0.63617107083E+03  0.75782013491E+03  0.15294330000E+03 0.  0.
<mgrwt>
<rscale>  0 0.41179816E+03</rscale>
<asrwt>0</asrwt>
<pdfrwt beam="1">  1        2 0.11099855E+00 0.41179816E+03</pdfrwt>
<pdfrwt beam="2">  1       -2 0.27562508E+00 0.41179816E+03</pdfrwt>
<totfact> 0.19727645E+00</totfact>
</mgrwt>
</event>
<event>
 4    1  0.3365401E-008  0.4362763E+03  0.7818608E-02  0.1031895E+00
         -2   -1    0    0    0  501 -0.00000000000E+00  0.00000000000E+00  0.22116101386E+03  0.22116101387E+03  0.25500000000E-02 0.  1.
          2   -1    0    0  501    0  0.00000000000E+00 -0.00000000000E+00 -0.10315005329E+04  0.10315005329E+04  0.25500000000E-02 0. -1.
    8880022    1    1    2    0    0  0.12222624671E+03 -0.38987964112E+03 -0.66009156065E+03  0.79123821407E+03  0.15294330000E+03 0.  1.
    8880022    1    1    2    0    0 -0.12222624671E+03  0.38987964112E+03 -0.15024795837E+03  0.46142333269E+03  0.15294330000E+03 0.  0.
<mgrwt>
<rscale>  0 0.43627634E+03</rscale>
<asrwt>0</asrwt>
<pdfrwt beam="1">  1        2 0.15869239E+00 0.43627634E+03</pdfrwt>
<pdfrwt beam="2">  1       -2 0.34024772E-01 0.43627634E+03</pdfrwt>
<totfact> 0.20125766E+02</totfact>
</mgrwt>
</event>
<event>
 4    1  0.3365401E-008  0.4410415E+03  0.7818608E-02  0.1030428E+00
          2   -1    0    0  501    0  0.00000000000E+00  0.00000000000E+00  0.48833546851E+04  0.48833546851E+04  0.25500000000E-02 0. -1.
         -2   -1    0    0    0  501 -0.00000000000E+00 -0.00000000000E+00 -0.18991636014E+03  0.18991636016E+03  0.25500000000E-02 0.  1.
    8880022    1    1    2    0    0  0.17048270500E+03  0.37691063856E+03  0.91735193329E+02  0.45048083297E+03  0.15294330000E+03 0.  0.
    8880022    1    1    2    0    0 -0.17048270500E+03 -0.37691063856E+03  0.46017031317E+04  0.46227902123E+04  0.15294330000E+03 0. -1.
<mgrwt>
<rscale>  0 0.44104153E+03</rscale>
<asrwt>0</asrwt>
<pdfrwt beam="1">  1        2 0.75128524E+00 0.44104153E+03</pdfrwt>
<pdfrwt beam="2">  1       -2 0.29217905E-01 0.44104153E+03</pdfrwt>
<totfact> 0.67213145E-01</totfact>
</mgrwt>
</event>
<event>
 4    1  0.3365401E-008  0.3757860E+03  0.7818608E-02  0.1052502E+00
         -2   -1    0    0    0  501 -0.00000000000E+00  0.00000000000E+00  0.12908285098E+03  0.12908285100E+03  0.25500000000E-02 0.  1.
          2   -1    0    0  501    0  0.00000000000E+00 -0.00000000000E+00 -0.19331273464E+04  0.19331273464E+04  0.25500000000E-02 0. -1.
    8880022    1    1    2    0    0  0.20775171038E+02 -0.34262494338E+03 -0.22267831739E+03  0.43680744683E+03  0.15294330000E+03 0.  0.
    8880022    1    1    2    0    0 -0.20775171038E+02  0.34262494338E+03 -0.15813661781E+04  0.16254027506E+04  0.15294330000E+03 0.  0.
<mgrwt>
<rscale>  0 0.37578599E+03</rscale>
<asrwt>0</asrwt>
<pdfrwt beam="1">  1        2 0.29740419E+00 0.37578599E+03</pdfrwt>
<pdfrwt beam="2">  1       -2 0.19858901E-01 0.37578599E+03</pdfrwt>
<totfact> 0.16877062E+02</totfact>
</mgrwt>
</event>
<event>
 4    1  0.3365401E-008  0.5885405E+03  0.7818608E-02  0.9929470E-01
         -2   -1    0    0    0  501 -0.00000000000E+00  0.00000000000E+00  0.45258855083E+03  0.45258855083E+03  0.25500000000E-02 0.  1.
          2   -1    0    0  501    0  0.00000000000E+00 -0.00000000000E+00 -0.25444363260E+04  0.25444363260E+04  0.25500000000E-02 0. -1.
    8880022    1    1    2    0    0 -0.56014964462E+03  0.96024086971E+02 -0.22989653093E+04  0.23731037475E+04  0.15294330000E+03 0.  0.
    8880022    1    1    2    0    0  0.56014964462E+03 -0.96024086971E+02  0.20711753420E+03  0.62392112934E+03  0.15294330000E+03 0.  0.
<mgrwt>
<rscale>  0 0.58854049E+03</rscale>
<asrwt>0</asrwt>
<pdfrwt beam="1">  1        2 0.39145173E+00 0.58854049E+03</pdfrwt>
<pdfrwt beam="2">  1       -2 0.69629009E-01 0.58854049E+03</pdfrwt>
<totfact> 0.66938588E+00</totfact>
</mgrwt>
</event>
<event>
 4    1  0.3365401E-008  0.5065564E+03  0.7818608E-02  0.1012082E+00
          2   -1    0    0  501    0  0.00000000000E+00  0.00000000000E+00  0.20839919083E+04  0.20839919083E+04  0.25500000000E-02 0. -1.
         -2   -1    0    0    0  501 -0.00000000000E+00 -0.00000000000E+00 -0.34087030455E+03  0.34087030456E+03  0.25500000000E-02 0.  1.
    8880022    1    1    2    0    0  0.31107653452E+03 -0.36937665524E+03 -0.97460039231E+02  0.51584671757E+03  0.15294330000E+03 0.  0.
    8880022    1    1    2    0    0 -0.31107653452E+03  0.36937665524E+03  0.18405816430E+04  0.19090154953E+04  0.15294330000E+03 0.  0.
<mgrwt>
<rscale>  0 0.50655639E+03</rscale>
<asrwt>0</asrwt>
<pdfrwt beam="1">  1        2 0.32061414E+00 0.50655639E+03</pdfrwt>
<pdfrwt beam="2">  1       -2 0.52441585E-01 0.50655639E+03</pdfrwt>
<totfact> 0.22218059E+01</totfact>
</mgrwt>
</event>
<event>
 4    1  0.3365401E-008  0.1050532E+04  0.7818608E-02  0.9254795E-01
         -2   -1    0    0    0  501 -0.00000000000E+00  0.00000000000E+00  0.10421360235E+04  0.10421360235E+04  0.25500000000E-02 0.  1.
          2   -1    0    0  501    0  0.00000000000E+00 -0.00000000000E+00 -0.16805377103E+04  0.16805377103E+04  0.25500000000E-02 0. -1.
    8880022    1    1    2    0    0 -0.60715142109E+03  0.84355951553E+03  0.50869720053E+03  0.11672146329E+04  0.15294330000E+03 0.  0.
    8880022    1    1    2    0    0  0.60715142109E+03 -0.84355951553E+03 -0.11470988873E+04  0.15554591009E+04  0.15294330000E+03 0.  0.
<mgrwt>
<rscale>  0 0.10505318E+04</rscale>
<asrwt>0</asrwt>
<pdfrwt beam="1">  1        2 0.25854426E+00 0.10505318E+04</pdfrwt>
<pdfrwt beam="2">  1       -2 0.16032862E+00 0.10505318E+04</pdfrwt>
<totfact> 0.24877896E+00</totfact>
</mgrwt>
</event>
<event>
 4    1  0.3365401E-008  0.8997410E+03  0.7818608E-02  0.9425905E-01
         -2   -1    0    0    0  501 -0.00000000000E+00  0.00000000000E+00  0.90294008029E+03  0.90294008030E+03  0.25500000000E-02 0.  1.
          2   -1    0    0  501    0  0.00000000000E+00 -0.00000000000E+00 -0.92030970532E+03  0.92030970532E+03  0.25500000000E-02 0. -1.
    8880022    1    1    2    0    0 -0.60533412687E+03  0.64785245674E+03  0.13778225666E+03  0.91022953926E+03  0.15294330000E+03 0.  0.
    8880022    1    1    2    0    0  0.60533412687E+03 -0.64785245674E+03 -0.15515188168E+03  0.91302024636E+03  0.15294330000E+03 0.  0.
<mgrwt>
<rscale>  0 0.89974100E+03</rscale>
<asrwt>0</asrwt>
<pdfrwt beam="1">  1        2 0.14158611E+00 0.89974100E+03</pdfrwt>
<pdfrwt beam="2">  1       -2 0.13891386E+00 0.89974100E+03</pdfrwt>
<totfact> 0.10422137E+01</totfact>
</mgrwt>
</event>
<event>
 4    1  0.3365401E-008  0.8335595E+03  0.7818608E-02  0.9512672E-01
         -2   -1    0    0    0  501 -0.00000000000E+00  0.00000000000E+00  0.23089049689E+04  0.23089049689E+04  0.25500000000E-02 0.  1.
          2   -1    0    0  501    0  0.00000000000E+00 -0.00000000000E+00 -0.10830183786E+04  0.10830183786E+04  0.25500000000E-02 0. -1.
    8880022    1    1    2    0    0  0.20047605105E+03  0.79450561301E+03 -0.82826154606E+03  0.11750909147E+04  0.15294330000E+03 0. -1.
    8880022    1    1    2    0    0 -0.20047605105E+03 -0.79450561301E+03  0.20541481363E+04  0.22168324328E+04  0.15294330000E+03 0.  0.
<mgrwt>
<rscale>  0 0.83355952E+03</rscale>
<asrwt>0</asrwt>
<pdfrwt beam="1">  1        2 0.16661821E+00 0.83355952E+03</pdfrwt>
<pdfrwt beam="2">  1       -2 0.35521615E+00 0.83355952E+03</pdfrwt>
<totfact> 0.33569150E-01</totfact>
</mgrwt>
</event>
<event>
 4    1  0.3365401E-008  0.1209598E+04  0.7818608E-02  0.9104497E-01
         -2   -1    0    0    0  501 -0.00000000000E+00  0.00000000000E+00  0.12850704154E+04  0.12850704154E+04  0.25500000000E-02 0.  1.
          2   -1    0    0  501    0  0.00000000000E+00 -0.00000000000E+00 -0.16726166856E+04  0.16726166856E+04  0.25500000000E-02 0. -1.
    8880022    1    1    2    0    0  0.92862739095E+03 -0.75985935017E+03 -0.10294120648E+04  0.15883374690E+04  0.15294330000E+03 0.  0.
    8880022    1    1    2    0    0 -0.92862739095E+03  0.75985935017E+03  0.64186579456E+03  0.13693496319E+04  0.15294330000E+03 0.  0.
<mgrwt>
<rscale>  0 0.12095977E+04</rscale>
<asrwt>0</asrwt>
<pdfrwt beam="1">  1        2 0.25732565E+00 0.12095977E+04</pdfrwt>
<pdfrwt beam="2">  1       -2 0.19770314E+00 0.12095977E+04</pdfrwt>
<totfact> 0.13556196E+00</totfact>
</mgrwt>
</event>
<event>
 4    1  0.3365401E-008  0.8269131E+03  0.7818608E-02  0.9521858E-01
          2   -1    0    0  501    0  0.00000000000E+00  0.00000000000E+00  0.10057255349E+04  0.10057255349E+04  0.25500000000E-02 0. -1.
         -2   -1    0    0    0  501 -0.00000000000E+00 -0.00000000000E+00 -0.22147494922E+04  0.22147494922E+04  0.25500000000E-02 0.  1.
    8880022    1    1    2    0    0  0.17427454984E+03  0.79373923680E+03  0.73597189393E+03  0.11069958791E+04  0.15294330000E+03 0.  0.
    8880022    1    1    2    0    0 -0.17427454984E+03 -0.79373923680E+03 -0.19449958512E+04  0.21134791480E+04  0.15294330000E+03 0.  0.
<mgrwt>
<rscale>  0 0.82691308E+03</rscale>
<asrwt>0</asrwt>
<pdfrwt beam="1">  1        2 0.15472701E+00 0.82691308E+03</pdfrwt>
<pdfrwt beam="2">  1       -2 0.34073069E+00 0.82691308E+03</pdfrwt>
<totfact> 0.46244492E-01</totfact>
</mgrwt>
</event>
<event>
 4    1  0.3365401E-008  0.3827913E+03  0.7818608E-02  0.1049907E+00
          2   -1    0    0  501    0  0.00000000000E+00  0.00000000000E+00  0.32017045597E+04  0.32017045597E+04  0.25500000000E-02 0. -1.
         -2   -1    0    0    0  501 -0.00000000000E+00 -0.00000000000E+00 -0.28979164880E+03  0.28979164881E+03  0.25500000000E-02 0.  1.
    8880022    1    1    2    0    0 -0.28953566262E+03  0.19825903622E+03 -0.14602095475E+03  0.40969661655E+03  0.15294330000E+03 0.  1.
    8880022    1    1    2    0    0  0.28953566262E+03 -0.19825903622E+03  0.30579338656E+04  0.30817995919E+04  0.15294330000E+03 0.  0.
<mgrwt>
<rscale>  0 0.38279132E+03</rscale>
<asrwt>0</asrwt>
<pdfrwt beam="1">  1        2 0.49256994E+00 0.38279132E+03</pdfrwt>
<pdfrwt beam="2">  1       -2 0.44583330E-01 0.38279132E+03</pdfrwt>
<totfact> 0.73066345E+00</totfact>
</mgrwt>
</event>
<event>
 4    1  0.3365401E-008  0.5155400E+03  0.7818608E-02  0.1009801E+00
         -2   -1    0    0    0  501 -0.00000000000E+00  0.00000000000E+00  0.12661966172E+04  0.12661966172E+04  0.25500000000E-02 0.  1.
          2   -1    0    0  501    0  0.00000000000E+00 -0.00000000000E+00 -0.36610176530E+03  0.36610176531E+03  0.25500000000E-02 0. -1.
    8880022    1    1    2    0    0  0.46572240167E+03 -0.15966353100E+03 -0.83047030286E+02  0.52218604041E+03  0.15294330000E+03 0. -1.
    8880022    1    1    2    0    0 -0.46572240167E+03  0.15966353100E+03  0.98314188221E+03  0.11101123421E+04  0.15294330000E+03 0.  0.
<mgrwt>
<rscale>  0 0.51553996E+03</rscale>
<asrwt>0</asrwt>
<pdfrwt beam="1">  1        2 0.56323349E-01 0.51553996E+03</pdfrwt>
<pdfrwt beam="2">  1       -2 0.19479948E+00 0.51553996E+03</pdfrwt>
<totfact> 0.13218606E+01</totfact>
</mgrwt>
</event>
<event>
 4    1  0.3365401E-008  0.3503908E+03  0.7818608E-02  0.1062455E+00
         -2   -1    0    0    0  501 -0.00000000000E+00  0.00000000000E+00  0.26986359537E+03  0.26986359538E+03  0.25500000000E-02 0.  1.
          2   -1    0    0  501    0  0.00000000000E+00 -0.00000000000E+00 -0.70348838597E+03  0.70348838597E+03  0.25500000000E-02 0. -1.
    8880022    1    1    2    0    0  0.30168362293E+03  0.91482708101E+02  0.72462299514E+02  0.35780515940E+03  0.15294330000E+03 0.  1.
    8880022    1    1    2    0    0 -0.30168362293E+03 -0.91482708101E+02 -0.50608709011E+03  0.61554682196E+03  0.15294330000E+03 0.  0.
<mgrwt>
<rscale>  0 0.35039085E+03</rscale>
<asrwt>0</asrwt>
<pdfrwt beam="1">  1        2 0.10822898E+00 0.35039085E+03</pdfrwt>
<pdfrwt beam="2">  1       -2 0.41517477E-01 0.35039085E+03</pdfrwt>
<totfact> 0.23147369E+02</totfact>
</mgrwt>
</event>
<event>
 4    1  0.3365401E-008  0.6811410E+03  0.7818608E-02  0.9750038E-01
          2   -1    0    0  501    0  0.00000000000E+00  0.00000000000E+00  0.22336858224E+04  0.22336858224E+04  0.25500000000E-02 0. -1.
         -2   -1    0    0    0  501 -0.00000000000E+00 -0.00000000000E+00 -0.42953256095E+03  0.42953256096E+03  0.25500000000E-02 0.  1.
    8880022    1    1    2    0    0 -0.63156893290E+03  0.20416200388E+03  0.18590153625E+04  0.19798715139E+04  0.15294330000E+03 0.  0.
    8880022    1    1    2    0    0  0.63156893290E+03 -0.20416200388E+03 -0.54862101000E+02  0.68334686944E+03  0.15294330000E+03 0.  0.
<mgrwt>
<rscale>  0 0.68114102E+03</rscale>
<asrwt>0</asrwt>
<pdfrwt beam="1">  1        2 0.34364397E+00 0.68114102E+03</pdfrwt>
<pdfrwt beam="2">  1       -2 0.66081934E-01 0.68114102E+03</pdfrwt>
<totfact> 0.10966385E+01</totfact>
</mgrwt>
</event>
<event>
 4    1  0.3365401E-008  0.5845352E+03  0.7818608E-02  0.9938020E-01
          2   -1    0    0  501    0  0.00000000000E+00  0.00000000000E+00  0.29598592760E+04  0.29598592760E+04  0.25500000000E-02 0. -1.
         -2   -1    0    0    0  501 -0.00000000000E+00 -0.00000000000E+00 -0.29840593982E+03  0.29840593983E+03  0.25500000000E-02 0.  1.
    8880022    1    1    2    0    0  0.54631132927E+03  0.14083226465E+03  0.26064007066E+04  0.26711432181E+04  0.15294330000E+03 0.  0.
    8880022    1    1    2    0    0 -0.54631132927E+03 -0.14083226465E+03  0.55052629654E+02  0.58712199780E+03  0.15294330000E+03 0.  0.
<mgrwt>
<rscale>  0 0.58453524E+03</rscale>
<asrwt>0</asrwt>
<pdfrwt beam="1">  1        2 0.45536296E+00 0.58453524E+03</pdfrwt>
<pdfrwt beam="2">  1       -2 0.45908607E-01 0.58453524E+03</pdfrwt>
<totfact> 0.91247151E+00</totfact>
</mgrwt>
</event>
<event>
 4    1  0.3365401E-008  0.3575826E+03  0.7818608E-02  0.1059545E+00
          2   -1    0    0  501    0  0.00000000000E+00  0.00000000000E+00  0.70386501315E+03  0.70386501315E+03  0.25500000000E-02 0. -1.
         -2   -1    0    0    0  501 -0.00000000000E+00 -0.00000000000E+00 -0.62489298343E+03  0.62489298344E+03  0.25500000000E-02 0.  1.
    8880022    1    1    2    0    0 -0.27681994236E+03  0.16686629055E+03  0.59902234453E+03  0.69763390232E+03  0.15294330000E+03 0. -1.
    8880022    1    1    2    0    0  0.27681994236E+03 -0.16686629055E+03 -0.52005031481E+03  0.63112409426E+03  0.15294330000E+03 0.  0.
<mgrwt>
<rscale>  0 0.35758257E+03</rscale>
<asrwt>0</asrwt>
<pdfrwt beam="1">  1        2 0.10828693E+00 0.35758257E+03</pdfrwt>
<pdfrwt beam="2">  1       -2 0.96137382E-01 0.35758257E+03</pdfrwt>
<totfact> 0.39073202E+01</totfact>
</mgrwt>
</event>
<event>
 4    1  0.3365401E-008  0.3418259E+03  0.7818608E-02  0.1066021E+00
          2   -1    0    0  501    0  0.00000000000E+00  0.00000000000E+00  0.48620131536E+03  0.48620131537E+03  0.25500000000E-02 0. -1.
         -2   -1    0    0    0  501 -0.00000000000E+00 -0.00000000000E+00 -0.80717518674E+03  0.80717518674E+03  0.25500000000E-02 0.  1.
    8880022    1    1    2    0    0 -0.11681513438E+03  0.28250223487E+03 -0.70242082671E+03  0.78117857058E+03  0.15294330000E+03 0.  0.
    8880022    1    1    2    0    0  0.11681513438E+03 -0.28250223487E+03  0.38144695533E+03  0.51219793153E+03  0.15294330000E+03 0.  0.
<mgrwt>
<rscale>  0 0.34182589E+03</rscale>
<asrwt>0</asrwt>
<pdfrwt beam="1">  1        2 0.74800202E-01 0.34182589E+03</pdfrwt>
<pdfrwt beam="2">  1       -2 0.12418080E+00 0.34182589E+03</pdfrwt>
<totfact> 0.32807032E+01</totfact>
</mgrwt>
</event>
<event>
 4    1  0.3365401E-008  0.1275107E+04  0.7818608E-02  0.9049542E-01
          2   -1    0    0  501    0  0.00000000000E+00  0.00000000000E+00  0.15746053603E+04  0.15746053603E+04  0.25500000000E-02 0. -1.
         -2   -1    0    0    0  501 -0.00000000000E+00 -0.00000000000E+00 -0.11807789823E+04  0.11807789823E+04  0.25500000000E-02 0.  1.
    8880022    1    1    2    0    0 -0.90826360245E+03  0.88179494888E+03  0.68500227679E+03  0.14474546195E+04  0.15294330000E+03 0.  0.
    8880022    1    1    2    0    0  0.90826360245E+03 -0.88179494888E+03 -0.29117589871E+03  0.13079297230E+04  0.15294330000E+03 0.  0.
<mgrwt>
<rscale>  0 0.12751066E+04</rscale>
<asrwt>0</asrwt>
<pdfrwt beam="1">  1        2 0.24224698E+00 0.12751066E+04</pdfrwt>
<pdfrwt beam="2">  1       -2 0.18165831E+00 0.12751066E+04</pdfrwt>
<totfact> 0.19594916E+00</totfact>
</mgrwt>
</event>
<event>
 4    1  0.3365401E-008  0.2350306E+03  0.7818608E-02  0.1123148E+00
         -2   -1    0    0    0  501 -0.00000000000E+00  0.00000000000E+00  0.10912054808E+04  0.10912054808E+04  0.25500000000E-02 0.  1.
          2   -1    0    0  501    0  0.00000000000E+00 -0.00000000000E+00 -0.17523988654E+03  0.17523988656E+03  0.25500000000E-02 0. -1.
    8880022    1    1    2    0    0  0.14319286311E+03  0.10650607106E+03  0.99196840623E+03  0.10194315628E+04  0.15294330000E+03 0.  0.
    8880022    1    1    2    0    0 -0.14319286311E+03 -0.10650607106E+03 -0.76002811961E+02  0.24701380459E+03  0.15294330000E+03 0.  0.
<mgrwt>
<rscale>  0 0.23503062E+03</rscale>
<asrwt>0</asrwt>
<pdfrwt beam="1">  1        2 0.26959983E-01 0.23503062E+03</pdfrwt>
<pdfrwt beam="2">  1       -2 0.16787776E+00 0.23503062E+03</pdfrwt>
<totfact> 0.47051684E+01</totfact>
</mgrwt>
</event>
<event>
 4    1  0.3365401E-008  0.6903701E+03  0.7818608E-02  0.9733844E-01
          2   -1    0    0  501    0  0.00000000000E+00  0.00000000000E+00  0.15616323019E+04  0.15616323019E+04  0.25500000000E-02 0. -1.
         -2   -1    0    0    0  501 -0.00000000000E+00 -0.00000000000E+00 -0.43609557838E+03  0.43609557839E+03  0.25500000000E-02 0.  1.
    8880022    1    1    2    0    0  0.54026413490E+03 -0.40166381161E+03  0.15529016064E+02  0.69054468094E+03  0.15294330000E+03 0.  0.
    8880022    1    1    2    0    0 -0.54026413490E+03  0.40166381161E+03  0.11100077074E+04  0.13071831993E+04  0.15294330000E+03 0.  0.
<mgrwt>
<rscale>  0 0.69037005E+03</rscale>
<asrwt>0</asrwt>
<pdfrwt beam="1">  1        2 0.24025113E+00 0.69037005E+03</pdfrwt>
<pdfrwt beam="2">  1       -2 0.67091626E-01 0.69037005E+03</pdfrwt>
<totfact> 0.24667231E+01</totfact>
</mgrwt>
</event>
<event>
 4    1  0.3365401E-008  0.5136184E+03  0.7818608E-02  0.1010284E+00
         -2   -1    0    0    0  501 -0.00000000000E+00  0.00000000000E+00  0.29095253359E+04  0.29095253359E+04  0.25500000000E-02 0.  1.
          2   -1    0    0  501    0  0.00000000000E+00 -0.00000000000E+00 -0.21356787812E+03  0.21356787813E+03  0.25500000000E-02 0. -1.
    8880022    1    1    2    0    0  0.48977848967E+03  0.23006240319E+02  0.16340840366E+03  0.53898628502E+03  0.15294330000E+03 0.  0.
    8880022    1    1    2    0    0 -0.48977848967E+03 -0.23006240319E+02  0.25325490541E+04  0.25841069290E+04  0.15294330000E+03 0.  0.
<mgrwt>
<rscale>  0 0.51361845E+03</rscale>
<asrwt>0</asrwt>
<pdfrwt beam="1">  1        2 0.32856598E-01 0.51361845E+03</pdfrwt>
<pdfrwt beam="2">  1       -2 0.44761927E+00 0.51361845E+03</pdfrwt>
<totfact> 0.64644901E-01</totfact>
</mgrwt>
</event>
<event>
 4    1  0.3365401E-008  0.9702346E+03  0.7818608E-02  0.9341807E-01
          2   -1    0    0  501    0  0.00000000000E+00  0.00000000000E+00  0.19117741225E+04  0.19117741225E+04  0.25500000000E-02 0. -1.
         -2   -1    0    0    0  501 -0.00000000000E+00 -0.00000000000E+00 -0.77950222327E+03  0.77950222327E+03  0.25500000000E-02 0.  1.
    8880022    1    1    2    0    0  0.16796389259E+03  0.94326650740E+03  0.13827913301E+04  0.16892208526E+04  0.15294330000E+03 0.  0.
    8880022    1    1    2    0    0 -0.16796389259E+03 -0.94326650740E+03 -0.25051943086E+03  0.10020554932E+04  0.15294330000E+03 0.  0.
<mgrwt>
<rscale>  0 0.97023462E+03</rscale>
<asrwt>0</asrwt>
<pdfrwt beam="1">  1        2 0.29411910E+00 0.97023462E+03</pdfrwt>
<pdfrwt beam="2">  1       -2 0.11992342E+00 0.97023462E+03</pdfrwt>
<totfact> 0.39848266E+00</totfact>
</mgrwt>
</event>
<event>
 4    1  0.3365401E-008  0.6549688E+03  0.7818608E-02  0.9797500E-01
         -2   -1    0    0    0  501 -0.00000000000E+00  0.00000000000E+00  0.36131414247E+03  0.36131414248E+03  0.25500000000E-02 0.  1.
          2   -1    0    0  501    0  0.00000000000E+00 -0.00000000000E+00 -0.17535709747E+04  0.17535709747E+04  0.25500000000E-02 0. -1.
    8880022    1    1    2    0    0  0.41390079275E+02 -0.63551503990E+03 -0.12970414700E+04  0.14530315663E+04  0.15294330000E+03 0.  0.
    8880022    1    1    2    0    0 -0.41390079275E+02  0.63551503990E+03 -0.95215362179E+02  0.66185355088E+03  0.15294330000E+03 0.  1.
<mgrwt>
<rscale>  0 0.65496882E+03</rscale>
<asrwt>0</asrwt>
<pdfrwt beam="1">  1        2 0.26978015E+00 0.65496882E+03</pdfrwt>
<pdfrwt beam="2">  1       -2 0.55586792E-01 0.65496882E+03</pdfrwt>
<totfact> 0.28985535E+01</totfact>
</mgrwt>
</event>
<event>
 4    1  0.3365401E-008  0.1900639E+03  0.7818608E-02  0.1158404E+00
         -2   -1    0    0    0  501 -0.00000000000E+00  0.00000000000E+00  0.23685150532E+02  0.23685150669E+02  0.25500000000E-02 0.  1.
          2   -1    0    0  501    0  0.00000000000E+00 -0.00000000000E+00 -0.16362588554E+04  0.16362588554E+04  0.25500000000E-02 0. -1.
    8880022    1    1    2    0    0 -0.30366848490E+02  0.10867608360E+03 -0.10225283137E+04  0.10400425193E+04  0.15294330000E+03 0.  0.
    8880022    1    1    2    0    0  0.30366848490E+02 -0.10867608360E+03 -0.59004539111E+03  0.61990148671E+03  0.15294330000E+03 0. -1.
<mgrwt>
<rscale>  0 0.19006391E+03</rscale>
<asrwt>0</asrwt>
<pdfrwt beam="1">  1        2 0.25173204E+00 0.19006391E+03</pdfrwt>
<pdfrwt beam="2">  1       -2 0.36438706E-02 0.19006391E+03</pdfrwt>
<totfact> 0.36427390E+03</totfact>
</mgrwt>
</event>
<event>
 4    1  0.3365401E-008  0.3473808E+03  0.7818608E-02  0.1063695E+00
          2   -1    0    0  501    0  0.00000000000E+00  0.00000000000E+00  0.32940427586E+04  0.32940427586E+04  0.25500000000E-02 0. -1.
         -2   -1    0    0    0  501 -0.00000000000E+00 -0.00000000000E+00 -0.32899087513E+03  0.32899087514E+03  0.25500000000E-02 0.  1.
    8880022    1    1    2    0    0 -0.30915025631E+03  0.41326683855E+02  0.31902088030E+04  0.32090661625E+04  0.15294330000E+03 0.  0.
    8880022    1    1    2    0    0  0.30915025631E+03 -0.41326683855E+02 -0.22515691954E+03  0.41396747119E+03  0.15294330000E+03 0.  0.
<mgrwt>
<rscale>  0 0.34738081E+03</rscale>
<asrwt>0</asrwt>
<pdfrwt beam="1">  1        2 0.50677580E+00 0.34738081E+03</pdfrwt>
<pdfrwt beam="2">  1       -2 0.50613981E-01 0.34738081E+03</pdfrwt>
<totfact> 0.50389211E+00</totfact>
</mgrwt>
</event>
<event>
 4    1  0.3365401E-008  0.2955531E+03  0.7818608E-02  0.1087485E+00
         -2   -1    0    0    0  501 -0.00000000000E+00  0.00000000000E+00  0.51290699764E+03  0.51290699765E+03  0.25500000000E-02 0.  1.
          2   -1    0    0  501    0  0.00000000000E+00 -0.00000000000E+00 -0.76612395996E+03  0.76612395996E+03  0.25500000000E-02 0. -1.
    8880022    1    1    2    0    0  0.15099128174E+03  0.20288318537E+03  0.43736411366E+03  0.52786264786E+03  0.15294330000E+03 0.  0.
    8880022    1    1    2    0    0 -0.15099128174E+03 -0.20288318537E+03 -0.69058107598E+03  0.75116830976E+03  0.15294330000E+03 0.  0.
<mgrwt>
<rscale>  0 0.29555305E+03</rscale>
<asrwt>0</asrwt>
<pdfrwt beam="1">  1        2 0.11786523E+00 0.29555305E+03</pdfrwt>
<pdfrwt beam="2">  1       -2 0.78908769E-01 0.29555305E+03</pdfrwt>
<totfact> 0.55557614E+01</totfact>
</mgrwt>
</event>
<event>
 4    1  0.3365401E-008  0.4859614E+03  0.7818608E-02  0.1017510E+00
          2   -1    0    0  501    0  0.00000000000E+00  0.00000000000E+00  0.91246661967E+03  0.91246661968E+03  0.25500000000E-02 0. -1.
         -2   -1    0    0    0  501 -0.00000000000E+00 -0.00000000000E+00 -0.66357075262E+03  0.66357075262E+03  0.25500000000E-02 0.  1.
    8880022    1    1    2    0    0 -0.19710992337E+03 -0.41703062757E+03 -0.49099857451E+03  0.69082423192E+03  0.15294330000E+03 0.  0.
    8880022    1    1    2    0    0  0.19710992337E+03  0.41703062757E+03  0.73989444157E+03  0.88521314038E+03  0.15294330000E+03 0.  0.
<mgrwt>
<rscale>  0 0.48596144E+03</rscale>
<asrwt>0</asrwt>
<pdfrwt beam="1">  1        2 0.14037948E+00 0.48596144E+03</pdfrwt>
<pdfrwt beam="2">  1       -2 0.10208781E+00 0.48596144E+03</pdfrwt>
<totfact> 0.23713739E+01</totfact>
</mgrwt>
</event>
<event>
 4    1  0.3365401E-008  0.6962353E+03  0.7818608E-02  0.9723692E-01
          2   -1    0    0  501    0  0.00000000000E+00  0.00000000000E+00  0.38887599289E+03  0.38887599289E+03  0.25500000000E-02 0. -1.
         -2   -1    0    0    0  501 -0.00000000000E+00 -0.00000000000E+00 -0.14721938697E+04  0.14721938697E+04  0.25500000000E-02 0.  1.
    8880022    1    1    2    0    0  0.60011180084E+03  0.31814746895E+03 -0.90598146579E+03  0.11426049426E+04  0.15294330000E+03 0.  0.
    8880022    1    1    2    0    0 -0.60011180084E+03 -0.31814746895E+03 -0.17733641098E+03  0.71846491994E+03  0.15294330000E+03 0.  0.
<mgrwt>
<rscale>  0 0.69623533E+03</rscale>
<asrwt>0</asrwt>
<pdfrwt beam="1">  1        2 0.59827076E-01 0.69623533E+03</pdfrwt>
<pdfrwt beam="2">  1       -2 0.22649136E+00 0.69623533E+03</pdfrwt>
<totfact> 0.76023080E+00</totfact>
</mgrwt>
</event>
<event>
 4    1  0.3365401E-008  0.2044381E+03  0.7818608E-02  0.1146048E+00
         -2   -1    0    0    0  501 -0.00000000000E+00  0.00000000000E+00  0.64177332859E+02  0.64177332909E+02  0.25500000000E-02 0.  1.
          2   -1    0    0  501    0  0.00000000000E+00 -0.00000000000E+00 -0.10426951071E+04  0.10426951071E+04  0.25500000000E-02 0. -1.
    8880022    1    1    2    0    0  0.86484039269E+02  0.10451688455E+03 -0.15015775124E+03  0.25365778418E+03  0.15294330000E+03 0.  1.
    8880022    1    1    2    0    0 -0.86484039269E+02 -0.10451688455E+03 -0.82836002304E+03  0.85321465587E+03  0.15294330000E+03 0.  0.
<mgrwt>
<rscale>  0 0.20443806E+03</rscale>
<asrwt>0</asrwt>
<pdfrwt beam="1">  1        2 0.16041462E+00 0.20443806E+03</pdfrwt>
<pdfrwt beam="2">  1       -2 0.98734366E-02 0.20443806E+03</pdfrwt>
<totfact> 0.16733407E+03</totfact>
</mgrwt>
</event>
<event>
 4    1  0.3365401E-008  0.2932852E+03  0.7818608E-02  0.1088646E+00
         -2   -1    0    0    0  501 -0.00000000000E+00  0.00000000000E+00  0.19984462422E+03  0.19984462424E+03  0.25500000000E-02 0.  1.
          2   -1    0    0  501    0  0.00000000000E+00 -0.00000000000E+00 -0.15986953994E+04  0.15986953994E+04  0.25500000000E-02 0. -1.
    8880022    1    1    2    0    0 -0.13278768903E+03 -0.21211312594E+03  0.69316811182E+02  0.30136526323E+03  0.15294330000E+03 0.  0.
    8880022    1    1    2    0    0  0.13278768903E+03  0.21211312594E+03 -0.14681675864E+04  0.14971747604E+04  0.15294330000E+03 0. -1.
<mgrwt>
<rscale>  0 0.29328519E+03</rscale>
<asrwt>0</asrwt>
<pdfrwt beam="1">  1        2 0.24595313E+00 0.29328519E+03</pdfrwt>
<pdfrwt beam="2">  1       -2 0.30745328E-01 0.29328519E+03</pdfrwt>
<totfact> 0.11881618E+02</totfact>
</mgrwt>
</event>
<event>
 4    1  0.3365401E-008  0.4248346E+03  0.7818608E-02  0.1035504E+00
         -2   -1    0    0    0  501 -0.00000000000E+00  0.00000000000E+00  0.58793892134E+03  0.58793892135E+03  0.25500000000E-02 0.  1.
          2   -1    0    0  501    0  0.00000000000E+00 -0.00000000000E+00 -0.66061266785E+03  0.66061266786E+03  0.25500000000E-02 0. -1.
    8880022    1    1    2    0    0  0.34431636622E+03  0.19631359939E+03 -0.49308873932E+03  0.65086169591E+03  0.15294330000E+03 0.  0.
    8880022    1    1    2    0    0 -0.34431636622E+03 -0.19631359939E+03  0.42041499281E+03  0.59768989329E+03  0.15294330000E+03 0.  0.
<mgrwt>
<rscale>  0 0.42483461E+03</rscale>
<asrwt>0</asrwt>
<pdfrwt beam="1">  1        2 0.10163272E+00 0.42483461E+03</pdfrwt>
<pdfrwt beam="2">  1       -2 0.90452141E-01 0.42483461E+03</pdfrwt>
<totfact> 0.48119898E+01</totfact>
</mgrwt>
</event>
<event>
 4    1  0.3365401E-008  0.1071664E+04  0.7818608E-02  0.9233258E-01
          2   -1    0    0  501    0  0.00000000000E+00  0.00000000000E+00  0.16149196969E+04  0.16149196969E+04  0.25500000000E-02 0. -1.
         -2   -1    0    0    0  501 -0.00000000000E+00 -0.00000000000E+00 -0.98359118533E+03  0.98359118533E+03  0.25500000000E-02 0.  1.
    8880022    1    1    2    0    0 -0.51136427223E+03  0.92928988298E+03 -0.36811574898E+03  0.11331257491E+04  0.15294330000E+03 0.  0.
    8880022    1    1    2    0    0  0.51136427223E+03 -0.92928988298E+03  0.99944426051E+03  0.14653851331E+04  0.15294330000E+03 0.  0.
<mgrwt>
<rscale>  0 0.10716645E+04</rscale>
<asrwt>0</asrwt>
<pdfrwt beam="1">  1        2 0.24844918E+00 0.10716645E+04</pdfrwt>
<pdfrwt beam="2">  1       -2 0.15132172E+00 0.10716645E+04</pdfrwt>
<totfact> 0.31548980E+00</totfact>
</mgrwt>
</event>
<event>
 4    1  0.3365401E-008  0.6789691E+03  0.7818608E-02  0.9753889E-01
          2   -1    0    0  501    0  0.00000000000E+00  0.00000000000E+00  0.17053709279E+04  0.17053709279E+04  0.25500000000E-02 0. -1.
         -2   -1    0    0    0  501 -0.00000000000E+00 -0.00000000000E+00 -0.43235409026E+03  0.43235409027E+03  0.25500000000E-02 0.  1.
    8880022    1    1    2    0    0  0.65930114968E+03 -0.54124225494E+02  0.12908472957E+04  0.14585217967E+04  0.15294330000E+03 0.  0.
    8880022    1    1    2    0    0 -0.65930114968E+03  0.54124225494E+02 -0.17830458044E+02  0.67920322143E+03  0.15294330000E+03 0.  0.
<mgrwt>
<rscale>  0 0.67896914E+03</rscale>
<asrwt>0</asrwt>
<pdfrwt beam="1">  1        2 0.26236476E+00 0.67896914E+03</pdfrwt>
<pdfrwt beam="2">  1       -2 0.66516013E-01 0.67896914E+03</pdfrwt>
<totfact> 0.20993776E+01</totfact>
</mgrwt>
</event>
<event>
 4    1  0.3365401E-008  0.2584929E+03  0.7818608E-02  0.1108052E+00
         -2   -1    0    0    0  501 -0.00000000000E+00  0.00000000000E+00  0.66234103876E+02  0.66234103925E+02  0.25500000000E-02 0.  1.
          2   -1    0    0  501    0  0.00000000000E+00 -0.00000000000E+00 -0.11025575171E+04  0.11025575171E+04  0.25500000000E-02 0. -1.
    8880022    1    1    2    0    0  0.20062893206E+03 -0.56346663714E+02 -0.34776804955E+03  0.43331418647E+03  0.15294330000E+03 0.  1.
    8880022    1    1    2    0    0 -0.20062893206E+03  0.56346663714E+02 -0.68855536371E+03  0.73547743459E+03  0.15294330000E+03 0. -1.
<mgrwt>
<rscale>  0 0.25849288E+03</rscale>
<asrwt>0</asrwt>
<pdfrwt beam="1">  1        2 0.16962422E+00 0.25849288E+03</pdfrwt>
<pdfrwt beam="2">  1       -2 0.10189863E-01 0.25849288E+03</pdfrwt>
<totfact> 0.14667274E+03</totfact>
</mgrwt>
</event>
<event>
 4    1  0.3365401E-008  0.9238147E+03  0.7818608E-02  0.9396292E-01
          2   -1    0    0  501    0  0.00000000000E+00  0.00000000000E+00  0.24385644732E+04  0.24385644732E+04  0.25500000000E-02 0. -1.
         -2   -1    0    0    0  501 -0.00000000000E+00 -0.00000000000E+00 -0.56744838808E+03  0.56744838809E+03  0.25500000000E-02 0.  1.
    8880022    1    1    2    0    0  0.29159381285E+03  0.86314254352E+03  0.50890135194E+01  0.92382874669E+03  0.15294330000E+03 0.  0.
    8880022    1    1    2    0    0 -0.29159381285E+03 -0.86314254352E+03  0.18660270716E+04  0.20821841146E+04  0.15294330000E+03 0.  0.
<mgrwt>
<rscale>  0 0.92381473E+03</rscale>
<asrwt>0</asrwt>
<pdfrwt beam="1">  1        2 0.37516376E+00 0.92381473E+03</pdfrwt>
<pdfrwt beam="2">  1       -2 0.87299752E-01 0.92381473E+03</pdfrwt>
<totfact> 0.43645261E+00</totfact>
</mgrwt>
</event>
<event>
 4    1  0.3365401E-008  0.3590160E+03  0.7818608E-02  0.1058974E+00
         -2   -1    0    0    0  501 -0.00000000000E+00  0.00000000000E+00  0.24792536594E+04  0.24792536594E+04  0.25500000000E-02 0.  1.
          2   -1    0    0  501    0  0.00000000000E+00 -0.00000000000E+00 -0.15458162575E+03  0.15458162577E+03  0.25500000000E-02 0. -1.
    8880022    1    1    2    0    0 -0.11904465211E+03 -0.30220723319E+03  0.22351859276E+04  0.22638349377E+04  0.15294330000E+03 0.  1.
    8880022    1    1    2    0    0  0.11904465211E+03  0.30220723319E+03  0.89486106088E+02  0.37000034755E+03  0.15294330000E+03 0.  0.
<mgrwt>
<rscale>  0 0.35901601E+03</rscale>
<asrwt>0</asrwt>
<pdfrwt beam="1">  1        2 0.23781789E-01 0.35901601E+03</pdfrwt>
<pdfrwt beam="2">  1       -2 0.38142363E+00 0.35901601E+03</pdfrwt>
<totfact> 0.26144697E+00</totfact>
</mgrwt>
</event>
<event>
 4    1  0.3365401E-008  0.2127943E+03  0.7818608E-02  0.1139372E+00
         -2   -1    0    0    0  501 -0.00000000000E+00  0.00000000000E+00  0.25130999642E+03  0.25130999643E+03  0.25500000000E-02 0.  1.
          2   -1    0    0  501    0  0.00000000000E+00 -0.00000000000E+00 -0.17138216358E+04  0.17138216358E+04  0.25500000000E-02 0. -1.
    8880022    1    1    2    0    0 -0.13029248357E+03  0.70097387800E+02 -0.16607369212E+04  0.16743143520E+04  0.15294330000E+03 0.  0.
    8880022    1    1    2    0    0  0.13029248357E+03 -0.70097387800E+02  0.19822528185E+03  0.29081728014E+03  0.15294330000E+03 0.  1.
<mgrwt>
<rscale>  0 0.21279433E+03</rscale>
<asrwt>0</asrwt>
<pdfrwt beam="1">  1        2 0.26366486E+00 0.21279433E+03</pdfrwt>
<pdfrwt beam="2">  1       -2 0.38663078E-01 0.21279433E+03</pdfrwt>
<totfact> 0.69030078E+01</totfact>
</mgrwt>
</event>
<event>
 4    1  0.3365401E-008  0.2863866E+03  0.7818608E-02  0.1092251E+00
          2   -1    0    0  501    0  0.00000000000E+00  0.00000000000E+00  0.16710538384E+04  0.16710538384E+04  0.25500000000E-02 0. -1.
         -2   -1    0    0    0  501 -0.00000000000E+00 -0.00000000000E+00 -0.59342833287E+02  0.59342833342E+02  0.25500000000E-02 0.  1.
    8880022    1    1    2    0    0 -0.23296855001E+03  0.65964158218E+02  0.11656384140E+04  0.12003042033E+04  0.15294330000E+03 0.  0.
    8880022    1    1    2    0    0  0.23296855001E+03 -0.65964158218E+02  0.44607259119E+03  0.53009246843E+03  0.15294330000E+03 0.  0.
<mgrwt>
<rscale>  0 0.28638657E+03</rscale>
<asrwt>0</asrwt>
<pdfrwt beam="1">  1        2 0.25708521E+00 0.28638657E+03</pdfrwt>
<pdfrwt beam="2">  1       -2 0.91296664E-02 0.28638657E+03</pdfrwt>
<totfact> 0.84904482E+02</totfact>
</mgrwt>
</event>
<event>
 4    1  0.3365401E-008  0.5174325E+03  0.7818608E-02  0.1009326E+00
          2   -1    0    0  501    0  0.00000000000E+00  0.00000000000E+00  0.27128654259E+04  0.27128654259E+04  0.25500000000E-02 0. -1.
         -2   -1    0    0    0  501 -0.00000000000E+00 -0.00000000000E+00 -0.14928316827E+03  0.14928316830E+03  0.25500000000E-02 0.  1.
    8880022    1    1    2    0    0 -0.18531260288E+02 -0.49396487002E+03  0.21148906800E+04  0.21772686884E+04  0.15294330000E+03 0.  0.
    8880022    1    1    2    0    0  0.18531260288E+02  0.49396487002E+03  0.44869157762E+03  0.68487990572E+03  0.15294330000E+03 0.  0.
<mgrwt>
<rscale>  0 0.51743246E+03</rscale>
<asrwt>0</asrwt>
<pdfrwt beam="1">  1        2 0.41736391E+00 0.51743246E+03</pdfrwt>
<pdfrwt beam="2">  1       -2 0.22966641E-01 0.51743246E+03</pdfrwt>
<totfact> 0.47442500E+01</totfact>
</mgrwt>
</event>
<event>
 4    1  0.3365401E-008  0.1804011E+03  0.7818608E-02  0.1167415E+00
         -2   -1    0    0    0  501 -0.00000000000E+00  0.00000000000E+00  0.42480230078E+02  0.42480230155E+02  0.25500000000E-02 0.  1.
          2   -1    0    0  501    0  0.00000000000E+00 -0.00000000000E+00 -0.10553030143E+04  0.10553030143E+04  0.25500000000E-02 0. -1.
    8880022    1    1    2    0    0  0.39324399211E+02  0.87215252093E+02 -0.79374824950E+03  0.81399069109E+03  0.15294330000E+03 0.  0.
    8880022    1    1    2    0    0 -0.39324399211E+02 -0.87215252093E+02 -0.21907453471E+03  0.28379255336E+03  0.15294330000E+03 0.  0.
<mgrwt>
<rscale>  0 0.18040111E+03</rscale>
<asrwt>0</asrwt>
<pdfrwt beam="1">  1        2 0.16235429E+00 0.18040111E+03</pdfrwt>
<pdfrwt beam="2">  1       -2 0.65354208E-02 0.18040111E+03</pdfrwt>
<totfact> 0.31241613E+03</totfact>
</mgrwt>
</event>
<event>
 4    1  0.3365401E-008  0.8769981E+03  0.7818608E-02  0.9454801E-01
         -2   -1    0    0    0  501 -0.00000000000E+00  0.00000000000E+00  0.42458701232E+03  0.42458701233E+03  0.25500000000E-02 0.  1.
          2   -1    0    0  501    0  0.00000000000E+00 -0.00000000000E+00 -0.19647027744E+04  0.19647027744E+04  0.25500000000E-02 0. -1.
    8880022    1    1    2    0    0  0.70147340097E+03 -0.50365567719E+03 -0.11036913424E+04  0.14097021692E+04  0.15294330000E+03 0.  0.
    8880022    1    1    2    0    0 -0.70147340097E+03  0.50365567719E+03 -0.43642441972E+03  0.97958761761E+03  0.15294330000E+03 0.  0.
<mgrwt>
<rscale>  0 0.87699808E+03</rscale>
<asrwt>0</asrwt>
<pdfrwt beam="1">  1        2 0.30226196E+00 0.87699808E+03</pdfrwt>
<pdfrwt beam="2">  1       -2 0.65321080E-01 0.87699808E+03</pdfrwt>
<totfact> 0.15353200E+01</totfact>
</mgrwt>
</event>
<event>
 4    1  0.3365401E-008  0.2956644E+03  0.7818608E-02  0.1087428E+00
          2   -1    0    0  501    0  0.00000000000E+00  0.00000000000E+00  0.12198615054E+04  0.12198615054E+04  0.25500000000E-02 0. -1.
         -2   -1    0    0    0  501 -0.00000000000E+00 -0.00000000000E+00 -0.17663513803E+03  0.17663513805E+03  0.25500000000E-02 0.  1.
    8880022    1    1    2    0    0  0.24940641093E+03 -0.42687513643E+02 -0.16670127537E+02  0.29613396935E+03  0.15294330000E+03 0.  0.
    8880022    1    1    2    0    0 -0.24940641093E+03  0.42687513643E+02  0.10598964949E+04  0.11003626741E+04  0.15294330000E+03 0. -1.
<mgrwt>
<rscale>  0 0.29566440E+03</rscale>
<asrwt>0</asrwt>
<pdfrwt beam="1">  1        2 0.18767100E+00 0.29566440E+03</pdfrwt>
<pdfrwt beam="2">  1       -2 0.27174636E-01 0.29566440E+03</pdfrwt>
<totfact> 0.23947784E+02</totfact>
</mgrwt>
</event>
<event>
 4    1  0.3365401E-008  0.1226238E+04  0.7818608E-02  0.9090195E-01
          2   -1    0    0  501    0  0.00000000000E+00  0.00000000000E+00  0.19983385843E+04  0.19983385843E+04  0.25500000000E-02 0. -1.
         -2   -1    0    0    0  501 -0.00000000000E+00 -0.00000000000E+00 -0.13937029357E+04  0.13937029357E+04  0.25500000000E-02 0.  1.
    8880022    1    1    2    0    0 -0.35295538554E+03 -0.11643414567E+04  0.14527446269E+04  0.19010857782E+04  0.15294330000E+03 0.  0.
    8880022    1    1    2    0    0  0.35295538554E+03  0.11643414567E+04 -0.84810897833E+03  0.14909557418E+04  0.15294330000E+03 0.  0.
<mgrwt>
<rscale>  0 0.12262382E+04</rscale>
<asrwt>0</asrwt>
<pdfrwt beam="1">  1        2 0.30743670E+00 0.12262382E+04</pdfrwt>
<pdfrwt beam="2">  1       -2 0.21441584E+00 0.12262382E+04</pdfrwt>
<totfact> 0.69539926E-01</totfact>
</mgrwt>
</event>
<event>
 4    1  0.3365401E-008  0.2742772E+03  0.7818608E-02  0.1098856E+00
          2   -1    0    0  501    0  0.00000000000E+00  0.00000000000E+00  0.11907254636E+04  0.11907254636E+04  0.25500000000E-02 0. -1.
         -2   -1    0    0    0  501 -0.00000000000E+00 -0.00000000000E+00 -0.55510230792E+03  0.55510230792E+03  0.25500000000E-02 0.  1.
    8880022    1    1    2    0    0 -0.10074466136E+03  0.20417359291E+03 -0.50392742403E+03  0.57373412357E+03  0.15294330000E+03 0.  0.
    8880022    1    1    2    0    0  0.10074466136E+03 -0.20417359291E+03  0.11395505797E+04  0.11720936480E+04  0.15294330000E+03 0.  0.
<mgrwt>
<rscale>  0 0.27427722E+03</rscale>
<asrwt>0</asrwt>
<pdfrwt beam="1">  1        2 0.18318853E+00 0.27427722E+03</pdfrwt>
<pdfrwt beam="2">  1       -2 0.85400355E-01 0.27427722E+03</pdfrwt>
<totfact> 0.25306315E+01</totfact>
</mgrwt>
</event>
<event>
 4    1  0.3365401E-008  0.1800387E+03  0.7818608E-02  0.1167766E+00
          2   -1    0    0  501    0  0.00000000000E+00  0.00000000000E+00  0.34807355075E+03  0.34807355076E+03  0.25500000000E-02 0. -1.
         -2   -1    0    0    0  501 -0.00000000000E+00 -0.00000000000E+00 -0.20128235894E+03  0.20128235896E+03  0.25500000000E-02 0.  1.
    8880022    1    1    2    0    0 -0.92454844543E+01 -0.94534710755E+02 -0.12795426152E+03  0.22087606610E+03  0.15294330000E+03 0.  0.
    8880022    1    1    2    0    0  0.92454844543E+01  0.94534710755E+02  0.27474545333E+03  0.32847984362E+03  0.15294330000E+03 0. -1.
<mgrwt>
<rscale>  0 0.18003873E+03</rscale>
<asrwt>0</asrwt>
<pdfrwt beam="1">  1        2 0.53549777E-01 0.18003873E+03</pdfrwt>
<pdfrwt beam="2">  1       -2 0.30966517E-01 0.18003873E+03</pdfrwt>
<totfact> 0.89502757E+02</totfact>
</mgrwt>
</event>
<event>
 4    1  0.3365401E-008  0.1382515E+04  0.7818608E-02  0.8966573E-01
          2   -1    0    0  501    0  0.00000000000E+00  0.00000000000E+00  0.41007945192E+04  0.41007945193E+04  0.25500000000E-02 0. -1.
         -2   -1    0    0    0  501 -0.00000000000E+00 -0.00000000000E+00 -0.56672611031E+03  0.56672611032E+03  0.25500000000E-02 0.  1.
    8880022    1    1    2    0    0 -0.69120302242E+03 -0.11875163445E+04  0.27504604927E+04  0.30783731518E+04  0.15294330000E+03 0.  0.
    8880022    1    1    2    0    0  0.69120302242E+03  0.11875163445E+04  0.78360791620E+03  0.15891474777E+04  0.15294330000E+03 0.  0.
<mgrwt>
<rscale>  0 0.13825152E+04</rscale>
<asrwt>0</asrwt>
<pdfrwt beam="1">  1        2 0.63089145E+00 0.13825152E+04</pdfrwt>
<pdfrwt beam="2">  1       -2 0.87188634E-01 0.13825152E+04</pdfrwt>
<totfact> 0.31819467E-01</totfact>
</mgrwt>
</event>
<event>
 4    1  0.3365401E-008  0.5950644E+03  0.7818608E-02  0.9915699E-01
          2   -1    0    0  501    0  0.00000000000E+00  0.00000000000E+00  0.64041239974E+03  0.64041239975E+03  0.25500000000E-02 0. -1.
         -2   -1    0    0    0  501 -0.00000000000E+00 -0.00000000000E+00 -0.57360033947E+03  0.57360033948E+03  0.25500000000E-02 0.  1.
    8880022    1    1    2    0    0  0.96601086726E+02 -0.56690233364E+03 -0.81829861563E+02  0.60066446965E+03  0.15294330000E+03 0.  0.
    8880022    1    1    2    0    0 -0.96601086726E+02  0.56690233364E+03  0.14864192183E+03  0.61334826957E+03  0.15294330000E+03 0.  0.
<mgrwt>
<rscale>  0 0.59506443E+03</rscale>
<asrwt>0</asrwt>
<pdfrwt beam="1">  1        2 0.98524985E-01 0.59506443E+03</pdfrwt>
<pdfrwt beam="2">  1       -2 0.88246206E-01 0.59506443E+03</pdfrwt>
<totfact> 0.51921083E+01</totfact>
</mgrwt>
</event>
<event>
 4    1  0.3365401E-008  0.3731466E+03  0.7818608E-02  0.1053496E+00
          2   -1    0    0  501    0  0.00000000000E+00  0.00000000000E+00  0.13803890825E+04  0.13803890825E+04  0.25500000000E-02 0. -1.
         -2   -1    0    0    0  501 -0.00000000000E+00 -0.00000000000E+00 -0.48896693298E+03  0.48896693299E+03  0.25500000000E-02 0.  1.
    8880022    1    1    2    0    0  0.18067211852E+02 -0.33988277954E+03 -0.38699738811E+03  0.53759218688E+03  0.15294330000E+03 0.  0.
    8880022    1    1    2    0    0 -0.18067211852E+02  0.33988277954E+03  0.12784195376E+04  0.13317638286E+04  0.15294330000E+03 0.  0.
<mgrwt>
<rscale>  0 0.37314659E+03</rscale>
<asrwt>0</asrwt>
<pdfrwt beam="1">  1        2 0.21236755E+00 0.37314659E+03</pdfrwt>
<pdfrwt beam="2">  1       -2 0.75225683E-01 0.37314659E+03</pdfrwt>
<totfact> 0.25568750E+01</totfact>
</mgrwt>
</event>
<event>
 4    1  0.3365401E-008  0.3705423E+03  0.7818608E-02  0.1054486E+00
          2   -1    0    0  501    0  0.00000000000E+00  0.00000000000E+00  0.78208625653E+03  0.78208625653E+03  0.25500000000E-02 0. -1.
         -2   -1    0    0    0  501 -0.00000000000E+00 -0.00000000000E+00 -0.21539192911E+03  0.21539192912E+03  0.25500000000E-02 0.  1.
    8880022    1    1    2    0    0 -0.22704295746E+02  0.33674090684E+03  0.49782614184E+03  0.62059039945E+03  0.15294330000E+03 0.  0.
    8880022    1    1    2    0    0  0.22704295746E+02 -0.33674090684E+03  0.68868185583E+02  0.37688778620E+03  0.15294330000E+03 0.  1.
<mgrwt>
<rscale>  0 0.37054227E+03</rscale>
<asrwt>0</asrwt>
<pdfrwt beam="1">  1        2 0.12032096E+00 0.37054227E+03</pdfrwt>
<pdfrwt beam="2">  1       -2 0.33137221E-01 0.37054227E+03</pdfrwt>
<totfact> 0.31053606E+02</totfact>
</mgrwt>
</event>
<event>
 4    1  0.3365401E-008  0.3074066E+03  0.7818608E-02  0.1081596E+00
         -2   -1    0    0    0  501 -0.00000000000E+00  0.00000000000E+00  0.23404006640E+03  0.23404006641E+03  0.25500000000E-02 0.  1.
          2   -1    0    0  501    0  0.00000000000E+00 -0.00000000000E+00 -0.88443136169E+03  0.88443136169E+03  0.25500000000E-02 0. -1.
    8880022    1    1    2    0    0 -0.30956644751E+02 -0.26485630870E+03 -0.73746544878E+03  0.79897066233E+03  0.15294330000E+03 0.  0.
    8880022    1    1    2    0    0  0.30956644751E+02  0.26485630870E+03  0.87074153481E+02  0.31950076577E+03  0.15294330000E+03 0.  0.
<mgrwt>
<rscale>  0 0.30740662E+03</rscale>
<asrwt>0</asrwt>
<pdfrwt beam="1">  1        2 0.13606636E+00 0.30740662E+03</pdfrwt>
<pdfrwt beam="2">  1       -2 0.36006165E-01 0.30740662E+03</pdfrwt>
<totfact> 0.22758395E+02</totfact>
</mgrwt>
</event>
<event>
 4    1  0.3365401E-008  0.9842041E+03  0.7818608E-02  0.9326041E-01
         -2   -1    0    0    0  501 -0.00000000000E+00  0.00000000000E+00  0.17903876967E+04  0.17903876967E+04  0.25500000000E-02 0.  1.
          2   -1    0    0  501    0  0.00000000000E+00 -0.00000000000E+00 -0.11389614438E+04  0.11389614438E+04  0.25500000000E-02 0. -1.
    8880022    1    1    2    0    0 -0.94525029337E+03 -0.22752572906E+03 -0.73552161718E+03  0.12286780607E+04  0.15294330000E+03 0.  0.
    8880022    1    1    2    0    0  0.94525029337E+03  0.22752572906E+03  0.13869478701E+04  0.17006710798E+04  0.15294330000E+03 0.  0.
<mgrwt>
<rscale>  0 0.98420411E+03</rscale>
<asrwt>0</asrwt>
<pdfrwt beam="1">  1        2 0.17522484E+00 0.98420411E+03</pdfrwt>
<pdfrwt beam="2">  1       -2 0.27544426E+00 0.98420411E+03</pdfrwt>
<totfact> 0.92800547E-01</totfact>
</mgrwt>
</event>
<event>
 4    1  0.3365401E-008  0.1000956E+04  0.7818608E-02  0.9307497E-01
          2   -1    0    0  501    0  0.00000000000E+00  0.00000000000E+00  0.26187591439E+04  0.26187591439E+04  0.25500000000E-02 0. -1.
         -2   -1    0    0    0  501 -0.00000000000E+00 -0.00000000000E+00 -0.58447394235E+03  0.58447394235E+03  0.25500000000E-02 0.  1.
    8880022    1    1    2    0    0 -0.24270730595E+02 -0.98890472434E+03  0.75847175277E+02  0.10038257165E+04  0.15294330000E+03 0.  0.
    8880022    1    1    2    0    0  0.24270730595E+02  0.98890472434E+03  0.19584380263E+04  0.21994073697E+04  0.15294330000E+03 0. -1.
<mgrwt>
<rscale>  0 0.10009562E+04</rscale>
<asrwt>0</asrwt>
<pdfrwt beam="1">  1        2 0.40288603E+00 0.10009562E+04</pdfrwt>
<pdfrwt beam="2">  1       -2 0.89919067E-01 0.10009562E+04</pdfrwt>
<totfact> 0.31785262E+00</totfact>
</mgrwt>
</event>
<event>
 4    1  0.3365401E-008  0.8315186E+03  0.7818608E-02  0.9515483E-01
         -2   -1    0    0    0  501 -0.00000000000E+00  0.00000000000E+00  0.75748051751E+03  0.75748051752E+03  0.25500000000E-02 0.  1.
          2   -1    0    0  501    0  0.00000000000E+00 -0.00000000000E+00 -0.11875103119E+04  0.11875103119E+04  0.25500000000E-02 0. -1.
    8880022    1    1    2    0    0 -0.29587844430E+03 -0.76189726112E+03 -0.68276257757E+03  0.10759125804E+04  0.15294330000E+03 0.  0.
    8880022    1    1    2    0    0  0.29587844430E+03  0.76189726112E+03  0.25273278315E+03  0.86907824906E+03  0.15294330000E+03 0.  0.
<mgrwt>
<rscale>  0 0.83151858E+03</rscale>
<asrwt>0</asrwt>
<pdfrwt beam="1">  1        2 0.18269389E+00 0.83151858E+03</pdfrwt>
<pdfrwt beam="2">  1       -2 0.11653546E+00 0.83151858E+03</pdfrwt>
<totfact> 0.11108172E+01</totfact>
</mgrwt>
</event>
<event>
 4    1  0.3365401E-008  0.5319043E+03  0.7818608E-02  0.1005771E+00
         -2   -1    0    0    0  501 -0.00000000000E+00  0.00000000000E+00  0.37412895248E+03  0.37412895248E+03  0.25500000000E-02 0.  1.
          2   -1    0    0  501    0  0.00000000000E+00 -0.00000000000E+00 -0.94690217464E+03  0.94690217464E+03  0.25500000000E-02 0. -1.
    8880022    1    1    2    0    0 -0.23630462616E+03  0.45132106065E+03 -0.58279488132E+03  0.78903238390E+03  0.15294330000E+03 0.  0.
    8880022    1    1    2    0    0  0.23630462616E+03 -0.45132106065E+03  0.10021659151E+02  0.53199874323E+03  0.15294330000E+03 0.  0.
<mgrwt>
<rscale>  0 0.53190434E+03</rscale>
<asrwt>0</asrwt>
<pdfrwt beam="1">  1        2 0.14567726E+00 0.53190434E+03</pdfrwt>
<pdfrwt beam="2">  1       -2 0.57558301E-01 0.53190434E+03</pdfrwt>
<totfact> 0.79739664E+01</totfact>
</mgrwt>
</event>
<event>
 4    1  0.3365401E-008  0.7813849E+03  0.7818608E-02  0.9587359E-01
         -2   -1    0    0    0  501 -0.00000000000E+00  0.00000000000E+00  0.11818811841E+04  0.11818811841E+04  0.25500000000E-02 0.  1.
          2   -1    0    0  501    0  0.00000000000E+00 -0.00000000000E+00 -0.21727713570E+04  0.21727713570E+04  0.25500000000E-02 0. -1.
    8880022    1    1    2    0    0  0.76449781976E+03 -0.52094318861E+02 -0.19598557582E+04  0.21098807977E+04  0.15294330000E+03 0.  0.
    8880022    1    1    2    0    0 -0.76449781976E+03  0.52094318861E+02  0.96896558535E+03  0.12447717434E+04  0.15294330000E+03 0.  0.
<mgrwt>
<rscale>  0 0.78138492E+03</rscale>
<asrwt>0</asrwt>
<pdfrwt beam="1">  1        2 0.33427252E+00 0.78138492E+03</pdfrwt>
<pdfrwt beam="2">  1       -2 0.18182788E+00 0.78138492E+03</pdfrwt>
<totfact> 0.97914240E-01</totfact>
</mgrwt>
</event>
<event>
 4    1  0.3365401E-008  0.2346201E+03  0.7818608E-02  0.1123430E+00
          2   -1    0    0  501    0  0.00000000000E+00  0.00000000000E+00  0.25035425614E+04  0.25035425614E+04  0.25500000000E-02 0. -1.
         -2   -1    0    0    0  501 -0.00000000000E+00 -0.00000000000E+00 -0.85086625807E+02  0.85086625845E+02  0.25500000000E-02 0.  1.
    8880022    1    1    2    0    0 -0.11881532312E+03 -0.13243057569E+03  0.94623093289E+02  0.25298245232E+03  0.15294330000E+03 0.  0.
    8880022    1    1    2    0    0  0.11881532312E+03  0.13243057569E+03  0.23238328423E+04  0.23356467349E+04  0.15294330000E+03 0.  0.
<mgrwt>
<rscale>  0 0.23462010E+03</rscale>
<asrwt>0</asrwt>
<pdfrwt beam="1">  1        2 0.38516039E+00 0.23462010E+03</pdfrwt>
<pdfrwt beam="2">  1       -2 0.13090250E-01 0.23462010E+03</pdfrwt>
<totfact> 0.17386605E+02</totfact>
</mgrwt>
</event>
<event>
 4    1  0.3365401E-008  0.3634732E+03  0.7818608E-02  0.1057217E+00
         -2   -1    0    0    0  501 -0.00000000000E+00  0.00000000000E+00  0.22365437174E+03  0.22365437175E+03  0.25500000000E-02 0.  1.
          2   -1    0    0  501    0  0.00000000000E+00 -0.00000000000E+00 -0.71335994681E+03  0.71335994681E+03  0.25500000000E-02 0. -1.
    8880022    1    1    2    0    0  0.19666557094E+03  0.26465787988E+03 -0.43912559843E+03  0.57003866920E+03  0.15294330000E+03 0.  0.
    8880022    1    1    2    0    0 -0.19666557094E+03 -0.26465787988E+03 -0.50579976641E+02  0.36697564936E+03  0.15294330000E+03 0.  0.
<mgrwt>
<rscale>  0 0.36347324E+03</rscale>
<asrwt>0</asrwt>
<pdfrwt beam="1">  1        2 0.10974768E+00 0.36347324E+03</pdfrwt>
<pdfrwt beam="2">  1       -2 0.34408365E-01 0.36347324E+03</pdfrwt>
<totfact> 0.32517924E+02</totfact>
</mgrwt>
</event>
<event>
 4    1  0.3365401E-008  0.2413597E+03  0.7818608E-02  0.1118890E+00
          2   -1    0    0  501    0  0.00000000000E+00  0.00000000000E+00  0.17978072760E+04  0.17978072760E+04  0.25500000000E-02 0. -1.
         -2   -1    0    0    0  501 -0.00000000000E+00 -0.00000000000E+00 -0.55397248619E+02  0.55397248678E+02  0.25500000000E-02 0.  1.
    8880022    1    1    2    0    0 -0.79545723437E+02  0.16892402469E+03  0.27422736493E+03  0.36531513646E+03  0.15294330000E+03 0.  1.
    8880022    1    1    2    0    0  0.79545723437E+02 -0.16892402469E+03  0.14681826624E+04  0.14878893882E+04  0.15294330000E+03 0.  0.
<mgrwt>
<rscale>  0 0.24135969E+03</rscale>
<asrwt>0</asrwt>
<pdfrwt beam="1">  1        2 0.27658572E+00 0.24135969E+03</pdfrwt>
<pdfrwt beam="2">  1       -2 0.85226541E-02 0.24135969E+03</pdfrwt>
<totfact> 0.81608418E+02</totfact>
</mgrwt>
</event>
<event>
 4    1  0.3365401E-008  0.2093590E+03  0.7818608E-02  0.1142075E+00
          2   -1    0    0  501    0  0.00000000000E+00  0.00000000000E+00  0.16974721327E+04  0.16974721327E+04  0.25500000000E-02 0. -1.
         -2   -1    0    0    0  501 -0.00000000000E+00 -0.00000000000E+00 -0.77274080051E+02  0.77274080093E+02  0.25500000000E-02 0.  1.
    8880022    1    1    2    0    0 -0.41956027535E+02  0.13667197444E+03  0.15341900022E+04  0.15484089101E+04  0.15294330000E+03 0.  0.
    8880022    1    1    2    0    0  0.41956027535E+02 -0.13667197444E+03  0.86008050392E+02  0.22633730269E+03  0.15294330000E+03 0.  1.
<mgrwt>
<rscale>  0 0.20935900E+03</rscale>
<asrwt>0</asrwt>
<pdfrwt beam="1">  1        2 0.26114953E+00 0.20935900E+03</pdfrwt>
<pdfrwt beam="2">  1       -2 0.11888321E-01 0.20935900E+03</pdfrwt>
<totfact> 0.54492546E+02</totfact>
</mgrwt>
</event>
<event>
 4    1  0.3365401E-008  0.1927686E+03  0.7818608E-02  0.1155988E+00
         -2   -1    0    0    0  501 -0.00000000000E+00  0.00000000000E+00  0.92360259546E+02  0.92360259581E+02  0.25500000000E-02 0.  1.
          2   -1    0    0  501    0  0.00000000000E+00 -0.00000000000E+00 -0.76448330744E+03  0.76448330744E+03  0.25500000000E-02 0. -1.
    8880022    1    1    2    0    0  0.33828585087E+02  0.11235531406E+03 -0.63093174523E+03  0.65972313126E+03  0.15294330000E+03 0.  0.
    8880022    1    1    2    0    0 -0.33828585087E+02 -0.11235531406E+03 -0.41191302663E+02  0.19712043576E+03  0.15294330000E+03 0.  0.
<mgrwt>
<rscale>  0 0.19276862E+03</rscale>
<asrwt>0</asrwt>
<pdfrwt beam="1">  1        2 0.11761281E+00 0.19276862E+03</pdfrwt>
<pdfrwt beam="2">  1       -2 0.14209271E-01 0.19276862E+03</pdfrwt>
<totfact> 0.14055846E+03</totfact>
</mgrwt>
</event>
<event>
 4    1  0.3365401E-008  0.6336219E+03  0.7818608E-02  0.9838006E-01
         -2   -1    0    0    0  501 -0.00000000000E+00  0.00000000000E+00  0.62496172020E+03  0.62496172021E+03  0.25500000000E-02 0.  1.
          2   -1    0    0  501    0  0.00000000000E+00 -0.00000000000E+00 -0.18488242242E+04  0.18488242242E+04  0.25500000000E-02 0. -1.
    8880022    1    1    2    0    0 -0.60942437623E+03  0.81774053792E+02 -0.16110887635E+04  0.17312087462E+04  0.15294330000E+03 0.  0.
    8880022    1    1    2    0    0  0.60942437623E+03 -0.81774053792E+02  0.38722625947E+03  0.74257719818E+03  0.15294330000E+03 0.  0.
<mgrwt>
<rscale>  0 0.63362191E+03</rscale>
<asrwt>0</asrwt>
<pdfrwt beam="1">  1        2 0.28443449E+00 0.63362191E+03</pdfrwt>
<pdfrwt beam="2">  1       -2 0.96147958E-01 0.63362191E+03</pdfrwt>
<totfact> 0.77301059E+00</totfact>
</mgrwt>
</event>
<event>
 4    1  0.3365401E-008  0.4901900E+03  0.7818608E-02  0.1016372E+00
         -2   -1    0    0    0  501 -0.00000000000E+00  0.00000000000E+00  0.23109926030E+03  0.23109926031E+03  0.25500000000E-02 0.  1.
          2   -1    0    0  501    0  0.00000000000E+00 -0.00000000000E+00 -0.16902664570E+04  0.16902664570E+04  0.25500000000E-02 0. -1.
    8880022    1    1    2    0    0  0.39428967681E+03  0.24785131965E+03 -0.13360534866E+03  0.50807151868E+03  0.15294330000E+03 0.  0.
    8880022    1    1    2    0    0 -0.39428967681E+03 -0.24785131965E+03 -0.13255618481E+04  0.14132941987E+04  0.15294330000E+03 0.  0.
<mgrwt>
<rscale>  0 0.49019004E+03</rscale>
<asrwt>0</asrwt>
<pdfrwt beam="1">  1        2 0.26004099E+00 0.49019004E+03</pdfrwt>
<pdfrwt beam="2">  1       -2 0.35553733E-01 0.49019004E+03</pdfrwt>
<totfact> 0.77971620E+01</totfact>
</mgrwt>
</event>
<event>
 4    1  0.3365401E-008  0.3575112E+03  0.7818608E-02  0.1059574E+00
          2   -1    0    0  501    0  0.00000000000E+00  0.00000000000E+00  0.19747393769E+04  0.19747393769E+04  0.25500000000E-02 0. -1.
         -2   -1    0    0    0  501 -0.00000000000E+00 -0.00000000000E+00 -0.10064770084E+03  0.10064770087E+03  0.25500000000E-02 0.  1.
    8880022    1    1    2    0    0 -0.44505166527E+01 -0.32311425969E+03  0.15569918663E+04  0.15975099238E+04  0.15294330000E+03 0.  0.
    8880022    1    1    2    0    0  0.44505166527E+01  0.32311425969E+03  0.31709980974E+03  0.47787715395E+03  0.15294330000E+03 0.  0.
<mgrwt>
<rscale>  0 0.35751124E+03</rscale>
<asrwt>0</asrwt>
<pdfrwt beam="1">  1        2 0.30380603E+00 0.35751124E+03</pdfrwt>
<pdfrwt beam="2">  1       -2 0.15484263E-01 0.35751124E+03</pdfrwt>
<totfact> 0.24561141E+02</totfact>
</mgrwt>
</event>
<event>
 4    1  0.3365401E-008  0.7322662E+03  0.7818608E-02  0.9663590E-01
         -2   -1    0    0    0  501 -0.00000000000E+00  0.00000000000E+00  0.25966438950E+03  0.25966438952E+03  0.25500000000E-02 0.  1.
          2   -1    0    0  501    0  0.00000000000E+00 -0.00000000000E+00 -0.42032730800E+04  0.42032730800E+04  0.25500000000E-02 0. -1.
    8880022    1    1    2    0    0  0.13551079433E+03  0.70317774965E+03 -0.38023368957E+03  0.82510086334E+03  0.15294330000E+03 0.  0.
    8880022    1    1    2    0    0 -0.13551079433E+03 -0.70317774965E+03 -0.35633750009E+04  0.36378366061E+04  0.15294330000E+03 0.  0.
<mgrwt>
<rscale>  0 0.73226619E+03</rscale>
<asrwt>0</asrwt>
<pdfrwt beam="1">  1        2 0.64665735E+00 0.73226619E+03</pdfrwt>
<pdfrwt beam="2">  1       -2 0.39948371E-01 0.73226619E+03</pdfrwt>
<totfact> 0.15418722E+00</totfact>
</mgrwt>
</event>
<event>
 4    1  0.3365401E-008  0.4807933E+03  0.7818608E-02  0.1018917E+00
          2   -1    0    0  501    0  0.00000000000E+00  0.00000000000E+00  0.85843087344E+03  0.85843087345E+03  0.25500000000E-02 0. -1.
         -2   -1    0    0    0  501 -0.00000000000E+00 -0.00000000000E+00 -0.61520770453E+03  0.61520770453E+03  0.25500000000E-02 0.  1.
    8880022    1    1    2    0    0 -0.43019016856E+03  0.15068818115E+03 -0.43089814094E+03  0.64562788814E+03  0.15294330000E+03 0.  0.
    8880022    1    1    2    0    0  0.43019016856E+03 -0.15068818115E+03  0.67412130986E+03  0.82801068984E+03  0.15294330000E+03 0.  0.
<mgrwt>
<rscale>  0 0.48079326E+03</rscale>
<asrwt>0</asrwt>
<pdfrwt beam="1">  1        2 0.13206629E+00 0.48079326E+03</pdfrwt>
<pdfrwt beam="2">  1       -2 0.94647340E-01 0.48079326E+03</pdfrwt>
<totfact> 0.30794781E+01</totfact>
</mgrwt>
</event>
<event>
 4    1  0.3365401E-008  0.5610880E+03  0.7818608E-02  0.9989596E-01
          2   -1    0    0  501    0  0.00000000000E+00  0.00000000000E+00  0.17694721699E+04  0.17694721699E+04  0.25500000000E-02 0. -1.
         -2   -1    0    0    0  501 -0.00000000000E+00 -0.00000000000E+00 -0.20525583969E+03  0.20525583971E+03  0.25500000000E-02 0.  1.
    8880022    1    1    2    0    0 -0.22984933180E+03 -0.48846430096E+03  0.42176437017E+03  0.70192943064E+03  0.15294330000E+03 0.  0.
    8880022    1    1    2    0    0  0.22984933180E+03  0.48846430096E+03  0.11424519601E+04  0.12727985790E+04  0.15294330000E+03 0.  0.
<mgrwt>
<rscale>  0 0.56108800E+03</rscale>
<asrwt>0</asrwt>
<pdfrwt beam="1">  1        2 0.27222649E+00 0.56108800E+03</pdfrwt>
<pdfrwt beam="2">  1       -2 0.31577821E-01 0.56108800E+03</pdfrwt>
<totfact> 0.87391719E+01</totfact>
</mgrwt>
</event>
<event>
 4    1  0.3365401E-008  0.4164140E+03  0.7818608E-02  0.1038240E+00
          2   -1    0    0  501    0  0.00000000000E+00  0.00000000000E+00  0.19380761411E+04  0.19380761411E+04  0.25500000000E-02 0. -1.
         -2   -1    0    0    0  501 -0.00000000000E+00 -0.00000000000E+00 -0.19998901135E+03  0.19998901137E+03  0.25500000000E-02 0.  1.
    8880022    1    1    2    0    0  0.36614921292E+03  0.12626829345E+03  0.16637476531E+04  0.17150675888E+04  0.15294330000E+03 0.  0.
    8880022    1    1    2    0    0 -0.36614921292E+03 -0.12626829345E+03  0.74339476659E+02  0.42299756365E+03  0.15294330000E+03 0.  0.
<mgrwt>
<rscale>  0 0.41641395E+03</rscale>
<asrwt>0</asrwt>
<pdfrwt beam="1">  1        2 0.29816556E+00 0.41641395E+03</pdfrwt>
<pdfrwt beam="2">  1       -2 0.30767540E-01 0.41641395E+03</pdfrwt>
<totfact> 0.76246853E+01</totfact>
</mgrwt>
</event>
<event>
 4    1  0.3365401E-008  0.4459644E+03  0.7818608E-02  0.1028932E+00
         -2   -1    0    0    0  501 -0.00000000000E+00  0.00000000000E+00  0.91136068518E+03  0.91136068519E+03  0.25500000000E-02 0.  1.
          2   -1    0    0  501    0  0.00000000000E+00 -0.00000000000E+00 -0.47495702700E+03  0.47495702701E+03  0.25500000000E-02 0. -1.
    8880022    1    1    2    0    0 -0.64692629470E+02 -0.41389309503E+03  0.72781803642E+03  0.85358267179E+03  0.15294330000E+03 0.  0.
    8880022    1    1    2    0    0  0.64692629470E+02  0.41389309503E+03 -0.29141437824E+03  0.53273504041E+03  0.15294330000E+03 0.  0.
<mgrwt>
<rscale>  0 0.44596444E+03</rscale>
<asrwt>0</asrwt>
<pdfrwt beam="1">  1        2 0.73070312E-01 0.44596444E+03</pdfrwt>
<pdfrwt beam="2">  1       -2 0.14020934E+00 0.44596444E+03</pdfrwt>
<totfact> 0.24449330E+01</totfact>
</mgrwt>
</event>
<event>
 4    1  0.3365401E-008  0.5969885E+03  0.7818608E-02  0.9911674E-01
          2   -1    0    0  501    0  0.00000000000E+00  0.00000000000E+00  0.14701271225E+04  0.14701271225E+04  0.25500000000E-02 0. -1.
         -2   -1    0    0    0  501 -0.00000000000E+00 -0.00000000000E+00 -0.39928458430E+03  0.39928458431E+03  0.25500000000E-02 0.  1.
    8880022    1    1    2    0    0 -0.50298622512E+03  0.28285765432E+03 -0.50432895420E+02  0.59911495159E+03  0.15294330000E+03 0.  0.
    8880022    1    1    2    0    0  0.50298622512E+03 -0.28285765432E+03  0.11212754337E+04  0.12702967553E+04  0.15294330000E+03 0.  0.
<mgrwt>
<rscale>  0 0.59698848E+03</rscale>
<asrwt>0</asrwt>
<pdfrwt beam="1">  1        2 0.22617340E+00 0.59698848E+03</pdfrwt>
<pdfrwt beam="2">  1       -2 0.61428399E-01 0.59698848E+03</pdfrwt>
<totfact> 0.33891920E+01</totfact>
</mgrwt>
</event>
<event>
 4    1  0.3365401E-008  0.3995947E+03  0.7818608E-02  0.1043920E+00
         -2   -1    0    0    0  501 -0.00000000000E+00  0.00000000000E+00  0.20239502216E+03  0.20239502217E+03  0.25500000000E-02 0.  1.
          2   -1    0    0  501    0  0.00000000000E+00 -0.00000000000E+00 -0.19790374706E+04  0.19790374706E+04  0.25500000000E-02 0. -1.
    8880022    1    1    2    0    0 -0.19821548276E+03 -0.31144006317E+03 -0.42502161862E+02  0.40184869955E+03  0.15294330000E+03 0.  0.
    8880022    1    1    2    0    0  0.19821548276E+03  0.31144006317E+03 -0.17341402866E+04  0.17795837932E+04  0.15294330000E+03 0.  0.
<mgrwt>
<rscale>  0 0.39959472E+03</rscale>
<asrwt>0</asrwt>
<pdfrwt beam="1">  1        2 0.30446729E+00 0.39959472E+03</pdfrwt>
<pdfrwt beam="2">  1       -2 0.31137697E-01 0.39959472E+03</pdfrwt>
<totfact> 0.71166359E+01</totfact>
</mgrwt>
</event>
<event>
 4    1  0.3365401E-008  0.8673607E+03  0.7818608E-02  0.9467328E-01
         -2   -1    0    0    0  501 -0.00000000000E+00  0.00000000000E+00  0.39017958794E+03  0.39017958795E+03  0.25500000000E-02 0.  1.
          2   -1    0    0  501    0  0.00000000000E+00 -0.00000000000E+00 -0.26976073229E+04  0.26976073229E+04  0.25500000000E-02 0. -1.
    8880022    1    1    2    0    0  0.10916228857E+03  0.84676235496E+03 -0.19782840513E+04  0.21600746125E+04  0.15294330000E+03 0.  0.
    8880022    1    1    2    0    0 -0.10916228857E+03 -0.84676235496E+03 -0.32914368370E+03  0.92771229837E+03  0.15294330000E+03 0.  0.
<mgrwt>
<rscale>  0 0.86736068E+03</rscale>
<asrwt>0</asrwt>
<pdfrwt beam="1">  1        2 0.41501650E+00 0.86736068E+03</pdfrwt>
<pdfrwt beam="2">  1       -2 0.60027631E-01 0.86736068E+03</pdfrwt>
<totfact> 0.71343559E+00</totfact>
</mgrwt>
</event>
<event>
 4    1  0.3365401E-008  0.2974989E+03  0.7818608E-02  0.1086498E+00
         -2   -1    0    0    0  501 -0.00000000000E+00  0.00000000000E+00  0.18536111835E+03  0.18536111837E+03  0.25500000000E-02 0.  1.
          2   -1    0    0  501    0  0.00000000000E+00 -0.00000000000E+00 -0.60999542422E+03  0.60999542422E+03  0.25500000000E-02 0. -1.
    8880022    1    1    2    0    0  0.21815398656E+03  0.13237362616E+03 -0.39767347485E+03  0.49663848458E+03  0.15294330000E+03 0. -1.
    8880022    1    1    2    0    0 -0.21815398656E+03 -0.13237362616E+03 -0.26960831016E+02  0.29871805801E+03  0.15294330000E+03 0.  1.
<mgrwt>
<rscale>  0 0.29749889E+03</rscale>
<asrwt>0</asrwt>
<pdfrwt beam="1">  1        2 0.93845449E-01 0.29749889E+03</pdfrwt>
<pdfrwt beam="2">  1       -2 0.28517095E-01 0.29749889E+03</pdfrwt>
<totfact> 0.55732559E+02</totfact>
</mgrwt>
</event>
<event>
 4    1  0.3365401E-008  0.1036055E+04  0.7818608E-02  0.9269860E-01
          2   -1    0    0  501    0  0.00000000000E+00  0.00000000000E+00  0.26719848313E+04  0.26719848313E+04  0.25500000000E-02 0. -1.
         -2   -1    0    0    0  501 -0.00000000000E+00 -0.00000000000E+00 -0.53628408102E+03  0.53628408102E+03  0.25500000000E-02 0.  1.
    8880022    1    1    2    0    0 -0.94340373925E+03  0.40001071877E+03  0.18713675201E+04  0.21390248336E+04  0.15294330000E+03 0.  0.
    8880022    1    1    2    0    0  0.94340373925E+03 -0.40001071877E+03  0.26433323020E+03  0.10692440788E+04  0.15294330000E+03 0.  0.
<mgrwt>
<rscale>  0 0.10360554E+04</rscale>
<asrwt>0</asrwt>
<pdfrwt beam="1">  1        2 0.41107459E+00 0.10360554E+04</pdfrwt>
<pdfrwt beam="2">  1       -2 0.82505242E-01 0.10360554E+04</pdfrwt>
<totfact> 0.35877530E+00</totfact>
</mgrwt>
</event>
<event>
 4    1  0.3365401E-008  0.1741688E+03  0.7818608E-02  0.1173569E+00
         -2   -1    0    0    0  501 -0.00000000000E+00  0.00000000000E+00  0.19388033502E+03  0.19388033503E+03  0.25500000000E-02 0.  1.
          2   -1    0    0  501    0  0.00000000000E+00 -0.00000000000E+00 -0.20546984474E+04  0.20546984474E+04  0.25500000000E-02 0. -1.
    8880022    1    1    2    0    0 -0.13490651993E+02  0.82225959202E+02  0.15022663260E+03  0.23000608734E+03  0.15294330000E+03 0.  1.
    8880022    1    1    2    0    0  0.13490651993E+02 -0.82225959202E+02 -0.20110447449E+04  0.20185726951E+04  0.15294330000E+03 0.  0.
<mgrwt>
<rscale>  0 0.17416877E+03</rscale>
<asrwt>0</asrwt>
<pdfrwt beam="1">  1        2 0.31610744E+00 0.17416877E+03</pdfrwt>
<pdfrwt beam="2">  1       -2 0.29827745E-01 0.17416877E+03</pdfrwt>
<totfact> 0.75512837E+01</totfact>
</mgrwt>
</event>
<event>
 4    1  0.3365401E-008  0.2307529E+03  0.7818608E-02  0.1126111E+00
          2   -1    0    0  501    0  0.00000000000E+00  0.00000000000E+00  0.79184056091E+03  0.79184056092E+03  0.25500000000E-02 0. -1.
         -2   -1    0    0    0  501 -0.00000000000E+00 -0.00000000000E+00 -0.11224297924E+04  0.11224297924E+04  0.25500000000E-02 0.  1.
    8880022    1    1    2    0    0 -0.10544392365E+03 -0.13688261226E+03 -0.10933161402E+04  0.11174019447E+04  0.15294330000E+03 0.  1.
    8880022    1    1    2    0    0  0.10544392365E+03  0.13688261226E+03  0.76272690865E+03  0.79686840869E+03  0.15294330000E+03 0.  0.
<mgrwt>
<rscale>  0 0.23075295E+03</rscale>
<asrwt>0</asrwt>
<pdfrwt beam="1">  1        2 0.12182162E+00 0.23075295E+03</pdfrwt>
<pdfrwt beam="2">  1       -2 0.17268151E+00 0.23075295E+03</pdfrwt>
<totfact> 0.80852224E+00</totfact>
</mgrwt>
</event>
<event>
 4    1  0.3365401E-008  0.2709904E+03  0.7818608E-02  0.1100714E+00
          2   -1    0    0  501    0  0.00000000000E+00  0.00000000000E+00  0.52633861746E+03  0.52633861747E+03  0.25500000000E-02 0. -1.
         -2   -1    0    0    0  501 -0.00000000000E+00 -0.00000000000E+00 -0.32796880621E+03  0.32796880622E+03  0.25500000000E-02 0.  1.
    8880022    1    1    2    0    0 -0.94222303292E+02  0.20289485991E+03  0.42297406120E+03  0.50233741258E+03  0.15294330000E+03 0.  0.
    8880022    1    1    2    0    0  0.94222303292E+02 -0.20289485991E+03 -0.22460424995E+03  0.35197001112E+03  0.15294330000E+03 0.  0.
<mgrwt>
<rscale>  0 0.27099044E+03</rscale>
<asrwt>0</asrwt>
<pdfrwt beam="1">  1        2 0.80975171E-01 0.27099044E+03</pdfrwt>
<pdfrwt beam="2">  1       -2 0.50456740E-01 0.27099044E+03</pdfrwt>
<totfact> 0.22343489E+02</totfact>
</mgrwt>
</event>
<event>
 4    1  0.3373596E-008  0.8094022E+03  0.7818608E-02  0.9546507E-01
          2   -1    0    0  501    0  0.00000000000E+00  0.00000000000E+00  0.16600939019E+04  0.16600939019E+04  0.25500000000E-02 0. -1.
         -2   -1    0    0    0  501 -0.00000000000E+00 -0.00000000000E+00 -0.11641455941E+04  0.11641455941E+04  0.25500000000E-02 0.  1.
    8880022    1    1    2    0    0 -0.69811358141E+03 -0.37997068185E+03 -0.90011349504E+03  0.12105107387E+04  0.15294330000E+03 0.  0.
    8880022    1    1    2    0    0  0.69811358141E+03  0.37997068185E+03  0.13960618028E+04  0.16137287573E+04  0.15294330000E+03 0.  0.
<mgrwt>
<rscale>  0 0.80940221E+03</rscale>
<asrwt>0</asrwt>
<pdfrwt beam="1">  1        2 0.25539906E+00 0.80940221E+03</pdfrwt>
<pdfrwt beam="2">  1       -2 0.17909932E+00 0.80940221E+03</pdfrwt>
<totfact> 0.19411017E+00</totfact>
</mgrwt>
</event>
<event>
 4    1  0.3365401E-008  0.9530185E+03  0.7818608E-02  0.9361629E-01
         -2   -1    0    0    0  501 -0.00000000000E+00  0.00000000000E+00  0.10500335726E+04  0.10500335726E+04  0.25500000000E-02 0.  1.
          2   -1    0    0  501    0  0.00000000000E+00 -0.00000000000E+00 -0.19643592453E+04  0.19643592453E+04  0.25500000000E-02 0. -1.
    8880022    1    1    2    0    0  0.70631371210E+03  0.62126768369E+03  0.67038702094E+03  0.11651879701E+04  0.15294330000E+03 0.  0.
    8880022    1    1    2    0    0 -0.70631371210E+03 -0.62126768369E+03 -0.15847126937E+04  0.18492048478E+04  0.15294330000E+03 0.  0.
<mgrwt>
<rscale>  0 0.95301849E+03</rscale>
<asrwt>0</asrwt>
<pdfrwt beam="1">  1        2 0.30220912E+00 0.95301849E+03</pdfrwt>
<pdfrwt beam="2">  1       -2 0.16154363E+00 0.95301849E+03</pdfrwt>
<totfact> 0.17225323E+00</totfact>
</mgrwt>
</event>
<event>
 4    1  0.3365401E-008  0.3495432E+03  0.7818608E-02  0.1062803E+00
          2   -1    0    0  501    0  0.00000000000E+00  0.00000000000E+00  0.16084189939E+04  0.16084189939E+04  0.25500000000E-02 0. -1.
         -2   -1    0    0    0  501 -0.00000000000E+00 -0.00000000000E+00 -0.19415051997E+03  0.19415051999E+03  0.25500000000E-02 0.  1.
    8880022    1    1    2    0    0 -0.27281490217E+03  0.15607959916E+03  0.39349773078E+01  0.34956537183E+03  0.15294330000E+03 0.  0.
    8880022    1    1    2    0    0  0.27281490217E+03 -0.15607959916E+03  0.14103334966E+04  0.14530041420E+04  0.15294330000E+03 0.  0.
<mgrwt>
<rscale>  0 0.34954322E+03</rscale>
<asrwt>0</asrwt>
<pdfrwt beam="1">  1        2 0.24744907E+00 0.34954322E+03</pdfrwt>
<pdfrwt beam="2">  1       -2 0.29869311E-01 0.34954322E+03</pdfrwt>
<totfact> 0.12232829E+02</totfact>
</mgrwt>
</event>
<event>
 4    1  0.3365401E-008  0.4344379E+03  0.7818608E-02  0.1032467E+00
          2   -1    0    0  501    0  0.00000000000E+00  0.00000000000E+00  0.71059092343E+03  0.71059092343E+03  0.25500000000E-02 0. -1.
         -2   -1    0    0    0  501 -0.00000000000E+00 -0.00000000000E+00 -0.35249183838E+03  0.35249183839E+03  0.25500000000E-02 0.  1.
    8880022    1    1    2    0    0  0.18586893893E+03 -0.36165919050E+03 -0.84851014411E+02  0.44264656352E+03  0.15294330000E+03 0.  0.
    8880022    1    1    2    0    0 -0.18586893893E+03  0.36165919050E+03  0.44295009946E+03  0.62043619830E+03  0.15294330000E+03 0. -1.
<mgrwt>
<rscale>  0 0.43443790E+03</rscale>
<asrwt>0</asrwt>
<pdfrwt beam="1">  1        2 0.10932168E+00 0.43443790E+03</pdfrwt>
<pdfrwt beam="2">  1       -2 0.54229515E-01 0.43443790E+03</pdfrwt>
<totfact> 0.13315055E+02</totfact>
</mgrwt>
</event>
<event>
 4    1  0.3365401E-008  0.1344816E+04  0.7818608E-02  0.8994761E-01
         -2   -1    0    0    0  501 -0.00000000000E+00  0.00000000000E+00  0.12114573118E+04  0.12114573118E+04  0.25500000000E-02 0.  1.
          2   -1    0    0  501    0  0.00000000000E+00 -0.00000000000E+00 -0.17907490264E+04  0.17907490264E+04  0.25500000000E-02 0. -1.
    8880022    1    1    2    0    0 -0.12674757351E+04 -0.42266399660E+03 -0.90188824039E+03  0.16192386002E+04  0.15294330000E+03 0.  0.
    8880022    1    1    2    0    0  0.12674757351E+04  0.42266399660E+03  0.32259652583E+03  0.13829677381E+04  0.15294330000E+03 0.  0.
<mgrwt>
<rscale>  0 0.13448164E+04</rscale>
<asrwt>0</asrwt>
<pdfrwt beam="1">  1        2 0.27549985E+00 0.13448164E+04</pdfrwt>
<pdfrwt beam="2">  1       -2 0.18637805E+00 0.13448164E+04</pdfrwt>
<totfact> 0.13680073E+00</totfact>
</mgrwt>
</event>
<event>
 4    1  0.3365401E-008  0.3743102E+03  0.7818608E-02  0.1053057E+00
          2   -1    0    0  501    0  0.00000000000E+00  0.00000000000E+00  0.47464192427E+03  0.47464192428E+03  0.25500000000E-02 0. -1.
         -2   -1    0    0    0  501 -0.00000000000E+00 -0.00000000000E+00 -0.66849727017E+03  0.66849727018E+03  0.25500000000E-02 0.  1.
    8880022    1    1    2    0    0  0.22371562308E+03  0.25820108021E+03  0.33019661075E+03  0.49913718815E+03  0.15294330000E+03 0. -1.
    8880022    1    1    2    0    0 -0.22371562308E+03 -0.25820108021E+03 -0.52405195666E+03  0.64400200630E+03  0.15294330000E+03 0.  0.
<mgrwt>
<rscale>  0 0.37431021E+03</rscale>
<asrwt>0</asrwt>
<pdfrwt beam="1">  1        2 0.73021834E-01 0.37431021E+03</pdfrwt>
<pdfrwt beam="2">  1       -2 0.10284573E+00 0.37431021E+03</pdfrwt>
<totfact> 0.52855022E+01</totfact>
</mgrwt>
</event>
<event>
 4    1  0.5686125E-008  0.5528003E+03  0.7818608E-02  0.1000848E+00
         -2   -1    0    0    0  501 -0.00000000000E+00  0.00000000000E+00  0.12955125322E+04  0.12955125323E+04  0.25500000000E-02 0.  1.
          2   -1    0    0  501    0  0.00000000000E+00 -0.00000000000E+00 -0.11861399803E+04  0.11861399803E+04  0.25500000000E-02 0. -1.
    8880022    1    1    2    0    0  0.52903904401E+03 -0.48106064654E+02  0.11653018339E+04  0.12897738254E+04  0.15294330000E+03 0.  0.
    8880022    1    1    2    0    0 -0.52903904401E+03  0.48106064654E+02 -0.10559292820E+04  0.11918786872E+04  0.15294330000E+03 0.  0.
<mgrwt>
<rscale>  0 0.55280029E+03</rscale>
<asrwt>0</asrwt>
<pdfrwt beam="1">  1        2 0.18248308E+00 0.55280029E+03</pdfrwt>
<pdfrwt beam="2">  1       -2 0.19930962E+00 0.55280029E+03</pdfrwt>
<totfact> 0.27640034E+00</totfact>
</mgrwt>
</event>
<event>
 4    1  0.3365401E-008  0.7922596E+03  0.7818608E-02  0.9571289E-01
         -2   -1    0    0    0  501 -0.00000000000E+00  0.00000000000E+00  0.98360989929E+03  0.98360989929E+03  0.25500000000E-02 0.  1.
          2   -1    0    0  501    0  0.00000000000E+00 -0.00000000000E+00 -0.87503992060E+03  0.87503992061E+03  0.25500000000E-02 0. -1.
    8880022    1    1    2    0    0 -0.44527842147E+03 -0.63718974089E+03 -0.42926486354E+03  0.90107913893E+03  0.15294330000E+03 0.  0.
    8880022    1    1    2    0    0  0.44527842147E+03  0.63718974089E+03  0.53783484223E+03  0.95757068097E+03  0.15294330000E+03 0.  0.
<mgrwt>
<rscale>  0 0.79225961E+03</rscale>
<asrwt>0</asrwt>
<pdfrwt beam="1">  1        2 0.13462153E+00 0.79225961E+03</pdfrwt>
<pdfrwt beam="2">  1       -2 0.15132460E+00 0.79225961E+03</pdfrwt>
<totfact> 0.90343042E+00</totfact>
</mgrwt>
</event>
<event>
 4    1  0.3365401E-008  0.1200376E+04  0.7818608E-02  0.9112528E-01
          2   -1    0    0  501    0  0.00000000000E+00  0.00000000000E+00  0.16791866800E+04  0.16791866800E+04  0.25500000000E-02 0. -1.
         -2   -1    0    0    0  501 -0.00000000000E+00 -0.00000000000E+00 -0.16139197300E+04  0.16139197300E+04  0.25500000000E-02 0.  1.
    8880022    1    1    2    0    0 -0.10118379947E+04  0.62745078728E+03 -0.10941624126E+04  0.16242209382E+04  0.15294330000E+03 0.  0.
    8880022    1    1    2    0    0  0.10118379947E+04 -0.62745078728E+03  0.11594293626E+04  0.16688854718E+04  0.15294330000E+03 0.  0.
<mgrwt>
<rscale>  0 0.12003759E+04</rscale>
<asrwt>0</asrwt>
<pdfrwt beam="1">  1        2 0.25833641E+00 0.12003759E+04</pdfrwt>
<pdfrwt beam="2">  1       -2 0.24829534E+00 0.12003759E+04</pdfrwt>
<totfact> 0.64427238E-01</totfact>
</mgrwt>
</event>
<event>
 4    1  0.3365401E-008  0.7234094E+03  0.7818608E-02  0.9678016E-01
          2   -1    0    0  501    0  0.00000000000E+00  0.00000000000E+00  0.13639935164E+04  0.13639935165E+04  0.25500000000E-02 0. -1.
         -2   -1    0    0    0  501 -0.00000000000E+00 -0.00000000000E+00 -0.76657748340E+03  0.76657748340E+03  0.25500000000E-02 0.  1.
    8880022    1    1    2    0    0  0.45787044976E+03 -0.53878028138E+03 -0.45418943609E+03  0.85417166731E+03  0.15294330000E+03 0.  0.
    8880022    1    1    2    0    0 -0.45787044976E+03  0.53878028138E+03  0.10516054691E+04  0.12763993325E+04  0.15294330000E+03 0.  0.
<mgrwt>
<rscale>  0 0.72340942E+03</rscale>
<asrwt>0</asrwt>
<pdfrwt beam="1">  1        2 0.20984516E+00 0.72340942E+03</pdfrwt>
<pdfrwt beam="2">  1       -2 0.11793500E+00 0.72340942E+03</pdfrwt>
<totfact> 0.86334594E+00</totfact>
</mgrwt>
</event>
<event>
 4    1  0.3365401E-008  0.3479950E+03  0.7818608E-02  0.1063441E+00
         -2   -1    0    0    0  501 -0.00000000000E+00  0.00000000000E+00  0.68130721524E+03  0.68130721525E+03  0.25500000000E-02 0.  1.
          2   -1    0    0  501    0  0.00000000000E+00 -0.00000000000E+00 -0.68381705343E+03  0.68381705344E+03  0.25500000000E-02 0. -1.
    8880022    1    1    2    0    0 -0.27269398867E+03  0.15279671800E+03 -0.58844326740E+03  0.68364170474E+03  0.15294330000E+03 0.  0.
    8880022    1    1    2    0    0  0.27269398867E+03 -0.15279671800E+03  0.58593342921E+03  0.68148256395E+03  0.15294330000E+03 0.  0.
<mgrwt>
<rscale>  0 0.34799497E+03</rscale>
<asrwt>0</asrwt>
<pdfrwt beam="1">  1        2 0.10520262E+00 0.34799497E+03</pdfrwt>
<pdfrwt beam="2">  1       -2 0.10481649E+00 0.34799497E+03</pdfrwt>
<totfact> 0.33112624E+01</totfact>
</mgrwt>
</event>
<event>
 4    1  0.3365401E-008  0.4235270E+03  0.7818608E-02  0.1035924E+00
          2   -1    0    0  501    0  0.00000000000E+00  0.00000000000E+00  0.13340399386E+04  0.13340399386E+04  0.25500000000E-02 0. -1.
         -2   -1    0    0    0  501 -0.00000000000E+00 -0.00000000000E+00 -0.16582508738E+03  0.16582508740E+03  0.25500000000E-02 0.  1.
    8880022    1    1    2    0    0 -0.39449014978E+03  0.19000489762E+02  0.91025908383E+03  0.10039655122E+04  0.15294330000E+03 0.  0.
    8880022    1    1    2    0    0  0.39449014978E+03 -0.19000489762E+02  0.25795576737E+03  0.49589951383E+03  0.15294330000E+03 0.  1.
<mgrwt>
<rscale>  0 0.42352704E+03</rscale>
<asrwt>0</asrwt>
<pdfrwt beam="1">  1        2 0.20523691E+00 0.42352704E+03</pdfrwt>
<pdfrwt beam="2">  1       -2 0.25511553E-01 0.42352704E+03</pdfrwt>
<totfact> 0.22733689E+02</totfact>
</mgrwt>
</event>
<event>
 4    1  0.3365401E-008  0.6891388E+03  0.7818608E-02  0.9735989E-01
          2   -1    0    0  501    0  0.00000000000E+00  0.00000000000E+00  0.17200916504E+04  0.17200916504E+04  0.25500000000E-02 0. -1.
         -2   -1    0    0    0  501 -0.00000000000E+00 -0.00000000000E+00 -0.47823524225E+03  0.47823524225E+03  0.25500000000E-02 0.  1.
    8880022    1    1    2    0    0 -0.34377366611E+03 -0.57735627692E+03 -0.93676154284E+02  0.69547644023E+03  0.15294330000E+03 0.  0.
    8880022    1    1    2    0    0  0.34377366611E+03  0.57735627692E+03  0.13355325624E+04  0.15028504524E+04  0.15294330000E+03 0.  0.
<mgrwt>
<rscale>  0 0.68913878E+03</rscale>
<asrwt>0</asrwt>
<pdfrwt beam="1">  1        2 0.26462949E+00 0.68913878E+03</pdfrwt>
<pdfrwt beam="2">  1       -2 0.73574652E-01 0.68913878E+03</pdfrwt>
<totfact> 0.16517308E+01</totfact>
</mgrwt>
</event>
<event>
 4    1  0.3365401E-008  0.3794183E+03  0.7818608E-02  0.1051149E+00
          2   -1    0    0  501    0  0.00000000000E+00  0.00000000000E+00  0.62765802847E+03  0.62765802848E+03  0.25500000000E-02 0. -1.
         -2   -1    0    0    0  501 -0.00000000000E+00 -0.00000000000E+00 -0.34575139836E+03  0.34575139837E+03  0.25500000000E-02 0.  1.
    8880022    1    1    2    0    0 -0.33204766826E+03  0.10154289419E+03  0.42334254008E+03  0.56848673917E+03  0.15294330000E+03 0.  0.
    8880022    1    1    2    0    0  0.33204766826E+03 -0.10154289419E+03 -0.14143590996E+03  0.40492268768E+03  0.15294330000E+03 0.  0.
<mgrwt>
<rscale>  0 0.37941833E+03</rscale>
<asrwt>0</asrwt>
<pdfrwt beam="1">  1        2 0.96562773E-01 0.37941833E+03</pdfrwt>
<pdfrwt beam="2">  1       -2 0.53192523E-01 0.37941833E+03</pdfrwt>
<totfact> 0.16198742E+02</totfact>
</mgrwt>
</event>
<event>
 4    1  0.3365401E-008  0.3439462E+03  0.7818608E-02  0.1065128E+00
          2   -1    0    0  501    0  0.00000000000E+00  0.00000000000E+00  0.52359221671E+03  0.52359221671E+03  0.25500000000E-02 0. -1.
         -2   -1    0    0    0  501 -0.00000000000E+00 -0.00000000000E+00 -0.23789485019E+04  0.23789485019E+04  0.25500000000E-02 0.  1.
    8880022    1    1    2    0    0 -0.14271761892E+03  0.27301834517E+03 -0.23083133819E+04  0.23337972614E+04  0.15294330000E+03 0.  0.
    8880022    1    1    2    0    0  0.14271761892E+03 -0.27301834517E+03  0.45295709672E+03  0.56874345713E+03  0.15294330000E+03 0.  0.
<mgrwt>
<rscale>  0 0.34394620E+03</rscale>
<asrwt>0</asrwt>
<pdfrwt beam="1">  1        2 0.80552650E-01 0.34394620E+03</pdfrwt>
<pdfrwt beam="2">  1       -2 0.36599207E+00 0.34394620E+03</pdfrwt>
<totfact> 0.85001412E-01</totfact>
</mgrwt>
</event>
<event>
 4    1  0.3365401E-008  0.3865991E+03  0.7818608E-02  0.1048521E+00
          2   -1    0    0  501    0  0.00000000000E+00  0.00000000000E+00  0.21115919726E+04  0.21115919726E+04  0.25500000000E-02 0. -1.
         -2   -1    0    0    0  501 -0.00000000000E+00 -0.00000000000E+00 -0.13517481556E+03  0.13517481558E+03  0.25500000000E-02 0.  1.
    8880022    1    1    2    0    0 -0.17281108614E+03 -0.31016694055E+03  0.17635713750E+04  0.18054481023E+04  0.15294330000E+03 0.  0.
    8880022    1    1    2    0    0  0.17281108614E+03  0.31016694055E+03  0.21284578199E+03  0.44131868579E+03  0.15294330000E+03 0.  0.
<mgrwt>
<rscale>  0 0.38659909E+03</rscale>
<asrwt>0</asrwt>
<pdfrwt beam="1">  1        2 0.32486029E+00 0.38659909E+03</pdfrwt>
<pdfrwt beam="2">  1       -2 0.20796126E-01 0.38659909E+03</pdfrwt>
<totfact> 0.12485854E+02</totfact>
</mgrwt>
</event>
<event>
 4    1  0.3365401E-008  0.3102480E+03  0.7818608E-02  0.1080227E+00
          2   -1    0    0  501    0  0.00000000000E+00  0.00000000000E+00  0.77790205025E+03  0.77790205025E+03  0.25500000000E-02 0. -1.
         -2   -1    0    0    0  501 -0.00000000000E+00 -0.00000000000E+00 -0.47039103443E+03  0.47039103444E+03  0.25500000000E-02 0.  1.
    8880022    1    1    2    0    0 -0.25483765526E+03 -0.88994094754E+02  0.68955998109E+03  0.75613940512E+03  0.15294330000E+03 0.  0.
    8880022    1    1    2    0    0  0.25483765526E+03  0.88994094754E+02 -0.38204896527E+03  0.49215367958E+03  0.15294330000E+03 0.  0.
<mgrwt>
<rscale>  0 0.31024802E+03</rscale>
<asrwt>0</asrwt>
<pdfrwt beam="1">  1        2 0.11967724E+00 0.31024802E+03</pdfrwt>
<pdfrwt beam="2">  1       -2 0.72367852E-01 0.31024802E+03</pdfrwt>
<totfact> 0.65689097E+01</totfact>
</mgrwt>
</event>
<event>
 4    1  0.3365401E-008  0.3074549E+03  0.7818608E-02  0.1081572E+00
         -2   -1    0    0    0  501 -0.00000000000E+00  0.00000000000E+00  0.10382611103E+03  0.10382611106E+03  0.25500000000E-02 0.  1.
          2   -1    0    0  501    0  0.00000000000E+00 -0.00000000000E+00 -0.10218522789E+04  0.10218522789E+04  0.25500000000E-02 0. -1.
    8880022    1    1    2    0    0  0.74872610905E+02  0.25599017941E+03 -0.64485187539E+03  0.71439658036E+03  0.15294330000E+03 0. -1.
    8880022    1    1    2    0    0 -0.74872610905E+02 -0.25599017941E+03 -0.27317429244E+03  0.41128180957E+03  0.15294330000E+03 0.  1.
<mgrwt>
<rscale>  0 0.30745493E+03</rscale>
<asrwt>0</asrwt>
<pdfrwt beam="1">  1        2 0.15720804E+00 0.30745493E+03</pdfrwt>
<pdfrwt beam="2">  1       -2 0.15973249E-01 0.30745493E+03</pdfrwt>
<totfact> 0.78518439E+02</totfact>
</mgrwt>
</event>
<event>
 4    1  0.3365401E-008  0.4892304E+03  0.7818608E-02  0.1016629E+00
          2   -1    0    0  501    0  0.00000000000E+00  0.00000000000E+00  0.17602685578E+04  0.17602685578E+04  0.25500000000E-02 0. -1.
         -2   -1    0    0    0  501 -0.00000000000E+00 -0.00000000000E+00 -0.22028089578E+03  0.22028089580E+03  0.25500000000E-02 0.  1.
    8880022    1    1    2    0    0  0.45891014090E+03 -0.73185954215E+02  0.13826337191E+04  0.14666364088E+04  0.15294330000E+03 0.  0.
    8880022    1    1    2    0    0 -0.45891014090E+03  0.73185954215E+02  0.15735394298E+03  0.51391304488E+03  0.15294330000E+03 0.  0.
<mgrwt>
<rscale>  0 0.48923037E+03</rscale>
<asrwt>0</asrwt>
<pdfrwt beam="1">  1        2 0.27081055E+00 0.48923037E+03</pdfrwt>
<pdfrwt beam="2">  1       -2 0.33889368E-01 0.48923037E+03</pdfrwt>
<totfact> 0.78273397E+01</totfact>
</mgrwt>
</event>
<event>
 4    1  0.3365401E-008  0.2415594E+03  0.7818608E-02  0.1118758E+00
         -2   -1    0    0    0  501 -0.00000000000E+00  0.00000000000E+00  0.36145295099E+03  0.36145295100E+03  0.25500000000E-02 0.  1.
          2   -1    0    0  501    0  0.00000000000E+00 -0.00000000000E+00 -0.10356730598E+04  0.10356730598E+04  0.25500000000E-02 0. -1.
    8880022    1    1    2    0    0 -0.49529858643E+02 -0.18029439714E+03 -0.97892415453E+03  0.10082873746E+04  0.15294330000E+03 0.  0.
    8880022    1    1    2    0    0  0.49529858643E+02  0.18029439714E+03  0.30470404567E+03  0.38883863620E+03  0.15294330000E+03 0.  0.
<mgrwt>
<rscale>  0 0.24155937E+03</rscale>
<asrwt>0</asrwt>
<pdfrwt beam="1">  1        2 0.15933432E+00 0.24155937E+03</pdfrwt>
<pdfrwt beam="2">  1       -2 0.55608147E-01 0.24155937E+03</pdfrwt>
<totfact> 0.78879438E+01</totfact>
</mgrwt>
</event>
<event>
 4    1  0.3365401E-008  0.4621789E+03  0.7818608E-02  0.1024151E+00
         -2   -1    0    0    0  501 -0.00000000000E+00  0.00000000000E+00  0.13883465035E+03  0.13883465038E+03  0.25500000000E-02 0.  1.
          2   -1    0    0  501    0  0.00000000000E+00 -0.00000000000E+00 -0.48169026624E+04  0.48169026624E+04  0.25500000000E-02 0. -1.
    8880022    1    1    2    0    0  0.32380172782E+03 -0.29218173579E+03 -0.43832163852E+04  0.44075157695E+04  0.15294330000E+03 0. -1.
    8880022    1    1    2    0    0 -0.32380172782E+03  0.29218173579E+03 -0.29485162685E+03  0.54822154330E+03  0.15294330000E+03 0.  0.
<mgrwt>
<rscale>  0 0.46217895E+03</rscale>
<asrwt>0</asrwt>
<pdfrwt beam="1">  1        2 0.74106182E+00 0.46217895E+03</pdfrwt>
<pdfrwt beam="2">  1       -2 0.21359181E-01 0.46217895E+03</pdfrwt>
<totfact> 0.13826259E+00</totfact>
</mgrwt>
</event>
<event>
 4    1  0.3365401E-008  0.2497487E+03  0.7818608E-02  0.1113464E+00
          2   -1    0    0  501    0  0.00000000000E+00  0.00000000000E+00  0.48630189849E+03  0.48630189850E+03  0.25500000000E-02 0. -1.
         -2   -1    0    0    0  501 -0.00000000000E+00 -0.00000000000E+00 -0.24436324597E+03  0.24436324598E+03  0.25500000000E-02 0.  1.
    8880022    1    1    2    0    0  0.14113079231E+03 -0.13807562052E+03  0.37278771715E+03  0.44871495695E+03  0.15294330000E+03 0.  0.
    8880022    1    1    2    0    0 -0.14113079231E+03  0.13807562052E+03 -0.13084906463E+03  0.28195018753E+03  0.15294330000E+03 0.  0.
<mgrwt>
<rscale>  0 0.24974873E+03</rscale>
<asrwt>0</asrwt>
<pdfrwt beam="1">  1        2 0.74815676E-01 0.24974873E+03</pdfrwt>
<pdfrwt beam="2">  1       -2 0.37594346E-01 0.24974873E+03</pdfrwt>
<totfact> 0.43391212E+02</totfact>
</mgrwt>
</event>
<event>
 4    1  0.3365401E-008  0.7396815E+03  0.7818608E-02  0.9651679E-01
          2   -1    0    0  501    0  0.00000000000E+00  0.00000000000E+00  0.70072849630E+03  0.70072849631E+03  0.25500000000E-02 0. -1.
         -2   -1    0    0    0  501 -0.00000000000E+00 -0.00000000000E+00 -0.11028584415E+04  0.11028584415E+04  0.25500000000E-02 0.  1.
    8880022    1    1    2    0    0 -0.67716651707E+03  0.25530874927E+03  0.28625548895E+03  0.79313990396E+03  0.15294330000E+03 0.  0.
    8880022    1    1    2    0    0  0.67716651707E+03 -0.25530874927E+03 -0.68838543418E+03  0.10104470339E+04  0.15294330000E+03 0.  1.
<mgrwt>
<rscale>  0 0.73968149E+03</rscale>
<asrwt>0</asrwt>
<pdfrwt beam="1">  1        2 0.10780438E+00 0.73968149E+03</pdfrwt>
<pdfrwt beam="2">  1       -2 0.16967053E+00 0.73968149E+03</pdfrwt>
<totfact> 0.89279713E+00</totfact>
</mgrwt>
</event>
<event>
 4    1  0.3365401E-008  0.1548368E+03  0.7818608E-02  0.1194652E+00
         -2   -1    0    0    0  501 -0.00000000000E+00  0.00000000000E+00  0.15247786334E+03  0.15247786336E+03  0.25500000000E-02 0.  1.
          2   -1    0    0  501    0  0.00000000000E+00 -0.00000000000E+00 -0.87266675159E+03  0.87266675159E+03  0.25500000000E-02 0. -1.
    8880022    1    1    2    0    0  0.10163719269E+02  0.21897172481E+02  0.10401014043E+03  0.18652761104E+03  0.15294330000E+03 0.  0.
    8880022    1    1    2    0    0 -0.10163719269E+02 -0.21897172481E+02 -0.82419902868E+03  0.83861700391E+03  0.15294330000E+03 0. -1.
<mgrwt>
<rscale>  0 0.15483682E+03</rscale>
<asrwt>0</asrwt>
<pdfrwt beam="1">  1        2 0.13425642E+00 0.15483682E+03</pdfrwt>
<pdfrwt beam="2">  1       -2 0.23458133E-01 0.15483682E+03</pdfrwt>
<totfact> 0.51157755E+02</totfact>
</mgrwt>
</event>
<event>
 4    1  0.3365401E-008  0.4414344E+03  0.7818608E-02  0.1030308E+00
         -2   -1    0    0    0  501 -0.00000000000E+00  0.00000000000E+00  0.16257636256E+03  0.16257636258E+03  0.25500000000E-02 0.  1.
          2   -1    0    0  501    0  0.00000000000E+00 -0.00000000000E+00 -0.15815894446E+04  0.15815894446E+04  0.25500000000E-02 0. -1.
    8880022    1    1    2    0    0 -0.38604674136E+03 -0.14980187903E+03 -0.11386506942E+04  0.12212246910E+04  0.15294330000E+03 0.  0.
    8880022    1    1    2    0    0  0.38604674136E+03  0.14980187903E+03 -0.28036238787E+03  0.52294111621E+03  0.15294330000E+03 0.  0.
<mgrwt>
<rscale>  0 0.44143441E+03</rscale>
<asrwt>0</asrwt>
<pdfrwt beam="1">  1        2 0.24332144E+00 0.44143441E+03</pdfrwt>
<pdfrwt beam="2">  1       -2 0.25011749E-01 0.44143441E+03</pdfrwt>
<totfact> 0.17176004E+02</totfact>
</mgrwt>
</event>
<event>
 4    1  0.3365401E-008  0.3816452E+03  0.7818608E-02  0.1050327E+00
         -2   -1    0    0    0  501 -0.00000000000E+00  0.00000000000E+00  0.14854085627E+03  0.14854085630E+03  0.25500000000E-02 0.  1.
          2   -1    0    0  501    0  0.00000000000E+00 -0.00000000000E+00 -0.29555320340E+04  0.29555320340E+04  0.25500000000E-02 0. -1.
    8880022    1    1    2    0    0  0.32659728659E+03  0.12488256038E+03 -0.13477890978E+03  0.40474491847E+03  0.15294330000E+03 0.  0.
    8880022    1    1    2    0    0 -0.32659728659E+03 -0.12488256038E+03 -0.26722122679E+04  0.26993279718E+04  0.15294330000E+03 0.  0.
<mgrwt>
<rscale>  0 0.38164525E+03</rscale>
<asrwt>0</asrwt>
<pdfrwt beam="1">  1        2 0.45469719E+00 0.38164525E+03</pdfrwt>
<pdfrwt beam="2">  1       -2 0.22852442E-01 0.38164525E+03</pdfrwt>
<totfact> 0.35715783E+01</totfact>
</mgrwt>
</event>
<event>
 4    1  0.3365401E-008  0.7290789E+03  0.7818608E-02  0.9668756E-01
         -2   -1    0    0    0  501 -0.00000000000E+00  0.00000000000E+00  0.28538368440E+03  0.28538368441E+03  0.25500000000E-02 0.  1.
          2   -1    0    0  501    0  0.00000000000E+00 -0.00000000000E+00 -0.31055684675E+04  0.31055684675E+04  0.25500000000E-02 0. -1.
    8880022    1    1    2    0    0  0.44227332127E+03 -0.55906946382E+03 -0.24827248825E+04  0.25875623377E+04  0.15294330000E+03 0.  0.
    8880022    1    1    2    0    0 -0.44227332127E+03  0.55906946382E+03 -0.33745990056E+03  0.80338981421E+03  0.15294330000E+03 0.  0.
<mgrwt>
<rscale>  0 0.72907888E+03</rscale>
<asrwt>0</asrwt>
<pdfrwt beam="1">  1        2 0.47777974E+00 0.72907888E+03</pdfrwt>
<pdfrwt beam="2">  1       -2 0.43905184E-01 0.72907888E+03</pdfrwt>
<totfact> 0.78710795E+00</totfact>
</mgrwt>
</event>
<event>
 4    1  0.3365401E-008  0.1882414E+03  0.7818608E-02  0.1160057E+00
          2   -1    0    0  501    0  0.00000000000E+00  0.00000000000E+00  0.17569480117E+04  0.17569480117E+04  0.25500000000E-02 0. -1.
         -2   -1    0    0    0  501 -0.00000000000E+00 -0.00000000000E+00 -0.36565937653E+03  0.36565937653E+03  0.25500000000E-02 0.  1.
    8880022    1    1    2    0    0  0.52032421455E+02 -0.96621862877E+02  0.17272641445E+04  0.17374913626E+04  0.15294330000E+03 0.  0.
    8880022    1    1    2    0    0 -0.52032421455E+02  0.96621862877E+02 -0.33597550935E+03  0.38511602559E+03  0.15294330000E+03 0.  1.
<mgrwt>
<rscale>  0 0.18824136E+03</rscale>
<asrwt>0</asrwt>
<pdfrwt beam="1">  1        2 0.27029969E+00 0.18824136E+03</pdfrwt>
<pdfrwt beam="2">  1       -2 0.56255289E-01 0.18824136E+03</pdfrwt>
<totfact> 0.31712361E+01</totfact>
</mgrwt>
</event>
<event>
 4    1  0.3365401E-008  0.2620682E+03  0.7818608E-02  0.1105907E+00
         -2   -1    0    0    0  501 -0.00000000000E+00  0.00000000000E+00  0.10504113584E+03  0.10504113587E+03  0.25500000000E-02 0.  1.
          2   -1    0    0  501    0  0.00000000000E+00 -0.00000000000E+00 -0.27685347653E+04  0.27685347653E+04  0.25500000000E-02 0. -1.
    8880022    1    1    2    0    0 -0.10672898796E+03 -0.18411144354E+03 -0.25874640831E+04  0.26007018543E+04  0.15294330000E+03 0. -1.
    8880022    1    1    2    0    0  0.10672898796E+03  0.18411144354E+03 -0.76029546304E+02  0.27287404684E+03  0.15294330000E+03 0.  0.
<mgrwt>
<rscale>  0 0.26206822E+03</rscale>
<asrwt>0</asrwt>
<pdfrwt beam="1">  1        2 0.42592837E+00 0.26206822E+03</pdfrwt>
<pdfrwt beam="2">  1       -2 0.16160177E-01 0.26206822E+03</pdfrwt>
<totfact> 0.86572823E+01</totfact>
</mgrwt>
</event>
<event>
 4    1  0.3365401E-008  0.1022681E+04  0.7818608E-02  0.9284013E-01
          2   -1    0    0  501    0  0.00000000000E+00  0.00000000000E+00  0.11018373269E+04  0.11018373269E+04  0.25500000000E-02 0. -1.
         -2   -1    0    0    0  501 -0.00000000000E+00 -0.00000000000E+00 -0.20704801450E+04  0.20704801450E+04  0.25500000000E-02 0.  1.
    8880022    1    1    2    0    0  0.82542634146E+03  0.58408486241E+03 -0.16515775535E+04  0.19425714504E+04  0.15294330000E+03 0.  0.
    8880022    1    1    2    0    0 -0.82542634146E+03 -0.58408486241E+03  0.68293473537E+03  0.12297460215E+04  0.15294330000E+03 0.  0.
<mgrwt>
<rscale>  0 0.10226805E+04</rscale>
<asrwt>0</asrwt>
<pdfrwt beam="1">  1        2 0.16951344E+00 0.10226805E+04</pdfrwt>
<pdfrwt beam="2">  1       -2 0.31853541E+00 0.10226805E+04</pdfrwt>
<totfact> 0.53293083E-01</totfact>
</mgrwt>
</event>
<event>
 4    1  0.3365401E-008  0.5677136E+03  0.7818608E-02  0.9974751E-01
          2   -1    0    0  501    0  0.00000000000E+00  0.00000000000E+00  0.16272431448E+04  0.16272431448E+04  0.25500000000E-02 0. -1.
         -2   -1    0    0    0  501 -0.00000000000E+00 -0.00000000000E+00 -0.35889470691E+03  0.35889470692E+03  0.25500000000E-02 0.  1.
    8880022    1    1    2    0    0 -0.50188512682E+03  0.21683733476E+03 -0.30608858402E+02  0.56853818297E+03  0.15294330000E+03 0.  0.
    8880022    1    1    2    0    0  0.50188512682E+03 -0.21683733476E+03  0.12989572963E+04  0.14175996688E+04  0.15294330000E+03 0.  0.
<mgrwt>
<rscale>  0 0.56771363E+03</rscale>
<asrwt>0</asrwt>
<pdfrwt beam="1">  1        2 0.25034510E+00 0.56771363E+03</pdfrwt>
<pdfrwt beam="2">  1       -2 0.55214571E-01 0.56771363E+03</pdfrwt>
<totfact> 0.34878167E+01</totfact>
</mgrwt>
</event>
<event>
 4    1  0.3365401E-008  0.7116500E+03  0.7818608E-02  0.9697514E-01
          2   -1    0    0  501    0  0.00000000000E+00  0.00000000000E+00  0.24418695802E+04  0.24418695802E+04  0.25500000000E-02 0. -1.
         -2   -1    0    0    0  501 -0.00000000000E+00 -0.00000000000E+00 -0.36331504392E+03  0.36331504393E+03  0.25500000000E-02 0.  1.
    8880022    1    1    2    0    0 -0.63640102770E+03 -0.27937041406E+03  0.12045262540E+03  0.72177183672E+03  0.15294330000E+03 0.  0.
    8880022    1    1    2    0    0  0.63640102770E+03  0.27937041406E+03  0.19581019109E+04  0.20834127874E+04  0.15294330000E+03 0.  0.
<mgrwt>
<rscale>  0 0.71165002E+03</rscale>
<asrwt>0</asrwt>
<pdfrwt beam="1">  1        2 0.37567223E+00 0.71165002E+03</pdfrwt>
<pdfrwt beam="2">  1       -2 0.55894624E-01 0.71165002E+03</pdfrwt>
<totfact> 0.11906794E+01</totfact>
</mgrwt>
</event>
<event>
 4    1  0.3365401E-008  0.2890521E+03  0.7818608E-02  0.1090845E+00
          2   -1    0    0  501    0  0.00000000000E+00  0.00000000000E+00  0.13937740464E+04  0.13937740464E+04  0.25500000000E-02 0. -1.
         -2   -1    0    0    0  501 -0.00000000000E+00 -0.00000000000E+00 -0.81082134616E+03  0.81082134616E+03  0.25500000000E-02 0.  1.
    8880022    1    1    2    0    0 -0.40877804372E+02 -0.24184384085E+03  0.13522439685E+04  0.13827924072E+04  0.15294330000E+03 0.  0.
    8880022    1    1    2    0    0  0.40877804372E+02  0.24184384085E+03 -0.76929126824E+03  0.82180298530E+03  0.15294330000E+03 0.  0.
<mgrwt>
<rscale>  0 0.28905206E+03</rscale>
<asrwt>0</asrwt>
<pdfrwt beam="1">  1        2 0.21442677E+00 0.28905206E+03</pdfrwt>
<pdfrwt beam="2">  1       -2 0.12474175E+00 0.28905206E+03</pdfrwt>
<totfact> 0.79634280E+00</totfact>
</mgrwt>
</event>
<event>
 4    1  0.3365401E-008  0.7773681E+03  0.7818608E-02  0.9593366E-01
          2   -1    0    0  501    0  0.00000000000E+00  0.00000000000E+00  0.15339138066E+04  0.15339138066E+04  0.25500000000E-02 0. -1.
         -2   -1    0    0    0  501 -0.00000000000E+00 -0.00000000000E+00 -0.51897299797E+03  0.51897299797E+03  0.25500000000E-02 0.  1.
    8880022    1    1    2    0    0  0.36560780801E+03  0.66876038285E+03  0.10112489382E+04  0.12755099321E+04  0.15294330000E+03 0.  0.
    8880022    1    1    2    0    0 -0.36560780801E+03 -0.66876038285E+03  0.36918704712E+01  0.77737687248E+03  0.15294330000E+03 0.  0.
<mgrwt>
<rscale>  0 0.77736811E+03</rscale>
<asrwt>0</asrwt>
<pdfrwt beam="1">  1        2 0.23598674E+00 0.77736811E+03</pdfrwt>
<pdfrwt beam="2">  1       -2 0.79842001E-01 0.77736811E+03</pdfrwt>
<totfact> 0.17224537E+01</totfact>
</mgrwt>
</event>
<event>
 4    1  0.3365401E-008  0.5748484E+03  0.7818608E-02  0.9959007E-01
         -2   -1    0    0    0  501 -0.00000000000E+00  0.00000000000E+00  0.36093699652E+03  0.36093699653E+03  0.25500000000E-02 0.  1.
          2   -1    0    0  501    0  0.00000000000E+00 -0.00000000000E+00 -0.18784342816E+04  0.18784342816E+04  0.25500000000E-02 0. -1.
    8880022    1    1    2    0    0 -0.36856924761E+03  0.41378229595E+03 -0.15604052243E+04  0.16629236891E+04  0.15294330000E+03 0.  0.
    8880022    1    1    2    0    0  0.36856924761E+03 -0.41378229595E+03  0.42907939155E+02  0.57644758910E+03  0.15294330000E+03 0.  0.
<mgrwt>
<rscale>  0 0.57484844E+03</rscale>
<asrwt>0</asrwt>
<pdfrwt beam="1">  1        2 0.28898988E+00 0.57484844E+03</pdfrwt>
<pdfrwt beam="2">  1       -2 0.55528770E-01 0.57484844E+03</pdfrwt>
<totfact> 0.25172782E+01</totfact>
</mgrwt>
</event>
<event>
 4    1  0.3365401E-008  0.4525272E+03  0.7818608E-02  0.1026971E+00
         -2   -1    0    0    0  501 -0.00000000000E+00  0.00000000000E+00  0.51690643969E+03  0.51690643970E+03  0.25500000000E-02 0.  1.
          2   -1    0    0  501    0  0.00000000000E+00 -0.00000000000E+00 -0.70810822375E+03  0.70810822376E+03  0.25500000000E-02 0. -1.
    8880022    1    1    2    0    0  0.10978640639E+02  0.42575660115E+03 -0.50213632662E+03  0.67595987862E+03  0.15294330000E+03 0. -1.
    8880022    1    1    2    0    0 -0.10978640639E+02 -0.42575660115E+03  0.31093454257E+03  0.54905478483E+03  0.15294330000E+03 0.  0.
<mgrwt>
<rscale>  0 0.45252720E+03</rscale>
<asrwt>0</asrwt>
<pdfrwt beam="1">  1        2 0.10893973E+00 0.45252720E+03</pdfrwt>
<pdfrwt beam="2">  1       -2 0.79524067E-01 0.45252720E+03</pdfrwt>
<totfact> 0.58884667E+01</totfact>
</mgrwt>
</event>
<event>
 4    1  0.3365401E-008  0.1965375E+03  0.7818608E-02  0.1152694E+00
         -2   -1    0    0    0  501 -0.00000000000E+00  0.00000000000E+00  0.70304398239E+03  0.70304398239E+03  0.25500000000E-02 0.  1.
          2   -1    0    0  501    0  0.00000000000E+00 -0.00000000000E+00 -0.11830685571E+04  0.11830685571E+04  0.25500000000E-02 0. -1.
    8880022    1    1    2    0    0 -0.11571229169E+03 -0.42965209664E+02 -0.11609101505E+04  0.11774291377E+04  0.15294330000E+03 0.  0.
    8880022    1    1    2    0    0  0.11571229169E+03  0.42965209664E+02  0.68088557579E+03  0.70868340182E+03  0.15294330000E+03 0.  1.
<mgrwt>
<rscale>  0 0.19653752E+03</rscale>
<asrwt>0</asrwt>
<pdfrwt beam="1">  1        2 0.18201055E+00 0.19653752E+03</pdfrwt>
<pdfrwt beam="2">  1       -2 0.10816061E+00 0.19653752E+03</pdfrwt>
<totfact> 0.15271525E+01</totfact>
</mgrwt>
</event>
<event>
 4    1  0.3365401E-008  0.3495940E+03  0.7818608E-02  0.1062782E+00
         -2   -1    0    0    0  501 -0.00000000000E+00  0.00000000000E+00  0.11261520325E+03  0.11261520328E+03  0.25500000000E-02 0.  1.
          2   -1    0    0  501    0  0.00000000000E+00 -0.00000000000E+00 -0.17798740175E+04  0.17798740175E+04  0.25500000000E-02 0. -1.
    8880022    1    1    2    0    0  0.16530919202E+03  0.26738951575E+03 -0.24249955517E+03  0.42546676647E+03  0.15294330000E+03 0.  1.
    8880022    1    1    2    0    0 -0.16530919202E+03 -0.26738951575E+03 -0.14247592591E+04  0.14670224543E+04  0.15294330000E+03 0. -1.
<mgrwt>
<rscale>  0 0.34959396E+03</rscale>
<asrwt>0</asrwt>
<pdfrwt beam="1">  1        2 0.27382675E+00 0.34959396E+03</pdfrwt>
<pdfrwt beam="2">  1       -2 0.17325417E-01 0.34959396E+03</pdfrwt>
<totfact> 0.25828324E+02</totfact>
</mgrwt>
</event>
<event>
 4    1  0.3365401E-008  0.6272643E+03  0.7818608E-02  0.9850402E-01
         -2   -1    0    0    0  501 -0.00000000000E+00  0.00000000000E+00  0.88726265465E+03  0.88726265465E+03  0.25500000000E-02 0.  1.
          2   -1    0    0  501    0  0.00000000000E+00 -0.00000000000E+00 -0.84480026679E+03  0.84480026679E+03  0.25500000000E-02 0. -1.
    8880022    1    1    2    0    0 -0.60809998152E+03  0.16830061979E+02 -0.57568872000E+03  0.85139767081E+03  0.15294330000E+03 0.  0.
    8880022    1    1    2    0    0  0.60809998152E+03 -0.16830061979E+02  0.61815110786E+03  0.88066525063E+03  0.15294330000E+03 0.  0.
<mgrwt>
<rscale>  0 0.62726429E+03</rscale>
<asrwt>0</asrwt>
<pdfrwt beam="1">  1        2 0.12996927E+00 0.62726429E+03</pdfrwt>
<pdfrwt beam="2">  1       -2 0.13650195E+00 0.62726429E+03</pdfrwt>
<totfact> 0.12652168E+01</totfact>
</mgrwt>
</event>
<event>
 4    1  0.3365401E-008  0.1984019E+03  0.7818608E-02  0.1151094E+00
          2   -1    0    0  501    0  0.00000000000E+00  0.00000000000E+00  0.20789337934E+04  0.20789337934E+04  0.25500000000E-02 0. -1.
         -2   -1    0    0    0  501 -0.00000000000E+00 -0.00000000000E+00 -0.10781693785E+03  0.10781693789E+03  0.25500000000E-02 0.  1.
    8880022    1    1    2    0    0  0.27738306331E+02 -0.12329744695E+03 -0.71782207219E+01  0.19853174540E+03  0.15294330000E+03 0.  1.
    8880022    1    1    2    0    0 -0.27738306331E+02  0.12329744695E+03  0.19782950762E+04  0.19882189859E+04  0.15294330000E+03 0.  0.
<mgrwt>
<rscale>  0 0.19840193E+03</rscale>
<asrwt>0</asrwt>
<pdfrwt beam="1">  1        2 0.31983597E+00 0.19840193E+03</pdfrwt>
<pdfrwt beam="2">  1       -2 0.16587221E-01 0.19840193E+03</pdfrwt>
<totfact> 0.20052068E+02</totfact>
</mgrwt>
</event>
<event>
 4    1  0.3365401E-008  0.5188590E+03  0.7818608E-02  0.1008970E+00
          2   -1    0    0  501    0  0.00000000000E+00  0.00000000000E+00  0.27968059414E+04  0.27968059414E+04  0.25500000000E-02 0. -1.
         -2   -1    0    0    0  501 -0.00000000000E+00 -0.00000000000E+00 -0.38255983927E+03  0.38255983928E+03  0.25500000000E-02 0.  1.
    8880022    1    1    2    0    0 -0.49203296523E+03  0.61045517174E+02  0.25823455282E+04  0.26339557844E+04  0.15294330000E+03 0. -1.
    8880022    1    1    2    0    0  0.49203296523E+03 -0.61045517174E+02 -0.16809942605E+03  0.54540999632E+03  0.15294330000E+03 0.  0.
<mgrwt>
<rscale>  0 0.51885899E+03</rscale>
<asrwt>0</asrwt>
<pdfrwt beam="1">  1        2 0.43027784E+00 0.51885899E+03</pdfrwt>
<pdfrwt beam="2">  1       -2 0.58855359E-01 0.51885899E+03</pdfrwt>
<totfact> 0.69795237E+00</totfact>
</mgrwt>
</event>
<event>
 4    1  0.3365401E-008  0.6965537E+03  0.7818608E-02  0.9723144E-01
          2   -1    0    0  501    0  0.00000000000E+00  0.00000000000E+00  0.57292623335E+03  0.57292623336E+03  0.25500000000E-02 0. -1.
         -2   -1    0    0    0  501 -0.00000000000E+00 -0.00000000000E+00 -0.11203191479E+04  0.11203191479E+04  0.25500000000E-02 0.  1.
    8880022    1    1    2    0    0  0.35735347418E+03 -0.57800858502E+03  0.14458340222E+03  0.71140104237E+03  0.15294330000E+03 0. -1.
    8880022    1    1    2    0    0 -0.35735347418E+03  0.57800858502E+03 -0.69197631681E+03  0.98184433894E+03  0.15294330000E+03 0.  0.
<mgrwt>
<rscale>  0 0.69655372E+03</rscale>
<asrwt>0</asrwt>
<pdfrwt beam="1">  1        2 0.88142498E-01 0.69655372E+03</pdfrwt>
<pdfrwt beam="2">  1       -2 0.17235679E+00 0.69655372E+03</pdfrwt>
<totfact> 0.10991735E+01</totfact>
</mgrwt>
</event>
<event>
 4    1  0.3365401E-008  0.6749433E+03  0.7818608E-02  0.9761069E-01
          2   -1    0    0  501    0  0.00000000000E+00  0.00000000000E+00  0.17127111644E+04  0.17127111644E+04  0.25500000000E-02 0. -1.
         -2   -1    0    0    0  501 -0.00000000000E+00 -0.00000000000E+00 -0.66239535442E+03  0.66239535442E+03  0.25500000000E-02 0.  1.
    8880022    1    1    2    0    0 -0.24087751752E+02  0.65694487532E+03 -0.39353254680E+03  0.78129143564E+03  0.15294330000E+03 0.  0.
    8880022    1    1    2    0    0  0.24087751752E+02 -0.65694487532E+03  0.14438483568E+04  0.15938150832E+04  0.15294330000E+03 0.  0.
<mgrwt>
<rscale>  0 0.67494329E+03</rscale>
<asrwt>0</asrwt>
<pdfrwt beam="1">  1        2 0.26349402E+00 0.67494329E+03</pdfrwt>
<pdfrwt beam="2">  1       -2 0.10190698E+00 0.67494329E+03</pdfrwt>
<totfact> 0.79330823E+00</totfact>
</mgrwt>
</event>
<event>
 4    1  0.3365401E-008  0.5165004E+03  0.7818608E-02  0.1009560E+00
          2   -1    0    0  501    0  0.00000000000E+00  0.00000000000E+00  0.29228545698E+04  0.29228545698E+04  0.25500000000E-02 0. -1.
         -2   -1    0    0    0  501 -0.00000000000E+00 -0.00000000000E+00 -0.14159363259E+03  0.14159363261E+03  0.25500000000E-02 0.  1.
    8880022    1    1    2    0    0  0.21696723911E+03  0.44306457461E+03  0.47718856208E+03  0.70319384022E+03  0.15294330000E+03 0.  0.
    8880022    1    1    2    0    0 -0.21696723911E+03 -0.44306457461E+03  0.23040723751E+04  0.23612543622E+04  0.15294330000E+03 0.  0.
<mgrwt>
<rscale>  0 0.51650039E+03</rscale>
<asrwt>0</asrwt>
<pdfrwt beam="1">  1        2 0.44966993E+00 0.51650039E+03</pdfrwt>
<pdfrwt beam="2">  1       -2 0.21783636E-01 0.51650039E+03</pdfrwt>
<totfact> 0.39234576E+01</totfact>
</mgrwt>
</event>
<event>
 4    1  0.3365401E-008  0.3122374E+03  0.7818608E-02  0.1079278E+00
         -2   -1    0    0    0  501 -0.00000000000E+00  0.00000000000E+00  0.71921563633E+03  0.71921563634E+03  0.25500000000E-02 0.  1.
          2   -1    0    0  501    0  0.00000000000E+00 -0.00000000000E+00 -0.30201207800E+03  0.30201207801E+03  0.25500000000E-02 0. -1.
    8880022    1    1    2    0    0 -0.10670956005E+03  0.25042690478E+03  0.58768406677E+03  0.66548086388E+03  0.15294330000E+03 0.  0.
    8880022    1    1    2    0    0  0.10670956005E+03 -0.25042690478E+03 -0.17048050843E+03  0.35574685046E+03  0.15294330000E+03 0.  0.
<mgrwt>
<rscale>  0 0.31223744E+03</rscale>
<asrwt>0</asrwt>
<pdfrwt beam="1">  1        2 0.46463397E-01 0.31223744E+03</pdfrwt>
<pdfrwt beam="2">  1       -2 0.11064856E+00 0.31223744E+03</pdfrwt>
<totfact> 0.73611254E+01</totfact>
</mgrwt>
</event>
<event>
 4    1  0.3365401E-008  0.9891958E+03  0.7818608E-02  0.9320475E-01
          2   -1    0    0  501    0  0.00000000000E+00  0.00000000000E+00  0.11269264381E+04  0.11269264381E+04  0.25500000000E-02 0. -1.
         -2   -1    0    0    0  501 -0.00000000000E+00 -0.00000000000E+00 -0.18943808947E+04  0.18943808947E+04  0.25500000000E-02 0.  1.
    8880022    1    1    2    0    0 -0.23525403702E+03  0.94856322102E+03 -0.14955163466E+04  0.17930637027E+04  0.15294330000E+03 0.  1.
    8880022    1    1    2    0    0  0.23525403702E+03 -0.94856322102E+03  0.72806188997E+03  0.12282436301E+04  0.15294330000E+03 0.  0.
<mgrwt>
<rscale>  0 0.98919578E+03</rscale>
<asrwt>0</asrwt>
<pdfrwt beam="1">  1        2 0.17337330E+00 0.98919578E+03</pdfrwt>
<pdfrwt beam="2">  1       -2 0.29144321E+00 0.98919578E+03</pdfrwt>
<totfact> 0.75502595E-01</totfact>
</mgrwt>
</event>
<event>
 4    1  0.3365401E-008  0.2158600E+03  0.7818608E-02  0.1137008E+00
         -2   -1    0    0    0  501 -0.00000000000E+00  0.00000000000E+00  0.48559978720E+03  0.48559978721E+03  0.25500000000E-02 0.  1.
          2   -1    0    0  501    0  0.00000000000E+00 -0.00000000000E+00 -0.12048731300E+04  0.12048731300E+04  0.25500000000E-02 0. -1.
    8880022    1    1    2    0    0  0.41661500303E+02  0.14652026655E+03 -0.11705181614E+04  0.11902555559E+04  0.15294330000E+03 0.  0.
    8880022    1    1    2    0    0 -0.41661500303E+02 -0.14652026655E+03  0.45124481867E+03  0.50021736127E+03  0.15294330000E+03 0.  1.
<mgrwt>
<rscale>  0 0.21585996E+03</rscale>
<asrwt>0</asrwt>
<pdfrwt beam="1">  1        2 0.18536510E+00 0.21585996E+03</pdfrwt>
<pdfrwt beam="2">  1       -2 0.74707660E-01 0.21585996E+03</pdfrwt>
<totfact> 0.34032922E+01</totfact>
</mgrwt>
</event>
<event>
 4    1  0.3365401E-008  0.6586178E+03  0.7818608E-02  0.9790742E-01
         -2   -1    0    0    0  501 -0.00000000000E+00  0.00000000000E+00  0.14149842616E+04  0.14149842616E+04  0.25500000000E-02 0.  1.
          2   -1    0    0  501    0  0.00000000000E+00 -0.00000000000E+00 -0.61004977293E+03  0.61004977294E+03  0.25500000000E-02 0. -1.
    8880022    1    1    2    0    0  0.63411256386E+03  0.91033052092E+02 -0.31168664947E+03  0.72864667754E+03  0.15294330000E+03 0.  0.
    8880022    1    1    2    0    0 -0.63411256386E+03 -0.91033052092E+02  0.11166211381E+04  0.12963873570E+04  0.15294330000E+03 0.  0.
<mgrwt>
<rscale>  0 0.65861781E+03</rscale>
<asrwt>0</asrwt>
<pdfrwt beam="1">  1        2 0.93853813E-01 0.65861781E+03</pdfrwt>
<pdfrwt beam="2">  1       -2 0.21768988E+00 0.65861781E+03</pdfrwt>
<totfact> 0.51486924E+00</totfact>
</mgrwt>
</event>
<event>
 4    1  0.3365401E-008  0.3209342E+03  0.7818608E-02  0.1075220E+00
          2   -1    0    0  501    0  0.00000000000E+00  0.00000000000E+00  0.24781941593E+04  0.24781941593E+04  0.25500000000E-02 0. -1.
         -2   -1    0    0    0  501 -0.00000000000E+00 -0.00000000000E+00 -0.91616271970E+02  0.91616272006E+02  0.25500000000E-02 0.  1.
    8880022    1    1    2    0    0 -0.52581576914E+02  0.27720443045E+03  0.21430300677E+04  0.21669279274E+04  0.15294330000E+03 0.  0.
    8880022    1    1    2    0    0  0.52581576914E+02 -0.27720443045E+03  0.24354781964E+03  0.40288250391E+03  0.15294330000E+03 0.  0.
<mgrwt>
<rscale>  0 0.32093422E+03</rscale>
<asrwt>0</asrwt>
<pdfrwt beam="1">  1        2 0.38126064E+00 0.32093422E+03</pdfrwt>
<pdfrwt beam="2">  1       -2 0.14094811E-01 0.32093422E+03</pdfrwt>
<totfact> 0.15501417E+02</totfact>
</mgrwt>
</event>
<event>
 4    1  0.3365401E-008  0.1483499E+04  0.7818608E-02  0.8895500E-01
          2   -1    0    0  501    0  0.00000000000E+00  0.00000000000E+00  0.28630505524E+04  0.28630505524E+04  0.25500000000E-02 0. -1.
         -2   -1    0    0    0  501 -0.00000000000E+00 -0.00000000000E+00 -0.89219069104E+03  0.89219069104E+03  0.25500000000E-02 0.  1.
    8880022    1    1    2    0    0  0.13943672079E+04  0.48282385665E+03  0.16840335368E+04  0.22442681198E+04  0.15294330000E+03 0.  0.
    8880022    1    1    2    0    0 -0.13943672079E+04 -0.48282385665E+03  0.28682632456E+03  0.15109731237E+04  0.15294330000E+03 0.  0.
<mgrwt>
<rscale>  0 0.14834994E+04</rscale>
<asrwt>0</asrwt>
<pdfrwt beam="1">  1        2 0.44046932E+00 0.14834994E+04</pdfrwt>
<pdfrwt beam="2">  1       -2 0.13726010E+00 0.14834994E+04</pdfrwt>
<totfact> 0.76053286E-01</totfact>
</mgrwt>
</event>
<event>
 4    1  0.3365401E-008  0.1897780E+03  0.7818608E-02  0.1158662E+00
          2   -1    0    0  501    0  0.00000000000E+00  0.00000000000E+00  0.25382128255E+04  0.25382128255E+04  0.25500000000E-02 0. -1.
         -2   -1    0    0    0  501 -0.00000000000E+00 -0.00000000000E+00 -0.15211283319E+03  0.15211283321E+03  0.25500000000E-02 0.  1.
    8880022    1    1    2    0    0  0.10636316506E+03 -0.36206513401E+02  0.24739374688E+04  0.24812058132E+04  0.15294330000E+03 0.  0.
    8880022    1    1    2    0    0 -0.10636316506E+03  0.36206513401E+02 -0.87837476558E+02  0.20911984554E+03  0.15294330000E+03 0.  0.
<mgrwt>
<rscale>  0 0.18977800E+03</rscale>
<asrwt>0</asrwt>
<pdfrwt beam="1">  1        2 0.39049431E+00 0.18977800E+03</pdfrwt>
<pdfrwt beam="2">  1       -2 0.23401972E-01 0.18977800E+03</pdfrwt>
<totfact> 0.63877699E+01</totfact>
</mgrwt>
</event>
<event>
 4    1  0.3365401E-008  0.5502283E+03  0.7818608E-02  0.1001441E+00
         -2   -1    0    0    0  501 -0.00000000000E+00  0.00000000000E+00  0.15202161526E+04  0.15202161526E+04  0.25500000000E-02 0.  1.
          2   -1    0    0  501    0  0.00000000000E+00 -0.00000000000E+00 -0.54804024610E+03  0.54804024611E+03  0.25500000000E-02 0. -1.
    8880022    1    1    2    0    0  0.47103077416E+02 -0.52644166988E+03  0.13111992102E+04  0.14219685487E+04  0.15294330000E+03 0.  0.
    8880022    1    1    2    0    0 -0.47103077416E+02  0.52644166988E+03 -0.33902330365E+03  0.64628785005E+03  0.15294330000E+03 0.  0.
<mgrwt>
<rscale>  0 0.55022830E+03</rscale>
<asrwt>0</asrwt>
<pdfrwt beam="1">  1        2 0.84313886E-01 0.55022830E+03</pdfrwt>
<pdfrwt beam="2">  1       -2 0.23387940E+00 0.55022830E+03</pdfrwt>
<totfact> 0.47282049E+00</totfact>
</mgrwt>
</event>
<event>
 4    1  0.3365401E-008  0.3184764E+03  0.7818608E-02  0.1076353E+00
          2   -1    0    0  501    0  0.00000000000E+00  0.00000000000E+00  0.10425361433E+04  0.10425361434E+04  0.25500000000E-02 0. -1.
         -2   -1    0    0    0  501 -0.00000000000E+00 -0.00000000000E+00 -0.29158174666E+03  0.29158174667E+03  0.25500000000E-02 0.  1.
    8880022    1    1    2    0    0 -0.15433011249E+03 -0.23284708335E+03 -0.16904105736E+03  0.36055801188E+03  0.15294330000E+03 0.  0.
    8880022    1    1    2    0    0  0.15433011249E+03  0.23284708335E+03  0.91999545405E+03  0.97355987814E+03  0.15294330000E+03 0.  0.
<mgrwt>
<rscale>  0 0.31847637E+03</rscale>
<asrwt>0</asrwt>
<pdfrwt beam="1">  1        2 0.16039018E+00 0.31847637E+03</pdfrwt>
<pdfrwt beam="2">  1       -2 0.44858729E-01 0.31847637E+03</pdfrwt>
<totfact> 0.11831088E+02</totfact>
</mgrwt>
</event>
<event>
 4    1  0.3365401E-008  0.2762302E+03  0.7818608E-02  0.1097766E+00
          2   -1    0    0  501    0  0.00000000000E+00  0.00000000000E+00  0.11192430537E+04  0.11192430537E+04  0.25500000000E-02 0. -1.
         -2   -1    0    0    0  501 -0.00000000000E+00 -0.00000000000E+00 -0.13759860085E+03  0.13759860087E+03  0.25500000000E-02 0.  1.
    8880022    1    1    2    0    0 -0.10001233761E+03 -0.20714493683E+03  0.93719800567E+03  0.97705846671E+03  0.15294330000E+03 0.  0.
    8880022    1    1    2    0    0  0.10001233761E+03  0.20714493683E+03  0.44446447175E+02  0.27978318786E+03  0.15294330000E+03 0.  1.
<mgrwt>
<rscale>  0 0.27623024E+03</rscale>
<asrwt>0</asrwt>
<pdfrwt beam="1">  1        2 0.17219125E+00 0.27623024E+03</pdfrwt>
<pdfrwt beam="2">  1       -2 0.21169015E-01 0.27623024E+03</pdfrwt>
<totfact> 0.42622998E+02</totfact>
</mgrwt>
</event>
<event>
 4    1  0.3365401E-008  0.3175308E+03  0.7818608E-02  0.1076791E+00
         -2   -1    0    0    0  501 -0.00000000000E+00  0.00000000000E+00  0.28539260862E+03  0.28539260863E+03  0.25500000000E-02 0.  1.
          2   -1    0    0  501    0  0.00000000000E+00 -0.00000000000E+00 -0.66215125286E+03  0.66215125287E+03  0.25500000000E-02 0. -1.
    8880022    1    1    2    0    0  0.77940881164E+01  0.27816073570E+03  0.13519482542E+03  0.34511365741E+03  0.15294330000E+03 0.  1.
    8880022    1    1    2    0    0 -0.77940881164E+01 -0.27816073570E+03 -0.51195346966E+03  0.60243020410E+03  0.15294330000E+03 0.  0.
<mgrwt>
<rscale>  0 0.31753078E+03</rscale>
<asrwt>0</asrwt>
<pdfrwt beam="1">  1        2 0.10186942E+00 0.31753078E+03</pdfrwt>
<pdfrwt beam="2">  1       -2 0.43906555E-01 0.31753078E+03</pdfrwt>
<totfact> 0.22414017E+02</totfact>
</mgrwt>
</event>
<event>
 4    1  0.3365401E-008  0.4171694E+03  0.7818608E-02  0.1037992E+00
         -2   -1    0    0    0  501 -0.00000000000E+00  0.00000000000E+00  0.44571697540E+03  0.44571697541E+03  0.25500000000E-02 0.  1.
          2   -1    0    0  501    0  0.00000000000E+00 -0.00000000000E+00 -0.85616633386E+03  0.85616633387E+03  0.25500000000E-02 0. -1.
    8880022    1    1    2    0    0 -0.84517513512E+02  0.37880789047E+03 -0.68531575519E+03  0.80230166726E+03  0.15294330000E+03 0.  0.
    8880022    1    1    2    0    0  0.84517513512E+02 -0.37880789047E+03  0.27486639673E+03  0.49958164201E+03  0.15294330000E+03 0.  0.
<mgrwt>
<rscale>  0 0.41716937E+03</rscale>
<asrwt>0</asrwt>
<pdfrwt beam="1">  1        2 0.13171790E+00 0.41716937E+03</pdfrwt>
<pdfrwt beam="2">  1       -2 0.68571842E-01 0.41716937E+03</pdfrwt>
<totfact> 0.64076899E+01</totfact>
</mgrwt>
</event>
<event>
 4    1  0.3365401E-008  0.5172966E+03  0.7818608E-02  0.1009360E+00
         -2   -1    0    0    0  501 -0.00000000000E+00  0.00000000000E+00  0.31012767060E+03  0.31012767061E+03  0.25500000000E-02 0.  1.
          2   -1    0    0  501    0  0.00000000000E+00 -0.00000000000E+00 -0.20106489630E+04  0.20106489630E+04  0.25500000000E-02 0. -1.
    8880022    1    1    2    0    0  0.32769462331E+03 -0.36989239295E+03 -0.17269925859E+04  0.18028031488E+04  0.15294330000E+03 0.  0.
    8880022    1    1    2    0    0 -0.32769462331E+03  0.36989239295E+03  0.26471293578E+02  0.51797348475E+03  0.15294330000E+03 0.  0.
<mgrwt>
<rscale>  0 0.51729663E+03</rscale>
<asrwt>0</asrwt>
<pdfrwt beam="1">  1        2 0.30933060E+00 0.51729663E+03</pdfrwt>
<pdfrwt beam="2">  1       -2 0.47711951E-01 0.51729663E+03</pdfrwt>
<totfact> 0.29406345E+01</totfact>
</mgrwt>
</event>
<event>
 4    1  0.3365401E-008  0.5006035E+03  0.7818608E-02  0.1013622E+00
          2   -1    0    0  501    0  0.00000000000E+00  0.00000000000E+00  0.93232776015E+03  0.93232776015E+03  0.25500000000E-02 0. -1.
         -2   -1    0    0    0  501 -0.00000000000E+00 -0.00000000000E+00 -0.74998781459E+03  0.74998781459E+03  0.25500000000E-02 0.  1.
    8880022    1    1    2    0    0  0.25053399458E+03  0.40551808471E+03 -0.58259822478E+03  0.76813055140E+03  0.15294330000E+03 0.  0.
    8880022    1    1    2    0    0 -0.25053399458E+03 -0.40551808471E+03  0.76493817034E+03  0.91418502335E+03  0.15294330000E+03 0.  0.
<mgrwt>
<rscale>  0 0.50060349E+03</rscale>
<asrwt>0</asrwt>
<pdfrwt beam="1">  1        2 0.14343504E+00 0.50060349E+03</pdfrwt>
<pdfrwt beam="2">  1       -2 0.11538274E+00 0.50060349E+03</pdfrwt>
<totfact> 0.17117457E+01</totfact>
</mgrwt>
</event>
<event>
 4    1  0.3365401E-008  0.6690538E+03  0.7818608E-02  0.9771669E-01
          2   -1    0    0  501    0  0.00000000000E+00  0.00000000000E+00  0.30225469866E+04  0.30225469867E+04  0.25500000000E-02 0. -1.
         -2   -1    0    0    0  501 -0.00000000000E+00 -0.00000000000E+00 -0.40273400007E+03  0.40273400008E+03  0.25500000000E-02 0.  1.
    8880022    1    1    2    0    0  0.57311980741E+03  0.30947543565E+03  0.26717180172E+04  0.27542167989E+04  0.15294330000E+03 0.  0.
    8880022    1    1    2    0    0 -0.57311980741E+03 -0.30947543565E+03 -0.51905030656E+02  0.67106418779E+03  0.15294330000E+03 0.  0.
<mgrwt>
<rscale>  0 0.66905382E+03</rscale>
<asrwt>0</asrwt>
<pdfrwt beam="1">  1        2 0.46500724E+00 0.66905382E+03</pdfrwt>
<pdfrwt beam="2">  1       -2 0.61959076E-01 0.66905382E+03</pdfrwt>
<totfact> 0.44248850E+00</totfact>
</mgrwt>
</event>
<event>
 4    1  0.3365401E-008  0.6752585E+03  0.7818608E-02  0.9760505E-01
          2   -1    0    0  501    0  0.00000000000E+00  0.00000000000E+00  0.14770241435E+04  0.14770241435E+04  0.25500000000E-02 0. -1.
         -2   -1    0    0    0  501 -0.00000000000E+00 -0.00000000000E+00 -0.43156690511E+03  0.43156690512E+03  0.25500000000E-02 0.  1.
    8880022    1    1    2    0    0  0.25909115718E+03 -0.60452804247E+03  0.13566226935E+02  0.67539475671E+03  0.15294330000E+03 0.  0.
    8880022    1    1    2    0    0 -0.25909115718E+03  0.60452804247E+03  0.10318910114E+04  0.12331962919E+04  0.15294330000E+03 0.  0.
<mgrwt>
<rscale>  0 0.67525849E+03</rscale>
<asrwt>0</asrwt>
<pdfrwt beam="1">  1        2 0.22723448E+00 0.67525849E+03</pdfrwt>
<pdfrwt beam="2">  1       -2 0.66394909E-01 0.67525849E+03</pdfrwt>
<totfact> 0.28159412E+01</totfact>
</mgrwt>
</event>
<event>
 4    1  0.3365401E-008  0.5625154E+03  0.7818608E-02  0.9986379E-01
          2   -1    0    0  501    0  0.00000000000E+00  0.00000000000E+00  0.83030665743E+03  0.83030665743E+03  0.25500000000E-02 0. -1.
         -2   -1    0    0    0  501 -0.00000000000E+00 -0.00000000000E+00 -0.45601841384E+03  0.45601841385E+03  0.25500000000E-02 0.  1.
    8880022    1    1    2    0    0 -0.24773034699E+03 -0.48131238892E+03 -0.73558701718E+02  0.56730457089E+03  0.15294330000E+03 0.  0.
    8880022    1    1    2    0    0  0.24773034699E+03  0.48131238892E+03  0.44784694530E+03  0.71902050039E+03  0.15294330000E+03 0.  0.
<mgrwt>
<rscale>  0 0.56251542E+03</rscale>
<asrwt>0</asrwt>
<pdfrwt beam="1">  1        2 0.12773949E+00 0.56251542E+03</pdfrwt>
<pdfrwt beam="2">  1       -2 0.70156679E-01 0.56251542E+03</pdfrwt>
<totfact> 0.62458149E+01</totfact>
</mgrwt>
</event>
<event>
 4    1  0.3365401E-008  0.2618907E+03  0.7818608E-02  0.1106013E+00
         -2   -1    0    0    0  501 -0.00000000000E+00  0.00000000000E+00  0.77719087348E+03  0.77719087349E+03  0.25500000000E-02 0.  1.
          2   -1    0    0  501    0  0.00000000000E+00 -0.00000000000E+00 -0.17303092967E+04  0.17303092967E+04  0.25500000000E-02 0. -1.
    8880022    1    1    2    0    0 -0.15902329920E+03  0.14109092771E+03  0.74480049394E+03  0.78950268420E+03  0.15294330000E+03 0.  0.
    8880022    1    1    2    0    0  0.15902329920E+03 -0.14109092771E+03 -0.16979189172E+04  0.17179974860E+04  0.15294330000E+03 0. -1.
<mgrwt>
<rscale>  0 0.26189065E+03</rscale>
<asrwt>0</asrwt>
<pdfrwt beam="1">  1        2 0.26620143E+00 0.26189065E+03</pdfrwt>
<pdfrwt beam="2">  1       -2 0.11956783E+00 0.26189065E+03</pdfrwt>
<totfact> 0.59077997E+00</totfact>
</mgrwt>
</event>
<event>
 4    1  0.3365401E-008  0.9598593E+03  0.7818608E-02  0.9353700E-01
          2   -1    0    0  501    0  0.00000000000E+00  0.00000000000E+00  0.18823014822E+04  0.18823014822E+04  0.25500000000E-02 0. -1.
         -2   -1    0    0    0  501 -0.00000000000E+00 -0.00000000000E+00 -0.92846507686E+03  0.92846507686E+03  0.25500000000E-02 0.  1.
    8880022    1    1    2    0    0 -0.42760752774E+03 -0.84562998321E+03 -0.48944830532E+03  0.10774458515E+04  0.15294330000E+03 0.  0.
    8880022    1    1    2    0    0  0.42760752774E+03  0.84562998321E+03  0.14432847107E+04  0.17333207076E+04  0.15294330000E+03 0.  0.
<mgrwt>
<rscale>  0 0.95985932E+03</rscale>
<asrwt>0</asrwt>
<pdfrwt beam="1">  1        2 0.28958484E+00 0.95985932E+03</pdfrwt>
<pdfrwt beam="2">  1       -2 0.14284078E+00 0.95985932E+03</pdfrwt>
<totfact> 0.26519520E+00</totfact>
</mgrwt>
</event>
<event>
 4    1  0.3365401E-008  0.5052992E+03  0.7818608E-02  0.1012405E+00
          2   -1    0    0  501    0  0.00000000000E+00  0.00000000000E+00  0.20526662788E+04  0.20526662788E+04  0.25500000000E-02 0. -1.
         -2   -1    0    0    0  501 -0.00000000000E+00 -0.00000000000E+00 -0.36799991655E+03  0.36799991656E+03  0.25500000000E-02 0.  1.
    8880022    1    1    2    0    0 -0.36870124804E+02  0.48018351743E+03 -0.14242641103E+03  0.52498814471E+03  0.15294330000E+03 0.  0.
    8880022    1    1    2    0    0  0.36870124804E+02 -0.48018351743E+03  0.18270927733E+04  0.18956780506E+04  0.15294330000E+03 0.  0.
<mgrwt>
<rscale>  0 0.50529919E+03</rscale>
<asrwt>0</asrwt>
<pdfrwt beam="1">  1        2 0.31579482E+00 0.50529919E+03</pdfrwt>
<pdfrwt beam="2">  1       -2 0.56615371E-01 0.50529919E+03</pdfrwt>
<totfact> 0.19735958E+01</totfact>
</mgrwt>
</event>
<event>
 4    1  0.3365401E-008  0.7443062E+03  0.7818608E-02  0.9644326E-01
         -2   -1    0    0    0  501 -0.00000000000E+00  0.00000000000E+00  0.44061928504E+03  0.44061928504E+03  0.25500000000E-02 0.  1.
          2   -1    0    0  501    0  0.00000000000E+00 -0.00000000000E+00 -0.26539422929E+04  0.26539422929E+04  0.25500000000E-02 0. -1.
    8880022    1    1    2    0    0 -0.68906851931E+03  0.23618765966E+03  0.15784907857E+02  0.74447353963E+03  0.15294330000E+03 0.  1.
    8880022    1    1    2    0    0  0.68906851931E+03 -0.23618765966E+03 -0.22291079157E+04  0.23500880383E+04  0.15294330000E+03 0.  0.
<mgrwt>
<rscale>  0 0.74430618E+03</rscale>
<asrwt>0</asrwt>
<pdfrwt beam="1">  1        2 0.40829880E+00 0.74430618E+03</pdfrwt>
<pdfrwt beam="2">  1       -2 0.67787584E-01 0.74430618E+03</pdfrwt>
<totfact> 0.59509229E+00</totfact>
</mgrwt>
</event>
<event>
 4    1  0.3365401E-008  0.2384204E+03  0.7818608E-02  0.1120850E+00
         -2   -1    0    0    0  501 -0.00000000000E+00  0.00000000000E+00  0.83622601120E+02  0.83622601159E+02  0.25500000000E-02 0.  1.
          2   -1    0    0  501    0  0.00000000000E+00 -0.00000000000E+00 -0.10099054258E+04  0.10099054258E+04  0.25500000000E-02 0. -1.
    8880022    1    1    2    0    0  0.46023348614E+02 -0.17701544744E+03 -0.15053018219E+03  0.28196383813E+03  0.15294330000E+03 0.  0.
    8880022    1    1    2    0    0 -0.46023348614E+02  0.17701544744E+03 -0.77575264248E+03  0.81156418882E+03  0.15294330000E+03 0.  0.
<mgrwt>
<rscale>  0 0.23842036E+03</rscale>
<asrwt>0</asrwt>
<pdfrwt beam="1">  1        2 0.15537006E+00 0.23842036E+03</pdfrwt>
<pdfrwt beam="2">  1       -2 0.12865016E-01 0.23842036E+03</pdfrwt>
<totfact> 0.11447127E+03</totfact>
</mgrwt>
</event>
<event>
 4    1  0.3365401E-008  0.1038065E+04  0.7818608E-02  0.9267754E-01
          2   -1    0    0  501    0  0.00000000000E+00  0.00000000000E+00  0.16534614678E+04  0.16534614678E+04  0.25500000000E-02 0. -1.
         -2   -1    0    0    0  501 -0.00000000000E+00 -0.00000000000E+00 -0.15055766327E+04  0.15055766327E+04  0.25500000000E-02 0.  1.
    8880022    1    1    2    0    0  0.27676917656E+03 -0.98872910095E+03  0.12634531100E+04  0.16352039097E+04  0.15294330000E+03 0.  0.
    8880022    1    1    2    0    0 -0.27676917656E+03  0.98872910095E+03 -0.11155682748E+04  0.15238341908E+04  0.15294330000E+03 0.  0.
<mgrwt>
<rscale>  0 0.10380646E+04</rscale>
<asrwt>0</asrwt>
<pdfrwt beam="1">  1        2 0.25437869E+00 0.10380646E+04</pdfrwt>
<pdfrwt beam="2">  1       -2 0.23162717E+00 0.10380646E+04</pdfrwt>
<totfact> 0.86231612E-01</totfact>
</mgrwt>
</event>
<event>
 4    1  0.3365401E-008  0.5158162E+03  0.7818608E-02  0.1009731E+00
         -2   -1    0    0    0  501 -0.00000000000E+00  0.00000000000E+00  0.20484010711E+03  0.20484010712E+03  0.25500000000E-02 0.  1.
          2   -1    0    0  501    0  0.00000000000E+00 -0.00000000000E+00 -0.21888709526E+04  0.21888709526E+04  0.25500000000E-02 0. -1.
    8880022    1    1    2    0    0  0.39733852570E+03  0.29119895312E+03 -0.17551832917E+04  0.18294083128E+04  0.15294330000E+03 0.  0.
    8880022    1    1    2    0    0 -0.39733852570E+03 -0.29119895312E+03 -0.22884755373E+03  0.56430274691E+03  0.15294330000E+03 0.  1.
<mgrwt>
<rscale>  0 0.51581623E+03</rscale>
<asrwt>0</asrwt>
<pdfrwt beam="1">  1        2 0.33674936E+00 0.51581623E+03</pdfrwt>
<pdfrwt beam="2">  1       -2 0.31513864E-01 0.51581623E+03</pdfrwt>
<totfact> 0.52431412E+01</totfact>
</mgrwt>
</event>
<event>
 4    1  0.3365401E-008  0.9554237E+03  0.7818608E-02  0.9358833E-01
         -2   -1    0    0    0  501 -0.00000000000E+00  0.00000000000E+00  0.14181104824E+04  0.14181104824E+04  0.25500000000E-02 0.  1.
          2   -1    0    0  501    0  0.00000000000E+00 -0.00000000000E+00 -0.11773301402E+04  0.11773301402E+04  0.25500000000E-02 0. -1.
    8880022    1    1    2    0    0 -0.92022446614E+03  0.20646961298E+03  0.99407157528E+03  0.13787721780E+04  0.15294330000E+03 0.  0.
    8880022    1    1    2    0    0  0.92022446614E+03 -0.20646961298E+03 -0.75329123304E+03  0.12166684446E+04  0.15294330000E+03 0.  0.
<mgrwt>
<rscale>  0 0.95542369E+03</rscale>
<asrwt>0</asrwt>
<pdfrwt beam="1">  1        2 0.18112771E+00 0.95542369E+03</pdfrwt>
<pdfrwt beam="2">  1       -2 0.21817084E+00 0.95542369E+03</pdfrwt>
<totfact> 0.19823741E+00</totfact>
</mgrwt>
</event>
<event>
 4    1  0.3365401E-008  0.7248021E+03  0.7818608E-02  0.9675733E-01
          2   -1    0    0  501    0  0.00000000000E+00  0.00000000000E+00  0.84590135887E+03  0.84590135887E+03  0.25500000000E-02 0. -1.
         -2   -1    0    0    0  501 -0.00000000000E+00 -0.00000000000E+00 -0.77818674341E+03  0.77818674341E+03  0.25500000000E-02 0.  1.
    8880022    1    1    2    0    0  0.49648555090E+03  0.50541922907E+03  0.39877176204E+03  0.82725876882E+03  0.15294330000E+03 0.  0.
    8880022    1    1    2    0    0 -0.49648555090E+03 -0.50541922907E+03 -0.33105714658E+03  0.79682933347E+03  0.15294330000E+03 0.  0.
<mgrwt>
<rscale>  0 0.72480215E+03</rscale>
<asrwt>0</asrwt>
<pdfrwt beam="1">  1        2 0.13013867E+00 0.72480215E+03</pdfrwt>
<pdfrwt beam="2">  1       -2 0.11972104E+00 0.72480215E+03</pdfrwt>
<totfact> 0.17366901E+01</totfact>
</mgrwt>
</event>
<event>
 4    1  0.3365401E-008  0.5315149E+03  0.7818608E-02  0.1005865E+00
         -2   -1    0    0    0  501 -0.00000000000E+00  0.00000000000E+00  0.58446712025E+03  0.58446712026E+03  0.25500000000E-02 0.  1.
          2   -1    0    0  501    0  0.00000000000E+00 -0.00000000000E+00 -0.11010358990E+04  0.11010358990E+04  0.25500000000E-02 0. -1.
    8880022    1    1    2    0    0  0.25710289342E+03 -0.43933414005E+03  0.37293324225E+03  0.64929749776E+03  0.15294330000E+03 0.  0.
    8880022    1    1    2    0    0 -0.25710289342E+03  0.43933414005E+03 -0.88950202102E+03  0.10362055215E+04  0.15294330000E+03 0.  0.
<mgrwt>
<rscale>  0 0.53151485E+03</rscale>
<asrwt>0</asrwt>
<pdfrwt beam="1">  1        2 0.16939014E+00 0.53151485E+03</pdfrwt>
<pdfrwt beam="2">  1       -2 0.89918018E-01 0.53151485E+03</pdfrwt>
<totfact> 0.24091749E+01</totfact>
</mgrwt>
</event>
<event>
 4    1  0.3365401E-008  0.3793319E+03  0.7818608E-02  0.1051181E+00
          2   -1    0    0  501    0  0.00000000000E+00  0.00000000000E+00  0.80481275987E+03  0.80481275987E+03  0.25500000000E-02 0. -1.
         -2   -1    0    0    0  501 -0.00000000000E+00 -0.00000000000E+00 -0.18787240767E+03  0.18787240769E+03  0.25500000000E-02 0.  1.
    8880022    1    1    2    0    0  0.32935742469E+03 -0.10965729018E+03  0.41760017995E+03  0.56416539933E+03  0.15294330000E+03 0.  0.
    8880022    1    1    2    0    0 -0.32935742469E+03  0.10965729018E+03  0.19934017224E+03  0.42851976824E+03  0.15294330000E+03 0.  0.
<mgrwt>
<rscale>  0 0.37933190E+03</rscale>
<asrwt>0</asrwt>
<pdfrwt beam="1">  1        2 0.12381735E+00 0.37933190E+03</pdfrwt>
<pdfrwt beam="2">  1       -2 0.28903448E-01 0.37933190E+03</pdfrwt>
<totfact> 0.38481465E+02</totfact>
</mgrwt>
</event>
<event>
 4    1  0.3365401E-008  0.2932880E+03  0.7818608E-02  0.1088645E+00
         -2   -1    0    0    0  501 -0.00000000000E+00  0.00000000000E+00  0.15789466730E+03  0.15789466732E+03  0.25500000000E-02 0.  1.
          2   -1    0    0  501    0  0.00000000000E+00 -0.00000000000E+00 -0.22554193604E+04  0.22554193604E+04  0.25500000000E-02 0. -1.
    8880022    1    1    2    0    0 -0.11494748258E+03  0.22229102404E+03 -0.20996333394E+04  0.21200184046E+04  0.15294330000E+03 0.  0.
    8880022    1    1    2    0    0  0.11494748258E+03 -0.22229102404E+03  0.21086462731E+01  0.29329562309E+03  0.15294330000E+03 0.  1.
<mgrwt>
<rscale>  0 0.29328804E+03</rscale>
<asrwt>0</asrwt>
<pdfrwt beam="1">  1        2 0.34698757E+00 0.29328804E+03</pdfrwt>
<pdfrwt beam="2">  1       -2 0.24291489E-01 0.29328804E+03</pdfrwt>
<totfact> 0.81510165E+01</totfact>
</mgrwt>
</event>
<event>
 4    1  0.3365401E-008  0.4668801E+03  0.7818608E-02  0.1022804E+00
         -2   -1    0    0    0  501 -0.00000000000E+00  0.00000000000E+00  0.62183329577E+03  0.62183329578E+03  0.25500000000E-02 0.  1.
          2   -1    0    0  501    0  0.00000000000E+00 -0.00000000000E+00 -0.11274969560E+04  0.11274969560E+04  0.25500000000E-02 0. -1.
    8880022    1    1    2    0    0 -0.39134977835E+02 -0.43937888980E+03  0.47324536606E+03  0.66478431450E+03  0.15294330000E+03 0.  0.
    8880022    1    1    2    0    0  0.39134977835E+02  0.43937888980E+03 -0.97890902627E+03  0.10845459373E+04  0.15294330000E+03 0.  0.
<mgrwt>
<rscale>  0 0.46688008E+03</rscale>
<asrwt>0</asrwt>
<pdfrwt beam="1">  1        2 0.17346107E+00 0.46688008E+03</pdfrwt>
<pdfrwt beam="2">  1       -2 0.95666661E-01 0.46688008E+03</pdfrwt>
<totfact> 0.20342258E+01</totfact>
</mgrwt>
</event>
<event>
 4    1  0.3365401E-008  0.1273169E+04  0.7818608E-02  0.9051117E-01
          2   -1    0    0  501    0  0.00000000000E+00  0.00000000000E+00  0.29652864330E+04  0.29652864330E+04  0.25500000000E-02 0. -1.
         -2   -1    0    0    0  501 -0.00000000000E+00 -0.00000000000E+00 -0.60025070497E+03  0.60025070497E+03  0.25500000000E-02 0.  1.
    8880022    1    1    2    0    0 -0.98579662357E+03 -0.79105845786E+03  0.64975663957E+03  0.14293858158E+04  0.15294330000E+03 0.  0.
    8880022    1    1    2    0    0  0.98579662357E+03  0.79105845786E+03  0.17152790884E+04  0.21361513221E+04  0.15294330000E+03 0.  0.
<mgrwt>
<rscale>  0 0.12731693E+04</rscale>
<asrwt>0</asrwt>
<pdfrwt beam="1">  1        2 0.45619791E+00 0.12731693E+04</pdfrwt>
<pdfrwt beam="2">  1       -2 0.92346262E-01 0.12731693E+04</pdfrwt>
<totfact> 0.17897203E+00</totfact>
</mgrwt>
</event>
<event>
 4    1  0.3365401E-008  0.3898202E+03  0.7818608E-02  0.1047363E+00
         -2   -1    0    0    0  501 -0.00000000000E+00  0.00000000000E+00  0.68218972096E+03  0.68218972097E+03  0.25500000000E-02 0.  1.
          2   -1    0    0  501    0  0.00000000000E+00 -0.00000000000E+00 -0.45704550701E+03  0.45704550702E+03  0.25500000000E-02 0. -1.
    8880022    1    1    2    0    0  0.34084121113E+03 -0.11133451502E+03 -0.29526144699E+03  0.48901848690E+03  0.15294330000E+03 0.  0.
    8880022    1    1    2    0    0 -0.34084121113E+03  0.11133451502E+03  0.52040566094E+03  0.65021674109E+03  0.15294330000E+03 0.  1.
<mgrwt>
<rscale>  0 0.38982016E+03</rscale>
<asrwt>0</asrwt>
<pdfrwt beam="1">  1        2 0.70314693E-01 0.38982016E+03</pdfrwt>
<pdfrwt beam="2">  1       -2 0.10495226E+00 0.38982016E+03</pdfrwt>
<totfact> 0.52464056E+01</totfact>
</mgrwt>
</event>
<event>
 4    1  0.3365401E-008  0.6332039E+03  0.7818608E-02  0.9838817E-01
          2   -1    0    0  501    0  0.00000000000E+00  0.00000000000E+00  0.43614540788E+03  0.43614540789E+03  0.25500000000E-02 0. -1.
         -2   -1    0    0    0  501 -0.00000000000E+00 -0.00000000000E+00 -0.10224450065E+04  0.10224450065E+04  0.25500000000E-02 0.  1.
    8880022    1    1    2    0    0 -0.56739509491E+03 -0.23583526618E+03 -0.52479004645E+03  0.82240605078E+03  0.15294330000E+03 0.  0.
    8880022    1    1    2    0    0  0.56739509491E+03  0.23583526618E+03 -0.61509552185E+02  0.63618436363E+03  0.15294330000E+03 0.  0.
<mgrwt>
<rscale>  0 0.63320385E+03</rscale>
<asrwt>0</asrwt>
<pdfrwt beam="1">  1        2 0.67099294E-01 0.63320385E+03</pdfrwt>
<pdfrwt beam="2">  1       -2 0.15729923E+00 0.63320385E+03</pdfrwt>
<totfact> 0.19488187E+01</totfact>
</mgrwt>
</event>
<event>
 4    1  0.3365401E-008  0.7722063E+03  0.7818608E-02  0.9601142E-01
         -2   -1    0    0    0  501 -0.00000000000E+00  0.00000000000E+00  0.83056591214E+03  0.83056591214E+03  0.25500000000E-02 0.  1.
          2   -1    0    0  501    0  0.00000000000E+00 -0.00000000000E+00 -0.10829292277E+04  0.10829292277E+04  0.25500000000E-02 0. -1.
    8880022    1    1    2    0    0  0.13089528511E+03  0.74550480766E+03 -0.68161627574E+03  0.10300016477E+04  0.15294330000E+03 0.  0.
    8880022    1    1    2    0    0 -0.13089528511E+03 -0.74550480766E+03  0.42925296014E+03  0.88349349217E+03  0.15294330000E+03 0.  0.
<mgrwt>
<rscale>  0 0.77220635E+03</rscale>
<asrwt>0</asrwt>
<pdfrwt beam="1">  1        2 0.16660450E+00 0.77220635E+03</pdfrwt>
<pdfrwt beam="2">  1       -2 0.12777937E+00 0.77220635E+03</pdfrwt>
<totfact> 0.10285517E+01</totfact>
</mgrwt>
</event>
<event>
 4    1  0.3365401E-008  0.2062166E+03  0.7818608E-02  0.1144598E+00
         -2   -1    0    0    0  501 -0.00000000000E+00  0.00000000000E+00  0.26009610025E+03  0.26009610026E+03  0.25500000000E-02 0.  1.
          2   -1    0    0  501    0  0.00000000000E+00 -0.00000000000E+00 -0.12800071716E+04  0.12800071716E+04  0.25500000000E-02 0. -1.
    8880022    1    1    2    0    0 -0.12854228544E+03  0.51093253994E+02  0.20923625039E+03  0.29377729872E+03  0.15294330000E+03 0.  0.
    8880022    1    1    2    0    0  0.12854228544E+03 -0.51093253994E+02 -0.12291473218E+04  0.12463259732E+04  0.15294330000E+03 0. -1.
<mgrwt>
<rscale>  0 0.20621662E+03</rscale>
<asrwt>0</asrwt>
<pdfrwt beam="1">  1        2 0.19692418E+00 0.20621662E+03</pdfrwt>
<pdfrwt beam="2">  1       -2 0.40014785E-01 0.20621662E+03</pdfrwt>
<totfact> 0.11035372E+02</totfact>
</mgrwt>
</event>
<event>
 4    1  0.3365401E-008  0.6241550E+03  0.7818608E-02  0.9856522E-01
         -2   -1    0    0    0  501 -0.00000000000E+00  0.00000000000E+00  0.37122324914E+03  0.37122324915E+03  0.25500000000E-02 0.  1.
          2   -1    0    0  501    0  0.00000000000E+00 -0.00000000000E+00 -0.27839527195E+04  0.27839527195E+04  0.25500000000E-02 0. -1.
    8880022    1    1    2    0    0 -0.39597260781E+03  0.45758443641E+03  0.38877334250E+02  0.62536463181E+03  0.15294330000E+03 0.  1.
    8880022    1    1    2    0    0  0.39597260781E+03 -0.45758443641E+03 -0.24516068046E+04  0.25298113369E+04  0.15294330000E+03 0.  0.
<mgrwt>
<rscale>  0 0.62415501E+03</rscale>
<asrwt>0</asrwt>
<pdfrwt beam="1">  1        2 0.42830040E+00 0.62415501E+03</pdfrwt>
<pdfrwt beam="2">  1       -2 0.57111271E-01 0.62415501E+03</pdfrwt>
<totfact> 0.73708942E+00</totfact>
</mgrwt>
</event>
<event>
 4    1  0.3365401E-008  0.8865447E+03  0.7818608E-02  0.9442559E-01
          2   -1    0    0  501    0  0.00000000000E+00  0.00000000000E+00  0.69278498474E+03  0.69278498474E+03  0.25500000000E-02 0. -1.
         -2   -1    0    0    0  501 -0.00000000000E+00 -0.00000000000E+00 -0.17482028998E+04  0.17482028998E+04  0.25500000000E-02 0.  1.
    8880022    1    1    2    0    0 -0.72331294827E+03  0.48927312571E+03 -0.12508456204E+04  0.15331589063E+04  0.15294330000E+03 0.  0.
    8880022    1    1    2    0    0  0.72331294827E+03 -0.48927312571E+03  0.19542770540E+03  0.90782897824E+03  0.15294330000E+03 0.  0.
<mgrwt>
<rscale>  0 0.88654468E+03</rscale>
<asrwt>0</asrwt>
<pdfrwt beam="1">  1        2 0.10658231E+00 0.88654468E+03</pdfrwt>
<pdfrwt beam="2">  1       -2 0.26895429E+00 0.88654468E+03</pdfrwt>
<totfact> 0.20723600E+00</totfact>
</mgrwt>
</event>
<event>
 4    1  0.3365401E-008  0.2393464E+03  0.7818608E-02  0.1120229E+00
          2   -1    0    0  501    0  0.00000000000E+00  0.00000000000E+00  0.19628742148E+04  0.19628742148E+04  0.25500000000E-02 0. -1.
         -2   -1    0    0    0  501 -0.00000000000E+00 -0.00000000000E+00 -0.22642730607E+03  0.22642730609E+03  0.25500000000E-02 0.  1.
    8880022    1    1    2    0    0 -0.22637635021E+02  0.18270903214E+03 -0.15344761241E+03  0.28431123037E+03  0.15294330000E+03 0.  0.
    8880022    1    1    2    0    0  0.22637635021E+02 -0.18270903214E+03  0.18898945211E+04  0.19049902905E+04  0.15294330000E+03 0. -1.
<mgrwt>
<rscale>  0 0.23934641E+03</rscale>
<asrwt>0</asrwt>
<pdfrwt beam="1">  1        2 0.30198064E+00 0.23934641E+03</pdfrwt>
<pdfrwt beam="2">  1       -2 0.34834972E-01 0.23934641E+03</pdfrwt>
<totfact> 0.61637819E+01</totfact>
</mgrwt>
</event>
<event>
 4    1  0.3365401E-008  0.1580661E+03  0.7818608E-02  0.1190898E+00
          2   -1    0    0  501    0  0.00000000000E+00  0.00000000000E+00  0.13565883220E+04  0.13565883220E+04  0.25500000000E-02 0. -1.
         -2   -1    0    0    0  501 -0.00000000000E+00 -0.00000000000E+00 -0.52963054721E+02  0.52963054783E+02  0.25500000000E-02 0.  1.
    8880022    1    1    2    0    0 -0.22360134469E+02  0.33064417281E+02  0.82617913555E+02  0.17835527455E+03  0.15294330000E+03 0.  0.
    8880022    1    1    2    0    0  0.22360134469E+02 -0.33064417281E+02  0.12210073537E+04  0.12311961022E+04  0.15294330000E+03 0. -1.
<mgrwt>
<rscale>  0 0.15806608E+03</rscale>
<asrwt>0</asrwt>
<pdfrwt beam="1">  1        2 0.20870589E+00 0.15806608E+03</pdfrwt>
<pdfrwt beam="2">  1       -2 0.81481626E-02 0.15806608E+03</pdfrwt>
<totfact> 0.15062087E+03</totfact>
</mgrwt>
</event>
<event>
 4    1  0.3365401E-008  0.7652450E+03  0.7818608E-02  0.9611732E-01
         -2   -1    0    0    0  501 -0.00000000000E+00  0.00000000000E+00  0.54231549752E+03  0.54231549753E+03  0.25500000000E-02 0.  1.
          2   -1    0    0  501    0  0.00000000000E+00 -0.00000000000E+00 -0.14599431052E+04  0.14599431052E+04  0.25500000000E-02 0. -1.
    8880022    1    1    2    0    0 -0.47256528509E+03 -0.58214279997E+03 -0.96965721398E+03  0.12352469202E+04  0.15294330000E+03 0. -1.
    8880022    1    1    2    0    0  0.47256528509E+03  0.58214279997E+03  0.52029606276E+02  0.76701168255E+03  0.15294330000E+03 0.  0.
<mgrwt>
<rscale>  0 0.76524496E+03</rscale>
<asrwt>0</asrwt>
<pdfrwt beam="1">  1        2 0.22460663E+00 0.76524496E+03</pdfrwt>
<pdfrwt beam="2">  1       -2 0.83433154E-01 0.76524496E+03</pdfrwt>
<totfact> 0.17174079E+01</totfact>
</mgrwt>
</event>
<event>
 4    1  0.3365401E-008  0.5674727E+03  0.7818608E-02  0.9975287E-01
         -2   -1    0    0    0  501 -0.00000000000E+00  0.00000000000E+00  0.15663173560E+03  0.15663173562E+03  0.25500000000E-02 0.  1.
          2   -1    0    0  501    0  0.00000000000E+00 -0.00000000000E+00 -0.25596887151E+04  0.25596887151E+04  0.25500000000E-02 0. -1.
    8880022    1    1    2    0    0  0.20195907624E+03  0.50778556993E+03 -0.59901773590E+03  0.82513487046E+03  0.15294330000E+03 0.  0.
    8880022    1    1    2    0    0 -0.20195907624E+03 -0.50778556993E+03 -0.18040392436E+04  0.18911855802E+04  0.15294330000E+03 0.  0.
<mgrwt>
<rscale>  0 0.56747274E+03</rscale>
<asrwt>0</asrwt>
<pdfrwt beam="1">  1        2 0.39379823E+00 0.56747274E+03</pdfrwt>
<pdfrwt beam="2">  1       -2 0.24097192E-01 0.56747274E+03</pdfrwt>
<totfact> 0.52768658E+01</totfact>
</mgrwt>
</event>
<event>
 4    1  0.3365401E-008  0.4553711E+03  0.7818608E-02  0.1026132E+00
          2   -1    0    0  501    0  0.00000000000E+00  0.00000000000E+00  0.14862476167E+04  0.14862476167E+04  0.25500000000E-02 0. -1.
         -2   -1    0    0    0  501 -0.00000000000E+00 -0.00000000000E+00 -0.88291115583E+03  0.88291115583E+03  0.25500000000E-02 0.  1.
    8880022    1    1    2    0    0 -0.40900218088E+03  0.12918368445E+03  0.13886294521E+04  0.14613879076E+04  0.15294330000E+03 0.  0.
    8880022    1    1    2    0    0  0.40900218088E+03 -0.12918368445E+03 -0.78529299117E+03  0.90777086497E+03  0.15294330000E+03 0.  0.
<mgrwt>
<rscale>  0 0.45537112E+03</rscale>
<asrwt>0</asrwt>
<pdfrwt beam="1">  1        2 0.22865348E+00 0.45537112E+03</pdfrwt>
<pdfrwt beam="2">  1       -2 0.13583249E+00 0.45537112E+03</pdfrwt>
<totfact> 0.54462895E+00</totfact>
</mgrwt>
</event>
<event>
 4    1  0.3365401E-008  0.3957450E+03  0.7818608E-02  0.1045263E+00
         -2   -1    0    0    0  501 -0.00000000000E+00  0.00000000000E+00  0.19017228009E+03  0.19017228011E+03  0.25500000000E-02 0.  1.
          2   -1    0    0  501    0  0.00000000000E+00 -0.00000000000E+00 -0.11344553582E+04  0.11344553582E+04  0.25500000000E-02 0. -1.
    8880022    1    1    2    0    0 -0.13565655634E+03  0.33885058587E+03 -0.12541052559E+03  0.41514078788E+03  0.15294330000E+03 0.  0.
    8880022    1    1    2    0    0  0.13565655634E+03 -0.33885058587E+03 -0.81887255252E+03  0.90948685043E+03  0.15294330000E+03 0.  0.
<mgrwt>
<rscale>  0 0.39574496E+03</rscale>
<asrwt>0</asrwt>
<pdfrwt beam="1">  1        2 0.17453159E+00 0.39574496E+03</pdfrwt>
<pdfrwt beam="2">  1       -2 0.29257275E-01 0.39574496E+03</pdfrwt>
<totfact> 0.23173311E+02</totfact>
</mgrwt>
</event>
<event>
 4    1  0.3365401E-008  0.7869988E+03  0.7818608E-02  0.9579029E-01
          2   -1    0    0  501    0  0.00000000000E+00  0.00000000000E+00  0.83205343619E+03  0.83205343619E+03  0.25500000000E-02 0. -1.
         -2   -1    0    0    0  501 -0.00000000000E+00 -0.00000000000E+00 -0.14904650241E+04  0.14904650241E+04  0.25500000000E-02 0.  1.
    8880022    1    1    2    0    0  0.45938656931E+03  0.62043488901E+03  0.49239590878E+03  0.92834306997E+03  0.15294330000E+03 0.  0.
    8880022    1    1    2    0    0 -0.45938656931E+03 -0.62043488901E+03 -0.11508074967E+04  0.13941753904E+04  0.15294330000E+03 0.  0.
<mgrwt>
<rscale>  0 0.78699881E+03</rscale>
<asrwt>0</asrwt>
<pdfrwt beam="1">  1        2 0.12800822E+00 0.78699881E+03</pdfrwt>
<pdfrwt beam="2">  1       -2 0.22930231E+00 0.78699881E+03</pdfrwt>
<totfact> 0.28840601E+00</totfact>
</mgrwt>
</event>
<event>
 4    1  0.3365401E-008  0.3029499E+03  0.7818608E-02  0.1083775E+00
          2   -1    0    0  501    0  0.00000000000E+00  0.00000000000E+00  0.15649943127E+04  0.15649943127E+04  0.25500000000E-02 0. -1.
         -2   -1    0    0    0  501 -0.00000000000E+00 -0.00000000000E+00 -0.29850740612E+03  0.29850740614E+03  0.25500000000E-02 0.  1.
    8880022    1    1    2    0    0  0.18946330450E+03 -0.18025166386E+03 -0.20198174779E+03  0.36410889241E+03  0.15294330000E+03 0.  0.
    8880022    1    1    2    0    0 -0.18946330450E+03  0.18025166386E+03  0.14684686544E+04  0.14993928264E+04  0.15294330000E+03 0. -1.
<mgrwt>
<rscale>  0 0.30294993E+03</rscale>
<asrwt>0</asrwt>
<pdfrwt beam="1">  1        2 0.24076836E+00 0.30294993E+03</pdfrwt>
<pdfrwt beam="2">  1       -2 0.45924215E-01 0.30294993E+03</pdfrwt>
<totfact> 0.57635952E+01</totfact>
</mgrwt>
</event>
<event>
 4    1  0.3365401E-008  0.6418499E+03  0.7818608E-02  0.9822194E-01
          2   -1    0    0  501    0  0.00000000000E+00  0.00000000000E+00  0.40001519329E+03  0.40001519330E+03  0.25500000000E-02 0. -1.
         -2   -1    0    0    0  501 -0.00000000000E+00 -0.00000000000E+00 -0.10856575981E+04  0.10856575982E+04  0.25500000000E-02 0.  1.
    8880022    1    1    2    0    0 -0.55720684340E+03 -0.27946415541E+03 -0.17446048727E+03  0.66513742574E+03  0.15294330000E+03 0.  0.
    8880022    1    1    2    0    0  0.55720684340E+03  0.27946415541E+03 -0.51118191759E+03  0.82053536571E+03  0.15294330000E+03 0.  0.
<mgrwt>
<rscale>  0 0.64184993E+03</rscale>
<asrwt>0</asrwt>
<pdfrwt beam="1">  1        2 0.61540799E-01 0.64184993E+03</pdfrwt>
<pdfrwt beam="2">  1       -2 0.16702424E+00 0.64184993E+03</pdfrwt>
<totfact> 0.18237903E+01</totfact>
</mgrwt>
</event>
<event>
 4    1  0.3365401E-008  0.4095616E+03  0.7818608E-02  0.1040518E+00
          2   -1    0    0  501    0  0.00000000000E+00  0.00000000000E+00  0.12738633878E+04  0.12738633878E+04  0.25500000000E-02 0. -1.
         -2   -1    0    0    0  501 -0.00000000000E+00 -0.00000000000E+00 -0.19830388591E+03  0.19830388592E+03  0.25500000000E-02 0.  1.
    8880022    1    1    2    0    0 -0.16163712209E+03 -0.34383503286E+03  0.11112106031E+03  0.42436850981E+03  0.15294330000E+03 0.  0.
    8880022    1    1    2    0    0  0.16163712209E+03  0.34383503286E+03  0.96443844160E+03  0.10477987639E+04  0.15294330000E+03 0.  0.
<mgrwt>
<rscale>  0 0.40956165E+03</rscale>
<asrwt>0</asrwt>
<pdfrwt beam="1">  1        2 0.19597899E+00 0.40956165E+03</pdfrwt>
<pdfrwt beam="2">  1       -2 0.30508289E-01 0.40956165E+03</pdfrwt>
<totfact> 0.17792808E+02</totfact>
</mgrwt>
</event>
<event>
 4    1  0.3365401E-008  0.9446871E+03  0.7818608E-02  0.9371382E-01
         -2   -1    0    0    0  501 -0.00000000000E+00  0.00000000000E+00  0.81695368712E+03  0.81695368713E+03  0.25500000000E-02 0.  1.
          2   -1    0    0  501    0  0.00000000000E+00 -0.00000000000E+00 -0.20716071874E+04  0.20716071874E+04  0.25500000000E-02 0. -1.
    8880022    1    1    2    0    0  0.76450655713E+03  0.53345269984E+03  0.36564497874E+03  0.10129807315E+04  0.15294330000E+03 0.  0.
    8880022    1    1    2    0    0 -0.76450655713E+03 -0.53345269984E+03 -0.16202984790E+04  0.18755801430E+04  0.15294330000E+03 0.  0.
<mgrwt>
<rscale>  0 0.94468710E+03</rscale>
<asrwt>0</asrwt>
<pdfrwt beam="1">  1        2 0.31870880E+00 0.94468710E+03</pdfrwt>
<pdfrwt beam="2">  1       -2 0.12568518E+00 0.94468710E+03</pdfrwt>
<totfact> 0.29031214E+00</totfact>
</mgrwt>
</event>
<event>
 4    1  0.3365401E-008  0.2471804E+03  0.7818608E-02  0.1115100E+00
          2   -1    0    0  501    0  0.00000000000E+00  0.00000000000E+00  0.11728572434E+03  0.11728572437E+03  0.25500000000E-02 0. -1.
         -2   -1    0    0    0  501 -0.00000000000E+00 -0.00000000000E+00 -0.20036354017E+04  0.20036354017E+04  0.25500000000E-02 0.  1.
    8880022    1    1    2    0    0  0.17072374397E+03 -0.92519598966E+02 -0.30928733875E+02  0.24910783316E+03  0.15294330000E+03 0. -1.
    8880022    1    1    2    0    0 -0.17072374397E+03  0.92519598966E+02 -0.18554209435E+04  0.18718132929E+04  0.15294330000E+03 0.  0.
<mgrwt>
<rscale>  0 0.24718035E+03</rscale>
<asrwt>0</asrwt>
<pdfrwt beam="1">  1        2 0.18043959E-01 0.24718035E+03</pdfrwt>
<pdfrwt beam="2">  1       -2 0.30825157E+00 0.24718035E+03</pdfrwt>
<totfact> 0.10346489E+01</totfact>
</mgrwt>
</event>
<event>
 4    1  0.3365401E-008  0.3272114E+03  0.7818608E-02  0.1072377E+00
         -2   -1    0    0    0  501 -0.00000000000E+00  0.00000000000E+00  0.18827653769E+03  0.18827653771E+03  0.25500000000E-02 0.  1.
          2   -1    0    0  501    0  0.00000000000E+00 -0.00000000000E+00 -0.72225072516E+03  0.72225072517E+03  0.25500000000E-02 0. -1.
    8880022    1    1    2    0    0 -0.24154034891E+03 -0.15916619031E+03 -0.57051082277E+02  0.33214770102E+03  0.15294330000E+03 0.  1.
    8880022    1    1    2    0    0  0.24154034891E+03  0.15916619031E+03 -0.47692310519E+03  0.57837956186E+03  0.15294330000E+03 0.  0.
<mgrwt>
<rscale>  0 0.32721135E+03</rscale>
<asrwt>0</asrwt>
<pdfrwt beam="1">  1        2 0.11111550E+00 0.32721135E+03</pdfrwt>
<pdfrwt beam="2">  1       -2 0.28965621E-01 0.32721135E+03</pdfrwt>
<totfact> 0.44118671E+02</totfact>
</mgrwt>
</event>
<event>
 4    1  0.3365401E-008  0.1811331E+03  0.7818608E-02  0.1166711E+00
         -2   -1    0    0    0  501 -0.00000000000E+00  0.00000000000E+00  0.27130189073E+03  0.27130189074E+03  0.25500000000E-02 0.  1.
          2   -1    0    0  501    0  0.00000000000E+00 -0.00000000000E+00 -0.12449015764E+04  0.12449015764E+04  0.25500000000E-02 0. -1.
    8880022    1    1    2    0    0  0.32225425224E+02  0.91537222193E+02  0.23353957112E+03  0.29555020787E+03  0.15294330000E+03 0.  0.
    8880022    1    1    2    0    0 -0.32225425224E+02 -0.91537222193E+02 -0.12071392568E+04  0.12206532593E+04  0.15294330000E+03 0. -1.
<mgrwt>
<rscale>  0 0.18113308E+03</rscale>
<asrwt>0</asrwt>
<pdfrwt beam="1">  1        2 0.19152332E+00 0.18113308E+03</pdfrwt>
<pdfrwt beam="2">  1       -2 0.41738753E-01 0.18113308E+03</pdfrwt>
<totfact> 0.10727486E+02</totfact>
</mgrwt>
</event>
<event>
 4    1  0.3365401E-008  0.1146754E+04  0.7818608E-02  0.9160783E-01
          2   -1    0    0  501    0  0.00000000000E+00  0.00000000000E+00  0.28039761640E+04  0.28039761640E+04  0.25500000000E-02 0. -1.
         -2   -1    0    0    0  501 -0.00000000000E+00 -0.00000000000E+00 -0.12866840146E+04  0.12866840146E+04  0.25500000000E-02 0.  1.
    8880022    1    1    2    0    0  0.32206029175E+03  0.10899221165E+04 -0.87185884542E+03  0.14405493921E+04  0.15294330000E+03 0.  0.
    8880022    1    1    2    0    0 -0.32206029175E+03 -0.10899221165E+04  0.23891509948E+04  0.26501107865E+04  0.15294330000E+03 0.  0.
<mgrwt>
<rscale>  0 0.11467540E+04</rscale>
<asrwt>0</asrwt>
<pdfrwt beam="1">  1        2 0.43138094E+00 0.11467540E+04</pdfrwt>
<pdfrwt beam="2">  1       -2 0.19795139E+00 0.11467540E+04</pdfrwt>
<totfact> 0.31169955E-01</totfact>
</mgrwt>
</event>
<event>
 4    1  0.3365401E-008  0.2031383E+03  0.7818608E-02  0.1147118E+00
          2   -1    0    0  501    0  0.00000000000E+00  0.00000000000E+00  0.85516399968E+03  0.85516399968E+03  0.25500000000E-02 0. -1.
         -2   -1    0    0    0  501 -0.00000000000E+00 -0.00000000000E+00 -0.31105333313E+03  0.31105333314E+03  0.25500000000E-02 0.  1.
    8880022    1    1    2    0    0 -0.12852214434E+03 -0.36818285156E+02 -0.26391913493E+03  0.33304427709E+03  0.15294330000E+03 0.  0.
    8880022    1    1    2    0    0  0.12852214434E+03  0.36818285156E+02  0.80802980148E+03  0.83317305573E+03  0.15294330000E+03 0.  0.
<mgrwt>
<rscale>  0 0.20313833E+03</rscale>
<asrwt>0</asrwt>
<pdfrwt beam="1">  1        2 0.13156369E+00 0.20313833E+03</pdfrwt>
<pdfrwt beam="2">  1       -2 0.47854359E-01 0.20313833E+03</pdfrwt>
<totfact> 0.13970028E+02</totfact>
</mgrwt>
</event>
<event>
 4    1  0.3365401E-008  0.2876294E+03  0.7818608E-02  0.1091593E+00
         -2   -1    0    0    0  501 -0.00000000000E+00  0.00000000000E+00  0.82137732686E+02  0.82137732726E+02  0.25500000000E-02 0.  1.
          2   -1    0    0  501    0  0.00000000000E+00 -0.00000000000E+00 -0.21869810079E+04  0.21869810079E+04  0.25500000000E-02 0. -1.
    8880022    1    1    2    0    0 -0.13300518718E+03  0.20408003231E+03 -0.18857226468E+04  0.19075325929E+04  0.15294330000E+03 0.  0.
    8880022    1    1    2    0    0  0.13300518718E+03 -0.20408003231E+03 -0.21912062844E+03  0.36158614773E+03  0.15294330000E+03 0.  1.
<mgrwt>
<rscale>  0 0.28762944E+03</rscale>
<asrwt>0</asrwt>
<pdfrwt beam="1">  1        2 0.33645857E+00 0.28762944E+03</pdfrwt>
<pdfrwt beam="2">  1       -2 0.12636576E-01 0.28762944E+03</pdfrwt>
<totfact> 0.26869382E+02</totfact>
</mgrwt>
</event>
<event>
 4    1  0.3365401E-008  0.9254040E+03  0.7818608E-02  0.9394371E-01
          2   -1    0    0  501    0  0.00000000000E+00  0.00000000000E+00  0.24912126832E+04  0.24912126832E+04  0.25500000000E-02 0. -1.
         -2   -1    0    0    0  501 -0.00000000000E+00 -0.00000000000E+00 -0.39044239211E+03  0.39044239212E+03  0.25500000000E-02 0.  1.
    8880022    1    1    2    0    0 -0.90272196582E+03  0.13443940917E+03  0.55216347922E+03  0.10776163803E+04  0.15294330000E+03 0.  0.
    8880022    1    1    2    0    0  0.90272196582E+03 -0.13443940917E+03  0.15486068118E+04  0.18040386950E+04  0.15294330000E+03 0.  0.
<mgrwt>
<rscale>  0 0.92540400E+03</rscale>
<asrwt>0</asrwt>
<pdfrwt beam="1">  1        2 0.38326349E+00 0.92540400E+03</pdfrwt>
<pdfrwt beam="2">  1       -2 0.60068061E-01 0.92540400E+03</pdfrwt>
<totfact> 0.92946679E+00</totfact>
</mgrwt>
</event>
<event>
 4    1  0.3365401E-008  0.2148534E+03  0.7818608E-02  0.1137779E+00
         -2   -1    0    0    0  501 -0.00000000000E+00  0.00000000000E+00  0.54394220555E+03  0.54394220555E+03  0.25500000000E-02 0.  1.
          2   -1    0    0  501    0  0.00000000000E+00 -0.00000000000E+00 -0.21629537018E+03  0.21629537020E+03  0.25500000000E-02 0. -1.
    8880022    1    1    2    0    0  0.13105551308E+03 -0.74798326408E+02  0.46013086862E+03  0.50782123471E+03  0.15294330000E+03 0.  0.
    8880022    1    1    2    0    0 -0.13105551308E+03  0.74798326408E+02 -0.13248403326E+03  0.25241634104E+03  0.15294330000E+03 0. -1.
<mgrwt>
<rscale>  0 0.21485342E+03</rscale>
<asrwt>0</asrwt>
<pdfrwt beam="1">  1        2 0.33276211E-01 0.21485342E+03</pdfrwt>
<pdfrwt beam="2">  1       -2 0.83683416E-01 0.21485342E+03</pdfrwt>
<totfact> 0.20321116E+02</totfact>
</mgrwt>
</event>
<event>
 4    1  0.3365401E-008  0.7831304E+03  0.7818608E-02  0.9584761E-01
          2   -1    0    0  501    0  0.00000000000E+00  0.00000000000E+00  0.97307969352E+03  0.97307969352E+03  0.25500000000E-02 0. -1.
         -2   -1    0    0    0  501 -0.00000000000E+00 -0.00000000000E+00 -0.13929051232E+04  0.13929051232E+04  0.25500000000E-02 0.  1.
    8880022    1    1    2    0    0 -0.75543430893E+03 -0.13863845554E+03  0.66543866444E+03  0.10276681787E+04  0.15294330000E+03 0.  0.
    8880022    1    1    2    0    0  0.75543430893E+03  0.13863845554E+03 -0.10852640941E+04  0.13383166380E+04  0.15294330000E+03 0.  0.
<mgrwt>
<rscale>  0 0.78313043E+03</rscale>
<asrwt>0</asrwt>
<pdfrwt beam="1">  1        2 0.14970457E+00 0.78313043E+03</pdfrwt>
<pdfrwt beam="2">  1       -2 0.21429310E+00 0.78313043E+03</pdfrwt>
<totfact> 0.28775554E+00</totfact>
</mgrwt>
</event>
<event>
 4    1  0.3365401E-008  0.6297579E+03  0.7818608E-02  0.9845521E-01
          2   -1    0    0  501    0  0.00000000000E+00  0.00000000000E+00  0.76334410469E+03  0.76334410469E+03  0.25500000000E-02 0. -1.
         -2   -1    0    0    0  501 -0.00000000000E+00 -0.00000000000E+00 -0.59062775728E+03  0.59062775728E+03  0.25500000000E-02 0.  1.
    8880022    1    1    2    0    0  0.11213117353E+03 -0.60052474766E+03  0.32120851270E+03  0.70694408143E+03  0.15294330000E+03 0.  0.
    8880022    1    1    2    0    0 -0.11213117353E+03  0.60052474766E+03 -0.14849216529E+03  0.64702778054E+03  0.15294330000E+03 0.  0.
<mgrwt>
<rscale>  0 0.62975791E+03</rscale>
<asrwt>0</asrwt>
<pdfrwt beam="1">  1        2 0.11743755E+00 0.62975791E+03</pdfrwt>
<pdfrwt beam="2">  1       -2 0.90865809E-01 0.62975791E+03</pdfrwt>
<totfact> 0.38816684E+01</totfact>
</mgrwt>
</event>
<event>
 4    1  0.3365401E-008  0.6762339E+03  0.7818608E-02  0.9758761E-01
         -2   -1    0    0    0  501 -0.00000000000E+00  0.00000000000E+00  0.66874905445E+03  0.66874905446E+03  0.25500000000E-02 0.  1.
          2   -1    0    0  501    0  0.00000000000E+00 -0.00000000000E+00 -0.12649495826E+04  0.12649495826E+04  0.25500000000E-02 0. -1.
    8880022    1    1    2    0    0  0.55915412473E+03 -0.34820579750E+03 -0.95343807151E+03  0.11689039404E+04  0.15294330000E+03 0. -1.
    8880022    1    1    2    0    0 -0.55915412473E+03  0.34820579750E+03  0.35723754339E+03  0.76479469666E+03  0.15294330000E+03 0.  0.
<mgrwt>
<rscale>  0 0.67623388E+03</rscale>
<asrwt>0</asrwt>
<pdfrwt beam="1">  1        2 0.19460763E+00 0.67623388E+03</pdfrwt>
<pdfrwt beam="2">  1       -2 0.10288447E+00 0.67623388E+03</pdfrwt>
<totfact> 0.13781158E+01</totfact>
</mgrwt>
</event>
<event>
 4    1  0.3365401E-008  0.1095745E+04  0.7818608E-02  0.9209349E-01
          2   -1    0    0  501    0  0.00000000000E+00  0.00000000000E+00  0.17308133784E+04  0.17308133784E+04  0.25500000000E-02 0. -1.
         -2   -1    0    0    0  501 -0.00000000000E+00 -0.00000000000E+00 -0.97950348903E+03  0.97950348904E+03  0.25500000000E-02 0.  1.
    8880022    1    1    2    0    0 -0.88905732349E+03  0.62196588793E+03  0.11076781275E+04  0.15580779754E+04  0.15294330000E+03 0.  0.
    8880022    1    1    2    0    0  0.88905732349E+03 -0.62196588793E+03 -0.35636823813E+03  0.11522388921E+04  0.15294330000E+03 0.  0.
<mgrwt>
<rscale>  0 0.10957446E+04</rscale>
<asrwt>0</asrwt>
<pdfrwt beam="1">  1        2 0.26627898E+00 0.10957446E+04</pdfrwt>
<pdfrwt beam="2">  1       -2 0.15069285E+00 0.10957446E+04</pdfrwt>
<totfact> 0.27435327E+00</totfact>
</mgrwt>
</event>
<event>
 4    1  0.3365401E-008  0.6596270E+03  0.7818608E-02  0.9788881E-01
          2   -1    0    0  501    0  0.00000000000E+00  0.00000000000E+00  0.14412277828E+04  0.14412277828E+04  0.25500000000E-02 0. -1.
         -2   -1    0    0    0  501 -0.00000000000E+00 -0.00000000000E+00 -0.86688981645E+03  0.86688981645E+03  0.25500000000E-02 0.  1.
    8880022    1    1    2    0    0 -0.48083365724E+03 -0.42487073128E+03 -0.64450934826E+03  0.92222562166E+03  0.15294330000E+03 0.  0.
    8880022    1    1    2    0    0  0.48083365724E+03  0.42487073128E+03  0.12188473146E+04  0.13858919776E+04  0.15294330000E+03 0.  0.
<mgrwt>
<rscale>  0 0.65962701E+03</rscale>
<asrwt>0</asrwt>
<pdfrwt beam="1">  1        2 0.22172735E+00 0.65962701E+03</pdfrwt>
<pdfrwt beam="2">  1       -2 0.13336766E+00 0.65962701E+03</pdfrwt>
<totfact> 0.57958782E+00</totfact>
</mgrwt>
</event>
<event>
 4    1  0.3365401E-008  0.6571630E+03  0.7818608E-02  0.9793430E-01
          2   -1    0    0  501    0  0.00000000000E+00  0.00000000000E+00  0.46196481790E+03  0.46196481791E+03  0.25500000000E-02 0. -1.
         -2   -1    0    0    0  501 -0.00000000000E+00 -0.00000000000E+00 -0.11976743442E+04  0.11976743442E+04  0.25500000000E-02 0.  1.
    8880022    1    1    2    0    0  0.63552474427E+03  0.67675103584E+02  0.20881641611E+02  0.65749472712E+03  0.15294330000E+03 0.  0.
    8880022    1    1    2    0    0 -0.63552474427E+03 -0.67675103584E+02 -0.75659116792E+03  0.10021444350E+04  0.15294330000E+03 0.  0.
<mgrwt>
<rscale>  0 0.65716305E+03</rscale>
<asrwt>0</asrwt>
<pdfrwt beam="1">  1        2 0.71071511E-01 0.65716305E+03</pdfrwt>
<pdfrwt beam="2">  1       -2 0.18425759E+00 0.65716305E+03</pdfrwt>
<totfact> 0.11748369E+01</totfact>
</mgrwt>
</event>
<event>
 4    1  0.3365401E-008  0.4197491E+03  0.7818608E-02  0.1037148E+00
          2   -1    0    0  501    0  0.00000000000E+00  0.00000000000E+00  0.33984216929E+04  0.33984216929E+04  0.25500000000E-02 0. -1.
         -2   -1    0    0    0  501 -0.00000000000E+00 -0.00000000000E+00 -0.55028704999E+02  0.55028705058E+02  0.25500000000E-02 0.  1.
    8880022    1    1    2    0    0 -0.38233258466E+03 -0.81360246264E+02  0.12563298568E+04  0.13245958090E+04  0.15294330000E+03 0.  0.
    8880022    1    1    2    0    0  0.38233258466E+03  0.81360246264E+02  0.20870631311E+04  0.21288545890E+04  0.15294330000E+03 0.  0.
<mgrwt>
<rscale>  0 0.41974915E+03</rscale>
<asrwt>0</asrwt>
<pdfrwt beam="1">  1        2 0.52283413E+00 0.41974915E+03</pdfrwt>
<pdfrwt beam="2">  1       -2 0.84659542E-02 0.41974915E+03</pdfrwt>
<totfact> 0.97759683E+01</totfact>
</mgrwt>
</event>
<event>
 4    1  0.3365401E-008  0.4597788E+03  0.7818608E-02  0.1024845E+00
         -2   -1    0    0    0  501 -0.00000000000E+00  0.00000000000E+00  0.13944131762E+03  0.13944131764E+03  0.25500000000E-02 0.  1.
          2   -1    0    0  501    0  0.00000000000E+00 -0.00000000000E+00 -0.27036703235E+04  0.27036703235E+04  0.25500000000E-02 0. -1.
    8880022    1    1    2    0    0 -0.27176145064E+03  0.33786187474E+03 -0.33994216083E+03  0.57180176476E+03  0.15294330000E+03 0.  0.
    8880022    1    1    2    0    0  0.27176145064E+03 -0.33786187474E+03 -0.22242868451E+04  0.22713098764E+04  0.15294330000E+03 0.  0.
<mgrwt>
<rscale>  0 0.45977884E+03</rscale>
<asrwt>0</asrwt>
<pdfrwt beam="1">  1        2 0.41594924E+00 0.45977884E+03</pdfrwt>
<pdfrwt beam="2">  1       -2 0.21452512E-01 0.45977884E+03</pdfrwt>
<totfact> 0.54833884E+01</totfact>
</mgrwt>
</event>
<event>
 4    1  0.3365401E-008  0.1922547E+03  0.7818608E-02  0.1156443E+00
          2   -1    0    0  501    0  0.00000000000E+00  0.00000000000E+00  0.51449070863E+03  0.51449070863E+03  0.25500000000E-02 0. -1.
         -2   -1    0    0    0  501 -0.00000000000E+00 -0.00000000000E+00 -0.55580274995E+03  0.55580274995E+03  0.25500000000E-02 0.  1.
    8880022    1    1    2    0    0 -0.86244652791E+01 -0.11617152880E+03  0.47870858854E+03  0.51587185547E+03  0.15294330000E+03 0. -1.
    8880022    1    1    2    0    0  0.86244652791E+01  0.11617152880E+03 -0.52002062986E+03  0.55442160312E+03  0.15294330000E+03 0.  0.
<mgrwt>
<rscale>  0 0.19225467E+03</rscale>
<asrwt>0</asrwt>
<pdfrwt beam="1">  1        2 0.79152416E-01 0.19225467E+03</pdfrwt>
<pdfrwt beam="2">  1       -2 0.85508116E-01 0.19225467E+03</pdfrwt>
<totfact> 0.75915242E+01</totfact>
</mgrwt>
</event>
<event>
 4    1  0.3365401E-008  0.9398646E+03  0.7818608E-02  0.9377076E-01
         -2   -1    0    0    0  501 -0.00000000000E+00  0.00000000000E+00  0.15697411727E+04  0.15697411727E+04  0.25500000000E-02 0.  1.
          2   -1    0    0  501    0  0.00000000000E+00 -0.00000000000E+00 -0.12539431828E+04  0.12539431828E+04  0.25500000000E-02 0. -1.
    8880022    1    1    2    0    0 -0.41381933506E+03  0.82988392370E+03  0.12061184930E+04  0.15290739816E+04  0.15294330000E+03 0.  0.
    8880022    1    1    2    0    0  0.41381933506E+03 -0.82988392370E+03 -0.89032050314E+03  0.12946103739E+04  0.15294330000E+03 0.  0.
<mgrwt>
<rscale>  0 0.93986458E+03</rscale>
<asrwt>0</asrwt>
<pdfrwt beam="1">  1        2 0.19291434E+00 0.93986458E+03</pdfrwt>
<pdfrwt beam="2">  1       -2 0.24149864E+00 0.93986458E+03</pdfrwt>
<totfact> 0.12813797E+00</totfact>
</mgrwt>
</event>
<event>
 4    1  0.3365401E-008  0.1551212E+03  0.7818608E-02  0.1194318E+00
          2   -1    0    0  501    0  0.00000000000E+00  0.00000000000E+00  0.15348322545E+04  0.15348322545E+04  0.25500000000E-02 0. -1.
         -2   -1    0    0    0  501 -0.00000000000E+00 -0.00000000000E+00 -0.26276778359E+02  0.26276778482E+02  0.25500000000E-02 0.  1.
    8880022    1    1    2    0    0  0.23094297915E+02  0.11730021437E+02  0.25854014180E+03  0.30150555208E+03  0.15294330000E+03 0.  1.
    8880022    1    1    2    0    0 -0.23094297915E+02 -0.11730021437E+02  0.12500153343E+04  0.12596034809E+04  0.15294330000E+03 0.  0.
<mgrwt>
<rscale>  0 0.15512122E+03</rscale>
<asrwt>0</asrwt>
<pdfrwt beam="1">  1        2 0.23612806E+00 0.15512122E+03</pdfrwt>
<pdfrwt beam="2">  1       -2 0.40425809E-02 0.15512122E+03</pdfrwt>
<totfact> 0.35164777E+03</totfact>
</mgrwt>
</event>
<event>
 4    1  0.3365401E-008  0.4126454E+03  0.7818608E-02  0.1039487E+00
          2   -1    0    0  501    0  0.00000000000E+00  0.00000000000E+00  0.60033686264E+03  0.60033686265E+03  0.25500000000E-02 0. -1.
         -2   -1    0    0    0  501 -0.00000000000E+00 -0.00000000000E+00 -0.69488185336E+03  0.69488185337E+03  0.25500000000E-02 0.  1.
    8880022    1    1    2    0    0  0.37502537857E+03 -0.78997244940E+02 -0.54547875847E+03  0.68397611672E+03  0.15294330000E+03 0.  1.
    8880022    1    1    2    0    0 -0.37502537857E+03  0.78997244940E+02  0.45093376776E+03  0.61124259930E+03  0.15294330000E+03 0.  0.
<mgrwt>
<rscale>  0 0.41264543E+03</rscale>
<asrwt>0</asrwt>
<pdfrwt beam="1">  1        2 0.92359517E-01 0.41264543E+03</pdfrwt>
<pdfrwt beam="2">  1       -2 0.10690490E+00 0.41264543E+03</pdfrwt>
<totfact> 0.36577314E+01</totfact>
</mgrwt>
</event>
<event>
 4    1  0.3365401E-008  0.5234531E+03  0.7818608E-02  0.1007832E+00
         -2   -1    0    0    0  501 -0.00000000000E+00  0.00000000000E+00  0.16422897693E+03  0.16422897695E+03  0.25500000000E-02 0.  1.
          2   -1    0    0  501    0  0.00000000000E+00 -0.00000000000E+00 -0.19806340188E+04  0.19806340188E+04  0.25500000000E-02 0. -1.
    8880022    1    1    2    0    0  0.45446983585E+03  0.20992548905E+03 -0.13339895553E+04  0.14330147694E+04  0.15294330000E+03 0.  0.
    8880022    1    1    2    0    0 -0.45446983585E+03 -0.20992548905E+03 -0.48241548654E+03  0.71184822632E+03  0.15294330000E+03 0.  0.
<mgrwt>
<rscale>  0 0.52345315E+03</rscale>
<asrwt>0</asrwt>
<pdfrwt beam="1">  1        2 0.30471291E+00 0.52345315E+03</pdfrwt>
<pdfrwt beam="2">  1       -2 0.25265998E-01 0.52345315E+03</pdfrwt>
<totfact> 0.10164024E+02</totfact>
</mgrwt>
</event>
<event>
 4    1  0.3365401E-008  0.5347811E+03  0.7818608E-02  0.1005079E+00
         -2   -1    0    0    0  501 -0.00000000000E+00  0.00000000000E+00  0.29588390689E+03  0.29588390690E+03  0.25500000000E-02 0.  1.
          2   -1    0    0  501    0  0.00000000000E+00 -0.00000000000E+00 -0.13309451868E+04  0.13309451868E+04  0.25500000000E-02 0. -1.
    8880022    1    1    2    0    0  0.18512489972E+03 -0.47783671582E+03 -0.94313852963E+03  0.10842052825E+04  0.15294330000E+03 0.  0.
    8880022    1    1    2    0    0 -0.18512489972E+03  0.47783671582E+03 -0.91922750306E+02  0.54262381124E+03  0.15294330000E+03 0.  0.
<mgrwt>
<rscale>  0 0.53478108E+03</rscale>
<asrwt>0</asrwt>
<pdfrwt beam="1">  1        2 0.20476079E+00 0.53478108E+03</pdfrwt>
<pdfrwt beam="2">  1       -2 0.45520602E-01 0.53478108E+03</pdfrwt>
<totfact> 0.75606127E+01</totfact>
</mgrwt>
</event>
<event>
 4    1  0.3365401E-008  0.2417701E+03  0.7818608E-02  0.1118619E+00
          2   -1    0    0  501    0  0.00000000000E+00  0.00000000000E+00  0.19571673473E+04  0.19571673473E+04  0.25500000000E-02 0. -1.
         -2   -1    0    0    0  501 -0.00000000000E+00 -0.00000000000E+00 -0.34134164121E+02  0.34134164216E+02  0.25500000000E-02 0.  1.
    8880022    1    1    2    0    0  0.16624381342E+03  0.86163343232E+02  0.60944383305E+03  0.65564820283E+03  0.15294330000E+03 0.  1.
    8880022    1    1    2    0    0 -0.16624381342E+03 -0.86163343232E+02  0.13135893502E+04  0.13356533087E+04  0.15294330000E+03 0.  0.
<mgrwt>
<rscale>  0 0.24177010E+03</rscale>
<asrwt>0</asrwt>
<pdfrwt beam="1">  1        2 0.30110272E+00 0.24177010E+03</pdfrwt>
<pdfrwt beam="2">  1       -2 0.52514089E-02 0.24177010E+03</pdfrwt>
<totfact> 0.14251019E+03</totfact>
</mgrwt>
</event>
<event>
 4    1  0.3365401E-008  0.5568315E+03  0.7818608E-02  0.9999250E-01
          2   -1    0    0  501    0  0.00000000000E+00  0.00000000000E+00  0.13100694880E+04  0.13100694880E+04  0.25500000000E-02 0. -1.
         -2   -1    0    0    0  501 -0.00000000000E+00 -0.00000000000E+00 -0.69730615176E+03  0.69730615177E+03  0.25500000000E-02 0.  1.
    8880022    1    1    2    0    0 -0.36253962454E+03 -0.39399834553E+03 -0.50938006796E+03  0.75467170498E+03  0.15294330000E+03 0.  0.
    8880022    1    1    2    0    0  0.36253962454E+03  0.39399834553E+03  0.11221434042E+04  0.12527039348E+04  0.15294330000E+03 0.  0.
<mgrwt>
<rscale>  0 0.55683151E+03</rscale>
<asrwt>0</asrwt>
<pdfrwt beam="1">  1        2 0.20154915E+00 0.55683151E+03</pdfrwt>
<pdfrwt beam="2">  1       -2 0.10727787E+00 0.55683151E+03</pdfrwt>
<totfact> 0.11962420E+01</totfact>
</mgrwt>
</event>
<event>
 4    1  0.3365401E-008  0.8544493E+03  0.7818608E-02  0.9484385E-01
         -2   -1    0    0    0  501 -0.00000000000E+00  0.00000000000E+00  0.41069256205E+03  0.41069256206E+03  0.25500000000E-02 0.  1.
          2   -1    0    0  501    0  0.00000000000E+00 -0.00000000000E+00 -0.22317428596E+04  0.22317428596E+04  0.25500000000E-02 0. -1.
    8880022    1    1    2    0    0  0.80268291515E+03  0.24978402265E+03 -0.15064700177E+04  0.17319167092E+04  0.15294330000E+03 0.  0.
    8880022    1    1    2    0    0 -0.80268291515E+03 -0.24978402265E+03 -0.31458027977E+03  0.91051871243E+03  0.15294330000E+03 0.  0.
<mgrwt>
<rscale>  0 0.85444928E+03</rscale>
<asrwt>0</asrwt>
<pdfrwt beam="1">  1        2 0.34334505E+00 0.85444928E+03</pdfrwt>
<pdfrwt beam="2">  1       -2 0.63183473E-01 0.85444928E+03</pdfrwt>
<totfact> 0.11786875E+01</totfact>
</mgrwt>
</event>
<event>
 4    1  0.3365401E-008  0.7139464E+03  0.7818608E-02  0.9693675E-01
          2   -1    0    0  501    0  0.00000000000E+00  0.00000000000E+00  0.23274082743E+04  0.23274082743E+04  0.25500000000E-02 0. -1.
         -2   -1    0    0    0  501 -0.00000000000E+00 -0.00000000000E+00 -0.26654837092E+03  0.26654837093E+03  0.25500000000E-02 0.  1.
    8880022    1    1    2    0    0  0.69424427390E+03 -0.65975133036E+02  0.48268419392E+03  0.86180247975E+03  0.15294330000E+03 0.  0.
    8880022    1    1    2    0    0 -0.69424427390E+03  0.65975133036E+02  0.15781757094E+04  0.17321541654E+04  0.15294330000E+03 0.  1.
<mgrwt>
<rscale>  0 0.71394641E+03</rscale>
<asrwt>0</asrwt>
<pdfrwt beam="1">  1        2 0.35806282E+00 0.71394641E+03</pdfrwt>
<pdfrwt beam="2">  1       -2 0.41007441E-01 0.71394641E+03</pdfrwt>
<totfact> 0.25762428E+01</totfact>
</mgrwt>
</event>
<event>
 4    1  0.3365401E-008  0.6862054E+03  0.7818608E-02  0.9741118E-01
          2   -1    0    0  501    0  0.00000000000E+00  0.00000000000E+00  0.94078219021E+03  0.94078219022E+03  0.25500000000E-02 0. -1.
         -2   -1    0    0    0  501 -0.00000000000E+00 -0.00000000000E+00 -0.11121325637E+04  0.11121325637E+04  0.25500000000E-02 0.  1.
    8880022    1    1    2    0    0 -0.54056974431E+03 -0.39404388087E+03  0.67553002667E+03  0.96292195866E+03  0.15294330000E+03 0.  0.
    8880022    1    1    2    0    0  0.54056974431E+03  0.39404388087E+03 -0.84688040013E+03  0.10899927952E+04  0.15294330000E+03 0.  1.
<mgrwt>
<rscale>  0 0.68620542E+03</rscale>
<asrwt>0</asrwt>
<pdfrwt beam="1">  1        2 0.14473572E+00 0.68620542E+03</pdfrwt>
<pdfrwt beam="2">  1       -2 0.17109732E+00 0.68620542E+03</pdfrwt>
<totfact> 0.59285627E+00</totfact>
</mgrwt>
</event>
<event>
 4    1  0.3365401E-008  0.4727254E+03  0.7818608E-02  0.1021154E+00
          2   -1    0    0  501    0  0.00000000000E+00  0.00000000000E+00  0.10812505509E+04  0.10812505509E+04  0.25500000000E-02 0. -1.
         -2   -1    0    0    0  501 -0.00000000000E+00 -0.00000000000E+00 -0.45357142520E+03  0.45357142521E+03  0.25500000000E-02 0.  1.
    8880022    1    1    2    0    0 -0.25457111936E+03  0.36779233572E+03  0.88002808917E+03  0.99895883187E+03  0.15294330000E+03 0.  0.
    8880022    1    1    2    0    0  0.25457111936E+03 -0.36779233572E+03 -0.25234896344E+03  0.53586314427E+03  0.15294330000E+03 0.  0.
<mgrwt>
<rscale>  0 0.47272541E+03</rscale>
<asrwt>0</asrwt>
<pdfrwt beam="1">  1        2 0.16634624E+00 0.47272541E+03</pdfrwt>
<pdfrwt beam="2">  1       -2 0.69780219E-01 0.47272541E+03</pdfrwt>
<totfact> 0.43975820E+01</totfact>
</mgrwt>
</event>
<event>
 4    1  0.3987980E-008  0.5326369E+03  0.7818608E-02  0.1005595E+00
          2   -1    0    0  501    0  0.00000000000E+00  0.00000000000E+00  0.20907064363E+04  0.20907064363E+04  0.25500000000E-02 0. -1.
         -2   -1    0    0    0  501 -0.00000000000E+00 -0.00000000000E+00 -0.15076794467E+04  0.15076794467E+04  0.25500000000E-02 0.  1.
    8880022    1    1    2    0    0  0.48121321164E+03  0.16954143138E+03  0.20078306591E+04  0.20772785227E+04  0.15294330000E+03 0.  0.
    8880022    1    1    2    0    0 -0.48121321164E+03 -0.16954143138E+03 -0.14248036695E+04  0.15211073604E+04  0.15294330000E+03 0.  0.
<mgrwt>
<rscale>  0 0.53263694E+03</rscale>
<asrwt>0</asrwt>
<pdfrwt beam="1">  1        2 0.32164715E+00 0.53263694E+03</pdfrwt>
<pdfrwt beam="2">  1       -2 0.23195068E+00 0.53263694E+03</pdfrwt>
<totfact> 0.55171035E-01</totfact>
</mgrwt>
</event>
<event>
 4    1  0.3365401E-008  0.4453349E+03  0.7818608E-02  0.1029122E+00
          2   -1    0    0  501    0  0.00000000000E+00  0.00000000000E+00  0.22508600996E+04  0.22508600996E+04  0.25500000000E-02 0. -1.
         -2   -1    0    0    0  501 -0.00000000000E+00 -0.00000000000E+00 -0.12792797510E+03  0.12792797512E+03  0.25500000000E-02 0.  1.
    8880022    1    1    2    0    0 -0.41604129130E+03 -0.42908781003E+02  0.17250301104E+04  0.17815869483E+04  0.15294330000E+03 0.  0.
    8880022    1    1    2    0    0  0.41604129130E+03  0.42908781003E+02  0.39790201407E+03  0.59720112640E+03  0.15294330000E+03 0.  0.
<mgrwt>
<rscale>  0 0.44533490E+03</rscale>
<asrwt>0</asrwt>
<pdfrwt beam="1">  1        2 0.34628616E+00 0.44533490E+03</pdfrwt>
<pdfrwt beam="2">  1       -2 0.19681227E-01 0.44533490E+03</pdfrwt>
<totfact> 0.11423649E+02</totfact>
</mgrwt>
</event>
<event>
 4    1  0.3365401E-008  0.4859741E+03  0.7818608E-02  0.1017506E+00
         -2   -1    0    0    0  501 -0.00000000000E+00  0.00000000000E+00  0.39076559999E+03  0.39076560000E+03  0.25500000000E-02 0.  1.
          2   -1    0    0  501    0  0.00000000000E+00 -0.00000000000E+00 -0.13205395885E+04  0.13205395885E+04  0.25500000000E-02 0. -1.
    8880022    1    1    2    0    0 -0.28906619789E+03  0.35947166558E+03  0.16523806830E+03  0.51329759141E+03  0.15294330000E+03 0.  0.
    8880022    1    1    2    0    0  0.28906619789E+03 -0.35947166558E+03 -0.10950120568E+04  0.11980075970E+04  0.15294330000E+03 0.  0.
<mgrwt>
<rscale>  0 0.48597407E+03</rscale>
<asrwt>0</asrwt>
<pdfrwt beam="1">  1        2 0.20315993E+00 0.48597407E+03</pdfrwt>
<pdfrwt beam="2">  1       -2 0.60117785E-01 0.48597407E+03</pdfrwt>
<totfact> 0.43724194E+01</totfact>
</mgrwt>
</event>
<event>
 4    1  0.3365401E-008  0.2933838E+03  0.7818608E-02  0.1088596E+00
         -2   -1    0    0    0  501 -0.00000000000E+00  0.00000000000E+00  0.12389039442E+03  0.12389039445E+03  0.25500000000E-02 0.  1.
          2   -1    0    0  501    0  0.00000000000E+00 -0.00000000000E+00 -0.87773052474E+03  0.87773052474E+03  0.25500000000E-02 0. -1.
    8880022    1    1    2    0    0  0.10366515130E+03  0.22789463508E+03 -0.14826362180E+03  0.32871900288E+03  0.15294330000E+03 0. -1.
    8880022    1    1    2    0    0 -0.10366515130E+03 -0.22789463508E+03 -0.60557650852E+03  0.67290191631E+03  0.15294330000E+03 0.  0.
<mgrwt>
<rscale>  0 0.29338385E+03</rscale>
<asrwt>0</asrwt>
<pdfrwt beam="1">  1        2 0.13503546E+00 0.29338385E+03</pdfrwt>
<pdfrwt beam="2">  1       -2 0.19060061E-01 0.29338385E+03</pdfrwt>
<totfact> 0.71922904E+02</totfact>
</mgrwt>
</event>
<event>
 4    1  0.3365401E-008  0.1754597E+04  0.7818608E-02  0.8730824E-01
          2   -1    0    0  501    0  0.00000000000E+00  0.00000000000E+00  0.46985496947E+04  0.46985496947E+04  0.25500000000E-02 0. -1.
         -2   -1    0    0    0  501 -0.00000000000E+00 -0.00000000000E+00 -0.14923214016E+04  0.14923214016E+04  0.25500000000E-02 0.  1.
    8880022    1    1    2    0    0 -0.54758468487E+03 -0.16599304719E+04  0.39214597423E+04  0.42960978018E+04  0.15294330000E+03 0.  0.
    8880022    1    1    2    0    0  0.54758468487E+03  0.16599304719E+04 -0.71523144922E+03  0.18947732945E+04  0.15294330000E+03 0.  0.
<mgrwt>
<rscale>  0 0.17545968E+04</rscale>
<asrwt>0</asrwt>
<pdfrwt beam="1">  1        2 0.72285381E+00 0.17545968E+04</pdfrwt>
<pdfrwt beam="2">  1       -2 0.22958790E+00 0.17545968E+04</pdfrwt>
<totfact> 0.61600532E-03</totfact>
</mgrwt>
</event>
<event>
 4    1  0.3365401E-008  0.2288392E+03  0.7818608E-02  0.1127459E+00
          2   -1    0    0  501    0  0.00000000000E+00  0.00000000000E+00  0.64202949957E+03  0.64202949957E+03  0.25500000000E-02 0. -1.
         -2   -1    0    0    0  501 -0.00000000000E+00 -0.00000000000E+00 -0.19422180162E+03  0.19422180164E+03  0.25500000000E-02 0.  1.
    8880022    1    1    2    0    0 -0.52789461055E+02 -0.16183020686E+03  0.54234981369E+03  0.58865160874E+03  0.15294330000E+03 0.  0.
    8880022    1    1    2    0    0  0.52789461055E+02  0.16183020686E+03 -0.94542115741E+02  0.24759969247E+03  0.15294330000E+03 0.  1.
<mgrwt>
<rscale>  0 0.22883924E+03</rscale>
<asrwt>0</asrwt>
<pdfrwt beam="1">  1        2 0.98773768E-01 0.22883924E+03</pdfrwt>
<pdfrwt beam="2">  1       -2 0.29880277E-01 0.22883924E+03</pdfrwt>
<totfact> 0.48357537E+02</totfact>
</mgrwt>
</event>
<event>
 4    1  0.3365401E-008  0.1312883E+04  0.7818608E-02  0.9019410E-01
          2   -1    0    0  501    0  0.00000000000E+00  0.00000000000E+00  0.21828526308E+04  0.21828526308E+04  0.25500000000E-02 0. -1.
         -2   -1    0    0    0  501 -0.00000000000E+00 -0.00000000000E+00 -0.86108654148E+03  0.86108654149E+03  0.25500000000E-02 0.  1.
    8880022    1    1    2    0    0  0.28204050390E+03  0.12730767431E+04  0.22247355785E+03  0.13315995557E+04  0.15294330000E+03 0.  0.
    8880022    1    1    2    0    0 -0.28204050390E+03 -0.12730767431E+04  0.10992925314E+04  0.17123396166E+04  0.15294330000E+03 0.  0.
<mgrwt>
<rscale>  0 0.13128834E+04</rscale>
<asrwt>0</asrwt>
<pdfrwt beam="1">  1        2 0.33582348E+00 0.13128834E+04</pdfrwt>
<pdfrwt beam="2">  1       -2 0.13247485E+00 0.13128834E+04</pdfrwt>
<totfact> 0.21077601E+00</totfact>
</mgrwt>
</event>
<event>
 4    1  0.3365401E-008  0.3729346E+03  0.7818608E-02  0.1053577E+00
          2   -1    0    0  501    0  0.00000000000E+00  0.00000000000E+00  0.10737772635E+04  0.10737772635E+04  0.25500000000E-02 0. -1.
         -2   -1    0    0    0  501 -0.00000000000E+00 -0.00000000000E+00 -0.78057661102E+03  0.78057661103E+03  0.25500000000E-02 0.  1.
    8880022    1    1    2    0    0 -0.30394748333E+03 -0.15265805919E+03 -0.70016449718E+03  0.79329095027E+03  0.15294330000E+03 0.  0.
    8880022    1    1    2    0    0  0.30394748333E+03  0.15265805919E+03  0.99336514968E+03  0.10610629243E+04  0.15294330000E+03 0. -1.
<mgrwt>
<rscale>  0 0.37293459E+03</rscale>
<asrwt>0</asrwt>
<pdfrwt beam="1">  1        2 0.16519650E+00 0.37293459E+03</pdfrwt>
<pdfrwt beam="2">  1       -2 0.12008871E+00 0.37293459E+03</pdfrwt>
<totfact> 0.12984805E+01</totfact>
</mgrwt>
</event>
<event>
 4    1  0.3365401E-008  0.5058295E+03  0.7818608E-02  0.1012268E+00
         -2   -1    0    0    0  501 -0.00000000000E+00  0.00000000000E+00  0.40656257814E+03  0.40656257815E+03  0.25500000000E-02 0.  1.
          2   -1    0    0  501    0  0.00000000000E+00 -0.00000000000E+00 -0.11816431336E+04  0.11816431336E+04  0.25500000000E-02 0. -1.
    8880022    1    1    2    0    0 -0.45401331383E+03 -0.16230766450E+03  0.15536596030E+03  0.52915224815E+03  0.15294330000E+03 0.  0.
    8880022    1    1    2    0    0  0.45401331383E+03  0.16230766450E+03 -0.93044651576E+03  0.10590534636E+04  0.15294330000E+03 0.  0.
<mgrwt>
<rscale>  0 0.50582954E+03</rscale>
<asrwt>0</asrwt>
<pdfrwt beam="1">  1        2 0.18179125E+00 0.50582954E+03</pdfrwt>
<pdfrwt beam="2">  1       -2 0.62548089E-01 0.50582954E+03</pdfrwt>
<totfact> 0.48203302E+01</totfact>
</mgrwt>
</event>
<event>
 4    1  0.3365401E-008  0.3136015E+03  0.7818608E-02  0.1078632E+00
         -2   -1    0    0    0  501 -0.00000000000E+00  0.00000000000E+00  0.25080040446E+03  0.25080040448E+03  0.25500000000E-02 0.  1.
          2   -1    0    0  501    0  0.00000000000E+00 -0.00000000000E+00 -0.13364391525E+04  0.13364391525E+04  0.25500000000E-02 0. -1.
    8880022    1    1    2    0    0  0.26977306336E+03 -0.46655867855E+02 -0.12099262006E+04  0.12499069324E+04  0.15294330000E+03 0.  0.
    8880022    1    1    2    0    0 -0.26977306336E+03  0.46655867855E+02  0.12428745258E+03  0.33733262458E+03  0.15294330000E+03 0.  1.
<mgrwt>
<rscale>  0 0.31360154E+03</rscale>
<asrwt>0</asrwt>
<pdfrwt beam="1">  1        2 0.20560602E+00 0.31360154E+03</pdfrwt>
<pdfrwt beam="2">  1       -2 0.38584678E-01 0.31360154E+03</pdfrwt>
<totfact> 0.10729319E+02</totfact>
</mgrwt>
</event>
<event>
 4    1  0.3365401E-008  0.6413173E+03  0.7818608E-02  0.9823209E-01
         -2   -1    0    0    0  501 -0.00000000000E+00  0.00000000000E+00  0.20509880683E+03  0.20509880685E+03  0.25500000000E-02 0.  1.
          2   -1    0    0  501    0  0.00000000000E+00 -0.00000000000E+00 -0.36187317231E+04  0.36187317231E+04  0.25500000000E-02 0. -1.
    8880022    1    1    2    0    0 -0.54960456635E+03  0.29296931681E+03 -0.43019061241E+03  0.77223818603E+03  0.15294330000E+03 0.  0.
    8880022    1    1    2    0    0  0.54960456635E+03 -0.29296931681E+03 -0.29834423039E+04  0.30515923439E+04  0.15294330000E+03 0.  0.
<mgrwt>
<rscale>  0 0.64131728E+03</rscale>
<asrwt>0</asrwt>
<pdfrwt beam="1">  1        2 0.55672791E+00 0.64131728E+03</pdfrwt>
<pdfrwt beam="2">  1       -2 0.31553665E-01 0.64131728E+03</pdfrwt>
<totfact> 0.69459049E+00</totfact>
</mgrwt>
</event>
<event>
 4    1  0.3365401E-008  0.7732297E+03  0.7818608E-02  0.9599595E-01
          2   -1    0    0  501    0  0.00000000000E+00  0.00000000000E+00  0.13634755956E+04  0.13634755956E+04  0.25500000000E-02 0. -1.
         -2   -1    0    0    0  501 -0.00000000000E+00 -0.00000000000E+00 -0.63161074868E+03  0.63161074868E+03  0.25500000000E-02 0.  1.
    8880022    1    1    2    0    0  0.57784579210E+03  0.49049645850E+03 -0.18564953556E+03  0.79520433746E+03  0.15294330000E+03 0.  0.
    8880022    1    1    2    0    0 -0.57784579210E+03 -0.49049645850E+03  0.91751438247E+03  0.11998820068E+04  0.15294330000E+03 0.  0.
<mgrwt>
<rscale>  0 0.77322971E+03</rscale>
<asrwt>0</asrwt>
<pdfrwt beam="1">  1        2 0.20976548E+00 0.77322971E+03</pdfrwt>
<pdfrwt beam="2">  1       -2 0.97170885E-01 0.77322971E+03</pdfrwt>
<totfact> 0.13680278E+01</totfact>
</mgrwt>
</event>
<event>
 4    1  0.3365401E-008  0.1470659E+04  0.7818608E-02  0.8904202E-01
         -2   -1    0    0    0  501 -0.00000000000E+00  0.00000000000E+00  0.14957579209E+04  0.14957579209E+04  0.25500000000E-02 0.  1.
          2   -1    0    0  501    0  0.00000000000E+00 -0.00000000000E+00 -0.16997642339E+04  0.16997642339E+04  0.25500000000E-02 0. -1.
    8880022    1    1    2    0    0 -0.12112915948E+04  0.81989003974E+03  0.51537081359E+03  0.15583471159E+04  0.15294330000E+03 0.  0.
    8880022    1    1    2    0    0  0.12112915948E+04 -0.81989003974E+03 -0.71937712656E+03  0.16371750390E+04  0.15294330000E+03 0.  0.
<mgrwt>
<rscale>  0 0.14706593E+04</rscale>
<asrwt>0</asrwt>
<pdfrwt beam="1">  1        2 0.26150219E+00 0.14706593E+04</pdfrwt>
<pdfrwt beam="2">  1       -2 0.23011660E+00 0.14706593E+04</pdfrwt>
<totfact> 0.78877016E-01</totfact>
</mgrwt>
</event>
<event>
 4    1  0.3365401E-008  0.1421504E+04  0.7818608E-02  0.8938398E-01
          2   -1    0    0  501    0  0.00000000000E+00  0.00000000000E+00  0.30607510431E+04  0.30607510431E+04  0.25500000000E-02 0. -1.
         -2   -1    0    0    0  501 -0.00000000000E+00 -0.00000000000E+00 -0.13170169249E+04  0.13170169249E+04  0.25500000000E-02 0.  1.
    8880022    1    1    2    0    0  0.10403347620E+04 -0.95654860955E+03 -0.67393172865E+03  0.15731679146E+04  0.15294330000E+03 0.  0.
    8880022    1    1    2    0    0 -0.10403347620E+04  0.95654860955E+03  0.24176658469E+04  0.28046000535E+04  0.15294330000E+03 0.  0.
<mgrwt>
<rscale>  0 0.14215039E+04</rscale>
<asrwt>0</asrwt>
<pdfrwt beam="1">  1        2 0.47088477E+00 0.14215039E+04</pdfrwt>
<pdfrwt beam="2">  1       -2 0.20261799E+00 0.14215039E+04</pdfrwt>
<totfact> 0.19414445E-01</totfact>
</mgrwt>
</event>
<event>
 4    1  0.3365401E-008  0.5415883E+03  0.7818608E-02  0.1003460E+00
         -2   -1    0    0    0  501 -0.00000000000E+00  0.00000000000E+00  0.10985404963E+04  0.10985404963E+04  0.25500000000E-02 0.  1.
          2   -1    0    0  501    0  0.00000000000E+00 -0.00000000000E+00 -0.70124599215E+03  0.70124599215E+03  0.25500000000E-02 0. -1.
    8880022    1    1    2    0    0  0.21937862046E+03  0.47095570095E+03 -0.50949457791E+03  0.74357422582E+03  0.15294330000E+03 0.  0.
    8880022    1    1    2    0    0 -0.21937862046E+03 -0.47095570095E+03  0.90678908203E+03  0.10562122626E+04  0.15294330000E+03 0.  0.
<mgrwt>
<rscale>  0 0.54158832E+03</rscale>
<asrwt>0</asrwt>
<pdfrwt beam="1">  1        2 0.10788400E+00 0.54158832E+03</pdfrwt>
<pdfrwt beam="2">  1       -2 0.16900623E+00 0.54158832E+03</pdfrwt>
<totfact> 0.92595220E+00</totfact>
</mgrwt>
</event>
<event>
 4    1  0.3365401E-008  0.6643430E+03  0.7818608E-02  0.9780232E-01
          2   -1    0    0  501    0  0.00000000000E+00  0.00000000000E+00  0.13500942179E+04  0.13500942179E+04  0.25500000000E-02 0. -1.
         -2   -1    0    0    0  501 -0.00000000000E+00 -0.00000000000E+00 -0.57964818527E+03  0.57964818528E+03  0.25500000000E-02 0.  1.
    8880022    1    1    2    0    0  0.54002041014E+03  0.35544038894E+03  0.10223521398E+04  0.12192438083E+04  0.15294330000E+03 0.  0.
    8880022    1    1    2    0    0 -0.54002041014E+03 -0.35544038894E+03 -0.25190610714E+03  0.71049859485E+03  0.15294330000E+03 0.  0.
<mgrwt>
<rscale>  0 0.66434296E+03</rscale>
<asrwt>0</asrwt>
<pdfrwt beam="1">  1        2 0.20770680E+00 0.66434296E+03</pdfrwt>
<pdfrwt beam="2">  1       -2 0.89176645E-01 0.66434296E+03</pdfrwt>
<totfact> 0.17236297E+01</totfact>
</mgrwt>
</event>
<event>
 4    1  0.3365401E-008  0.7008894E+03  0.7818608E-02  0.9715712E-01
          2   -1    0    0  501    0  0.00000000000E+00  0.00000000000E+00  0.79857360885E+03  0.79857360886E+03  0.25500000000E-02 0. -1.
         -2   -1    0    0    0  501 -0.00000000000E+00 -0.00000000000E+00 -0.92208676515E+03  0.92208676515E+03  0.25500000000E-02 0.  1.
    8880022    1    1    2    0    0  0.36681859284E+03 -0.57732004112E+03 -0.55812106811E+03  0.89596042860E+03  0.15294330000E+03 0.  0.
    8880022    1    1    2    0    0 -0.36681859284E+03  0.57732004112E+03  0.43460791181E+03  0.82469994541E+03  0.15294330000E+03 0.  0.
<mgrwt>
<rscale>  0 0.70088941E+03</rscale>
<asrwt>0</asrwt>
<pdfrwt beam="1">  1        2 0.12285748E+00 0.70088941E+03</pdfrwt>
<pdfrwt beam="2">  1       -2 0.14185950E+00 0.70088941E+03</pdfrwt>
<totfact> 0.12236424E+01</totfact>
</mgrwt>
</event>
<event>
 4    1  0.3365401E-008  0.8442856E+03  0.7818608E-02  0.9498039E-01
          2   -1    0    0  501    0  0.00000000000E+00  0.00000000000E+00  0.32010780219E+04  0.32010780219E+04  0.25500000000E-02 0. -1.
         -2   -1    0    0    0  501 -0.00000000000E+00 -0.00000000000E+00 -0.40913828470E+03  0.40913828471E+03  0.25500000000E-02 0.  1.
    8880022    1    1    2    0    0  0.51963379751E+03  0.64761657250E+03  0.26145616461E+04  0.27474990014E+04  0.15294330000E+03 0.  0.
    8880022    1    1    2    0    0 -0.51963379751E+03 -0.64761657250E+03  0.17737809111E+03  0.86271730521E+03  0.15294330000E+03 0.  0.
<mgrwt>
<rscale>  0 0.84428559E+03</rscale>
<asrwt>0</asrwt>
<pdfrwt beam="1">  1        2 0.49247354E+00 0.84428559E+03</pdfrwt>
<pdfrwt beam="2">  1       -2 0.62944352E-01 0.84428559E+03</pdfrwt>
<totfact> 0.31941161E+00</totfact>
</mgrwt>
</event>
<event>
 4    1  0.3365401E-008  0.6858368E+03  0.7818608E-02  0.9741765E-01
          2   -1    0    0  501    0  0.00000000000E+00  0.00000000000E+00  0.12199798767E+04  0.12199798767E+04  0.25500000000E-02 0. -1.
         -2   -1    0    0    0  501 -0.00000000000E+00 -0.00000000000E+00 -0.71252366704E+03  0.71252366705E+03  0.25500000000E-02 0.  1.
    8880022    1    1    2    0    0 -0.66063865059E+03 -0.10264979392E+03  0.90827722692E+03  0.11381298611E+04  0.15294330000E+03 0.  0.
    8880022    1    1    2    0    0  0.66063865059E+03  0.10264979392E+03 -0.40082101722E+03  0.79437368266E+03  0.15294330000E+03 0.  0.
<mgrwt>
<rscale>  0 0.68583676E+03</rscale>
<asrwt>0</asrwt>
<pdfrwt beam="1">  1        2 0.18768921E+00 0.68583676E+03</pdfrwt>
<pdfrwt beam="2">  1       -2 0.10961903E+00 0.68583676E+03</pdfrwt>
<totfact> 0.12554690E+01</totfact>
</mgrwt>
</event>
<event>
 4    1  0.3365401E-008  0.1077277E+04  0.7818608E-02  0.9227627E-01
         -2   -1    0    0    0  501 -0.00000000000E+00  0.00000000000E+00  0.80686281590E+03  0.80686281590E+03  0.25500000000E-02 0.  1.
          2   -1    0    0  501    0  0.00000000000E+00 -0.00000000000E+00 -0.17331662654E+04  0.17331662654E+04  0.25500000000E-02 0. -1.
    8880022    1    1    2    0    0  0.10461058289E+04  0.20687421185E+03 -0.98697795540E+03  0.14610446544E+04  0.15294330000E+03 0.  0.
    8880022    1    1    2    0    0 -0.10461058289E+04 -0.20687421185E+03  0.60674505925E+02  0.10789844269E+04  0.15294330000E+03 0.  0.
<mgrwt>
<rscale>  0 0.10772771E+04</rscale>
<asrwt>0</asrwt>
<pdfrwt beam="1">  1        2 0.26664096E+00 0.10772771E+04</pdfrwt>
<pdfrwt beam="2">  1       -2 0.12413274E+00 0.10772771E+04</pdfrwt>
<totfact> 0.45266688E+00</totfact>
</mgrwt>
</event>
<event>
 4    1  0.3365401E-008  0.5175616E+03  0.7818608E-02  0.1009294E+00
          2   -1    0    0  501    0  0.00000000000E+00  0.00000000000E+00  0.22729461660E+04  0.22729461660E+04  0.25500000000E-02 0. -1.
         -2   -1    0    0    0  501 -0.00000000000E+00 -0.00000000000E+00 -0.52441646682E+03  0.52441646683E+03  0.25500000000E-02 0.  1.
    8880022    1    1    2    0    0 -0.32316164609E+02 -0.49339032850E+03 -0.35726691035E+03  0.62889557878E+03  0.15294330000E+03 0.  0.
    8880022    1    1    2    0    0  0.32316164609E+02  0.49339032850E+03  0.21057966095E+04  0.21684670540E+04  0.15294330000E+03 0.  0.
<mgrwt>
<rscale>  0 0.51756159E+03</rscale>
<asrwt>0</asrwt>
<pdfrwt beam="1">  1        2 0.34968402E+00 0.51756159E+03</pdfrwt>
<pdfrwt beam="2">  1       -2 0.80679457E-01 0.51756159E+03</pdfrwt>
<totfact> 0.69636850E+00</totfact>
</mgrwt>
</event>
<event>
 4    1  0.3365401E-008  0.4375712E+03  0.7818608E-02  0.1031495E+00
         -2   -1    0    0    0  501 -0.00000000000E+00  0.00000000000E+00  0.13902605593E+03  0.13902605596E+03  0.25500000000E-02 0.  1.
          2   -1    0    0  501    0  0.00000000000E+00 -0.00000000000E+00 -0.35830867586E+04  0.35830867586E+04  0.25500000000E-02 0. -1.
    8880022    1    1    2    0    0  0.36935939051E+03 -0.17790589522E+03 -0.26180063748E+03  0.50990988783E+03  0.15294330000E+03 0.  0.
    8880022    1    1    2    0    0 -0.36935939051E+03  0.17790589522E+03 -0.31822600652E+04  0.32122029267E+04  0.15294330000E+03 0.  0.
<mgrwt>
<rscale>  0 0.43757116E+03</rscale>
<asrwt>0</asrwt>
<pdfrwt beam="1">  1        2 0.55124405E+00 0.43757116E+03</pdfrwt>
<pdfrwt beam="2">  1       -2 0.21388627E-01 0.43757116E+03</pdfrwt>
<totfact> 0.15702189E+01</totfact>
</mgrwt>
</event>
<event>
 4    1  0.3365401E-008  0.3066333E+03  0.7818608E-02  0.1081971E+00
          2   -1    0    0  501    0  0.00000000000E+00  0.00000000000E+00  0.20122111901E+04  0.20122111901E+04  0.25500000000E-02 0. -1.
         -2   -1    0    0    0  501 -0.00000000000E+00 -0.00000000000E+00 -0.12046184640E+03  0.12046184643E+03  0.25500000000E-02 0.  1.
    8880022    1    1    2    0    0 -0.26117797155E+03 -0.49177438774E+02  0.17801449512E+04  0.18063609976E+04  0.15294330000E+03 0.  0.
    8880022    1    1    2    0    0  0.26117797155E+03  0.49177438774E+02  0.11160439248E+03  0.32631203892E+03  0.15294330000E+03 0.  1.
<mgrwt>
<rscale>  0 0.30663334E+03</rscale>
<asrwt>0</asrwt>
<pdfrwt beam="1">  1        2 0.30957098E+00 0.30663334E+03</pdfrwt>
<pdfrwt beam="2">  1       -2 0.18532590E-01 0.30663334E+03</pdfrwt>
<totfact> 0.17497548E+02</totfact>
</mgrwt>
</event>
<event>
 4    1  0.3365401E-008  0.7946097E+03  0.7818608E-02  0.9567852E-01
         -2   -1    0    0    0  501 -0.00000000000E+00  0.00000000000E+00  0.38069597439E+03  0.38069597439E+03  0.25500000000E-02 0.  1.
          2   -1    0    0  501    0  0.00000000000E+00 -0.00000000000E+00 -0.39183788957E+04  0.39183788957E+04  0.25500000000E-02 0. -1.
    8880022    1    1    2    0    0 -0.71056980716E+03  0.32109725416E+03 -0.34012515255E+04  0.34928378849E+04  0.15294330000E+03 0.  0.
    8880022    1    1    2    0    0  0.71056980716E+03 -0.32109725416E+03 -0.13643139579E+03  0.80623698517E+03  0.15294330000E+03 0.  0.
<mgrwt>
<rscale>  0 0.79460968E+03</rscale>
<asrwt>0</asrwt>
<pdfrwt beam="1">  1        2 0.60282749E+00 0.79460968E+03</pdfrwt>
<pdfrwt beam="2">  1       -2 0.58568614E-01 0.79460968E+03</pdfrwt>
<totfact> 0.11879656E+00</totfact>
</mgrwt>
</event>
<event>
 4    1  0.3365401E-008  0.6752955E+03  0.7818608E-02  0.9760439E-01
         -2   -1    0    0    0  501 -0.00000000000E+00  0.00000000000E+00  0.63336173641E+03  0.63336173641E+03  0.25500000000E-02 0.  1.
          2   -1    0    0  501    0  0.00000000000E+00 -0.00000000000E+00 -0.12435084817E+04  0.12435084817E+04  0.25500000000E-02 0. -1.
    8880022    1    1    2    0    0  0.86165772232E+02  0.65207959810E+03 -0.91396417071E+03  0.11363777985E+04  0.15294330000E+03 0.  0.
    8880022    1    1    2    0    0 -0.86165772232E+02 -0.65207959810E+03  0.30381742540E+03  0.74049241964E+03  0.15294330000E+03 0.  0.
<mgrwt>
<rscale>  0 0.67529549E+03</rscale>
<asrwt>0</asrwt>
<pdfrwt beam="1">  1        2 0.19130900E+00 0.67529549E+03</pdfrwt>
<pdfrwt beam="2">  1       -2 0.97440267E-01 0.67529549E+03</pdfrwt>
<totfact> 0.16132410E+01</totfact>
</mgrwt>
</event>
<event>
 4    1  0.3365401E-008  0.2329388E+03  0.7818608E-02  0.1124588E+00
          2   -1    0    0  501    0  0.00000000000E+00  0.00000000000E+00  0.15222794971E+04  0.15222794971E+04  0.25500000000E-02 0. -1.
         -2   -1    0    0    0  501 -0.00000000000E+00 -0.00000000000E+00 -0.77589959427E+02  0.77589959469E+02  0.25500000000E-02 0.  1.
    8880022    1    1    2    0    0  0.55220211603E+02 -0.16679193468E+03  0.13105050407E+04  0.13310461810E+04  0.15294330000E+03 0.  0.
    8880022    1    1    2    0    0 -0.55220211603E+02  0.16679193468E+03  0.13418449698E+03  0.26882327557E+03  0.15294330000E+03 0.  1.
<mgrwt>
<rscale>  0 0.23293878E+03</rscale>
<asrwt>0</asrwt>
<pdfrwt beam="1">  1        2 0.23419683E+00 0.23293878E+03</pdfrwt>
<pdfrwt beam="2">  1       -2 0.11936918E-01 0.23293878E+03</pdfrwt>
<totfact> 0.66697380E+02</totfact>
</mgrwt>
</event>
<event>
 4    1  0.3365401E-008  0.2830456E+03  0.7818608E-02  0.1094037E+00
          2   -1    0    0  501    0  0.00000000000E+00  0.00000000000E+00  0.18388131336E+04  0.18388131336E+04  0.25500000000E-02 0. -1.
         -2   -1    0    0    0  501 -0.00000000000E+00 -0.00000000000E+00 -0.22778604908E+03  0.22778604909E+03  0.25500000000E-02 0.  1.
    8880022    1    1    2    0    0  0.23532895387E+03 -0.36653309887E+02 -0.12372640856E+03  0.30890622986E+03  0.15294330000E+03 0.  0.
    8880022    1    1    2    0    0 -0.23532895387E+03  0.36653309887E+02  0.17347534931E+04  0.17576929529E+04  0.15294330000E+03 0.  0.
<mgrwt>
<rscale>  0 0.28304564E+03</rscale>
<asrwt>0</asrwt>
<pdfrwt beam="1">  1        2 0.28289432E+00 0.28304564E+03</pdfrwt>
<pdfrwt beam="2">  1       -2 0.35044008E-01 0.28304564E+03</pdfrwt>
<totfact> 0.69787181E+01</totfact>
</mgrwt>
</event>
<event>
 4    1  0.3365401E-008  0.2964565E+03  0.7818608E-02  0.1087026E+00
          2   -1    0    0  501    0  0.00000000000E+00  0.00000000000E+00  0.88625856146E+03  0.88625856146E+03  0.25500000000E-02 0. -1.
         -2   -1    0    0    0  501 -0.00000000000E+00 -0.00000000000E+00 -0.13707952013E+04  0.13707952013E+04  0.25500000000E-02 0.  1.
    8880022    1    1    2    0    0 -0.16658013526E+03 -0.19169204143E+03 -0.13292091962E+04  0.13618676589E+04  0.15294330000E+03 0.  0.
    8880022    1    1    2    0    0  0.16658013526E+03  0.19169204143E+03  0.84467255630E+03  0.89518610388E+03  0.15294330000E+03 0. -1.
<mgrwt>
<rscale>  0 0.29645646E+03</rscale>
<asrwt>0</asrwt>
<pdfrwt beam="1">  1        2 0.13634747E+00 0.29645646E+03</pdfrwt>
<pdfrwt beam="2">  1       -2 0.21089157E+00 0.29645646E+03</pdfrwt>
<totfact> 0.38448983E+00</totfact>
</mgrwt>
</event>
<event>
 4    1  0.3365401E-008  0.4765340E+03  0.7818608E-02  0.1020092E+00
          2   -1    0    0  501    0  0.00000000000E+00  0.00000000000E+00  0.17468554640E+04  0.17468554640E+04  0.25500000000E-02 0. -1.
         -2   -1    0    0    0  501 -0.00000000000E+00 -0.00000000000E+00 -0.20186420493E+03  0.20186420494E+03  0.25500000000E-02 0.  1.
    8880022    1    1    2    0    0  0.26353051259E+03 -0.36639420487E+03  0.19111937036E+03  0.51343092152E+03  0.15294330000E+03 0.  0.
    8880022    1    1    2    0    0 -0.26353051259E+03  0.36639420487E+03  0.13538718887E+04  0.14352887475E+04  0.15294330000E+03 0.  0.
<mgrwt>
<rscale>  0 0.47653405E+03</rscale>
<asrwt>0</asrwt>
<pdfrwt beam="1">  1        2 0.26874699E+00 0.47653405E+03</pdfrwt>
<pdfrwt beam="2">  1       -2 0.31056032E-01 0.47653405E+03</pdfrwt>
<totfact> 0.93861043E+01</totfact>
</mgrwt>
</event>
<event>
 4    1  0.3365401E-008  0.3679172E+03  0.7818608E-02  0.1055492E+00
         -2   -1    0    0    0  501 -0.00000000000E+00  0.00000000000E+00  0.79519672967E+03  0.79519672968E+03  0.25500000000E-02 0.  1.
          2   -1    0    0  501    0  0.00000000000E+00 -0.00000000000E+00 -0.13189641261E+04  0.13189641262E+04  0.25500000000E-02 0. -1.
    8880022    1    1    2    0    0  0.17708340482E+03  0.28392403252E+03  0.72462765017E+03  0.81267968654E+03  0.15294330000E+03 0.  0.
    8880022    1    1    2    0    0 -0.17708340482E+03 -0.28392403252E+03 -0.12483950466E+04  0.13014811693E+04  0.15294330000E+03 0.  0.
<mgrwt>
<rscale>  0 0.36791717E+03</rscale>
<asrwt>0</asrwt>
<pdfrwt beam="1">  1        2 0.20291756E+00 0.36791717E+03</pdfrwt>
<pdfrwt beam="2">  1       -2 0.12233796E+00 0.36791717E+03</pdfrwt>
<totfact> 0.89589253E+00</totfact>
</mgrwt>
</event>
<event>
 4    1  0.3365401E-008  0.5702697E+03  0.7818608E-02  0.9969082E-01
          2   -1    0    0  501    0  0.00000000000E+00  0.00000000000E+00  0.11214459867E+04  0.11214459867E+04  0.25500000000E-02 0. -1.
         -2   -1    0    0    0  501 -0.00000000000E+00 -0.00000000000E+00 -0.67533402866E+03  0.67533402866E+03  0.25500000000E-02 0.  1.
    8880022    1    1    2    0    0  0.11400239927E+03 -0.53741915540E+03  0.90168151986E+03  0.10668819578E+04  0.15294330000E+03 0.  0.
    8880022    1    1    2    0    0 -0.11400239927E+03  0.53741915540E+03 -0.45556956187E+03  0.72989805750E+03  0.15294330000E+03 0.  0.
<mgrwt>
<rscale>  0 0.57026972E+03</rscale>
<asrwt>0</asrwt>
<pdfrwt beam="1">  1        2 0.17253015E+00 0.57026972E+03</pdfrwt>
<pdfrwt beam="2">  1       -2 0.10389754E+00 0.57026972E+03</pdfrwt>
<totfact> 0.16607298E+01</totfact>
</mgrwt>
</event>
<event>
 4    1  0.3365401E-008  0.4837094E+03  0.7818608E-02  0.1018121E+00
         -2   -1    0    0    0  501 -0.00000000000E+00  0.00000000000E+00  0.74295162129E+03  0.74295162130E+03  0.25500000000E-02 0.  1.
          2   -1    0    0  501    0  0.00000000000E+00 -0.00000000000E+00 -0.97583283298E+03  0.97583283298E+03  0.25500000000E-02 0. -1.
    8880022    1    1    2    0    0  0.19145621844E+03  0.41704632943E+03  0.59081081936E+03  0.76356545348E+03  0.15294330000E+03 0.  0.
    8880022    1    1    2    0    0 -0.19145621844E+03 -0.41704632943E+03 -0.82369203105E+03  0.95521900080E+03  0.15294330000E+03 0. -1.
<mgrwt>
<rscale>  0 0.48370939E+03</rscale>
<asrwt>0</asrwt>
<pdfrwt beam="1">  1        2 0.15012813E+00 0.48370939E+03</pdfrwt>
<pdfrwt beam="2">  1       -2 0.11430025E+00 0.48370939E+03</pdfrwt>
<totfact> 0.16465558E+01</totfact>
</mgrwt>
</event>
<event>
 4    1  0.3720347E-008  0.1193973E+04  0.7818608E-02  0.9118148E-01
         -2   -1    0    0    0  501 -0.00000000000E+00  0.00000000000E+00  0.18938132361E+04  0.18938132361E+04  0.25500000000E-02 0.  1.
          2   -1    0    0  501    0  0.00000000000E+00 -0.00000000000E+00 -0.18402611174E+04  0.18402611174E+04  0.25500000000E-02 0. -1.
    8880022    1    1    2    0    0  0.11605516428E+04 -0.23516106618E+03  0.14620328499E+04  0.18876208703E+04  0.15294330000E+03 0.  0.
    8880022    1    1    2    0    0 -0.11605516428E+04  0.23516106618E+03 -0.14084807312E+04  0.18464534832E+04  0.15294330000E+03 0.  0.
<mgrwt>
<rscale>  0 0.11939734E+04</rscale>
<asrwt>0</asrwt>
<pdfrwt beam="1">  1        2 0.28311710E+00 0.11939734E+04</pdfrwt>
<pdfrwt beam="2">  1       -2 0.29135588E+00 0.11939734E+04</pdfrwt>
<totfact> 0.28723112E-01</totfact>
</mgrwt>
</event>
<event>
 4    1  0.3365401E-008  0.6664590E+03  0.7818608E-02  0.9776376E-01
         -2   -1    0    0    0  501 -0.00000000000E+00  0.00000000000E+00  0.10927364190E+04  0.10927364190E+04  0.25500000000E-02 0.  1.
          2   -1    0    0  501    0  0.00000000000E+00 -0.00000000000E+00 -0.20653671598E+04  0.20653671598E+04  0.25500000000E-02 0. -1.
    8880022    1    1    2    0    0  0.62463017327E+03 -0.17496604999E+03 -0.19014804603E+04  0.20148934378E+04  0.15294330000E+03 0.  0.
    8880022    1    1    2    0    0 -0.62463017327E+03  0.17496604999E+03  0.92884971946E+03  0.11432101410E+04  0.15294330000E+03 0.  0.
<mgrwt>
<rscale>  0 0.66645902E+03</rscale>
<asrwt>0</asrwt>
<pdfrwt beam="1">  1        2 0.31774879E+00 0.66645902E+03</pdfrwt>
<pdfrwt beam="2">  1       -2 0.16811330E+00 0.66645902E+03</pdfrwt>
<totfact> 0.14312759E+00</totfact>
</mgrwt>
</event>
<event>
 4    1  0.3365401E-008  0.7727662E+03  0.7818608E-02  0.9600296E-01
          2   -1    0    0  501    0  0.00000000000E+00  0.00000000000E+00  0.12473293918E+04  0.12473293918E+04  0.25500000000E-02 0. -1.
         -2   -1    0    0    0  501 -0.00000000000E+00 -0.00000000000E+00 -0.10290309600E+04  0.10290309600E+04  0.25500000000E-02 0.  1.
    8880022    1    1    2    0    0  0.29065176855E+03  0.69949806379E+03 -0.72316303598E+03  0.10583630858E+04  0.15294330000E+03 0.  0.
    8880022    1    1    2    0    0 -0.29065176855E+03 -0.69949806379E+03  0.94146146778E+03  0.12179972661E+04  0.15294330000E+03 0.  0.
<mgrwt>
<rscale>  0 0.77276623E+03</rscale>
<asrwt>0</asrwt>
<pdfrwt beam="1">  1        2 0.19189683E+00 0.77276623E+03</pdfrwt>
<pdfrwt beam="2">  1       -2 0.15831246E+00 0.77276623E+03</pdfrwt>
<totfact> 0.46918025E+00</totfact>
</mgrwt>
</event>
<event>
 4    1  0.3365401E-008  0.2850472E+03  0.7818608E-02  0.1092964E+00
         -2   -1    0    0    0  501 -0.00000000000E+00  0.00000000000E+00  0.17763914659E+03  0.17763914661E+03  0.25500000000E-02 0.  1.
          2   -1    0    0  501    0  0.00000000000E+00 -0.00000000000E+00 -0.20475549349E+04  0.20475549349E+04  0.25500000000E-02 0. -1.
    8880022    1    1    2    0    0 -0.20011680095E+03 -0.13346727521E+03 -0.19154408043E+04  0.19365343723E+04  0.15294330000E+03 0.  0.
    8880022    1    1    2    0    0  0.20011680095E+03  0.13346727521E+03  0.45525016014E+02  0.28865970913E+03  0.15294330000E+03 0.  0.
<mgrwt>
<rscale>  0 0.28504719E+03</rscale>
<asrwt>0</asrwt>
<pdfrwt beam="1">  1        2 0.31500843E+00 0.28504719E+03</pdfrwt>
<pdfrwt beam="2">  1       -2 0.27329101E-01 0.28504719E+03</pdfrwt>
<totfact> 0.85441639E+01</totfact>
</mgrwt>
</event>
<event>
 4    1  0.3365401E-008  0.7189179E+03  0.7818608E-02  0.9685416E-01
          2   -1    0    0  501    0  0.00000000000E+00  0.00000000000E+00  0.67157397495E+03  0.67157397495E+03  0.25500000000E-02 0. -1.
         -2   -1    0    0    0  501 -0.00000000000E+00 -0.00000000000E+00 -0.78496926111E+03  0.78496926111E+03  0.25500000000E-02 0.  1.
    8880022    1    1    2    0    0 -0.70230398321E+03  0.14845733587E+02  0.45208864062E+02  0.72033795891E+03  0.15294330000E+03 0.  0.
    8880022    1    1    2    0    0  0.70230398321E+03 -0.14845733587E+02 -0.15860415022E+03  0.73620527716E+03  0.15294330000E+03 0.  0.
<mgrwt>
<rscale>  0 0.71891789E+03</rscale>
<asrwt>0</asrwt>
<pdfrwt beam="1">  1        2 0.10331907E+00 0.71891789E+03</pdfrwt>
<pdfrwt beam="2">  1       -2 0.12076450E+00 0.71891789E+03</pdfrwt>
<totfact> 0.22934364E+01</totfact>
</mgrwt>
</event>
<event>
 4    1  0.3365401E-008  0.1868382E+03  0.7818608E-02  0.1161344E+00
          2   -1    0    0  501    0  0.00000000000E+00  0.00000000000E+00  0.10126334359E+04  0.10126334359E+04  0.25500000000E-02 0. -1.
         -2   -1    0    0    0  501 -0.00000000000E+00 -0.00000000000E+00 -0.63004298733E+02  0.63004298785E+02  0.25500000000E-02 0.  1.
    8880022    1    1    2    0    0 -0.45854988204E+01  0.10721862692E+03  0.83673383524E+03  0.85734008701E+03  0.15294330000E+03 0.  0.
    8880022    1    1    2    0    0  0.45854988204E+01 -0.10721862692E+03  0.11289530189E+03  0.21829764763E+03  0.15294330000E+03 0.  1.
<mgrwt>
<rscale>  0 0.18683820E+03</rscale>
<asrwt>0</asrwt>
<pdfrwt beam="1">  1        2 0.15578974E+00 0.18683820E+03</pdfrwt>
<pdfrwt beam="2">  1       -2 0.96929700E-02 0.18683820E+03</pdfrwt>
<totfact> 0.17949976E+03</totfact>
</mgrwt>
</event>
<event>
 4    1  0.3365401E-008  0.4736461E+03  0.7818608E-02  0.1020896E+00
          2   -1    0    0  501    0  0.00000000000E+00  0.00000000000E+00  0.10272829807E+04  0.10272829807E+04  0.25500000000E-02 0. -1.
         -2   -1    0    0    0  501 -0.00000000000E+00 -0.00000000000E+00 -0.54515723480E+03  0.54515723481E+03  0.25500000000E-02 0.  1.
    8880022    1    1    2    0    0  0.41973654734E+03  0.15738542725E+03  0.84976877404E+03  0.97285536656E+03  0.15294330000E+03 0.  0.
    8880022    1    1    2    0    0 -0.41973654734E+03 -0.15738542725E+03 -0.36764302817E+03  0.59958484893E+03  0.15294330000E+03 0.  0.
<mgrwt>
<rscale>  0 0.47364607E+03</rscale>
<asrwt>0</asrwt>
<pdfrwt beam="1">  1        2 0.15804353E+00 0.47364607E+03</pdfrwt>
<pdfrwt beam="2">  1       -2 0.83870345E-01 0.47364607E+03</pdfrwt>
<totfact> 0.31594159E+01</totfact>
</mgrwt>
</event>
<event>
 4    1  0.3365401E-008  0.9967615E+03  0.7818608E-02  0.9312104E-01
         -2   -1    0    0    0  501 -0.00000000000E+00  0.00000000000E+00  0.85031746369E+03  0.85031746370E+03  0.25500000000E-02 0.  1.
          2   -1    0    0  501    0  0.00000000000E+00 -0.00000000000E+00 -0.13951016141E+04  0.13951016141E+04  0.25500000000E-02 0. -1.
    8880022    1    1    2    0    0 -0.81641822431E+03 -0.55100197630E+03  0.18015765696E+03  0.10129118072E+04  0.15294330000E+03 0. -1.
    8880022    1    1    2    0    0  0.81641822431E+03  0.55100197630E+03 -0.72494180735E+03  0.12325072705E+04  0.15294330000E+03 0.  1.
<mgrwt>
<rscale>  0 0.99676153E+03</rscale>
<asrwt>0</asrwt>
<pdfrwt beam="1">  1        2 0.21463102E+00 0.99676153E+03</pdfrwt>
<pdfrwt beam="2">  1       -2 0.13081807E+00 0.99676153E+03</pdfrwt>
<totfact> 0.61827828E+00</totfact>
</mgrwt>
</event>
<event>
 4    1  0.3365401E-008  0.3458331E+03  0.7818608E-02  0.1064338E+00
          2   -1    0    0  501    0  0.00000000000E+00  0.00000000000E+00  0.48313733746E+04  0.48313733746E+04  0.25500000000E-02 0. -1.
         -2   -1    0    0    0  501 -0.00000000000E+00 -0.00000000000E+00 -0.11547292959E+03  0.11547292962E+03  0.25500000000E-02 0.  1.
    8880022    1    1    2    0    0 -0.85023861500E+02 -0.29829485846E+03  0.16562514520E+03  0.38344780785E+03  0.15294330000E+03 0.  0.
    8880022    1    1    2    0    0  0.85023861500E+02  0.29829485846E+03  0.45502752998E+04  0.45633984964E+04  0.15294330000E+03 0. -1.
<mgrwt>
<rscale>  0 0.34583310E+03</rscale>
<asrwt>0</asrwt>
<pdfrwt beam="1">  1        2 0.74328808E+00 0.34583310E+03</pdfrwt>
<pdfrwt beam="2">  1       -2 0.17765069E-01 0.34583310E+03</pdfrwt>
<totfact> 0.19449268E+00</totfact>
</mgrwt>
</event>
<event>
 4    1  0.3365401E-008  0.2889998E+03  0.7818608E-02  0.1090873E+00
         -2   -1    0    0    0  501 -0.00000000000E+00  0.00000000000E+00  0.25639286211E+03  0.25639286212E+03  0.25500000000E-02 0.  1.
          2   -1    0    0  501    0  0.00000000000E+00 -0.00000000000E+00 -0.12711320435E+04  0.12711320435E+04  0.25500000000E-02 0. -1.
    8880022    1    1    2    0    0  0.20806667851E+03 -0.12975936828E+03  0.15129728919E+03  0.32620815302E+03  0.15294330000E+03 0.  0.
    8880022    1    1    2    0    0 -0.20806667851E+03  0.12975936828E+03 -0.11660364706E+04  0.12013167526E+04  0.15294330000E+03 0.  0.
<mgrwt>
<rscale>  0 0.28899981E+03</rscale>
<asrwt>0</asrwt>
<pdfrwt beam="1">  1        2 0.19555877E+00 0.28899981E+03</pdfrwt>
<pdfrwt beam="2">  1       -2 0.39445056E-01 0.28899981E+03</pdfrwt>
<totfact> 0.11241536E+02</totfact>
</mgrwt>
</event>
<event>
 4    1  0.3365401E-008  0.2642525E+03  0.7818608E-02  0.1104615E+00
         -2   -1    0    0    0  501 -0.00000000000E+00  0.00000000000E+00  0.86719368799E+03  0.86719368799E+03  0.25500000000E-02 0.  1.
          2   -1    0    0  501    0  0.00000000000E+00 -0.00000000000E+00 -0.52689573210E+03  0.52689573211E+03  0.25500000000E-02 0. -1.
    8880022    1    1    2    0    0  0.36328774854E+02  0.21240983498E+03 -0.47142528911E+03  0.54043609623E+03  0.15294330000E+03 0.  0.
    8880022    1    1    2    0    0 -0.36328774854E+02 -0.21240983498E+03  0.81172324500E+03  0.85365332387E+03  0.15294330000E+03 0.  1.
<mgrwt>
<rscale>  0 0.26425248E+03</rscale>
<asrwt>0</asrwt>
<pdfrwt beam="1">  1        2 0.81060883E-01 0.26425248E+03</pdfrwt>
<pdfrwt beam="2">  1       -2 0.13341441E+00 0.26425248E+03</pdfrwt>
<totfact> 0.25443986E+01</totfact>
</mgrwt>
</event>
<event>
 4    1  0.3365401E-008  0.3182725E+03  0.7818608E-02  0.1076447E+00
         -2   -1    0    0    0  501 -0.00000000000E+00  0.00000000000E+00  0.33823953434E+03  0.33823953435E+03  0.25500000000E-02 0.  1.
          2   -1    0    0  501    0  0.00000000000E+00 -0.00000000000E+00 -0.34977623829E+04  0.34977623829E+04  0.25500000000E-02 0. -1.
    8880022    1    1    2    0    0 -0.22929707179E+03 -0.15914961424E+03  0.25429117000E+03  0.40738360178E+03  0.15294330000E+03 0.  0.
    8880022    1    1    2    0    0  0.22929707179E+03  0.15914961424E+03 -0.34138140185E+04  0.34286183154E+04  0.15294330000E+03 0. -1.
<mgrwt>
<rscale>  0 0.31827252E+03</rscale>
<asrwt>0</asrwt>
<pdfrwt beam="1">  1        2 0.53811727E+00 0.31827252E+03</pdfrwt>
<pdfrwt beam="2">  1       -2 0.52036854E-01 0.31827252E+03</pdfrwt>
<totfact> 0.35643545E+00</totfact>
</mgrwt>
</event>
<event>
 4    1  0.3365401E-008  0.2423250E+03  0.7818608E-02  0.1118254E+00
          2   -1    0    0  501    0  0.00000000000E+00  0.00000000000E+00  0.16561001880E+04  0.16561001880E+04  0.25500000000E-02 0. -1.
         -2   -1    0    0    0  501 -0.00000000000E+00 -0.00000000000E+00 -0.81669558639E+02  0.81669558679E+02  0.25500000000E-02 0.  1.
    8880022    1    1    2    0    0 -0.17813309768E+03 -0.59986391094E+02  0.13361976576E+03  0.27672307895E+03  0.15294330000E+03 0.  1.
    8880022    1    1    2    0    0  0.17813309768E+03  0.59986391094E+02  0.14408108636E+04  0.14610466677E+04  0.15294330000E+03 0.  0.
<mgrwt>
<rscale>  0 0.24232503E+03</rscale>
<asrwt>0</asrwt>
<pdfrwt beam="1">  1        2 0.25478465E+00 0.24232503E+03</pdfrwt>
<pdfrwt beam="2">  1       -2 0.12564547E-01 0.24232503E+03</pdfrwt>
<totfact> 0.52084249E+02</totfact>
</mgrwt>
</event>
<event>
 4    1  0.3365401E-008  0.6022811E+03  0.7818608E-02  0.9900685E-01
          2   -1    0    0  501    0  0.00000000000E+00  0.00000000000E+00  0.23289782574E+04  0.23289782574E+04  0.25500000000E-02 0. -1.
         -2   -1    0    0    0  501 -0.00000000000E+00 -0.00000000000E+00 -0.59251856073E+03  0.59251856074E+03  0.25500000000E-02 0.  1.
    8880022    1    1    2    0    0 -0.21798692095E+03 -0.54021530310E+03 -0.38591944844E+03  0.71531555631E+03  0.15294330000E+03 0.  0.
    8880022    1    1    2    0    0  0.21798692095E+03  0.54021530310E+03  0.21223791451E+04  0.22061812618E+04  0.15294330000E+03 0.  0.
<mgrwt>
<rscale>  0 0.60228110E+03</rscale>
<asrwt>0</asrwt>
<pdfrwt beam="1">  1        2 0.35830434E+00 0.60228110E+03</pdfrwt>
<pdfrwt beam="2">  1       -2 0.91156702E-01 0.60228110E+03</pdfrwt>
<totfact> 0.48177922E+00</totfact>
</mgrwt>
</event>
<event>
 4    1  0.3365401E-008  0.5373506E+03  0.7818608E-02  0.1004465E+00
         -2   -1    0    0    0  501 -0.00000000000E+00  0.00000000000E+00  0.88129076001E+02  0.88129076038E+02  0.25500000000E-02 0.  1.
          2   -1    0    0  501    0  0.00000000000E+00 -0.00000000000E+00 -0.33075017496E+04  0.33075017496E+04  0.25500000000E-02 0. -1.
    8880022    1    1    2    0    0 -0.31401729960E+03 -0.40834689447E+03 -0.14450352485E+04  0.15417109240E+04  0.15294330000E+03 0.  1.
    8880022    1    1    2    0    0  0.31401729960E+03  0.40834689447E+03 -0.17743374250E+04  0.18539199016E+04  0.15294330000E+03 0. -1.
<mgrwt>
<rscale>  0 0.53735063E+03</rscale>
<asrwt>0</asrwt>
<pdfrwt beam="1">  1        2 0.50884633E+00 0.53735063E+03</pdfrwt>
<pdfrwt beam="2">  1       -2 0.13558322E-01 0.53735063E+03</pdfrwt>
<totfact> 0.50711152E+01</totfact>
</mgrwt>
</event>
<event>
 4    1  0.3365401E-008  0.4875352E+03  0.7818608E-02  0.1017085E+00
         -2   -1    0    0    0  501 -0.00000000000E+00  0.00000000000E+00  0.77889448881E+03  0.77889448881E+03  0.25500000000E-02 0.  1.
          2   -1    0    0  501    0  0.00000000000E+00 -0.00000000000E+00 -0.71831017420E+03  0.71831017421E+03  0.25500000000E-02 0. -1.
    8880022    1    1    2    0    0 -0.14618090790E+03 -0.43923799913E+03 -0.53744465169E+03  0.72562888887E+03  0.15294330000E+03 0. -1.
    8880022    1    1    2    0    0  0.14618090790E+03  0.43923799913E+03  0.59802896629E+03  0.77157577415E+03  0.15294330000E+03 0.  0.
<mgrwt>
<rscale>  0 0.48753516E+03</rscale>
<asrwt>0</asrwt>
<pdfrwt beam="1">  1        2 0.11050926E+00 0.48753516E+03</pdfrwt>
<pdfrwt beam="2">  1       -2 0.11982992E+00 0.48753516E+03</pdfrwt>
<totfact> 0.22073082E+01</totfact>
</mgrwt>
</event>
<event>
 4    1  0.3365401E-008  0.1186115E+04  0.7818608E-02  0.9125098E-01
          2   -1    0    0  501    0  0.00000000000E+00  0.00000000000E+00  0.16321214867E+04  0.16321214867E+04  0.25500000000E-02 0. -1.
         -2   -1    0    0    0  501 -0.00000000000E+00 -0.00000000000E+00 -0.95015207126E+03  0.95015207126E+03  0.25500000000E-02 0.  1.
    8880022    1    1    2    0    0 -0.95827070897E+03 -0.68205134538E+03  0.73428345034E+03  0.13950056014E+04  0.15294330000E+03 0.  0.
    8880022    1    1    2    0    0  0.95827070897E+03  0.68205134538E+03 -0.52314034942E+02  0.11872679566E+04  0.15294330000E+03 0.  0.
<mgrwt>
<rscale>  0 0.11861149E+04</rscale>
<asrwt>0</asrwt>
<pdfrwt beam="1">  1        2 0.25109561E+00 0.11861149E+04</pdfrwt>
<pdfrwt beam="2">  1       -2 0.14617724E+00 0.11861149E+04</pdfrwt>
<totfact> 0.33421349E+00</totfact>
</mgrwt>
</event>
<event>
 4    1  0.3365401E-008  0.4401840E+03  0.7818608E-02  0.1030690E+00
         -2   -1    0    0    0  501 -0.00000000000E+00  0.00000000000E+00  0.14014380018E+03  0.14014380021E+03  0.25500000000E-02 0.  1.
          2   -1    0    0  501    0  0.00000000000E+00 -0.00000000000E+00 -0.23385134082E+04  0.23385134082E+04  0.25500000000E-02 0. -1.
    8880022    1    1    2    0    0 -0.19723210727E+03  0.36258762475E+03 -0.18915533674E+04  0.19420957969E+04  0.15294330000E+03 0.  0.
    8880022    1    1    2    0    0  0.19723210727E+03 -0.36258762475E+03 -0.30681624063E+03  0.53656141148E+03  0.15294330000E+03 0.  0.
<mgrwt>
<rscale>  0 0.44018399E+03</rscale>
<asrwt>0</asrwt>
<pdfrwt beam="1">  1        2 0.35977127E+00 0.44018399E+03</pdfrwt>
<pdfrwt beam="2">  1       -2 0.21560586E-01 0.44018399E+03</pdfrwt>
<totfact> 0.87388203E+01</totfact>
</mgrwt>
</event>
<event>
 4    1  0.3365401E-008  0.2065212E+03  0.7818608E-02  0.1144351E+00
          2   -1    0    0  501    0  0.00000000000E+00  0.00000000000E+00  0.16558918257E+04  0.16558918257E+04  0.25500000000E-02 0. -1.
         -2   -1    0    0    0  501 -0.00000000000E+00 -0.00000000000E+00 -0.10295525408E+03  0.10295525412E+03  0.25500000000E-02 0.  1.
    8880022    1    1    2    0    0  0.13623195855E+03  0.26461728992E+02  0.14955499511E+02  0.20706204290E+03  0.15294330000E+03 0.  1.
    8880022    1    1    2    0    0 -0.13623195855E+03 -0.26461728992E+02  0.15379810721E+04  0.15517850369E+04  0.15294330000E+03 0.  0.
<mgrwt>
<rscale>  0 0.20652124E+03</rscale>
<asrwt>0</asrwt>
<pdfrwt beam="1">  1        2 0.25475258E+00 0.20652124E+03</pdfrwt>
<pdfrwt beam="2">  1       -2 0.15839270E-01 0.20652124E+03</pdfrwt>
<totfact> 0.35859409E+02</totfact>
</mgrwt>
</event>
<event>
 4    1  0.3365401E-008  0.2697429E+03  0.7818608E-02  0.1101427E+00
          2   -1    0    0  501    0  0.00000000000E+00  0.00000000000E+00  0.24725513578E+03  0.24725513580E+03  0.25500000000E-02 0. -1.
         -2   -1    0    0    0  501 -0.00000000000E+00 -0.00000000000E+00 -0.52532114274E+03  0.52532114275E+03  0.25500000000E-02 0.  1.
    8880022    1    1    2    0    0 -0.97628291348E+02  0.19959526772E+03  0.11714835630E+03  0.29408322728E+03  0.15294330000E+03 0.  0.
    8880022    1    1    2    0    0  0.97628291348E+02 -0.19959526772E+03 -0.39521436326E+03  0.47849305127E+03  0.15294330000E+03 0.  0.
<mgrwt>
<rscale>  0 0.26974285E+03</rscale>
<asrwt>0</asrwt>
<pdfrwt beam="1">  1        2 0.38039252E-01 0.26974285E+03</pdfrwt>
<pdfrwt beam="2">  1       -2 0.80818637E-01 0.26974285E+03</pdfrwt>
<totfact> 0.18927410E+02</totfact>
</mgrwt>
</event>
<event>
 4    1  0.3365401E-008  0.2237728E+03  0.7818608E-02  0.1131101E+00
          2   -1    0    0  501    0  0.00000000000E+00  0.00000000000E+00  0.10942026138E+04  0.10942026138E+04  0.25500000000E-02 0. -1.
         -2   -1    0    0    0  501 -0.00000000000E+00 -0.00000000000E+00 -0.94304704119E+02  0.94304704154E+02  0.25500000000E-02 0.  1.
    8880022    1    1    2    0    0  0.12419421725E+03 -0.10610573832E+03  0.73603625639E+02  0.23556692897E+03  0.15294330000E+03 0.  1.
    8880022    1    1    2    0    0 -0.12419421725E+03  0.10610573832E+03  0.92629428401E+03  0.95294038896E+03  0.15294330000E+03 0.  0.
<mgrwt>
<rscale>  0 0.22377284E+03</rscale>
<asrwt>0</asrwt>
<pdfrwt beam="1">  1        2 0.16833888E+00 0.22377284E+03</pdfrwt>
<pdfrwt beam="2">  1       -2 0.14508415E-01 0.22377284E+03</pdfrwt>
<totfact> 0.83779623E+02</totfact>
</mgrwt>
</event>
<event>
 4    1  0.3365401E-008  0.1282927E+04  0.7818608E-02  0.9043214E-01
          2   -1    0    0  501    0  0.00000000000E+00  0.00000000000E+00  0.32616203970E+04  0.32616203970E+04  0.25500000000E-02 0. -1.
         -2   -1    0    0    0  501 -0.00000000000E+00 -0.00000000000E+00 -0.77394884484E+03  0.77394884484E+03  0.25500000000E-02 0.  1.
    8880022    1    1    2    0    0  0.69816171909E+03  0.10654020142E+04  0.53541954360E+02  0.12840442484E+04  0.15294330000E+03 0.  0.
    8880022    1    1    2    0    0 -0.69816171909E+03 -0.10654020142E+04  0.24341295978E+04  0.27515249934E+04  0.15294330000E+03 0.  0.
<mgrwt>
<rscale>  0 0.12829275E+04</rscale>
<asrwt>0</asrwt>
<pdfrwt beam="1">  1        2 0.50178775E+00 0.12829275E+04</pdfrwt>
<pdfrwt beam="2">  1       -2 0.11906905E+00 0.12829275E+04</pdfrwt>
<totfact> 0.62757950E-01</totfact>
</mgrwt>
</event>
<event>
 4    1  0.3365401E-008  0.7747761E+03  0.7818608E-02  0.9597263E-01
          2   -1    0    0  501    0  0.00000000000E+00  0.00000000000E+00  0.27428058921E+04  0.27428058921E+04  0.25500000000E-02 0. -1.
         -2   -1    0    0    0  501 -0.00000000000E+00 -0.00000000000E+00 -0.29131387348E+03  0.29131387349E+03  0.25500000000E-02 0.  1.
    8880022    1    1    2    0    0 -0.39188239304E+03  0.65062628601E+03  0.46914560285E+03  0.90574589357E+03  0.15294330000E+03 0.  0.
    8880022    1    1    2    0    0  0.39188239304E+03 -0.65062628601E+03  0.19823464158E+04  0.21283738721E+04  0.15294330000E+03 0.  0.
<mgrwt>
<rscale>  0 0.77477611E+03</rscale>
<asrwt>0</asrwt>
<pdfrwt beam="1">  1        2 0.42197013E+00 0.77477611E+03</pdfrwt>
<pdfrwt beam="2">  1       -2 0.44817520E-01 0.77477611E+03</pdfrwt>
<totfact> 0.12414019E+01</totfact>
</mgrwt>
</event>
<event>
 4    1  0.3365401E-008  0.1345634E+04  0.7818608E-02  0.8994140E-01
          2   -1    0    0  501    0  0.00000000000E+00  0.00000000000E+00  0.39828911062E+04  0.39828911062E+04  0.25500000000E-02 0. -1.
         -2   -1    0    0    0  501 -0.00000000000E+00 -0.00000000000E+00 -0.76199781230E+03  0.76199781231E+03  0.25500000000E-02 0.  1.
    8880022    1    1    2    0    0 -0.13305172981E+04  0.13062746345E+03  0.10366537164E+03  0.13496214199E+04  0.15294330000E+03 0.  0.
    8880022    1    1    2    0    0  0.13305172981E+04 -0.13062746345E+03  0.31172279223E+04  0.33952674986E+04  0.15294330000E+03 0.  0.
<mgrwt>
<rscale>  0 0.13456342E+04</rscale>
<asrwt>0</asrwt>
<pdfrwt beam="1">  1        2 0.61275248E+00 0.13456342E+04</pdfrwt>
<pdfrwt beam="2">  1       -2 0.11723043E+00 0.13456342E+04</pdfrwt>
<totfact> 0.19622741E-01</totfact>
</mgrwt>
</event>
<event>
 4    1  0.3365401E-008  0.4011597E+03  0.7818608E-02  0.1043379E+00
         -2   -1    0    0    0  501 -0.00000000000E+00  0.00000000000E+00  0.23885803040E+03  0.23885803041E+03  0.25500000000E-02 0.  1.
          2   -1    0    0  501    0  0.00000000000E+00 -0.00000000000E+00 -0.18514742093E+04  0.18514742093E+04  0.25500000000E-02 0. -1.
    8880022    1    1    2    0    0 -0.35226202547E+03  0.11596951744E+03  0.27276034296E+02  0.40208593438E+03  0.15294330000E+03 0.  0.
    8880022    1    1    2    0    0  0.35226202547E+03 -0.11596951744E+03 -0.16398922132E+04  0.16882463053E+04  0.15294330000E+03 0.  0.
<mgrwt>
<rscale>  0 0.40115971E+03</rscale>
<asrwt>0</asrwt>
<pdfrwt beam="1">  1        2 0.28484218E+00 0.40115971E+03</pdfrwt>
<pdfrwt beam="2">  1       -2 0.36747390E-01 0.40115971E+03</pdfrwt>
<totfact> 0.61004149E+01</totfact>
</mgrwt>
</event>
<event>
 4    1  0.3365401E-008  0.3931856E+03  0.7818608E-02  0.1046165E+00
         -2   -1    0    0    0  501 -0.00000000000E+00  0.00000000000E+00  0.23931418250E+03  0.23931418251E+03  0.25500000000E-02 0.  1.
          2   -1    0    0  501    0  0.00000000000E+00 -0.00000000000E+00 -0.79690808852E+03  0.79690808852E+03  0.25500000000E-02 0. -1.
    8880022    1    1    2    0    0  0.11027851578E+03  0.34502450678E+03 -0.50426623366E+03  0.63943674335E+03  0.15294330000E+03 0.  0.
    8880022    1    1    2    0    0 -0.11027851578E+03 -0.34502450678E+03 -0.53327672357E+02  0.39678552768E+03  0.15294330000E+03 0.  0.
<mgrwt>
<rscale>  0 0.39318560E+03</rscale>
<asrwt>0</asrwt>
<pdfrwt beam="1">  1        2 0.12260124E+00 0.39318560E+03</pdfrwt>
<pdfrwt beam="2">  1       -2 0.36817567E-01 0.39318560E+03</pdfrwt>
<totfact> 0.24814665E+02</totfact>
</mgrwt>
</event>
<event>
 4    1  0.4044105E-008  0.9274364E+03  0.7818608E-02  0.9391920E-01
         -2   -1    0    0    0  501 -0.00000000000E+00  0.00000000000E+00  0.16893603395E+04  0.16893603395E+04  0.25500000000E-02 0.  1.
          2   -1    0    0  501    0  0.00000000000E+00 -0.00000000000E+00 -0.11147036253E+04  0.11147036253E+04  0.25500000000E-02 0. -1.
    8880022    1    1    2    0    0 -0.59750249500E+03 -0.69263076552E+03 -0.74603825064E+03  0.11902568350E+04  0.15294330000E+03 0.  0.
    8880022    1    1    2    0    0  0.59750249500E+03  0.69263076552E+03  0.13206949649E+04  0.16138071298E+04  0.15294330000E+03 0.  0.
<mgrwt>
<rscale>  0 0.92743639E+03</rscale>
<asrwt>0</asrwt>
<pdfrwt beam="1">  1        2 0.17149287E+00 0.92743639E+03</pdfrwt>
<pdfrwt beam="2">  1       -2 0.25990159E+00 0.92743639E+03</pdfrwt>
<totfact> 0.12019619E+00</totfact>
</mgrwt>
</event>
<event>
 4    1  0.3365401E-008  0.6252055E+03  0.7818608E-02  0.9854450E-01
         -2   -1    0    0    0  501 -0.00000000000E+00  0.00000000000E+00  0.15271117571E+04  0.15271117571E+04  0.25500000000E-02 0.  1.
          2   -1    0    0  501    0  0.00000000000E+00 -0.00000000000E+00 -0.80362545469E+03  0.80362545470E+03  0.25500000000E-02 0. -1.
    8880022    1    1    2    0    0 -0.60172875726E+03  0.73571391290E+02 -0.60029773433E+03  0.86674060120E+03  0.15294330000E+03 0.  0.
    8880022    1    1    2    0    0  0.60172875726E+03 -0.73571391290E+02  0.13237840367E+04  0.14639966106E+04  0.15294330000E+03 0.  0.
<mgrwt>
<rscale>  0 0.62520549E+03</rscale>
<asrwt>0</asrwt>
<pdfrwt beam="1">  1        2 0.12363469E+00 0.62520549E+03</pdfrwt>
<pdfrwt beam="2">  1       -2 0.23494027E+00 0.62520549E+03</pdfrwt>
<totfact> 0.28626578E+00</totfact>
</mgrwt>
</event>
<event>
 4    1  0.3365401E-008  0.3698272E+03  0.7818608E-02  0.1054759E+00
          2   -1    0    0  501    0  0.00000000000E+00  0.00000000000E+00  0.17810696446E+04  0.17810696446E+04  0.25500000000E-02 0. -1.
         -2   -1    0    0    0  501 -0.00000000000E+00 -0.00000000000E+00 -0.22922715934E+03  0.22922715935E+03  0.25500000000E-02 0.  1.
    8880022    1    1    2    0    0 -0.45575080865E+02 -0.33362162758E+03 -0.43749700475E+02  0.37240591791E+03  0.15294330000E+03 0.  0.
    8880022    1    1    2    0    0  0.45575080865E+02  0.33362162758E+03  0.15955921858E+04  0.16378908861E+04  0.15294330000E+03 0.  0.
<mgrwt>
<rscale>  0 0.36982716E+03</rscale>
<asrwt>0</asrwt>
<pdfrwt beam="1">  1        2 0.27401071E+00 0.36982716E+03</pdfrwt>
<pdfrwt beam="2">  1       -2 0.35265718E-01 0.36982716E+03</pdfrwt>
<totfact> 0.72383574E+01</totfact>
</mgrwt>
</event>
<event>
 4    1  0.3365401E-008  0.2235168E+03  0.7818608E-02  0.1131288E+00
         -2   -1    0    0    0  501 -0.00000000000E+00  0.00000000000E+00  0.47660285861E+03  0.47660285861E+03  0.25500000000E-02 0.  1.
          2   -1    0    0  501    0  0.00000000000E+00 -0.00000000000E+00 -0.59065799529E+03  0.59065799530E+03  0.25500000000E-02 0. -1.
    8880022    1    1    2    0    0 -0.16268316360E+03  0.10114155134E+02 -0.54099503650E+03  0.58535065592E+03  0.15294330000E+03 0.  0.
    8880022    1    1    2    0    0  0.16268316360E+03 -0.10114155134E+02  0.42693989982E+03  0.48191019799E+03  0.15294330000E+03 0.  1.
<mgrwt>
<rscale>  0 0.22351680E+03</rscale>
<asrwt>0</asrwt>
<pdfrwt beam="1">  1        2 0.90870461E-01 0.22351680E+03</pdfrwt>
<pdfrwt beam="2">  1       -2 0.73323517E-01 0.22351680E+03</pdfrwt>
<totfact> 0.90450218E+01</totfact>
</mgrwt>
</event>
<event>
 4    1  0.3365401E-008  0.8323431E+03  0.7818608E-02  0.9514347E-01
         -2   -1    0    0    0  501 -0.00000000000E+00  0.00000000000E+00  0.24824057135E+03  0.24824057136E+03  0.25500000000E-02 0.  1.
          2   -1    0    0  501    0  0.00000000000E+00 -0.00000000000E+00 -0.32826912065E+04  0.32826912065E+04  0.25500000000E-02 0. -1.
    8880022    1    1    2    0    0 -0.81513117512E+03  0.70459234434E+02 -0.22006168475E+04  0.23527663502E+04  0.15294330000E+03 0.  0.
    8880022    1    1    2    0    0  0.81513117512E+03 -0.70459234434E+02 -0.83383378762E+03  0.11781654276E+04  0.15294330000E+03 0.  0.
<mgrwt>
<rscale>  0 0.83234307E+03</rscale>
<asrwt>0</asrwt>
<pdfrwt beam="1">  1        2 0.50502939E+00 0.83234307E+03</pdfrwt>
<pdfrwt beam="2">  1       -2 0.38190859E-01 0.83234307E+03</pdfrwt>
<totfact> 0.78315504E+00</totfact>
</mgrwt>
</event>
<event>
 4    1  0.3365401E-008  0.4942697E+03  0.7818608E-02  0.1015286E+00
          2   -1    0    0  501    0  0.00000000000E+00  0.00000000000E+00  0.77058709249E+03  0.77058709249E+03  0.25500000000E-02 0. -1.
         -2   -1    0    0    0  501 -0.00000000000E+00 -0.00000000000E+00 -0.41864691921E+03  0.41864691922E+03  0.25500000000E-02 0.  1.
    8880022    1    1    2    0    0  0.23303382353E+03  0.40817415860E+03  0.46891579695E+03  0.68131093071E+03  0.15294330000E+03 0.  0.
    8880022    1    1    2    0    0 -0.23303382353E+03 -0.40817415860E+03 -0.11697562367E+03  0.50792308100E+03  0.15294330000E+03 0.  0.
<mgrwt>
<rscale>  0 0.49426972E+03</rscale>
<asrwt>0</asrwt>
<pdfrwt beam="1">  1        2 0.11855186E+00 0.49426972E+03</pdfrwt>
<pdfrwt beam="2">  1       -2 0.64407218E-01 0.49426972E+03</pdfrwt>
<totfact> 0.83371741E+01</totfact>
</mgrwt>
</event>
<event>
 4    1  0.3365401E-008  0.6529475E+03  0.7818608E-02  0.9801264E-01
         -2   -1    0    0    0  501 -0.00000000000E+00  0.00000000000E+00  0.20596594488E+03  0.20596594489E+03  0.25500000000E-02 0.  1.
          2   -1    0    0  501    0  0.00000000000E+00 -0.00000000000E+00 -0.28921634380E+04  0.28921634380E+04  0.25500000000E-02 0. -1.
    8880022    1    1    2    0    0  0.59881766037E+03 -0.21063289008E+03 -0.21690393591E+04  0.22651870119E+04  0.15294330000E+03 0.  0.
    8880022    1    1    2    0    0 -0.59881766037E+03  0.21063289008E+03 -0.51715813408E+03  0.83294237100E+03  0.15294330000E+03 0.  0.
<mgrwt>
<rscale>  0 0.65294752E+03</rscale>
<asrwt>0</asrwt>
<pdfrwt beam="1">  1        2 0.44494819E+00 0.65294752E+03</pdfrwt>
<pdfrwt beam="2">  1       -2 0.31687071E-01 0.65294752E+03</pdfrwt>
<totfact> 0.20191887E+01</totfact>
</mgrwt>
</event>
<event>
 4    1  0.3365401E-008  0.2766645E+03  0.7818608E-02  0.1097525E+00
          2   -1    0    0  501    0  0.00000000000E+00  0.00000000000E+00  0.96539461992E+03  0.96539461992E+03  0.25500000000E-02 0. -1.
         -2   -1    0    0    0  501 -0.00000000000E+00 -0.00000000000E+00 -0.25516350092E+03  0.25516350093E+03  0.25500000000E-02 0.  1.
    8880022    1    1    2    0    0 -0.12356963045E+03  0.19463331744E+03  0.86178313463E+03  0.90510408571E+03  0.15294330000E+03 0. -1.
    8880022    1    1    2    0    0  0.12356963045E+03 -0.19463331744E+03 -0.15155201563E+03  0.31545403514E+03  0.15294330000E+03 0.  0.
<mgrwt>
<rscale>  0 0.27666448E+03</rscale>
<asrwt>0</asrwt>
<pdfrwt beam="1">  1        2 0.14852225E+00 0.27666448E+03</pdfrwt>
<pdfrwt beam="2">  1       -2 0.39255923E-01 0.27666448E+03</pdfrwt>
<totfact> 0.17210318E+02</totfact>
</mgrwt>
</event>
<event>
 4    1  0.3365401E-008  0.5960873E+03  0.7818608E-02  0.9913557E-01
          2   -1    0    0  501    0  0.00000000000E+00  0.00000000000E+00  0.67652625654E+03  0.67652625655E+03  0.25500000000E-02 0. -1.
         -2   -1    0    0    0  501 -0.00000000000E+00 -0.00000000000E+00 -0.11263894932E+04  0.11263894932E+04  0.25500000000E-02 0.  1.
    8880022    1    1    2    0    0 -0.43706930596E+03 -0.37536489274E+03  0.43363895936E+03  0.73713145436E+03  0.15294330000E+03 0.  1.
    8880022    1    1    2    0    0  0.43706930596E+03  0.37536489274E+03 -0.88350219597E+03  0.10657842954E+04  0.15294330000E+03 0.  0.
<mgrwt>
<rscale>  0 0.59608727E+03</rscale>
<asrwt>0</asrwt>
<pdfrwt beam="1">  1        2 0.10408096E+00 0.59608727E+03</pdfrwt>
<pdfrwt beam="2">  1       -2 0.17329069E+00 0.59608727E+03</pdfrwt>
<totfact> 0.89621671E+00</totfact>
</mgrwt>
</event>
<event>
 4    1  0.3365401E-008  0.3787401E+03  0.7818608E-02  0.1051400E+00
         -2   -1    0    0    0  501 -0.00000000000E+00  0.00000000000E+00  0.54988425266E+03  0.54988425266E+03  0.25500000000E-02 0.  1.
          2   -1    0    0  501    0  0.00000000000E+00 -0.00000000000E+00 -0.51215990526E+03  0.51215990527E+03  0.25500000000E-02 0. -1.
    8880022    1    1    2    0    0  0.28780532149E+02  0.34528845568E+03  0.39082876589E+03  0.54423452106E+03  0.15294330000E+03 0.  0.
    8880022    1    1    2    0    0 -0.28780532149E+02 -0.34528845568E+03 -0.35310441850E+03  0.51780963687E+03  0.15294330000E+03 0.  0.
<mgrwt>
<rscale>  0 0.37874013E+03</rscale>
<asrwt>0</asrwt>
<pdfrwt beam="1">  1        2 0.78793831E-01 0.37874013E+03</pdfrwt>
<pdfrwt beam="2">  1       -2 0.84597578E-01 0.37874013E+03</pdfrwt>
<totfact> 0.76000186E+01</totfact>
</mgrwt>
</event>
<event>
 4    1  0.3365401E-008  0.6262870E+03  0.7818608E-02  0.9852321E-01
         -2   -1    0    0    0  501 -0.00000000000E+00  0.00000000000E+00  0.49913849068E+03  0.49913849068E+03  0.25500000000E-02 0.  1.
          2   -1    0    0  501    0  0.00000000000E+00 -0.00000000000E+00 -0.25449417952E+04  0.25449417952E+04  0.25500000000E-02 0. -1.
    8880022    1    1    2    0    0 -0.79808033175E+02  0.60205853225E+03 -0.22883211751E+04  0.23724774502E+04  0.15294330000E+03 0.  0.
    8880022    1    1    2    0    0  0.79808033175E+02 -0.60205853225E+03  0.24251787051E+03  0.67160283572E+03  0.15294330000E+03 0.  0.
<mgrwt>
<rscale>  0 0.62628704E+03</rscale>
<asrwt>0</asrwt>
<pdfrwt beam="1">  1        2 0.39152950E+00 0.62628704E+03</pdfrwt>
<pdfrwt beam="2">  1       -2 0.76790538E-01 0.62628704E+03</pdfrwt>
<totfact> 0.53497139E+00</totfact>
</mgrwt>
</event>
<event>
 4    1  0.3365401E-008  0.2112640E+03  0.7818608E-02  0.1140569E+00
         -2   -1    0    0    0  501 -0.00000000000E+00  0.00000000000E+00  0.44858793790E+03  0.44858793791E+03  0.25500000000E-02 0.  1.
          2   -1    0    0  501    0  0.00000000000E+00 -0.00000000000E+00 -0.71005977304E+03  0.71005977305E+03  0.25500000000E-02 0. -1.
    8880022    1    1    2    0    0  0.10302776133E+03  0.10308302425E+03 -0.66794042832E+03  0.70055470757E+03  0.15294330000E+03 0. -1.
    8880022    1    1    2    0    0 -0.10302776133E+03 -0.10308302425E+03  0.40646859318E+03  0.45809300339E+03  0.15294330000E+03 0.  0.
<mgrwt>
<rscale>  0 0.21126401E+03</rscale>
<asrwt>0</asrwt>
<pdfrwt beam="1">  1        2 0.10923996E+00 0.21126401E+03</pdfrwt>
<pdfrwt beam="2">  1       -2 0.69013529E-01 0.21126401E+03</pdfrwt>
<totfact> 0.83066325E+01</totfact>
</mgrwt>
</event>
<event>
 4    1  0.3365401E-008  0.4460401E+03  0.7818608E-02  0.1028910E+00
         -2   -1    0    0    0  501 -0.00000000000E+00  0.00000000000E+00  0.20503466198E+03  0.20503466199E+03  0.25500000000E-02 0.  1.
          2   -1    0    0  501    0  0.00000000000E+00 -0.00000000000E+00 -0.15618030927E+04  0.15618030927E+04  0.25500000000E-02 0. -1.
    8880022    1    1    2    0    0 -0.16474374850E+03 -0.38525265262E+03 -0.13473323502E+03  0.46594506828E+03  0.15294330000E+03 0.  0.
    8880022    1    1    2    0    0  0.16474374850E+03  0.38525265262E+03 -0.12220351957E+04  0.13008926864E+04  0.15294330000E+03 0. -1.
<mgrwt>
<rscale>  0 0.44604009E+03</rscale>
<asrwt>0</asrwt>
<pdfrwt beam="1">  1        2 0.24027739E+00 0.44604009E+03</pdfrwt>
<pdfrwt beam="2">  1       -2 0.31543795E-01 0.44604009E+03</pdfrwt>
<totfact> 0.11531437E+02</totfact>
</mgrwt>
</event>
<event>
 4    1  0.3365401E-008  0.8043712E+03  0.7818608E-02  0.9553711E-01
          2   -1    0    0  501    0  0.00000000000E+00  0.00000000000E+00  0.12604229311E+04  0.12604229311E+04  0.25500000000E-02 0. -1.
         -2   -1    0    0    0  501 -0.00000000000E+00 -0.00000000000E+00 -0.60219667621E+03  0.60219667622E+03  0.25500000000E-02 0.  1.
    8880022    1    1    2    0    0  0.66375513576E+02  0.78690254278E+03  0.68687522614E+03  0.10577384128E+04  0.15294330000E+03 0.  0.
    8880022    1    1    2    0    0 -0.66375513576E+02 -0.78690254278E+03 -0.28648971283E+02  0.80488119447E+03  0.15294330000E+03 0.  0.
<mgrwt>
<rscale>  0 0.80437117E+03</rscale>
<asrwt>0</asrwt>
<pdfrwt beam="1">  1        2 0.19391122E+00 0.80437117E+03</pdfrwt>
<pdfrwt beam="2">  1       -2 0.92645644E-01 0.80437117E+03</pdfrwt>
<totfact> 0.17472793E+01</totfact>
</mgrwt>
</event>
<event>
 4    1  0.3365401E-008  0.1154872E+04  0.7818608E-02  0.9153301E-01
          2   -1    0    0  501    0  0.00000000000E+00  0.00000000000E+00  0.67483628448E+03  0.67483628449E+03  0.25500000000E-02 0. -1.
         -2   -1    0    0    0  501 -0.00000000000E+00 -0.00000000000E+00 -0.25984841372E+04  0.25984841372E+04  0.25500000000E-02 0.  1.
    8880022    1    1    2    0    0 -0.25270621510E+03  0.11164570363E+04 -0.16100859086E+03  0.11660412362E+04  0.15294330000E+03 0.  0.
    8880022    1    1    2    0    0  0.25270621510E+03 -0.11164570363E+04 -0.17626392619E+04  0.21072791855E+04  0.15294330000E+03 0.  0.
<mgrwt>
<rscale>  0 0.11548716E+04</rscale>
<asrwt>0</asrwt>
<pdfrwt beam="1">  1        2 0.10382097E+00 0.11548716E+04</pdfrwt>
<pdfrwt beam="2">  1       -2 0.39976679E+00 0.11548716E+04</pdfrwt>
<totfact> 0.31840775E-01</totfact>
</mgrwt>
</event>
<event>
 4    1  0.3365401E-008  0.3444778E+03  0.7818608E-02  0.1064905E+00
         -2   -1    0    0    0  501 -0.00000000000E+00  0.00000000000E+00  0.19853527089E+03  0.19853527091E+03  0.25500000000E-02 0.  1.
          2   -1    0    0  501    0  0.00000000000E+00 -0.00000000000E+00 -0.99436718123E+03  0.99436718123E+03  0.25500000000E-02 0. -1.
    8880022    1    1    2    0    0 -0.30621861972E+03  0.38774499595E+02 -0.21200443018E+02  0.34512956506E+03  0.15294330000E+03 0.  0.
    8880022    1    1    2    0    0  0.30621861972E+03 -0.38774499595E+02 -0.77463146732E+03  0.84777288707E+03  0.15294330000E+03 0.  0.
<mgrwt>
<rscale>  0 0.34447780E+03</rscale>
<asrwt>0</asrwt>
<pdfrwt beam="1">  1        2 0.15297956E+00 0.34447780E+03</pdfrwt>
<pdfrwt beam="2">  1       -2 0.30543889E-01 0.34447780E+03</pdfrwt>
<totfact> 0.26181715E+02</totfact>
</mgrwt>
</event>
<event>
 4    1  0.3365401E-008  0.8836700E+03  0.7818608E-02  0.9446228E-01
          2   -1    0    0  501    0  0.00000000000E+00  0.00000000000E+00  0.29763014145E+04  0.29763014145E+04  0.25500000000E-02 0. -1.
         -2   -1    0    0    0  501 -0.00000000000E+00 -0.00000000000E+00 -0.73201907297E+03  0.73201907297E+03  0.25500000000E-02 0.  1.
    8880022    1    1    2    0    0  0.41046381554E+03  0.76746362802E+03 -0.36302771969E+03  0.95533331486E+03  0.15294330000E+03 0.  0.
    8880022    1    1    2    0    0 -0.41046381554E+03 -0.76746362802E+03  0.26073100612E+04  0.27529871726E+04  0.15294330000E+03 0.  0.
<mgrwt>
<rscale>  0 0.88366997E+03</rscale>
<asrwt>0</asrwt>
<pdfrwt beam="1">  1        2 0.45789251E+00 0.88366997E+03</pdfrwt>
<pdfrwt beam="2">  1       -2 0.11261832E+00 0.88366997E+03</pdfrwt>
<totfact> 0.11612475E+00</totfact>
</mgrwt>
</event>
<event>
 4    1  0.3365401E-008  0.7369675E+03  0.7818608E-02  0.9656021E-01
         -2   -1    0    0    0  501 -0.00000000000E+00  0.00000000000E+00  0.52529797298E+03  0.52529797299E+03  0.25500000000E-02 0.  1.
          2   -1    0    0  501    0  0.00000000000E+00 -0.00000000000E+00 -0.12973287843E+04  0.12973287843E+04  0.25500000000E-02 0. -1.
    8880022    1    1    2    0    0  0.55553181896E+02 -0.71877901236E+03 -0.79664477030E+03  0.10852483438E+04  0.15294330000E+03 0.  0.
    8880022    1    1    2    0    0 -0.55553181896E+02  0.71877901236E+03  0.24613959029E+02  0.73737841345E+03  0.15294330000E+03 0.  0.
<mgrwt>
<rscale>  0 0.73696749E+03</rscale>
<asrwt>0</asrwt>
<pdfrwt beam="1">  1        2 0.19958904E+00 0.73696749E+03</pdfrwt>
<pdfrwt beam="2">  1       -2 0.80815073E-01 0.73696749E+03</pdfrwt>
<totfact> 0.22907164E+01</totfact>
</mgrwt>
</event>
<event>
 4    1  0.3365401E-008  0.6567806E+03  0.7818608E-02  0.9794138E-01
          2   -1    0    0  501    0  0.00000000000E+00  0.00000000000E+00  0.11360758686E+04  0.11360758686E+04  0.25500000000E-02 0. -1.
         -2   -1    0    0    0  501 -0.00000000000E+00 -0.00000000000E+00 -0.69549675062E+03  0.69549675063E+03  0.25500000000E-02 0.  1.
    8880022    1    1    2    0    0  0.15770403928E+03 -0.61894954885E+03 -0.39680939251E+03  0.76734506906E+03  0.15294330000E+03 0.  0.
    8880022    1    1    2    0    0 -0.15770403928E+03  0.61894954885E+03  0.83738851046E+03  0.10642275501E+04  0.15294330000E+03 0.  0.
<mgrwt>
<rscale>  0 0.65678060E+03</rscale>
<asrwt>0</asrwt>
<pdfrwt beam="1">  1        2 0.17478090E+00 0.65678060E+03</pdfrwt>
<pdfrwt beam="2">  1       -2 0.10699950E+00 0.65678060E+03</pdfrwt>
<totfact> 0.14983792E+01</totfact>
</mgrwt>
</event>
<event>
 4    1  0.3365401E-008  0.9690888E+03  0.7818608E-02  0.9343113E-01
         -2   -1    0    0    0  501 -0.00000000000E+00  0.00000000000E+00  0.10120845320E+04  0.10120845320E+04  0.25500000000E-02 0.  1.
          2   -1    0    0  501    0  0.00000000000E+00 -0.00000000000E+00 -0.20526254631E+04  0.20526254631E+04  0.25500000000E-02 0. -1.
    8880022    1    1    2    0    0  0.33294484128E+03 -0.89715619199E+03  0.61401925808E+03  0.11472370298E+04  0.15294330000E+03 0.  0.
    8880022    1    1    2    0    0 -0.33294484128E+03  0.89715619199E+03 -0.16545601892E+04  0.19174729653E+04  0.15294330000E+03 0.  0.
<mgrwt>
<rscale>  0 0.96908883E+03</rscale>
<asrwt>0</asrwt>
<pdfrwt beam="1">  1        2 0.31578853E+00 0.96908883E+03</pdfrwt>
<pdfrwt beam="2">  1       -2 0.15570531E+00 0.96908883E+03</pdfrwt>
<totfact> 0.16982286E+00</totfact>
</mgrwt>
</event>
<event>
 4    1  0.3365401E-008  0.4352198E+03  0.7818608E-02  0.1032224E+00
          2   -1    0    0  501    0  0.00000000000E+00  0.00000000000E+00  0.13087062613E+04  0.13087062613E+04  0.25500000000E-02 0. -1.
         -2   -1    0    0    0  501 -0.00000000000E+00 -0.00000000000E+00 -0.33939055069E+03  0.33939055070E+03  0.25500000000E-02 0.  1.
    8880022    1    1    2    0    0 -0.14280827773E+03 -0.38161557941E+03 -0.13941550447E+03  0.45700436599E+03  0.15294330000E+03 0.  0.
    8880022    1    1    2    0    0  0.14280827773E+03  0.38161557941E+03  0.11087312150E+04  0.11910924460E+04  0.15294330000E+03 0.  0.
<mgrwt>
<rscale>  0 0.43521984E+03</rscale>
<asrwt>0</asrwt>
<pdfrwt beam="1">  1        2 0.20133943E+00 0.43521984E+03</pdfrwt>
<pdfrwt beam="2">  1       -2 0.52213929E-01 0.43521984E+03</pdfrwt>
<totfact> 0.59914357E+01</totfact>
</mgrwt>
</event>
<event>
 4    1  0.3365401E-008  0.7363024E+03  0.7818608E-02  0.9657088E-01
          2   -1    0    0  501    0  0.00000000000E+00  0.00000000000E+00  0.39938489789E+03  0.39938489790E+03  0.25500000000E-02 0. -1.
         -2   -1    0    0    0  501 -0.00000000000E+00 -0.00000000000E+00 -0.14114853306E+04  0.14114853306E+04  0.25500000000E-02 0.  1.
    8880022    1    1    2    0    0  0.93524964925E+02 -0.71414467318E+03 -0.68322288370E+03  0.10044574133E+04  0.15294330000E+03 0.  0.
    8880022    1    1    2    0    0 -0.93524964925E+02  0.71414467318E+03 -0.32887754903E+03  0.80641281523E+03  0.15294330000E+03 0.  0.
<mgrwt>
<rscale>  0 0.73630237E+03</rscale>
<asrwt>0</asrwt>
<pdfrwt beam="1">  1        2 0.61443831E-01 0.73630237E+03</pdfrwt>
<pdfrwt beam="2">  1       -2 0.21715159E+00 0.73630237E+03</pdfrwt>
<totfact> 0.83971956E+00</totfact>
</mgrwt>
</event>
<event>
 4    1  0.3365401E-008  0.8280796E+03  0.7818608E-02  0.9520239E-01
          2   -1    0    0  501    0  0.00000000000E+00  0.00000000000E+00  0.11425404491E+04  0.11425404491E+04  0.25500000000E-02 0. -1.
         -2   -1    0    0    0  501 -0.00000000000E+00 -0.00000000000E+00 -0.13233248357E+04  0.13233248357E+04  0.25500000000E-02 0.  1.
    8880022    1    1    2    0    0 -0.29664171477E+03 -0.75784417229E+03 -0.10018204522E+04  0.12997538105E+04  0.15294330000E+03 0.  1.
    8880022    1    1    2    0    0  0.29664171477E+03  0.75784417229E+03  0.82103606566E+03  0.11661114743E+04  0.15294330000E+03 0.  0.
<mgrwt>
<rscale>  0 0.82807956E+03</rscale>
<asrwt>0</asrwt>
<pdfrwt beam="1">  1        2 0.17577545E+00 0.82807956E+03</pdfrwt>
<pdfrwt beam="2">  1       -2 0.20358844E+00 0.82807956E+03</pdfrwt>
<totfact> 0.26230499E+00</totfact>
</mgrwt>
</event>
<event>
 4    1  0.3365401E-008  0.6952739E+03  0.7818608E-02  0.9725349E-01
          2   -1    0    0  501    0  0.00000000000E+00  0.00000000000E+00  0.24480317794E+04  0.24480317794E+04  0.25500000000E-02 0. -1.
         -2   -1    0    0    0  501 -0.00000000000E+00 -0.00000000000E+00 -0.52463964384E+03  0.52463964385E+03  0.25500000000E-02 0.  1.
    8880022    1    1    2    0    0  0.66074425665E+03 -0.15307224660E+03  0.21354438511E+04  0.22457796374E+04  0.15294330000E+03 0.  0.
    8880022    1    1    2    0    0 -0.66074425665E+03  0.15307224660E+03 -0.21205171550E+03  0.72689178592E+03  0.15294330000E+03 0.  0.
<mgrwt>
<rscale>  0 0.69527386E+03</rscale>
<asrwt>0</asrwt>
<pdfrwt beam="1">  1        2 0.37662029E+00 0.69527386E+03</pdfrwt>
<pdfrwt beam="2">  1       -2 0.80713789E-01 0.69527386E+03</pdfrwt>
<totfact> 0.53519204E+00</totfact>
</mgrwt>
</event>
<event>
 4    1  0.3365401E-008  0.3902849E+03  0.7818608E-02  0.1047197E+00
         -2   -1    0    0    0  501 -0.00000000000E+00  0.00000000000E+00  0.58597696346E+03  0.58597696346E+03  0.25500000000E-02 0.  1.
          2   -1    0    0  501    0  0.00000000000E+00 -0.00000000000E+00 -0.78527212832E+03  0.78527212833E+03  0.25500000000E-02 0. -1.
    8880022    1    1    2    0    0  0.24872407365E+03  0.25897301635E+03 -0.66042534752E+03  0.76712709552E+03  0.15294330000E+03 0.  0.
    8880022    1    1    2    0    0 -0.24872407365E+03 -0.25897301635E+03  0.46113018265E+03  0.60412199628E+03  0.15294330000E+03 0.  0.
<mgrwt>
<rscale>  0 0.39028495E+03</rscale>
<asrwt>0</asrwt>
<pdfrwt beam="1">  1        2 0.12081110E+00 0.39028495E+03</pdfrwt>
<pdfrwt beam="2">  1       -2 0.90150302E-01 0.39028495E+03</pdfrwt>
<totfact> 0.39260377E+01</totfact>
</mgrwt>
</event>
<event>
 4    1  0.3365401E-008  0.4475133E+03  0.7818608E-02  0.1028466E+00
          2   -1    0    0  501    0  0.00000000000E+00  0.00000000000E+00  0.35586969897E+03  0.35586969897E+03  0.25500000000E-02 0. -1.
         -2   -1    0    0    0  501 -0.00000000000E+00 -0.00000000000E+00 -0.99189607368E+03  0.99189607368E+03  0.25500000000E-02 0.  1.
    8880022    1    1    2    0    0 -0.83829150549E+02  0.41212767194E+03  0.12523842508E+03  0.46470728485E+03  0.15294330000E+03 0.  0.
    8880022    1    1    2    0    0  0.83829150549E+02 -0.41212767194E+03 -0.76126479980E+03  0.88305848781E+03  0.15294330000E+03 0.  0.
<mgrwt>
<rscale>  0 0.44751335E+03</rscale>
<asrwt>0</asrwt>
<pdfrwt beam="1">  1        2 0.54749185E-01 0.44751335E+03</pdfrwt>
<pdfrwt beam="2">  1       -2 0.15259939E+00 0.44751335E+03</pdfrwt>
<totfact> 0.27063495E+01</totfact>
</mgrwt>
</event>
<event>
 4    1  0.3365401E-008  0.2012501E+03  0.7818608E-02  0.1148689E+00
         -2   -1    0    0    0  501 -0.00000000000E+00  0.00000000000E+00  0.18395452076E+03  0.18395452077E+03  0.25500000000E-02 0.  1.
          2   -1    0    0  501    0  0.00000000000E+00 -0.00000000000E+00 -0.74456924198E+03  0.74456924198E+03  0.25500000000E-02 0. -1.
    8880022    1    1    2    0    0 -0.44927924198E+02  0.12284718336E+03 -0.66992692343E+03  0.69950245502E+03  0.15294330000E+03 0.  0.
    8880022    1    1    2    0    0  0.44927924198E+02 -0.12284718336E+03  0.10931220221E+03  0.22902130774E+03  0.15294330000E+03 0.  1.
<mgrwt>
<rscale>  0 0.20125010E+03</rscale>
<asrwt>0</asrwt>
<pdfrwt beam="1">  1        2 0.11454911E+00 0.20125010E+03</pdfrwt>
<pdfrwt beam="2">  1       -2 0.28300696E-01 0.20125010E+03</pdfrwt>
<totfact> 0.44700630E+02</totfact>
</mgrwt>
</event>
<event>
 4    1  0.3365401E-008  0.1571464E+03  0.7818608E-02  0.1191957E+00
          2   -1    0    0  501    0  0.00000000000E+00  0.00000000000E+00  0.19723806111E+04  0.19723806111E+04  0.25500000000E-02 0. -1.
         -2   -1    0    0    0  501 -0.00000000000E+00 -0.00000000000E+00 -0.86045404632E+02  0.86045404670E+02  0.25500000000E-02 0.  1.
    8880022    1    1    2    0    0  0.42871884846E+01 -0.35846108032E+02 -0.82232740156E+01  0.15736136342E+03  0.15294330000E+03 0.  0.
    8880022    1    1    2    0    0 -0.42871884846E+01  0.35846108032E+02  0.18945584805E+04  0.19010646524E+04  0.15294330000E+03 0. -1.
<mgrwt>
<rscale>  0 0.15714635E+03</rscale>
<asrwt>0</asrwt>
<pdfrwt beam="1">  1        2 0.30344320E+00 0.15714635E+03</pdfrwt>
<pdfrwt beam="2">  1       -2 0.13237754E-01 0.15714635E+03</pdfrwt>
<totfact> 0.33451497E+02</totfact>
</mgrwt>
</event>
<event>
 4    1  0.3365401E-008  0.7694980E+03  0.7818608E-02  0.9605248E-01
          2   -1    0    0  501    0  0.00000000000E+00  0.00000000000E+00  0.15641773280E+04  0.15641773280E+04  0.25500000000E-02 0. -1.
         -2   -1    0    0    0  501 -0.00000000000E+00 -0.00000000000E+00 -0.73119051662E+03  0.73119051663E+03  0.25500000000E-02 0.  1.
    8880022    1    1    2    0    0  0.97573823692E+02 -0.74780667376E+03 -0.38052813206E+03  0.85844556303E+03  0.15294330000E+03 0.  0.
    8880022    1    1    2    0    0 -0.97573823692E+02  0.74780667376E+03  0.12135149434E+04  0.14369222816E+04  0.15294330000E+03 0.  0.
<mgrwt>
<rscale>  0 0.76949797E+03</rscale>
<asrwt>0</asrwt>
<pdfrwt beam="1">  1        2 0.24064266E+00 0.76949797E+03</pdfrwt>
<pdfrwt beam="2">  1       -2 0.11249085E+00 0.76949797E+03</pdfrwt>
<totfact> 0.74374582E+00</totfact>
</mgrwt>
</event>
<event>
 4    1  0.3365401E-008  0.6542489E+03  0.7818608E-02  0.9798839E-01
         -2   -1    0    0    0  501 -0.00000000000E+00  0.00000000000E+00  0.31227809718E+03  0.31227809719E+03  0.25500000000E-02 0.  1.
          2   -1    0    0  501    0  0.00000000000E+00 -0.00000000000E+00 -0.22971575605E+04  0.22971575605E+04  0.25500000000E-02 0. -1.
    8880022    1    1    2    0    0  0.57190737792E+03 -0.27851727410E+03 -0.18210159787E+04  0.19349782347E+04  0.15294330000E+03 0.  0.
    8880022    1    1    2    0    0 -0.57190737792E+03  0.27851727410E+03 -0.16386348463E+03  0.67445742305E+03  0.15294330000E+03 0.  0.
<mgrwt>
<rscale>  0 0.65424886E+03</rscale>
<asrwt>0</asrwt>
<pdfrwt beam="1">  1        2 0.35340885E+00 0.65424886E+03</pdfrwt>
<pdfrwt beam="2">  1       -2 0.48042786E-01 0.65424886E+03</pdfrwt>
<totfact> 0.19740413E+01</totfact>
</mgrwt>
</event>
<event>
 4    1  0.4228031E-008  0.5492961E+03  0.7818608E-02  0.1001657E+00
         -2   -1    0    0    0  501 -0.00000000000E+00  0.00000000000E+00  0.65210199845E+03  0.65210199845E+03  0.25500000000E-02 0.  1.
          2   -1    0    0  501    0  0.00000000000E+00 -0.00000000000E+00 -0.24884302742E+04  0.24884302742E+04  0.25500000000E-02 0. -1.
    8880022    1    1    2    0    0 -0.38536296205E+03 -0.36031927615E+03  0.49861305749E+03  0.74184986850E+03  0.15294330000E+03 0.  1.
    8880022    1    1    2    0    0  0.38536296205E+03  0.36031927615E+03 -0.23349413333E+04  0.23986824042E+04  0.15294330000E+03 0.  0.
<mgrwt>
<rscale>  0 0.54929614E+03</rscale>
<asrwt>0</asrwt>
<pdfrwt beam="1">  1        2 0.38283542E+00 0.54929614E+03</pdfrwt>
<pdfrwt beam="2">  1       -2 0.10032339E+00 0.54929614E+03</pdfrwt>
<totfact> 0.31815521E+00</totfact>
</mgrwt>
</event>
<event>
 4    1  0.3365401E-008  0.8146243E+03  0.7818608E-02  0.9539087E-01
          2   -1    0    0  501    0  0.00000000000E+00  0.00000000000E+00  0.15083971761E+04  0.15083971761E+04  0.25500000000E-02 0. -1.
         -2   -1    0    0    0  501 -0.00000000000E+00 -0.00000000000E+00 -0.13982076279E+04  0.13982076279E+04  0.25500000000E-02 0.  1.
    8880022    1    1    2    0    0 -0.75189914497E+03  0.27362171905E+03 -0.11480344586E+04  0.14076917065E+04  0.15294330000E+03 0.  1.
    8880022    1    1    2    0    0  0.75189914497E+03 -0.27362171905E+03  0.12582240069E+04  0.14989130975E+04  0.15294330000E+03 0. -1.
<mgrwt>
<rscale>  0 0.81462434E+03</rscale>
<asrwt>0</asrwt>
<pdfrwt beam="1">  1        2 0.23206110E+00 0.81462434E+03</pdfrwt>
<pdfrwt beam="2">  1       -2 0.21510887E+00 0.81462434E+03</pdfrwt>
<totfact> 0.13642849E+00</totfact>
</mgrwt>
</event>
<event>
 4    1  0.3365401E-008  0.6518555E+03  0.7818608E-02  0.9803304E-01
         -2   -1    0    0    0  501 -0.00000000000E+00  0.00000000000E+00  0.19577895752E+03  0.19577895754E+03  0.25500000000E-02 0.  1.
          2   -1    0    0  501    0  0.00000000000E+00 -0.00000000000E+00 -0.29533306047E+04  0.29533306047E+04  0.25500000000E-02 0. -1.
    8880022    1    1    2    0    0  0.63273338710E+03 -0.34240099630E+02 -0.21894899306E+04  0.22844653057E+04  0.15294330000E+03 0.  0.
    8880022    1    1    2    0    0 -0.63273338710E+03  0.34240099630E+02 -0.56806171659E+03  0.86464425659E+03  0.15294330000E+03 0.  0.
<mgrwt>
<rscale>  0 0.65185549E+03</rscale>
<asrwt>0</asrwt>
<pdfrwt beam="1">  1        2 0.45435852E+00 0.65185549E+03</pdfrwt>
<pdfrwt beam="2">  1       -2 0.30119842E-01 0.65185549E+03</pdfrwt>
<totfact> 0.20394127E+01</totfact>
</mgrwt>
</event>
<event>
 4    1  0.3365401E-008  0.9072869E+03  0.7818608E-02  0.9416518E-01
         -2   -1    0    0    0  501 -0.00000000000E+00  0.00000000000E+00  0.94016926099E+03  0.94016926100E+03  0.25500000000E-02 0.  1.
          2   -1    0    0  501    0  0.00000000000E+00 -0.00000000000E+00 -0.12559367580E+04  0.12559367580E+04  0.25500000000E-02 0. -1.
    8880022    1    1    2    0    0  0.64569503534E+03 -0.61875342676E+03 -0.76217941755E+03  0.11849417704E+04  0.15294330000E+03 0.  0.
    8880022    1    1    2    0    0 -0.64569503534E+03  0.61875342676E+03  0.44641192053E+03  0.10111642486E+04  0.15294330000E+03 0.  0.
<mgrwt>
<rscale>  0 0.90728691E+03</rscale>
<asrwt>0</asrwt>
<pdfrwt beam="1">  1        2 0.19322104E+00 0.90728691E+03</pdfrwt>
<pdfrwt beam="2">  1       -2 0.14464142E+00 0.90728691E+03</pdfrwt>
<totfact> 0.57968128E+00</totfact>
</mgrwt>
</event>
<event>
 4    1  0.3365401E-008  0.2092479E+03  0.7818608E-02  0.1142163E+00
          2   -1    0    0  501    0  0.00000000000E+00  0.00000000000E+00  0.21460947486E+04  0.21460947486E+04  0.25500000000E-02 0. -1.
         -2   -1    0    0    0  501 -0.00000000000E+00 -0.00000000000E+00 -0.57521422434E+02  0.57521422490E+02  0.25500000000E-02 0.  1.
    8880022    1    1    2    0    0 -0.14280292898E+03  0.59043329157E+00  0.15918815856E+03  0.26291737861E+03  0.15294330000E+03 0.  1.
    8880022    1    1    2    0    0  0.14280292898E+03 -0.59043329157E+00  0.19293851677E+04  0.19406987925E+04  0.15294330000E+03 0.  0.
<mgrwt>
<rscale>  0 0.20924789E+03</rscale>
<asrwt>0</asrwt>
<pdfrwt beam="1">  1        2 0.33016847E+00 0.20924789E+03</pdfrwt>
<pdfrwt beam="2">  1       -2 0.88494483E-02 0.20924789E+03</pdfrwt>
<totfact> 0.50869342E+02</totfact>
</mgrwt>
</event>
<event>
 4    1  0.3365401E-008  0.3346737E+03  0.7818608E-02  0.1069087E+00
         -2   -1    0    0    0  501 -0.00000000000E+00  0.00000000000E+00  0.24017062028E+03  0.24017062029E+03  0.25500000000E-02 0.  1.
          2   -1    0    0  501    0  0.00000000000E+00 -0.00000000000E+00 -0.10306146870E+04  0.10306146870E+04  0.25500000000E-02 0. -1.
    8880022    1    1    2    0    0 -0.24505142763E+03  0.16901065070E+03  0.74921900070E+02  0.34295735356E+03  0.15294330000E+03 0.  0.
    8880022    1    1    2    0    0  0.24505142763E+03 -0.16901065070E+03 -0.86536596682E+03  0.92782795376E+03  0.15294330000E+03 0.  0.
<mgrwt>
<rscale>  0 0.33467365E+03</rscale>
<asrwt>0</asrwt>
<pdfrwt beam="1">  1        2 0.15855610E+00 0.33467365E+03</pdfrwt>
<pdfrwt beam="2">  1       -2 0.36949327E-01 0.33467365E+03</pdfrwt>
<totfact> 0.17452355E+02</totfact>
</mgrwt>
</event>
<event>
 4    1  0.3365401E-008  0.1362343E+04  0.7818608E-02  0.8981537E-01
          2   -1    0    0  501    0  0.00000000000E+00  0.00000000000E+00  0.18129395158E+04  0.18129395158E+04  0.25500000000E-02 0. -1.
         -2   -1    0    0    0  501 -0.00000000000E+00 -0.00000000000E+00 -0.15344264297E+04  0.15344264297E+04  0.25500000000E-02 0.  1.
    8880022    1    1    2    0    0 -0.12452528493E+04  0.53097197784E+03  0.11048128177E+04  0.17540207853E+04  0.15294330000E+03 0.  0.
    8880022    1    1    2    0    0  0.12452528493E+04 -0.53097197784E+03 -0.82629973169E+03  0.15933451602E+04  0.15294330000E+03 0.  0.
<mgrwt>
<rscale>  0 0.13623427E+04</rscale>
<asrwt>0</asrwt>
<pdfrwt beam="1">  1        2 0.27891377E+00 0.13623427E+04</pdfrwt>
<pdfrwt beam="2">  1       -2 0.23606561E+00 0.13623427E+04</pdfrwt>
<totfact> 0.63347582E-01</totfact>
</mgrwt>
</event>
<event>
 4    1  0.4252551E-008  0.8271030E+03  0.7818608E-02  0.9521594E-01
         -2   -1    0    0    0  501 -0.00000000000E+00  0.00000000000E+00  0.12230236108E+04  0.12230236108E+04  0.25500000000E-02 0.  1.
          2   -1    0    0  501    0  0.00000000000E+00 -0.00000000000E+00 -0.13653968049E+04  0.13653968049E+04  0.25500000000E-02 0. -1.
    8880022    1    1    2    0    0  0.56851476758E+03 -0.58094643288E+03 -0.10655731596E+04  0.13489053378E+04  0.15294330000E+03 0.  0.
    8880022    1    1    2    0    0 -0.56851476758E+03  0.58094643288E+03  0.92319996560E+03  0.12395150779E+04  0.15294330000E+03 0.  0.
<mgrwt>
<rscale>  0 0.82710305E+03</rscale>
<asrwt>0</asrwt>
<pdfrwt beam="1">  1        2 0.21006105E+00 0.82710305E+03</pdfrwt>
<pdfrwt beam="2">  1       -2 0.18815748E+00 0.82710305E+03</pdfrwt>
<totfact> 0.24540486E+00</totfact>
</mgrwt>
</event>
<event>
 4    1  0.3365401E-008  0.1281123E+04  0.7818608E-02  0.9044670E-01
         -2   -1    0    0    0  501 -0.00000000000E+00  0.00000000000E+00  0.95721569781E+03  0.95721569781E+03  0.25500000000E-02 0.  1.
          2   -1    0    0  501    0  0.00000000000E+00 -0.00000000000E+00 -0.24859776904E+04  0.24859776904E+04  0.25500000000E-02 0. -1.
    8880022    1    1    2    0    0  0.10532632865E+04  0.71310610155E+03 -0.17233542558E+04  0.21473764008E+04  0.15294330000E+03 0.  0.
    8880022    1    1    2    0    0 -0.10532632865E+04 -0.71310610155E+03  0.19459226323E+03  0.12958169874E+04  0.15294330000E+03 0.  0.
<mgrwt>
<rscale>  0 0.12811228E+04</rscale>
<asrwt>0</asrwt>
<pdfrwt beam="1">  1        2 0.38245810E+00 0.12811228E+04</pdfrwt>
<pdfrwt beam="2">  1       -2 0.14726395E+00 0.12811228E+04</pdfrwt>
<totfact> 0.10801312E+00</totfact>
</mgrwt>
</event>
<event>
 4    1  0.3365401E-008  0.4678068E+03  0.7818608E-02  0.1022541E+00
          2   -1    0    0  501    0  0.00000000000E+00  0.00000000000E+00  0.15061538244E+04  0.15061538244E+04  0.25500000000E-02 0. -1.
         -2   -1    0    0    0  501 -0.00000000000E+00 -0.00000000000E+00 -0.22122194377E+03  0.22122194379E+03  0.25500000000E-02 0.  1.
    8880022    1    1    2    0    0  0.36079818412E+03 -0.25549209186E+03  0.13649193452E+03  0.48731226115E+03  0.15294330000E+03 0.  0.
    8880022    1    1    2    0    0 -0.36079818412E+03  0.25549209186E+03  0.11484399461E+04  0.12400635071E+04  0.15294330000E+03 0.  0.
<mgrwt>
<rscale>  0 0.46780679E+03</rscale>
<asrwt>0</asrwt>
<pdfrwt beam="1">  1        2 0.23171598E+00 0.46780679E+03</pdfrwt>
<pdfrwt beam="2">  1       -2 0.34034144E-01 0.46780679E+03</pdfrwt>
<totfact> 0.10695089E+02</totfact>
</mgrwt>
</event>
<event>
 4    1  0.3365401E-008  0.9700128E+03  0.7818608E-02  0.9342060E-01
          2   -1    0    0  501    0  0.00000000000E+00  0.00000000000E+00  0.98933797220E+03  0.98933797220E+03  0.25500000000E-02 0. -1.
         -2   -1    0    0    0  501 -0.00000000000E+00 -0.00000000000E+00 -0.14220852710E+04  0.14220852710E+04  0.25500000000E-02 0.  1.
    8880022    1    1    2    0    0 -0.52377068962E+03  0.80199596743E+03  0.47753185561E+03  0.10811852724E+04  0.15294330000E+03 0.  0.
    8880022    1    1    2    0    0  0.52377068962E+03 -0.80199596743E+03 -0.91027915444E+03  0.13302379709E+04  0.15294330000E+03 0.  0.
<mgrwt>
<rscale>  0 0.97001285E+03</rscale>
<asrwt>0</asrwt>
<pdfrwt beam="1">  1        2 0.15220584E+00 0.97001285E+03</pdfrwt>
<pdfrwt beam="2">  1       -2 0.21878235E+00 0.97001285E+03</pdfrwt>
<totfact> 0.25671225E+00</totfact>
</mgrwt>
</event>
<event>
 4    1  0.3365401E-008  0.2309853E+03  0.7818608E-02  0.1125948E+00
         -2   -1    0    0    0  501 -0.00000000000E+00  0.00000000000E+00  0.35064651417E+03  0.35064651418E+03  0.25500000000E-02 0.  1.
          2   -1    0    0  501    0  0.00000000000E+00 -0.00000000000E+00 -0.43777154644E+03  0.43777154644E+03  0.25500000000E-02 0. -1.
    8880022    1    1    2    0    0  0.15401973664E+03 -0.78996818660E+02  0.27485063433E+03  0.35902242387E+03  0.15294330000E+03 0.  1.
    8880022    1    1    2    0    0 -0.15401973664E+03  0.78996818660E+02 -0.36197566660E+03  0.42939563675E+03  0.15294330000E+03 0.  0.
<mgrwt>
<rscale>  0 0.23098535E+03</rscale>
<asrwt>0</asrwt>
<pdfrwt beam="1">  1        2 0.67349468E-01 0.23098535E+03</pdfrwt>
<pdfrwt beam="2">  1       -2 0.53945618E-01 0.23098535E+03</pdfrwt>
<totfact> 0.24061860E+02</totfact>
</mgrwt>
</event>
<event>
 4    1  0.3365401E-008  0.1331440E+04  0.7818608E-02  0.9004998E-01
          2   -1    0    0  501    0  0.00000000000E+00  0.00000000000E+00  0.26725101076E+04  0.26725101076E+04  0.25500000000E-02 0. -1.
         -2   -1    0    0    0  501 -0.00000000000E+00 -0.00000000000E+00 -0.79401791376E+03  0.79401791376E+03  0.25500000000E-02 0.  1.
    8880022    1    1    2    0    0  0.52198730808E+03 -0.12152654387E+04  0.16424511441E+04  0.21143269023E+04  0.15294330000E+03 0.  0.
    8880022    1    1    2    0    0 -0.52198730808E+03  0.12152654387E+04  0.23604104978E+03  0.13522011191E+04  0.15294330000E+03 0.  0.
<mgrwt>
<rscale>  0 0.13314400E+04</rscale>
<asrwt>0</asrwt>
<pdfrwt beam="1">  1        2 0.41115541E+00 0.13314400E+04</pdfrwt>
<pdfrwt beam="2">  1       -2 0.12215660E+00 0.13314400E+04</pdfrwt>
<totfact> 0.13548071E+00</totfact>
</mgrwt>
</event>
<event>
 4    1  0.4981736E-008  0.1246176E+04  0.7818608E-02  0.9073372E-01
          2   -1    0    0  501    0  0.00000000000E+00  0.00000000000E+00  0.23793245032E+04  0.23793245032E+04  0.25500000000E-02 0. -1.
         -2   -1    0    0    0  501 -0.00000000000E+00 -0.00000000000E+00 -0.17216531117E+04  0.17216531117E+04  0.25500000000E-02 0.  1.
    8880022    1    1    2    0    0  0.50694824405E+03 -0.11280812382E+04  0.19445569436E+04  0.23096010829E+04  0.15294330000E+03 0.  0.
    8880022    1    1    2    0    0 -0.50694824405E+03  0.11280812382E+04 -0.12868855521E+04  0.17913765320E+04  0.15294330000E+03 0.  0.
<mgrwt>
<rscale>  0 0.12461763E+04</rscale>
<asrwt>0</asrwt>
<pdfrwt beam="1">  1        2 0.36604992E+00 0.12461763E+04</pdfrwt>
<pdfrwt beam="2">  1       -2 0.26486971E+00 0.12461763E+04</pdfrwt>
<totfact> 0.20647996E-01</totfact>
</mgrwt>
</event>
<event>
 4    1  0.3365401E-008  0.2639563E+03  0.7818608E-02  0.1104789E+00
          2   -1    0    0  501    0  0.00000000000E+00  0.00000000000E+00  0.16860475185E+04  0.16860475185E+04  0.25500000000E-02 0. -1.
         -2   -1    0    0    0  501 -0.00000000000E+00 -0.00000000000E+00 -0.20263042207E+03  0.20263042208E+03  0.25500000000E-02 0.  1.
    8880022    1    1    2    0    0  0.10075582380E+03 -0.19007765973E+03  0.15842717198E+04  0.16061101420E+04  0.15294330000E+03 0.  0.
    8880022    1    1    2    0    0 -0.10075582380E+03  0.19007765973E+03 -0.10085462340E+03  0.28256779865E+03  0.15294330000E+03 0.  0.
<mgrwt>
<rscale>  0 0.26395626E+03</rscale>
<asrwt>0</asrwt>
<pdfrwt beam="1">  1        2 0.25939193E+00 0.26395626E+03</pdfrwt>
<pdfrwt beam="2">  1       -2 0.31173911E-01 0.26395626E+03</pdfrwt>
<totfact> 0.10490113E+02</totfact>
</mgrwt>
</event>
<event>
 4    1  0.3365401E-008  0.3516562E+03  0.7818608E-02  0.1061937E+00
          2   -1    0    0  501    0  0.00000000000E+00  0.00000000000E+00  0.85653473968E+03  0.85653473968E+03  0.25500000000E-02 0. -1.
         -2   -1    0    0    0  501 -0.00000000000E+00 -0.00000000000E+00 -0.15290329932E+03  0.15290329934E+03  0.25500000000E-02 0.  1.
    8880022    1    1    2    0    0  0.25742705205E+03 -0.18439556136E+03  0.23261562084E+03  0.42163027672E+03  0.15294330000E+03 0.  0.
    8880022    1    1    2    0    0 -0.25742705205E+03  0.18439556136E+03  0.47101581951E+03  0.58780776230E+03  0.15294330000E+03 0.  0.
<mgrwt>
<rscale>  0 0.35165617E+03</rscale>
<asrwt>0</asrwt>
<pdfrwt beam="1">  1        2 0.13177458E+00 0.35165617E+03</pdfrwt>
<pdfrwt beam="2">  1       -2 0.23523584E-01 0.35165617E+03</pdfrwt>
<totfact> 0.51395227E+02</totfact>
</mgrwt>
</event>
<event>
 4    1  0.3365401E-008  0.6168256E+03  0.7818608E-02  0.9871100E-01
         -2   -1    0    0    0  501 -0.00000000000E+00  0.00000000000E+00  0.11137099245E+04  0.11137099245E+04  0.25500000000E-02 0.  1.
          2   -1    0    0  501    0  0.00000000000E+00 -0.00000000000E+00 -0.71740961855E+03  0.71740961855E+03  0.25500000000E-02 0. -1.
    8880022    1    1    2    0    0  0.12120250180E+03 -0.58514284587E+03  0.86078032240E+03  0.10589695996E+04  0.15294330000E+03 0.  0.
    8880022    1    1    2    0    0 -0.12120250180E+03  0.58514284587E+03 -0.46448001642E+03  0.77214994345E+03  0.15294330000E+03 0.  0.
<mgrwt>
<rscale>  0 0.61682562E+03</rscale>
<asrwt>0</asrwt>
<pdfrwt beam="1">  1        2 0.11037071E+00 0.61682562E+03</pdfrwt>
<pdfrwt beam="2">  1       -2 0.17133999E+00 0.61682562E+03</pdfrwt>
<totfact> 0.85675651E+00</totfact>
</mgrwt>
</event>
<event>
 4    1  0.3365401E-008  0.8326926E+03  0.7818608E-02  0.9513865E-01
         -2   -1    0    0    0  501 -0.00000000000E+00  0.00000000000E+00  0.11286223095E+04  0.11286223095E+04  0.25500000000E-02 0.  1.
          2   -1    0    0  501    0  0.00000000000E+00 -0.00000000000E+00 -0.18168420305E+04  0.18168420305E+04  0.25500000000E-02 0. -1.
    8880022    1    1    2    0    0  0.81258988825E+03 -0.98402037705E+02 -0.15422428903E+04  0.17526808247E+04  0.15294330000E+03 0.  0.
    8880022    1    1    2    0    0 -0.81258988825E+03  0.98402037705E+02  0.85402316937E+03  0.11927835153E+04  0.15294330000E+03 0.  0.
<mgrwt>
<rscale>  0 0.83269258E+03</rscale>
<asrwt>0</asrwt>
<pdfrwt beam="1">  1        2 0.27951416E+00 0.83269258E+03</pdfrwt>
<pdfrwt beam="2">  1       -2 0.17363420E+00 0.83269258E+03</pdfrwt>
<totfact> 0.17316598E+00</totfact>
</mgrwt>
</event>
<event>
 4    1  0.3365401E-008  0.3336909E+03  0.7818608E-02  0.1069515E+00
          2   -1    0    0  501    0  0.00000000000E+00  0.00000000000E+00  0.11460475738E+03  0.11460475741E+03  0.25500000000E-02 0. -1.
         -2   -1    0    0    0  501 -0.00000000000E+00 -0.00000000000E+00 -0.12196775990E+04  0.12196775991E+04  0.25500000000E-02 0.  1.
    8880022    1    1    2    0    0  0.12078707773E+03 -0.27086606372E+03 -0.85341547280E+03  0.91633376280E+03  0.15294330000E+03 0.  0.
    8880022    1    1    2    0    0 -0.12078707773E+03  0.27086606372E+03 -0.25165736887E+03  0.41794859366E+03  0.15294330000E+03 0. -1.
<mgrwt>
<rscale>  0 0.33369087E+03</rscale>
<asrwt>0</asrwt>
<pdfrwt beam="1">  1        2 0.17631502E-01 0.33369087E+03</pdfrwt>
<pdfrwt beam="2">  1       -2 0.18764270E+00 0.33369087E+03</pdfrwt>
<totfact> 0.55498158E+01</totfact>
</mgrwt>
</event>
<event>
 4    1  0.3365401E-008  0.9657188E+03  0.7818608E-02  0.9346964E-01
          2   -1    0    0  501    0  0.00000000000E+00  0.00000000000E+00  0.33236252226E+04  0.33236252226E+04  0.25500000000E-02 0. -1.
         -2   -1    0    0    0  501 -0.00000000000E+00 -0.00000000000E+00 -0.44418498054E+03  0.44418498054E+03  0.25500000000E-02 0.  1.
    8880022    1    1    2    0    0 -0.30278006999E+03  0.90418215301E+03  0.25829863686E+04  0.27576133468E+04  0.15294330000E+03 0.  0.
    8880022    1    1    2    0    0  0.30278006999E+03 -0.90418215301E+03  0.29645387344E+03  0.10101968564E+04  0.15294330000E+03 0.  0.
<mgrwt>
<rscale>  0 0.96571879E+03</rscale>
<asrwt>0</asrwt>
<pdfrwt beam="1">  1        2 0.51132694E+00 0.96571879E+03</pdfrwt>
<pdfrwt beam="2">  1       -2 0.68336153E-01 0.96571879E+03</pdfrwt>
<totfact> 0.21812117E+00</totfact>
</mgrwt>
</event>
<event>
 4    1  0.3365401E-008  0.4115749E+03  0.7818608E-02  0.1039844E+00
          2   -1    0    0  501    0  0.00000000000E+00  0.00000000000E+00  0.31840298954E+04  0.31840298954E+04  0.25500000000E-02 0. -1.
         -2   -1    0    0    0  501 -0.00000000000E+00 -0.00000000000E+00 -0.29632986177E+03  0.29632986178E+03  0.25500000000E-02 0.  1.
    8880022    1    1    2    0    0 -0.24044478156E+03  0.29696557102E+03  0.30200982095E+04  0.30480136304E+04  0.15294330000E+03 0.  0.
    8880022    1    1    2    0    0  0.24044478156E+03 -0.29696557102E+03 -0.13239817583E+03  0.43234612677E+03  0.15294330000E+03 0.  1.
<mgrwt>
<rscale>  0 0.41157490E+03</rscale>
<asrwt>0</asrwt>
<pdfrwt beam="1">  1        2 0.48985074E+00 0.41157490E+03</pdfrwt>
<pdfrwt beam="2">  1       -2 0.45589211E-01 0.41157490E+03</pdfrwt>
<totfact> 0.70927695E+00</totfact>
</mgrwt>
</event>
<event>
 4    1  0.3365401E-008  0.5099829E+03  0.7818608E-02  0.1011206E+00
         -2   -1    0    0    0  501 -0.00000000000E+00  0.00000000000E+00  0.57105930235E+03  0.57105930236E+03  0.25500000000E-02 0.  1.
          2   -1    0    0  501    0  0.00000000000E+00 -0.00000000000E+00 -0.95252816744E+03  0.95252816745E+03  0.25500000000E-02 0. -1.
    8880022    1    1    2    0    0  0.12166042623E+02 -0.48635679729E+03  0.35958606878E+03  0.62400700376E+03  0.15294330000E+03 0.  0.
    8880022    1    1    2    0    0 -0.12166042623E+02  0.48635679729E+03 -0.74105493387E+03  0.89958046605E+03  0.15294330000E+03 0.  0.
<mgrwt>
<rscale>  0 0.50998294E+03</rscale>
<asrwt>0</asrwt>
<pdfrwt beam="1">  1        2 0.14654280E+00 0.50998294E+03</pdfrwt>
<pdfrwt beam="2">  1       -2 0.87855277E-01 0.50998294E+03</pdfrwt>
<totfact> 0.31537167E+01</totfact>
</mgrwt>
</event>
<event>
 4    1  0.3365401E-008  0.4384100E+03  0.7818608E-02  0.1031236E+00
         -2   -1    0    0    0  501 -0.00000000000E+00  0.00000000000E+00  0.25875649905E+03  0.25875649906E+03  0.25500000000E-02 0.  1.
          2   -1    0    0  501    0  0.00000000000E+00 -0.00000000000E+00 -0.14116970807E+04  0.14116970807E+04  0.25500000000E-02 0. -1.
    8880022    1    1    2    0    0 -0.19461524402E+03 -0.36185165981E+03 -0.11513996797E+04  0.12320408242E+04  0.15294330000E+03 0.  0.
    8880022    1    1    2    0    0  0.19461524402E+03  0.36185165981E+03 -0.15409019706E+01  0.43841275564E+03  0.15294330000E+03 0.  0.
<mgrwt>
<rscale>  0 0.43841005E+03</rscale>
<asrwt>0</asrwt>
<pdfrwt beam="1">  1        2 0.21718416E+00 0.43841005E+03</pdfrwt>
<pdfrwt beam="2">  1       -2 0.39808693E-01 0.43841005E+03</pdfrwt>
<totfact> 0.89815278E+01</totfact>
</mgrwt>
</event>
<event>
 4    1  0.3365401E-008  0.3964544E+03  0.7818608E-02  0.1045014E+00
         -2   -1    0    0    0  501 -0.00000000000E+00  0.00000000000E+00  0.58016604417E+03  0.58016604417E+03  0.25500000000E-02 0.  1.
          2   -1    0    0  501    0  0.00000000000E+00 -0.00000000000E+00 -0.12073063137E+04  0.12073063137E+04  0.25500000000E-02 0. -1.
    8880022    1    1    2    0    0  0.20930468737E+03 -0.29996002922E+03  0.47352842007E+03  0.61758018824E+03  0.15294330000E+03 0.  0.
    8880022    1    1    2    0    0 -0.20930468737E+03  0.29996002922E+03 -0.11006686896E+04  0.11698921696E+04  0.15294330000E+03 0.  0.
<mgrwt>
<rscale>  0 0.39645444E+03</rscale>
<asrwt>0</asrwt>
<pdfrwt beam="1">  1        2 0.18573943E+00 0.39645444E+03</pdfrwt>
<pdfrwt beam="2">  1       -2 0.89256315E-01 0.39645444E+03</pdfrwt>
<totfact> 0.21722857E+01</totfact>
</mgrwt>
</event>
<event>
 4    1  0.3429418E-008  0.4773008E+03  0.7818608E-02  0.1019880E+00
         -2   -1    0    0    0  501 -0.00000000000E+00  0.00000000000E+00  0.89091585377E+03  0.89091585377E+03  0.25500000000E-02 0.  1.
          2   -1    0    0  501    0  0.00000000000E+00 -0.00000000000E+00 -0.15394344914E+04  0.15394344914E+04  0.25500000000E-02 0. -1.
    8880022    1    1    2    0    0 -0.94771866896E+02 -0.44208906439E+03 -0.14339302090E+04  0.15112815571E+04  0.15294330000E+03 0. -1.
    8880022    1    1    2    0    0  0.94771866896E+02  0.44208906439E+03  0.78541157140E+03  0.91906878802E+03  0.15294330000E+03 0.  0.
<mgrwt>
<rscale>  0 0.47730085E+03</rscale>
<asrwt>0</asrwt>
<pdfrwt beam="1">  1        2 0.23683608E+00 0.47730085E+03</pdfrwt>
<pdfrwt beam="2">  1       -2 0.13706398E+00 0.47730085E+03</pdfrwt>
<totfact> 0.49508383E+00</totfact>
</mgrwt>
</event>
<event>
 4    1  0.3365401E-008  0.5753308E+03  0.7818608E-02  0.9957951E-01
         -2   -1    0    0    0  501 -0.00000000000E+00  0.00000000000E+00  0.57285286940E+03  0.57285286941E+03  0.25500000000E-02 0.  1.
          2   -1    0    0  501    0  0.00000000000E+00 -0.00000000000E+00 -0.60528558983E+03  0.60528558984E+03  0.25500000000E-02 0. -1.
    8880022    1    1    2    0    0  0.10611471432E+03  0.54438362106E+03  0.10926673553E+03  0.58561483245E+03  0.15294330000E+03 0.  0.
    8880022    1    1    2    0    0 -0.10611471432E+03 -0.54438362106E+03 -0.14169945596E+03  0.59252362680E+03  0.15294330000E+03 0.  0.
<mgrwt>
<rscale>  0 0.57533079E+03</rscale>
<asrwt>0</asrwt>
<pdfrwt beam="1">  1        2 0.93120860E-01 0.57533079E+03</pdfrwt>
<pdfrwt beam="2">  1       -2 0.88131211E-01 0.57533079E+03</pdfrwt>
<totfact> 0.55854104E+01</totfact>
</mgrwt>
</event>
<event>
 4    1  0.3365401E-008  0.8653832E+03  0.7818608E-02  0.9469920E-01
         -2   -1    0    0    0  501 -0.00000000000E+00  0.00000000000E+00  0.38993770978E+03  0.38993770978E+03  0.25500000000E-02 0.  1.
          2   -1    0    0  501    0  0.00000000000E+00 -0.00000000000E+00 -0.23891155042E+04  0.23891155042E+04  0.25500000000E-02 0. -1.
    8880022    1    1    2    0    0 -0.73805992761E+03 -0.42516354863E+03 -0.38421165467E+03  0.94684040283E+03  0.15294330000E+03 0.  0.
    8880022    1    1    2    0    0  0.73805992761E+03  0.42516354863E+03 -0.16149661398E+04  0.18322128112E+04  0.15294330000E+03 0.  0.
<mgrwt>
<rscale>  0 0.86538324E+03</rscale>
<asrwt>0</asrwt>
<pdfrwt beam="1">  1        2 0.36755622E+00 0.86538324E+03</pdfrwt>
<pdfrwt beam="2">  1       -2 0.59990418E-01 0.86538324E+03</pdfrwt>
<totfact> 0.10734035E+01</totfact>
</mgrwt>
</event>
<event>
 4    1  0.3365401E-008  0.4978661E+03  0.7818608E-02  0.1014337E+00
          2   -1    0    0  501    0  0.00000000000E+00  0.00000000000E+00  0.51809059160E+03  0.51809059160E+03  0.25500000000E-02 0. -1.
         -2   -1    0    0    0  501 -0.00000000000E+00 -0.00000000000E+00 -0.55023288763E+03  0.55023288764E+03  0.25500000000E-02 0.  1.
    8880022    1    1    2    0    0  0.37962048233E+03 -0.28349117316E+03 -0.20903118926E+03  0.53996726472E+03  0.15294330000E+03 0. -1.
    8880022    1    1    2    0    0 -0.37962048233E+03  0.28349117316E+03  0.17688889322E+03  0.52835621453E+03  0.15294330000E+03 0. -1.
<mgrwt>
<rscale>  0 0.49786606E+03</rscale>
<asrwt>0</asrwt>
<pdfrwt beam="1">  1        2 0.79706244E-01 0.49786606E+03</pdfrwt>
<pdfrwt beam="2">  1       -2 0.84651214E-01 0.49786606E+03</pdfrwt>
<totfact> 0.74013289E+01</totfact>
</mgrwt>
</event>
<event>
 4    1  0.3365401E-008  0.9396965E+03  0.7818608E-02  0.9377276E-01
          2   -1    0    0  501    0  0.00000000000E+00  0.00000000000E+00  0.24831532871E+04  0.24831532871E+04  0.25500000000E-02 0. -1.
         -2   -1    0    0    0  501 -0.00000000000E+00 -0.00000000000E+00 -0.41688267074E+03  0.41688267075E+03  0.25500000000E-02 0.  1.
    8880022    1    1    2    0    0 -0.76948385253E+03  0.51723533396E+03  0.15890479821E+04  0.18461047999E+04  0.15294330000E+03 0.  0.
    8880022    1    1    2    0    0  0.76948385253E+03 -0.51723533396E+03  0.47722263433E+03  0.10539311580E+04  0.15294330000E+03 0.  0.
<mgrwt>
<rscale>  0 0.93969646E+03</rscale>
<asrwt>0</asrwt>
<pdfrwt beam="1">  1        2 0.38202359E+00 0.93969646E+03</pdfrwt>
<pdfrwt beam="2">  1       -2 0.64135794E-01 0.93969646E+03</pdfrwt>
<totfact> 0.81523249E+00</totfact>
</mgrwt>
</event>
<event>
 4    1  0.3365401E-008  0.4456601E+03  0.7818608E-02  0.1029024E+00
         -2   -1    0    0    0  501 -0.00000000000E+00  0.00000000000E+00  0.46200019779E+03  0.46200019780E+03  0.25500000000E-02 0.  1.
          2   -1    0    0  501    0  0.00000000000E+00 -0.00000000000E+00 -0.10938984204E+04  0.10938984204E+04  0.25500000000E-02 0. -1.
    8880022    1    1    2    0    0  0.36270619834E+03  0.20896285948E+03  0.29015469435E+03  0.53179193546E+03  0.15294330000E+03 0.  0.
    8880022    1    1    2    0    0 -0.36270619834E+03 -0.20896285948E+03 -0.92205291697E+03  0.10241066828E+04  0.15294330000E+03 0.  0.
<mgrwt>
<rscale>  0 0.44566009E+03</rscale>
<asrwt>0</asrwt>
<pdfrwt beam="1">  1        2 0.16829206E+00 0.44566009E+03</pdfrwt>
<pdfrwt beam="2">  1       -2 0.71076954E-01 0.44566009E+03</pdfrwt>
<totfact> 0.41689245E+01</totfact>
</mgrwt>
</event>
<event>
 4    1  0.3365401E-008  0.5669482E+03  0.7818608E-02  0.9976455E-01
         -2   -1    0    0    0  501 -0.00000000000E+00  0.00000000000E+00  0.54862382982E+03  0.54862382983E+03  0.25500000000E-02 0.  1.
          2   -1    0    0  501    0  0.00000000000E+00 -0.00000000000E+00 -0.71765645007E+03  0.71765645007E+03  0.25500000000E-02 0. -1.
    8880022    1    1    2    0    0  0.54542738302E+03 -0.23399184029E+02  0.18678570396E+03  0.59692470562E+03  0.15294330000E+03 0.  0.
    8880022    1    1    2    0    0 -0.54542738302E+03  0.23399184029E+02 -0.35581832421E+03  0.66935557428E+03  0.15294330000E+03 0.  0.
<mgrwt>
<rscale>  0 0.56694815E+03</rscale>
<asrwt>0</asrwt>
<pdfrwt beam="1">  1        2 0.11040868E+00 0.56694815E+03</pdfrwt>
<pdfrwt beam="2">  1       -2 0.84403666E-01 0.56694815E+03</pdfrwt>
<totfact> 0.50024783E+01</totfact>
</mgrwt>
</event>
<event>
 4    1  0.3365401E-008  0.6596174E+03  0.7818608E-02  0.9788898E-01
          2   -1    0    0  501    0  0.00000000000E+00  0.00000000000E+00  0.98460610833E+03  0.98460610834E+03  0.25500000000E-02 0. -1.
         -2   -1    0    0    0  501 -0.00000000000E+00 -0.00000000000E+00 -0.51323456511E+03  0.51323456511E+03  0.25500000000E-02 0.  1.
    8880022    1    1    2    0    0  0.63852313433E+03  0.63179347518E+02  0.51489835720E+03  0.83678873935E+03  0.15294330000E+03 0.  0.
    8880022    1    1    2    0    0 -0.63852313433E+03 -0.63179347518E+02 -0.43526813977E+02  0.66105193410E+03  0.15294330000E+03 0.  0.
<mgrwt>
<rscale>  0 0.65961737E+03</rscale>
<asrwt>0</asrwt>
<pdfrwt beam="1">  1        2 0.15147786E+00 0.65961737E+03</pdfrwt>
<pdfrwt beam="2">  1       -2 0.78959165E-01 0.65961737E+03</pdfrwt>
<totfact> 0.37597457E+01</totfact>
</mgrwt>
</event>
<event>
 4    1  0.3365401E-008  0.7501681E+03  0.7818608E-02  0.9635087E-01
         -2   -1    0    0    0  501 -0.00000000000E+00  0.00000000000E+00  0.74579746468E+03  0.74579746468E+03  0.25500000000E-02 0.  1.
          2   -1    0    0  501    0  0.00000000000E+00 -0.00000000000E+00 -0.17884992359E+04  0.17884992359E+04  0.25500000000E-02 0. -1.
    8880022    1    1    2    0    0  0.58060920645E+03 -0.44972592355E+03 -0.14848020303E+04  0.16635471677E+04  0.15294330000E+03 0.  0.
    8880022    1    1    2    0    0 -0.58060920645E+03  0.44972592355E+03  0.44210025908E+03  0.87074953289E+03  0.15294330000E+03 0.  0.
<mgrwt>
<rscale>  0 0.75016805E+03</rscale>
<asrwt>0</asrwt>
<pdfrwt beam="1">  1        2 0.27515373E+00 0.75016805E+03</pdfrwt>
<pdfrwt beam="2">  1       -2 0.11473807E+00 0.75016805E+03</pdfrwt>
<totfact> 0.53536642E+00</totfact>
</mgrwt>
</event>
<event>
 4    1  0.3690869E-008  0.4158449E+03  0.7818608E-02  0.1038427E+00
          2   -1    0    0  501    0  0.00000000000E+00  0.00000000000E+00  0.18653859671E+04  0.18653859671E+04  0.25500000000E-02 0. -1.
         -2   -1    0    0    0  501 -0.00000000000E+00 -0.00000000000E+00 -0.87065607374E+03  0.87065607374E+03  0.25500000000E-02 0.  1.
    8880022    1    1    2    0    0 -0.19215232847E+03 -0.33557830234E+03 -0.79577682393E+03  0.89787956924E+03  0.15294330000E+03 0.  0.
    8880022    1    1    2    0    0  0.19215232847E+03  0.33557830234E+03  0.17905067173E+04  0.18381624716E+04  0.15294330000E+03 0. -1.
<mgrwt>
<rscale>  0 0.41584488E+03</rscale>
<asrwt>0</asrwt>
<pdfrwt beam="1">  1        2 0.28698246E+00 0.41584488E+03</pdfrwt>
<pdfrwt beam="2">  1       -2 0.13394709E+00 0.41584488E+03</pdfrwt>
<totfact> 0.35645143E+00</totfact>
</mgrwt>
</event>
<event>
 4    1  0.3365401E-008  0.6727728E+03  0.7818608E-02  0.9764962E-01
          2   -1    0    0  501    0  0.00000000000E+00  0.00000000000E+00  0.30204854345E+04  0.30204854345E+04  0.25500000000E-02 0. -1.
         -2   -1    0    0    0  501 -0.00000000000E+00 -0.00000000000E+00 -0.32661361651E+03  0.32661361652E+03  0.25500000000E-02 0.  1.
    8880022    1    1    2    0    0 -0.65510214553E+03  0.85293124517E+01  0.11577037449E+03  0.68266097214E+03  0.15294330000E+03 0.  0.
    8880022    1    1    2    0    0  0.65510214553E+03 -0.85293124517E+01  0.25781014435E+04  0.26644380789E+04  0.15294330000E+03 0.  0.
<mgrwt>
<rscale>  0 0.67277279E+03</rscale>
<asrwt>0</asrwt>
<pdfrwt beam="1">  1        2 0.46469008E+00 0.67277279E+03</pdfrwt>
<pdfrwt beam="2">  1       -2 0.50248248E-01 0.67277279E+03</pdfrwt>
<totfact> 0.68527417E+00</totfact>
</mgrwt>
</event>
<event>
 4    1  0.3365401E-008  0.3894398E+03  0.7818608E-02  0.1047499E+00
          2   -1    0    0  501    0  0.00000000000E+00  0.00000000000E+00  0.11890849501E+04  0.11890849501E+04  0.25500000000E-02 0. -1.
         -2   -1    0    0    0  501 -0.00000000000E+00 -0.00000000000E+00 -0.17440183938E+03  0.17440183940E+03  0.25500000000E-02 0.  1.
    8880022    1    1    2    0    0 -0.24669242799E+03  0.25964315997E+03  0.86070849172E+03  0.94471291156E+03  0.15294330000E+03 0.  0.
    8880022    1    1    2    0    0  0.24669242799E+03 -0.25964315997E+03  0.15397461904E+03  0.41877387797E+03  0.15294330000E+03 0.  0.
<mgrwt>
<rscale>  0 0.38943983E+03</rscale>
<asrwt>0</asrwt>
<pdfrwt beam="1">  1        2 0.18293615E+00 0.38943983E+03</pdfrwt>
<pdfrwt beam="2">  1       -2 0.26831052E-01 0.38943983E+03</pdfrwt>
<totfact> 0.25211333E+02</totfact>
</mgrwt>
</event>
<event>
 4    1  0.3365401E-008  0.4728934E+03  0.7818608E-02  0.1021107E+00
          2   -1    0    0  501    0  0.00000000000E+00  0.00000000000E+00  0.12745290854E+04  0.12745290854E+04  0.25500000000E-02 0. -1.
         -2   -1    0    0    0  501 -0.00000000000E+00 -0.00000000000E+00 -0.58616419797E+03  0.58616419797E+03  0.25500000000E-02 0.  1.
    8880022    1    1    2    0    0  0.42743156710E+03 -0.13243405051E+03  0.11229359417E+04  0.12184470872E+04  0.15294330000E+03 0.  0.
    8880022    1    1    2    0    0 -0.42743156710E+03  0.13243405051E+03 -0.43457105422E+03  0.64224619615E+03  0.15294330000E+03 0.  0.
<mgrwt>
<rscale>  0 0.47289341E+03</rscale>
<asrwt>0</asrwt>
<pdfrwt beam="1">  1        2 0.19608140E+00 0.47289341E+03</pdfrwt>
<pdfrwt beam="2">  1       -2 0.90179108E-01 0.47289341E+03</pdfrwt>
<totfact> 0.19120895E+01</totfact>
</mgrwt>
</event>
<event>
 4    1  0.3573400E-008  0.7337270E+03  0.7818608E-02  0.9661232E-01
          2   -1    0    0  501    0  0.00000000000E+00  0.00000000000E+00  0.14496702009E+04  0.14496702009E+04  0.25500000000E-02 0. -1.
         -2   -1    0    0    0  501 -0.00000000000E+00 -0.00000000000E+00 -0.15856268626E+04  0.15856268626E+04  0.25500000000E-02 0.  1.
    8880022    1    1    2    0    0 -0.45473054582E+03  0.55514300593E+03 -0.13960669974E+04  0.15771361198E+04  0.15294330000E+03 0.  0.
    8880022    1    1    2    0    0  0.45473054582E+03 -0.55514300593E+03  0.12601103357E+04  0.14581609436E+04  0.15294330000E+03 0. -1.
<mgrwt>
<rscale>  0 0.73372698E+03</rscale>
<asrwt>0</asrwt>
<pdfrwt beam="1">  1        2 0.22302618E+00 0.73372698E+03</pdfrwt>
<pdfrwt beam="2">  1       -2 0.24394260E+00 0.73372698E+03</pdfrwt>
<totfact> 0.99042712E-01</totfact>
</mgrwt>
</event>
<event>
 4    1  0.3365401E-008  0.1037391E+04  0.7818608E-02  0.9268460E-01
         -2   -1    0    0    0  501 -0.00000000000E+00  0.00000000000E+00  0.45290546800E+03  0.45290546801E+03  0.25500000000E-02 0.  1.
          2   -1    0    0  501    0  0.00000000000E+00 -0.00000000000E+00 -0.29033047403E+04  0.29033047403E+04  0.25500000000E-02 0. -1.
    8880022    1    1    2    0    0 -0.78031862818E+02  0.10230829421E+04 -0.19402466968E+04  0.22001673971E+04  0.15294330000E+03 0.  0.
    8880022    1    1    2    0    0  0.78031862818E+02 -0.10230829421E+04 -0.51015257556E+03  0.11560428112E+04  0.15294330000E+03 0.  0.
<mgrwt>
<rscale>  0 0.10373906E+04</rscale>
<asrwt>0</asrwt>
<pdfrwt beam="1">  1        2 0.44666226E+00 0.10373906E+04</pdfrwt>
<pdfrwt beam="2">  1       -2 0.69677766E-01 0.10373906E+04</pdfrwt>
<totfact> 0.38086314E+00</totfact>
</mgrwt>
</event>
<event>
 4    1  0.3365401E-008  0.5699773E+03  0.7818608E-02  0.9969729E-01
         -2   -1    0    0    0  501 -0.00000000000E+00  0.00000000000E+00  0.33777906800E+03  0.33777906801E+03  0.25500000000E-02 0.  1.
          2   -1    0    0  501    0  0.00000000000E+00 -0.00000000000E+00 -0.14562886986E+04  0.14562886986E+04  0.25500000000E-02 0. -1.
    8880022    1    1    2    0    0 -0.13431739081E+03 -0.53239201483E+03 -0.36538952439E+02  0.57114723757E+03  0.15294330000E+03 0.  0.
    8880022    1    1    2    0    0  0.13431739081E+03  0.53239201483E+03 -0.10819706782E+04  0.12229205290E+04  0.15294330000E+03 0. -1.
<mgrwt>
<rscale>  0 0.56997726E+03</rscale>
<asrwt>0</asrwt>
<pdfrwt beam="1">  1        2 0.22404441E+00 0.56997726E+03</pdfrwt>
<pdfrwt beam="2">  1       -2 0.51966011E-01 0.56997726E+03</pdfrwt>
<totfact> 0.49026623E+01</totfact>
</mgrwt>
</event>
<event>
 4    1  0.3365401E-008  0.8586118E+03  0.7818608E-02  0.9478851E-01
         -2   -1    0    0    0  501 -0.00000000000E+00  0.00000000000E+00  0.12514415290E+04  0.12514415290E+04  0.25500000000E-02 0.  1.
          2   -1    0    0  501    0  0.00000000000E+00 -0.00000000000E+00 -0.72984375066E+03  0.72984375067E+03  0.25500000000E-02 0. -1.
    8880022    1    1    2    0    0 -0.81963387877E+02 -0.84089507543E+03 -0.17424091218E+03  0.87611304825E+03  0.15294330000E+03 0.  0.
    8880022    1    1    2    0    0  0.81963387877E+02  0.84089507543E+03  0.69583869049E+03  0.11051722314E+04  0.15294330000E+03 0.  1.
<mgrwt>
<rscale>  0 0.85861177E+03</rscale>
<asrwt>0</asrwt>
<pdfrwt beam="1">  1        2 0.11228366E+00 0.85861177E+03</pdfrwt>
<pdfrwt beam="2">  1       -2 0.19252946E+00 0.85861177E+03</pdfrwt>
<totfact> 0.58321099E+00</totfact>
</mgrwt>
</event>
<event>
 4    1  0.3365401E-008  0.7864766E+03  0.7818608E-02  0.9579801E-01
         -2   -1    0    0    0  501 -0.00000000000E+00  0.00000000000E+00  0.97192021143E+03  0.97192021143E+03  0.25500000000E-02 0.  1.
          2   -1    0    0  501    0  0.00000000000E+00 -0.00000000000E+00 -0.12188901235E+04  0.12188901235E+04  0.25500000000E-02 0. -1.
    8880022    1    1    2    0    0  0.67733198963E+03  0.36929005613E+03 -0.88072031018E+03  0.11807682616E+04  0.15294330000E+03 0.  0.
    8880022    1    1    2    0    0 -0.67733198963E+03 -0.36929005613E+03  0.63375039815E+03  0.10100420733E+04  0.15294330000E+03 0.  0.
<mgrwt>
<rscale>  0 0.78647659E+03</rscale>
<asrwt>0</asrwt>
<pdfrwt beam="1">  1        2 0.18752156E+00 0.78647659E+03</pdfrwt>
<pdfrwt beam="2">  1       -2 0.14952619E+00 0.78647659E+03</pdfrwt>
<totfact> 0.56682945E+00</totfact>
</mgrwt>
</event>
<event>
 4    1  0.5323254E-008  0.1267430E+04  0.7818608E-02  0.9055800E-01
         -2   -1    0    0    0  501 -0.00000000000E+00  0.00000000000E+00  0.24366589453E+04  0.24366589453E+04  0.25500000000E-02 0.  1.
          2   -1    0    0  501    0  0.00000000000E+00 -0.00000000000E+00 -0.20352393670E+04  0.20352393670E+04  0.25500000000E-02 0. -1.
    8880022    1    1    2    0    0  0.90680118813E+03 -0.87218050422E+03 -0.16377789436E+04  0.20709173687E+04  0.15294330000E+03 0.  0.
    8880022    1    1    2    0    0 -0.90680118813E+03  0.87218050422E+03  0.20391985220E+04  0.24009809436E+04  0.15294330000E+03 0.  0.
<mgrwt>
<rscale>  0 0.12674300E+04</rscale>
<asrwt>0</asrwt>
<pdfrwt beam="1">  1        2 0.31311375E+00 0.12674300E+04</pdfrwt>
<pdfrwt beam="2">  1       -2 0.37487061E+00 0.12674300E+04</pdfrwt>
<totfact> 0.67094987E-02</totfact>
</mgrwt>
</event>
<event>
 4    1  0.3365401E-008  0.6763984E+03  0.7818608E-02  0.9758468E-01
          2   -1    0    0  501    0  0.00000000000E+00  0.00000000000E+00  0.26108802618E+04  0.26108802618E+04  0.25500000000E-02 0. -1.
         -2   -1    0    0    0  501 -0.00000000000E+00 -0.00000000000E+00 -0.33178530036E+03  0.33178530037E+03  0.25500000000E-02 0.  1.
    8880022    1    1    2    0    0 -0.65887373649E+03 -0.29335890682E+01  0.21502206828E+04  0.22540993422E+04  0.15294330000E+03 0.  0.
    8880022    1    1    2    0    0  0.65887373649E+03  0.29335890682E+01  0.12887427858E+03  0.68856621996E+03  0.15294330000E+03 0.  0.
<mgrwt>
<rscale>  0 0.67639845E+03</rscale>
<asrwt>0</asrwt>
<pdfrwt beam="1">  1        2 0.40167388E+00 0.67639845E+03</pdfrwt>
<pdfrwt beam="2">  1       -2 0.51043893E-01 0.67639845E+03</pdfrwt>
<totfact> 0.11584304E+01</totfact>
</mgrwt>
</event>
<event>
 4    1  0.3365401E-008  0.9700151E+03  0.7818608E-02  0.9342057E-01
         -2   -1    0    0    0  501 -0.00000000000E+00  0.00000000000E+00  0.60576209685E+03  0.60576209686E+03  0.25500000000E-02 0.  1.
          2   -1    0    0  501    0  0.00000000000E+00 -0.00000000000E+00 -0.25394169928E+04  0.25394169928E+04  0.25500000000E-02 0. -1.
    8880022    1    1    2    0    0 -0.37581195042E+03  0.88108061591E+03 -0.19467977975E+04  0.21750749392E+04  0.15294330000E+03 0. -1.
    8880022    1    1    2    0    0  0.37581195042E+03 -0.88108061591E+03  0.13142901574E+02  0.97010415043E+03  0.15294330000E+03 0.  0.
<mgrwt>
<rscale>  0 0.97001512E+03</rscale>
<asrwt>0</asrwt>
<pdfrwt beam="1">  1        2 0.39067953E+00 0.97001512E+03</pdfrwt>
<pdfrwt beam="2">  1       -2 0.93194170E-01 0.97001512E+03</pdfrwt>
<totfact> 0.32644119E+00</totfact>
</mgrwt>
</event>
<event>
 4    1  0.3365401E-008  0.4099740E+03  0.7818608E-02  0.1040380E+00
          2   -1    0    0  501    0  0.00000000000E+00  0.00000000000E+00  0.11519640796E+04  0.11519640796E+04  0.25500000000E-02 0. -1.
         -2   -1    0    0    0  501 -0.00000000000E+00 -0.00000000000E+00 -0.21561143321E+03  0.21561143323E+03  0.25500000000E-02 0.  1.
    8880022    1    1    2    0    0  0.32520265030E+03 -0.19730754016E+03  0.85696908523E+03  0.94998668160E+03  0.15294330000E+03 0.  0.
    8880022    1    1    2    0    0 -0.32520265030E+03  0.19730754016E+03  0.79383561151E+02  0.41758883122E+03  0.15294330000E+03 0.  0.
<mgrwt>
<rscale>  0 0.40997400E+03</rscale>
<asrwt>0</asrwt>
<pdfrwt beam="1">  1        2 0.17722524E+00 0.40997400E+03</pdfrwt>
<pdfrwt beam="2">  1       -2 0.33170990E-01 0.40997400E+03</pdfrwt>
<totfact> 0.17913641E+02</totfact>
</mgrwt>
</event>
<event>
 4    1  0.3365401E-008  0.6251050E+03  0.7818608E-02  0.9854648E-01
         -2   -1    0    0    0  501 -0.00000000000E+00  0.00000000000E+00  0.33819914782E+03  0.33819914783E+03  0.25500000000E-02 0.  1.
          2   -1    0    0  501    0  0.00000000000E+00 -0.00000000000E+00 -0.19678924610E+04  0.19678924610E+04  0.25500000000E-02 0. -1.
    8880022    1    1    2    0    0  0.44206432306E+03 -0.41466096023E+03 -0.15557384934E+04  0.16766271173E+04  0.15294330000E+03 0.  0.
    8880022    1    1    2    0    0 -0.44206432306E+03  0.41466096023E+03 -0.73954819744E+02  0.62946449148E+03  0.15294330000E+03 0.  0.
<mgrwt>
<rscale>  0 0.62510498E+03</rscale>
<asrwt>0</asrwt>
<pdfrwt beam="1">  1        2 0.30275268E+00 0.62510498E+03</pdfrwt>
<pdfrwt beam="2">  1       -2 0.52030640E-01 0.62510498E+03</pdfrwt>
<totfact> 0.25531885E+01</totfact>
</mgrwt>
</event>
<event>
 4    1  0.3365401E-008  0.5361576E+03  0.7818608E-02  0.1004750E+00
         -2   -1    0    0    0  501 -0.00000000000E+00  0.00000000000E+00  0.25991257575E+03  0.25991257576E+03  0.25500000000E-02 0.  1.
          2   -1    0    0  501    0  0.00000000000E+00 -0.00000000000E+00 -0.13962643230E+04  0.13962643230E+04  0.25500000000E-02 0. -1.
    8880022    1    1    2    0    0  0.36636728344E+03 -0.36034478708E+03 -0.94573489671E+03  0.10871428148E+04  0.15294330000E+03 0.  0.
    8880022    1    1    2    0    0 -0.36636728344E+03  0.36034478708E+03 -0.19061685053E+03  0.56903408393E+03  0.15294330000E+03 0.  0.
<mgrwt>
<rscale>  0 0.53615763E+03</rscale>
<asrwt>0</asrwt>
<pdfrwt beam="1">  1        2 0.21480989E+00 0.53615763E+03</pdfrwt>
<pdfrwt beam="2">  1       -2 0.39986551E-01 0.53615763E+03</pdfrwt>
<totfact> 0.89594904E+01</totfact>
</mgrwt>
</event>
<event>
 4    1  0.3365401E-008  0.7145719E+03  0.7818608E-02  0.9692632E-01
          2   -1    0    0  501    0  0.00000000000E+00  0.00000000000E+00  0.70543087870E+03  0.70543087870E+03  0.25500000000E-02 0. -1.
         -2   -1    0    0    0  501 -0.00000000000E+00 -0.00000000000E+00 -0.92364681212E+03  0.92364681212E+03  0.25500000000E-02 0.  1.
    8880022    1    1    2    0    0 -0.45947863201E+03  0.52545285146E+03  0.26974737006E+03  0.76379094590E+03  0.15294330000E+03 0.  0.
    8880022    1    1    2    0    0  0.45947863201E+03 -0.52545285146E+03 -0.48796330348E+03  0.86528674492E+03  0.15294330000E+03 0.  0.
<mgrwt>
<rscale>  0 0.71457188E+03</rscale>
<asrwt>0</asrwt>
<pdfrwt beam="1">  1        2 0.10852783E+00 0.71457188E+03</pdfrwt>
<pdfrwt beam="2">  1       -2 0.14209951E+00 0.71457188E+03</pdfrwt>
<totfact> 0.14277202E+01</totfact>
</mgrwt>
</event>
<event>
 4    1  0.3365401E-008  0.3783509E+03  0.7818608E-02  0.1051545E+00
         -2   -1    0    0    0  501 -0.00000000000E+00  0.00000000000E+00  0.21806897197E+04  0.21806897197E+04  0.25500000000E-02 0.  1.
          2   -1    0    0  501    0  0.00000000000E+00 -0.00000000000E+00 -0.80959203930E+02  0.80959203970E+02  0.25500000000E-02 0. -1.
    8880022    1    1    2    0    0 -0.29335350654E+03 -0.18357961661E+03  0.55802724561E+03  0.67419864675E+03  0.15294330000E+03 0.  0.
    8880022    1    1    2    0    0  0.29335350654E+03  0.18357961661E+03  0.15417032701E+04  0.15874502769E+04  0.15294330000E+03 0.  0.
<mgrwt>
<rscale>  0 0.37835091E+03</rscale>
<asrwt>0</asrwt>
<pdfrwt beam="1">  1        2 0.12455263E-01 0.37835091E+03</pdfrwt>
<pdfrwt beam="2">  1       -2 0.33549071E+00 0.37835091E+03</pdfrwt>
<totfact> 0.10726699E+01</totfact>
</mgrwt>
</event>
<event>
 4    1  0.3365401E-008  0.6200265E+03  0.7818608E-02  0.9864707E-01
         -2   -1    0    0    0  501 -0.00000000000E+00  0.00000000000E+00  0.60614208320E+03  0.60614208321E+03  0.25500000000E-02 0.  1.
          2   -1    0    0  501    0  0.00000000000E+00 -0.00000000000E+00 -0.88357112522E+03  0.88357112522E+03  0.25500000000E-02 0. -1.
    8880022    1    1    2    0    0  0.42138829876E+03 -0.42833763329E+03  0.25697063213E+03  0.67116822423E+03  0.15294330000E+03 0.  0.
    8880022    1    1    2    0    0 -0.42138829876E+03  0.42833763329E+03 -0.53439967415E+03  0.81854498420E+03  0.15294330000E+03 0.  0.
<mgrwt>
<rscale>  0 0.62002652E+03</rscale>
<asrwt>0</asrwt>
<pdfrwt beam="1">  1        2 0.13593402E+00 0.62002652E+03</pdfrwt>
<pdfrwt beam="2">  1       -2 0.93252628E-01 0.62002652E+03</pdfrwt>
<totfact> 0.30114857E+01</totfact>
</mgrwt>
</event>
<event>
 4    1  0.3365401E-008  0.5031455E+03  0.7818608E-02  0.1012961E+00
         -2   -1    0    0    0  501 -0.00000000000E+00  0.00000000000E+00  0.28716550931E+03  0.28716550932E+03  0.25500000000E-02 0.  1.
          2   -1    0    0  501    0  0.00000000000E+00 -0.00000000000E+00 -0.14581918440E+04  0.14581918440E+04  0.25500000000E-02 0. -1.
    8880022    1    1    2    0    0  0.47828564420E+03  0.31726027229E+02 -0.36738467139E+02  0.50448495144E+03  0.15294330000E+03 0.  0.
    8880022    1    1    2    0    0 -0.47828564420E+03 -0.31726027229E+02 -0.11342878675E+04  0.12408724019E+04  0.15294330000E+03 0.  0.
<mgrwt>
<rscale>  0 0.50314546E+03</rscale>
<asrwt>0</asrwt>
<pdfrwt beam="1">  1        2 0.22433720E+00 0.50314546E+03</pdfrwt>
<pdfrwt beam="2">  1       -2 0.44179310E-01 0.50314546E+03</pdfrwt>
<totfact> 0.68400945E+01</totfact>
</mgrwt>
</event>
<event>
 4    1  0.4822364E-008  0.1069113E+04  0.7818608E-02  0.9235830E-01
         -2   -1    0    0    0  501 -0.00000000000E+00  0.00000000000E+00  0.13762340604E+04  0.13762340604E+04  0.25500000000E-02 0.  1.
          2   -1    0    0  501    0  0.00000000000E+00 -0.00000000000E+00 -0.26510053586E+04  0.26510053586E+04  0.25500000000E-02 0. -1.
    8880022    1    1    2    0    0  0.68972727882E+03  0.80242595425E+03 -0.23060332571E+04  0.25418088376E+04  0.15294330000E+03 0. -1.
    8880022    1    1    2    0    0 -0.68972727882E+03 -0.80242595425E+03  0.10312619589E+04  0.14854305814E+04  0.15294330000E+03 0.  0.
<mgrwt>
<rscale>  0 0.10691131E+04</rscale>
<asrwt>0</asrwt>
<pdfrwt beam="1">  1        2 0.40784698E+00 0.10691131E+04</pdfrwt>
<pdfrwt beam="2">  1       -2 0.21172832E+00 0.10691131E+04</pdfrwt>
<totfact> 0.31638833E-01</totfact>
</mgrwt>
</event>
<event>
 4    1  0.3365401E-008  0.1436827E+04  0.7818608E-02  0.8927584E-01
          2   -1    0    0  501    0  0.00000000000E+00  0.00000000000E+00  0.22986784446E+04  0.22986784446E+04  0.25500000000E-02 0. -1.
         -2   -1    0    0    0  501 -0.00000000000E+00 -0.00000000000E+00 -0.12452653846E+04  0.12452653846E+04  0.25500000000E-02 0.  1.
    8880022    1    1    2    0    0  0.10960599832E+04  0.91636920759E+03  0.14622981308E+04  0.20500701178E+04  0.15294330000E+03 0.  0.
    8880022    1    1    2    0    0 -0.10960599832E+04 -0.91636920759E+03 -0.40888507086E+03  0.14938737114E+04  0.15294330000E+03 0.  0.
<mgrwt>
<rscale>  0 0.14368269E+04</rscale>
<asrwt>0</asrwt>
<pdfrwt beam="1">  1        2 0.35364283E+00 0.14368269E+04</pdfrwt>
<pdfrwt beam="2">  1       -2 0.19157929E+00 0.14368269E+04</pdfrwt>
<totfact> 0.65007630E-01</totfact>
</mgrwt>
</event>
<event>
 4    1  0.3365401E-008  0.4904867E+03  0.7818608E-02  0.1016292E+00
         -2   -1    0    0    0  501 -0.00000000000E+00  0.00000000000E+00  0.82933568349E+03  0.82933568350E+03  0.25500000000E-02 0.  1.
          2   -1    0    0  501    0  0.00000000000E+00 -0.00000000000E+00 -0.25120776343E+04  0.25120776343E+04  0.25500000000E-02 0. -1.
    8880022    1    1    2    0    0  0.46223499464E+03  0.59366235726E+02  0.72991436620E+03  0.87940444348E+03  0.15294330000E+03 0.  0.
    8880022    1    1    2    0    0 -0.46223499464E+03 -0.59366235726E+02 -0.24126563171E+04  0.24620088744E+04  0.15294330000E+03 0.  0.
<mgrwt>
<rscale>  0 0.49048669E+03</rscale>
<asrwt>0</asrwt>
<pdfrwt beam="1">  1        2 0.38647348E+00 0.49048669E+03</pdfrwt>
<pdfrwt beam="2">  1       -2 0.12759011E+00 0.49048669E+03</pdfrwt>
<totfact> 0.17508604E+00</totfact>
</mgrwt>
</event>
<event>
 4    1  0.3365401E-008  0.1288551E+04  0.7818608E-02  0.9038694E-01
         -2   -1    0    0    0  501 -0.00000000000E+00  0.00000000000E+00  0.86100942094E+03  0.86100942094E+03  0.25500000000E-02 0.  1.
          2   -1    0    0  501    0  0.00000000000E+00 -0.00000000000E+00 -0.32028972094E+04  0.32028972094E+04  0.25500000000E-02 0. -1.
    8880022    1    1    2    0    0  0.12612161125E+04 -0.21518806254E+03  0.11083477746E+03  0.12933089289E+04  0.15294330000E+03 0.  0.
    8880022    1    1    2    0    0 -0.12612161125E+04  0.21518806254E+03 -0.24527225660E+04  0.27705977015E+04  0.15294330000E+03 0.  0.
<mgrwt>
<rscale>  0 0.12885510E+04</rscale>
<asrwt>0</asrwt>
<pdfrwt beam="1">  1        2 0.49275341E+00 0.12885510E+04</pdfrwt>
<pdfrwt beam="2">  1       -2 0.13246299E+00 0.12885510E+04</pdfrwt>
<totfact> 0.52278662E-01</totfact>
</mgrwt>
</event>
<event>
 4    1  0.3365401E-008  0.2425073E+03  0.7818608E-02  0.1118134E+00
         -2   -1    0    0    0  501 -0.00000000000E+00  0.00000000000E+00  0.47987347205E+03  0.47987347206E+03  0.25500000000E-02 0.  1.
          2   -1    0    0  501    0  0.00000000000E+00 -0.00000000000E+00 -0.73426207307E+03  0.73426207307E+03  0.25500000000E-02 0. -1.
    8880022    1    1    2    0    0 -0.13467304793E+03  0.13145845196E+03  0.42690063978E+03  0.49097246734E+03  0.15294330000E+03 0.  0.
    8880022    1    1    2    0    0  0.13467304793E+03 -0.13145845196E+03 -0.68128924080E+03  0.72316307778E+03  0.15294330000E+03 0.  0.
<mgrwt>
<rscale>  0 0.24250733E+03</rscale>
<asrwt>0</asrwt>
<pdfrwt beam="1">  1        2 0.11296340E+00 0.24250733E+03</pdfrwt>
<pdfrwt beam="2">  1       -2 0.73826688E-01 0.24250733E+03</pdfrwt>
<totfact> 0.68499223E+01</totfact>
</mgrwt>
</event>
<event>
 4    1  0.3365401E-008  0.1351889E+04  0.7818608E-02  0.8989399E-01
          2   -1    0    0  501    0  0.00000000000E+00  0.00000000000E+00  0.21426328834E+04  0.21426328834E+04  0.25500000000E-02 0. -1.
         -2   -1    0    0    0  501 -0.00000000000E+00 -0.00000000000E+00 -0.20234919353E+04  0.20234919353E+04  0.25500000000E-02 0.  1.
    8880022    1    1    2    0    0  0.13290911218E+04  0.19424213469E+03 -0.15247427073E+04  0.20377549395E+04  0.15294330000E+03 0.  0.
    8880022    1    1    2    0    0 -0.13290911218E+04 -0.19424213469E+03  0.16438836555E+04  0.21283698792E+04  0.15294330000E+03 0.  0.
<mgrwt>
<rscale>  0 0.13518894E+04</rscale>
<asrwt>0</asrwt>
<pdfrwt beam="1">  1        2 0.32963583E+00 0.13518894E+04</pdfrwt>
<pdfrwt beam="2">  1       -2 0.31130645E+00 0.13518894E+04</pdfrwt>
<totfact> 0.14415845E-01</totfact>
</mgrwt>
</event>
<event>
 4    1  0.3365401E-008  0.3786402E+03  0.7818608E-02  0.1051437E+00
          2   -1    0    0  501    0  0.00000000000E+00  0.00000000000E+00  0.40064949402E+03  0.40064949402E+03  0.25500000000E-02 0. -1.
         -2   -1    0    0    0  501 -0.00000000000E+00 -0.00000000000E+00 -0.36777986152E+03  0.36777986153E+03  0.25500000000E-02 0.  1.
    8880022    1    1    2    0    0 -0.33955698424E+03 -0.68394390065E+02 -0.46729448280E+02  0.38151282087E+03  0.15294330000E+03 0.  0.
    8880022    1    1    2    0    0  0.33955698424E+03  0.68394390065E+02  0.79599080775E+02  0.38691653468E+03  0.15294330000E+03 0.  1.
<mgrwt>
<rscale>  0 0.37864019E+03</rscale>
<asrwt>0</asrwt>
<pdfrwt beam="1">  1        2 0.61638384E-01 0.37864019E+03</pdfrwt>
<pdfrwt beam="2">  1       -2 0.56581517E-01 0.37864019E+03</pdfrwt>
<totfact> 0.23831137E+02</totfact>
</mgrwt>
</event>
<event>
 4    1  0.3365401E-008  0.5381537E+03  0.7818608E-02  0.1004274E+00
          2   -1    0    0  501    0  0.00000000000E+00  0.00000000000E+00  0.18758021774E+04  0.18758021774E+04  0.25500000000E-02 0. -1.
         -2   -1    0    0    0  501 -0.00000000000E+00 -0.00000000000E+00 -0.51864565382E+03  0.51864565383E+03  0.25500000000E-02 0.  1.
    8880022    1    1    2    0    0  0.41147949760E+03  0.31129149474E+03  0.16819036180E+04  0.17659018106E+04  0.15294330000E+03 0.  0.
    8880022    1    1    2    0    0 -0.41147949760E+03 -0.31129149474E+03 -0.32474709441E+03  0.62854602058E+03  0.15294330000E+03 0.  0.
<mgrwt>
<rscale>  0 0.53815372E+03</rscale>
<asrwt>0</asrwt>
<pdfrwt beam="1">  1        2 0.28858495E+00 0.53815372E+03</pdfrwt>
<pdfrwt beam="2">  1       -2 0.79791640E-01 0.53815372E+03</pdfrwt>
<totfact> 0.11660289E+01</totfact>
</mgrwt>
</event>
<event>
 4    1  0.3365401E-008  0.1120977E+04  0.7818608E-02  0.9184984E-01
         -2   -1    0    0    0  501 -0.00000000000E+00  0.00000000000E+00  0.11380532979E+04  0.11380532979E+04  0.25500000000E-02 0.  1.
          2   -1    0    0  501    0  0.00000000000E+00 -0.00000000000E+00 -0.12549664413E+04  0.12549664413E+04  0.25500000000E-02 0. -1.
    8880022    1    1    2    0    0 -0.86227888402E+03 -0.69976698046E+03  0.35631925127E+03  0.11762456217E+04  0.15294330000E+03 0.  0.
    8880022    1    1    2    0    0  0.86227888402E+03  0.69976698046E+03 -0.47323239468E+03  0.12167741176E+04  0.15294330000E+03 0.  0.
<mgrwt>
<rscale>  0 0.11209774E+04</rscale>
<asrwt>0</asrwt>
<pdfrwt beam="1">  1        2 0.19307176E+00 0.11209774E+04</pdfrwt>
<pdfrwt beam="2">  1       -2 0.17508512E+00 0.11209774E+04</pdfrwt>
<totfact> 0.33739166E+00</totfact>
</mgrwt>
</event>
<event>
 4    1  0.3365401E-008  0.5985589E+03  0.7818608E-02  0.9908400E-01
         -2   -1    0    0    0  501 -0.00000000000E+00  0.00000000000E+00  0.10011094637E+04  0.10011094637E+04  0.25500000000E-02 0.  1.
          2   -1    0    0  501    0  0.00000000000E+00 -0.00000000000E+00 -0.84472562244E+03  0.84472562245E+03  0.25500000000E-02 0. -1.
    8880022    1    1    2    0    0 -0.83681993534E+02 -0.57260664471E+03 -0.62246052623E+03  0.86355648648E+03  0.15294330000E+03 0.  0.
    8880022    1    1    2    0    0  0.83681993534E+02  0.57260664471E+03  0.77884436753E+03  0.98227859971E+03  0.15294330000E+03 0.  0.
<mgrwt>
<rscale>  0 0.59855885E+03</rscale>
<asrwt>0</asrwt>
<pdfrwt beam="1">  1        2 0.12995779E+00 0.59855885E+03</pdfrwt>
<pdfrwt beam="2">  1       -2 0.15401684E+00 0.59855885E+03</pdfrwt>
<totfact> 0.92718873E+00</totfact>
</mgrwt>
</event>
<event>
 4    1  0.3365401E-008  0.2293879E+03  0.7818608E-02  0.1127071E+00
          2   -1    0    0  501    0  0.00000000000E+00  0.00000000000E+00  0.43561791313E+03  0.43561791313E+03  0.25500000000E-02 0. -1.
         -2   -1    0    0    0  501 -0.00000000000E+00 -0.00000000000E+00 -0.72513520703E+03  0.72513520704E+03  0.25500000000E-02 0.  1.
    8880022    1    1    2    0    0 -0.17080656046E+03  0.72313777693E+01 -0.67459586844E+03  0.71252958721E+03  0.15294330000E+03 0.  1.
    8880022    1    1    2    0    0  0.17080656046E+03 -0.72313777693E+01  0.38507857453E+03  0.44822353296E+03  0.15294330000E+03 0.  0.
<mgrwt>
<rscale>  0 0.22938794E+03</rscale>
<asrwt>0</asrwt>
<pdfrwt beam="1">  1        2 0.67018141E-01 0.22938794E+03</pdfrwt>
<pdfrwt beam="2">  1       -2 0.11155926E+00 0.22938794E+03</pdfrwt>
<totfact> 0.49038077E+01</totfact>
</mgrwt>
</event>
<event>
 4    1  0.3365401E-008  0.4365623E+03  0.7818608E-02  0.1031807E+00
          2   -1    0    0  501    0  0.00000000000E+00  0.00000000000E+00  0.87212239088E+03  0.87212239088E+03  0.25500000000E-02 0. -1.
         -2   -1    0    0    0  501 -0.00000000000E+00 -0.00000000000E+00 -0.66686088787E+03  0.66686088788E+03  0.25500000000E-02 0.  1.
    8880022    1    1    2    0    0 -0.40200784945E+03 -0.74730473754E+02 -0.52830431809E+03  0.68534083510E+03  0.15294330000E+03 0.  0.
    8880022    1    1    2    0    0  0.40200784945E+03  0.74730473754E+02  0.73356582110E+03  0.85364244366E+03  0.15294330000E+03 0.  0.
<mgrwt>
<rscale>  0 0.43656226E+03</rscale>
<asrwt>0</asrwt>
<pdfrwt beam="1">  1        2 0.13417268E+00 0.43656226E+03</pdfrwt>
<pdfrwt beam="2">  1       -2 0.10259398E+00 0.43656226E+03</pdfrwt>
<totfact> 0.25127343E+01</totfact>
</mgrwt>
</event>
<event>
 4    1  0.3365401E-008  0.1561829E+03  0.7818608E-02  0.1193075E+00
         -2   -1    0    0    0  501 -0.00000000000E+00  0.00000000000E+00  0.43844214092E+03  0.43844214093E+03  0.25500000000E-02 0.  1.
          2   -1    0    0  501    0  0.00000000000E+00 -0.00000000000E+00 -0.28621242387E+03  0.28621242389E+03  0.25500000000E-02 0. -1.
    8880022    1    1    2    0    0 -0.29861500135E+02 -0.10476110975E+02  0.40132521345E+03  0.43064490947E+03  0.15294330000E+03 0.  1.
    8880022    1    1    2    0    0  0.29861500135E+02  0.10476110975E+02 -0.24909549640E+03  0.29400965534E+03  0.15294330000E+03 0.  0.
<mgrwt>
<rscale>  0 0.15618294E+03</rscale>
<asrwt>0</asrwt>
<pdfrwt beam="1">  1        2 0.44032681E-01 0.15618294E+03</pdfrwt>
<pdfrwt beam="2">  1       -2 0.67452637E-01 0.15618294E+03</pdfrwt>
<totfact> 0.24067918E+02</totfact>
</mgrwt>
</event>
<event>
 4    1  0.3365401E-008  0.9960684E+03  0.7818608E-02  0.9312867E-01
         -2   -1    0    0    0  501 -0.00000000000E+00  0.00000000000E+00  0.24988776617E+03  0.24988776618E+03  0.25500000000E-02 0.  1.
          2   -1    0    0  501    0  0.00000000000E+00 -0.00000000000E+00 -0.45428950502E+04  0.45428950502E+04  0.25500000000E-02 0. -1.
    8880022    1    1    2    0    0  0.93819135710E+03  0.29758634601E+03 -0.12957958240E+04  0.16343925863E+04  0.15294330000E+03 0.  0.
    8880022    1    1    2    0    0 -0.93819135710E+03 -0.29758634601E+03 -0.29972114601E+04  0.31583902300E+04  0.15294330000E+03 0.  0.
<mgrwt>
<rscale>  0 0.99606843E+03</rscale>
<asrwt>0</asrwt>
<pdfrwt beam="1">  1        2 0.69890687E+00 0.99606843E+03</pdfrwt>
<pdfrwt beam="2">  1       -2 0.38444275E-01 0.99606843E+03</pdfrwt>
<totfact> 0.76990866E-01</totfact>
</mgrwt>
</event>
<event>
 4    1  0.3365401E-008  0.4458941E+03  0.7818608E-02  0.1028954E+00
         -2   -1    0    0    0  501 -0.00000000000E+00  0.00000000000E+00  0.30395145496E+03  0.30395145497E+03  0.25500000000E-02 0.  1.
          2   -1    0    0  501    0  0.00000000000E+00 -0.00000000000E+00 -0.66420984372E+03  0.66420984373E+03  0.25500000000E-02 0. -1.
    8880022    1    1    2    0    0 -0.37472662808E+03  0.18710911865E+03 -0.12047362910E+03  0.46188247033E+03  0.15294330000E+03 0.  0.
    8880022    1    1    2    0    0  0.37472662808E+03 -0.18710911865E+03 -0.23978475967E+03  0.50627882837E+03  0.15294330000E+03 0. -1.
<mgrwt>
<rscale>  0 0.44589407E+03</rscale>
<asrwt>0</asrwt>
<pdfrwt beam="1">  1        2 0.10218613E+00 0.44589407E+03</pdfrwt>
<pdfrwt beam="2">  1       -2 0.46761763E-01 0.44589407E+03</pdfrwt>
<totfact> 0.19506623E+02</totfact>
</mgrwt>
</event>
<event>
 4    1  0.3365401E-008  0.3187508E+03  0.7818608E-02  0.1076226E+00
         -2   -1    0    0    0  501 -0.00000000000E+00  0.00000000000E+00  0.21644655016E+03  0.21644655018E+03  0.25500000000E-02 0.  1.
          2   -1    0    0  501    0  0.00000000000E+00 -0.00000000000E+00 -0.82965055902E+03  0.82965055903E+03  0.25500000000E-02 0. -1.
    8880022    1    1    2    0    0 -0.57718899640E+02  0.27364012525E+03  0.38058146923E+02  0.32101474279E+03  0.15294330000E+03 0.  1.
    8880022    1    1    2    0    0  0.57718899640E+02 -0.27364012525E+03 -0.65126215578E+03  0.72508236642E+03  0.15294330000E+03 0.  1.
<mgrwt>
<rscale>  0 0.31875075E+03</rscale>
<asrwt>0</asrwt>
<pdfrwt beam="1">  1        2 0.12763855E+00 0.31875075E+03</pdfrwt>
<pdfrwt beam="2">  1       -2 0.33299470E-01 0.31875075E+03</pdfrwt>
<totfact> 0.28636181E+02</totfact>
</mgrwt>
</event>
<event>
 4    1  0.3709631E-008  0.4388982E+03  0.7818608E-02  0.1031085E+00
          2   -1    0    0  501    0  0.00000000000E+00  0.00000000000E+00  0.13003244354E+04  0.13003244354E+04  0.25500000000E-02 0. -1.
         -2   -1    0    0    0  501 -0.00000000000E+00 -0.00000000000E+00 -0.11017047976E+04  0.11017047976E+04  0.25500000000E-02 0.  1.
    8880022    1    1    2    0    0  0.14334434514E+03 -0.38560647233E+03 -0.10180434583E+04  0.11086226089E+04  0.15294330000E+03 0.  0.
    8880022    1    1    2    0    0 -0.14334434514E+03  0.38560647233E+03  0.12166630961E+04  0.12934066241E+04  0.15294330000E+03 0.  0.
<mgrwt>
<rscale>  0 0.43889817E+03</rscale>
<asrwt>0</asrwt>
<pdfrwt beam="1">  1        2 0.20004991E+00 0.43889817E+03</pdfrwt>
<pdfrwt beam="2">  1       -2 0.16949305E+00 0.43889817E+03</pdfrwt>
<totfact> 0.38729233E+00</totfact>
</mgrwt>
</event>
<event>
 4    1  0.3365401E-008  0.2154882E+04  0.7818608E-02  0.8537446E-01
          2   -1    0    0  501    0  0.00000000000E+00  0.00000000000E+00  0.32849570639E+04  0.32849570639E+04  0.25500000000E-02 0. -1.
         -2   -1    0    0    0  501 -0.00000000000E+00 -0.00000000000E+00 -0.18161850600E+04  0.18161850600E+04  0.25500000000E-02 0.  1.
    8880022    1    1    2    0    0  0.21419702683E+04 -0.17912688188E+03 -0.46650259349E+03  0.22047991729E+04  0.15294330000E+03 0.  0.
    8880022    1    1    2    0    0 -0.21419702683E+04  0.17912688188E+03  0.19352745974E+04  0.28963429511E+04  0.15294330000E+03 0.  0.
<mgrwt>
<rscale>  0 0.21548816E+04</rscale>
<asrwt>0</asrwt>
<pdfrwt beam="1">  1        2 0.50537801E+00 0.21548816E+04</pdfrwt>
<pdfrwt beam="2">  1       -2 0.27941308E+00 0.21548816E+04</pdfrwt>
<totfact> 0.42177566E-02</totfact>
</mgrwt>
</event>
<event>
 4    1  0.3365401E-008  0.5249136E+03  0.7818608E-02  0.1007473E+00
         -2   -1    0    0    0  501 -0.00000000000E+00  0.00000000000E+00  0.56125052475E+03  0.56125052476E+03  0.25500000000E-02 0.  1.
          2   -1    0    0  501    0  0.00000000000E+00 -0.00000000000E+00 -0.13750707104E+04  0.13750707104E+04  0.25500000000E-02 0. -1.
    8880022    1    1    2    0    0 -0.46649553404E+03  0.18580791646E+03 -0.11832390163E+04  0.12944453978E+04  0.15294330000E+03 0.  0.
    8880022    1    1    2    0    0  0.46649553404E+03 -0.18580791646E+03  0.36941883069E+03  0.64187583735E+03  0.15294330000E+03 0.  0.
<mgrwt>
<rscale>  0 0.52491363E+03</rscale>
<asrwt>0</asrwt>
<pdfrwt beam="1">  1        2 0.21154934E+00 0.52491363E+03</pdfrwt>
<pdfrwt beam="2">  1       -2 0.86346235E-01 0.52491363E+03</pdfrwt>
<totfact> 0.18350806E+01</totfact>
</mgrwt>
</event>
<event>
 4    1  0.3365401E-008  0.5052335E+03  0.7818608E-02  0.1012422E+00
         -2   -1    0    0    0  501 -0.00000000000E+00  0.00000000000E+00  0.36481502253E+03  0.36481502254E+03  0.25500000000E-02 0.  1.
          2   -1    0    0  501    0  0.00000000000E+00 -0.00000000000E+00 -0.11569470331E+04  0.11569470331E+04  0.25500000000E-02 0. -1.
    8880022    1    1    2    0    0  0.38930658785E+03  0.28338952028E+03  0.82272891649E+02  0.51188838751E+03  0.15294330000E+03 0.  0.
    8880022    1    1    2    0    0 -0.38930658785E+03 -0.28338952028E+03 -0.87440490217E+03  0.10098736681E+04  0.15294330000E+03 0.  0.
<mgrwt>
<rscale>  0 0.50523350E+03</rscale>
<asrwt>0</asrwt>
<pdfrwt beam="1">  1        2 0.17799185E+00 0.50523350E+03</pdfrwt>
<pdfrwt beam="2">  1       -2 0.56125389E-01 0.50523350E+03</pdfrwt>
<totfact> 0.62547054E+01</totfact>
</mgrwt>
</event>
<event>
 4    1  0.3365401E-008  0.5193485E+03  0.7818608E-02  0.1008849E+00
          2   -1    0    0  501    0  0.00000000000E+00  0.00000000000E+00  0.23564505647E+04  0.23564505647E+04  0.25500000000E-02 0. -1.
         -2   -1    0    0    0  501 -0.00000000000E+00 -0.00000000000E+00 -0.43905945885E+03  0.43905945886E+03  0.25500000000E-02 0.  1.
    8880022    1    1    2    0    0  0.41146924177E+03 -0.27753256323E+03  0.21605234150E+04  0.22220675824E+04  0.15294330000E+03 0.  0.
    8880022    1    1    2    0    0 -0.41146924177E+03  0.27753256323E+03 -0.24313230921E+03  0.57344244120E+03  0.15294330000E+03 0.  0.
<mgrwt>
<rscale>  0 0.51934855E+03</rscale>
<asrwt>0</asrwt>
<pdfrwt beam="1">  1        2 0.36253086E+00 0.51934855E+03</pdfrwt>
<pdfrwt beam="2">  1       -2 0.67547609E-01 0.51934855E+03</pdfrwt>
<totfact> 0.92525902E+00</totfact>
</mgrwt>
</event>
<event>
 4    1  0.3365401E-008  0.3219153E+03  0.7818608E-02  0.1074771E+00
         -2   -1    0    0    0  501 -0.00000000000E+00  0.00000000000E+00  0.21363816301E+03  0.21363816303E+03  0.25500000000E-02 0.  1.
          2   -1    0    0  501    0  0.00000000000E+00 -0.00000000000E+00 -0.70276404598E+03  0.70276404598E+03  0.25500000000E-02 0. -1.
    8880022    1    1    2    0    0  0.25848443129E+03  0.11586024250E+03 -0.49958321315E+03  0.59431711811E+03  0.15294330000E+03 0.  0.
    8880022    1    1    2    0    0 -0.25848443129E+03 -0.11586024250E+03  0.10457330181E+02  0.32208509090E+03  0.15294330000E+03 0.  0.
<mgrwt>
<rscale>  0 0.32191528E+03</rscale>
<asrwt>0</asrwt>
<pdfrwt beam="1">  1        2 0.10811754E+00 0.32191528E+03</pdfrwt>
<pdfrwt beam="2">  1       -2 0.32867410E-01 0.32191528E+03</pdfrwt>
<totfact> 0.36187242E+02</totfact>
</mgrwt>
</event>
<event>
 4    1  0.3365401E-008  0.2737134E+03  0.7818608E-02  0.1099173E+00
          2   -1    0    0  501    0  0.00000000000E+00  0.00000000000E+00  0.48760798974E+03  0.48760798974E+03  0.25500000000E-02 0. -1.
         -2   -1    0    0    0  501 -0.00000000000E+00 -0.00000000000E+00 -0.77149148952E+03  0.77149148953E+03  0.25500000000E-02 0.  1.
    8880022    1    1    2    0    0 -0.19916750498E+03 -0.10890203678E+03  0.42144214807E+03  0.50252610464E+03  0.15294330000E+03 0. -1.
    8880022    1    1    2    0    0  0.19916750498E+03  0.10890203678E+03 -0.70532564786E+03  0.75657337463E+03  0.15294330000E+03 0.  0.
<mgrwt>
<rscale>  0 0.27371336E+03</rscale>
<asrwt>0</asrwt>
<pdfrwt beam="1">  1        2 0.75016613E-01 0.27371336E+03</pdfrwt>
<pdfrwt beam="2">  1       -2 0.11869100E+00 0.27371336E+03</pdfrwt>
<totfact> 0.36976295E+01</totfact>
</mgrwt>
</event>
<event>
 4    1  0.3365401E-008  0.8707467E+03  0.7818608E-02  0.9462907E-01
          2   -1    0    0  501    0  0.00000000000E+00  0.00000000000E+00  0.24025921591E+04  0.24025921591E+04  0.25500000000E-02 0. -1.
         -2   -1    0    0    0  501 -0.00000000000E+00 -0.00000000000E+00 -0.35213509922E+03  0.35213509923E+03  0.25500000000E-02 0.  1.
    8880022    1    1    2    0    0 -0.38913382710E+03 -0.76379518755E+03  0.58142265523E+03  0.10470206211E+04  0.15294330000E+03 0.  0.
    8880022    1    1    2    0    0  0.38913382710E+03  0.76379518755E+03  0.14690344047E+04  0.17077066373E+04  0.15294330000E+03 0.  0.
<mgrwt>
<rscale>  0 0.87074674E+03</rscale>
<asrwt>0</asrwt>
<pdfrwt beam="1">  1        2 0.36962955E+00 0.87074674E+03</pdfrwt>
<pdfrwt beam="2">  1       -2 0.54174632E-01 0.87074674E+03</pdfrwt>
<totfact> 0.13050184E+01</totfact>
</mgrwt>
</event>
<event>
 4    1  0.3365401E-008  0.3856865E+03  0.7818608E-02  0.1048852E+00
         -2   -1    0    0    0  501 -0.00000000000E+00  0.00000000000E+00  0.55981336344E+03  0.55981336344E+03  0.25500000000E-02 0.  1.
          2   -1    0    0  501    0  0.00000000000E+00 -0.00000000000E+00 -0.14322052417E+04  0.14322052417E+04  0.25500000000E-02 0. -1.
    8880022    1    1    2    0    0  0.10583939821E+03 -0.33787639346E+03 -0.13350728590E+04  0.13896667325E+04  0.15294330000E+03 0.  0.
    8880022    1    1    2    0    0 -0.10583939821E+03  0.33787639346E+03  0.46268098078E+03  0.60235187263E+03  0.15294330000E+03 0.  0.
<mgrwt>
<rscale>  0 0.38568652E+03</rscale>
<asrwt>0</asrwt>
<pdfrwt beam="1">  1        2 0.22033927E+00 0.38568652E+03</pdfrwt>
<pdfrwt beam="2">  1       -2 0.86125134E-01 0.38568652E+03</pdfrwt>
<totfact> 0.17656591E+01</totfact>
</mgrwt>
</event>
<event>
 4    1  0.3365401E-008  0.3578626E+03  0.7818608E-02  0.1059433E+00
          2   -1    0    0  501    0  0.00000000000E+00  0.00000000000E+00  0.32056121849E+03  0.32056121850E+03  0.25500000000E-02 0. -1.
         -2   -1    0    0    0  501 -0.00000000000E+00 -0.00000000000E+00 -0.22257327570E+04  0.22257327570E+04  0.25500000000E-02 0.  1.
    8880022    1    1    2    0    0  0.15526200979E+02  0.32316079376E+03 -0.21058254577E+04  0.21360164964E+04  0.15294330000E+03 0.  1.
    8880022    1    1    2    0    0 -0.15526200979E+02 -0.32316079376E+03  0.20065391921E+03  0.41027747909E+03  0.15294330000E+03 0.  0.
<mgrwt>
<rscale>  0 0.35786256E+03</rscale>
<asrwt>0</asrwt>
<pdfrwt beam="1">  1        2 0.49317112E-01 0.35786256E+03</pdfrwt>
<pdfrwt beam="2">  1       -2 0.34242041E+00 0.35786256E+03</pdfrwt>
<totfact> 0.20328054E+00</totfact>
</mgrwt>
</event>
<event>
 4    1  0.3365401E-008  0.7571733E+03  0.7818608E-02  0.9624163E-01
          2   -1    0    0  501    0  0.00000000000E+00  0.00000000000E+00  0.22659267168E+04  0.22659267168E+04  0.25500000000E-02 0. -1.
         -2   -1    0    0    0  501 -0.00000000000E+00 -0.00000000000E+00 -0.57461498484E+03  0.57461498484E+03  0.25500000000E-02 0.  1.
    8880022    1    1    2    0    0  0.25084910679E+03  0.69784989964E+03 -0.21687441875E+03  0.78762041830E+03  0.15294330000E+03 0.  0.
    8880022    1    1    2    0    0 -0.25084910679E+03 -0.69784989964E+03  0.19081861507E+04  0.20529212833E+04  0.15294330000E+03 0.  0.
<mgrwt>
<rscale>  0 0.75717330E+03</rscale>
<asrwt>0</asrwt>
<pdfrwt beam="1">  1        2 0.34860412E+00 0.75717330E+03</pdfrwt>
<pdfrwt beam="2">  1       -2 0.88402304E-01 0.75717330E+03</pdfrwt>
<totfact> 0.54378248E+00</totfact>
</mgrwt>
</event>
<event>
 4    1  0.3365401E-008  0.1142566E+04  0.7818608E-02  0.9164669E-01
          2   -1    0    0  501    0  0.00000000000E+00  0.00000000000E+00  0.31513857436E+04  0.31513857436E+04  0.25500000000E-02 0. -1.
         -2   -1    0    0    0  501 -0.00000000000E+00 -0.00000000000E+00 -0.89606966537E+03  0.89606966537E+03  0.25500000000E-02 0.  1.
    8880022    1    1    2    0    0  0.10991926101E+04 -0.27173645345E+03  0.26116246734E+04  0.28506210169E+04  0.15294330000E+03 0.  0.
    8880022    1    1    2    0    0 -0.10991926101E+04  0.27173645345E+03 -0.35630859516E+03  0.11968343921E+04  0.15294330000E+03 0.  0.
<mgrwt>
<rscale>  0 0.11425659E+04</rscale>
<asrwt>0</asrwt>
<pdfrwt beam="1">  1        2 0.48482857E+00 0.11425659E+04</pdfrwt>
<pdfrwt beam="2">  1       -2 0.13785687E+00 0.11425659E+04</pdfrwt>
<totfact> 0.51990537E-01</totfact>
</mgrwt>
</event>
<event>
 4    1  0.3365401E-008  0.2930067E+03  0.7818608E-02  0.1088790E+00
         -2   -1    0    0    0  501 -0.00000000000E+00  0.00000000000E+00  0.39225496751E+03  0.39225496752E+03  0.25500000000E-02 0.  1.
          2   -1    0    0  501    0  0.00000000000E+00 -0.00000000000E+00 -0.37280131472E+03  0.37280131472E+03  0.25500000000E-02 0. -1.
    8880022    1    1    2    0    0 -0.24989038198E+03 -0.40066755378E+01 -0.23607659801E+03  0.37627791537E+03  0.15294330000E+03 0.  0.
    8880022    1    1    2    0    0  0.24989038198E+03  0.40066755378E+01  0.25553025080E+03  0.38877836687E+03  0.15294330000E+03 0.  0.
<mgrwt>
<rscale>  0 0.29300667E+03</rscale>
<asrwt>0</asrwt>
<pdfrwt beam="1">  1        2 0.57354048E-01 0.29300667E+03</pdfrwt>
<pdfrwt beam="2">  1       -2 0.60346919E-01 0.29300667E+03</pdfrwt>
<totfact> 0.22678975E+02</totfact>
</mgrwt>
</event>
<event>
 4    1  0.3365401E-008  0.3520302E+03  0.7818608E-02  0.1061785E+00
         -2   -1    0    0    0  501 -0.00000000000E+00  0.00000000000E+00  0.15002011508E+03  0.15002011511E+03  0.25500000000E-02 0.  1.
          2   -1    0    0  501    0  0.00000000000E+00 -0.00000000000E+00 -0.23620227704E+04  0.23620227704E+04  0.25500000000E-02 0. -1.
    8880022    1    1    2    0    0  0.30024671696E+03  0.10190939854E+03 -0.21188526164E+04  0.21478970366E+04  0.15294330000E+03 0.  0.
    8880022    1    1    2    0    0 -0.30024671696E+03 -0.10190939854E+03 -0.93150038922E+02  0.36414584897E+03  0.15294330000E+03 0.  0.
<mgrwt>
<rscale>  0 0.35203021E+03</rscale>
<asrwt>0</asrwt>
<pdfrwt beam="1">  1        2 0.36338809E+00 0.35203021E+03</pdfrwt>
<pdfrwt beam="2">  1       -2 0.23080019E-01 0.35203021E+03</pdfrwt>
<totfact> 0.76828316E+01</totfact>
</mgrwt>
</event>
<event>
 4    1  0.3365401E-008  0.6014768E+03  0.7818608E-02  0.9902347E-01
         -2   -1    0    0    0  501 -0.00000000000E+00  0.00000000000E+00  0.23943069618E+03  0.23943069620E+03  0.25500000000E-02 0.  1.
          2   -1    0    0  501    0  0.00000000000E+00 -0.00000000000E+00 -0.25968176773E+04  0.25968176773E+04  0.25500000000E-02 0. -1.
    8880022    1    1    2    0    0  0.16516878761E+03 -0.55776519700E+03 -0.26167839088E+03  0.65593443015E+03  0.15294330000E+03 0.  0.
    8880022    1    1    2    0    0 -0.16516878761E+03  0.55776519700E+03 -0.20957085903E+04  0.21803139434E+04  0.15294330000E+03 0.  0.
<mgrwt>
<rscale>  0 0.60147685E+03</rscale>
<asrwt>0</asrwt>
<pdfrwt beam="1">  1        2 0.39951039E+00 0.60147685E+03</pdfrwt>
<pdfrwt beam="2">  1       -2 0.36835494E-01 0.60147685E+03</pdfrwt>
<totfact> 0.22802381E+01</totfact>
</mgrwt>
</event>
<event>
 4    1  0.3365401E-008  0.1599582E+03  0.7818608E-02  0.1188744E+00
         -2   -1    0    0    0  501 -0.00000000000E+00  0.00000000000E+00  0.28829772435E+03  0.28829772436E+03  0.25500000000E-02 0.  1.
          2   -1    0    0  501    0  0.00000000000E+00 -0.00000000000E+00 -0.25665401752E+03  0.25665401753E+03  0.25500000000E-02 0. -1.
    8880022    1    1    2    0    0 -0.31880823082E+02 -0.34330434549E+02  0.23620769101E+03  0.28527301296E+03  0.15294330000E+03 0.  1.
    8880022    1    1    2    0    0  0.31880823082E+02  0.34330434549E+02 -0.20456398418E+03  0.25967872893E+03  0.15294330000E+03 0.  0.
<mgrwt>
<rscale>  0 0.15995818E+03</rscale>
<asrwt>0</asrwt>
<pdfrwt beam="1">  1        2 0.39485234E-01 0.15995818E+03</pdfrwt>
<pdfrwt beam="2">  1       -2 0.44353496E-01 0.15995818E+03</pdfrwt>
<totfact> 0.63094846E+02</totfact>
</mgrwt>
</event>
<event>
 4    1  0.3365401E-008  0.3309694E+03  0.7818608E-02  0.1070709E+00
         -2   -1    0    0    0  501 -0.00000000000E+00  0.00000000000E+00  0.16955335926E+04  0.16955335926E+04  0.25500000000E-02 0.  1.
          2   -1    0    0  501    0  0.00000000000E+00 -0.00000000000E+00 -0.65118782113E+02  0.65118782163E+02  0.25500000000E-02 0. -1.
    8880022    1    1    2    0    0 -0.25647661880E+03  0.14271931141E+03  0.73704648109E+03  0.80794692038E+03  0.15294330000E+03 0.  1.
    8880022    1    1    2    0    0  0.25647661880E+03 -0.14271931141E+03  0.89336832940E+03  0.95270545439E+03  0.15294330000E+03 0.  0.
<mgrwt>
<rscale>  0 0.33096935E+03</rscale>
<asrwt>0</asrwt>
<pdfrwt beam="1">  1        2 0.10018274E-01 0.33096935E+03</pdfrwt>
<pdfrwt beam="2">  1       -2 0.26085134E+00 0.33096935E+03</pdfrwt>
<totfact> 0.39220120E+01</totfact>
</mgrwt>
</event>
<event>
 4    1  0.3365401E-008  0.8151288E+03  0.7818608E-02  0.9538373E-01
          2   -1    0    0  501    0  0.00000000000E+00  0.00000000000E+00  0.19332522273E+04  0.19332522273E+04  0.25500000000E-02 0. -1.
         -2   -1    0    0    0  501 -0.00000000000E+00 -0.00000000000E+00 -0.73247710915E+03  0.73247710916E+03  0.25500000000E-02 0.  1.
    8880022    1    1    2    0    0  0.77655360333E+03 -0.19495588622E+03  0.15714479911E+04  0.17702778703E+04  0.15294330000E+03 0.  0.
    8880022    1    1    2    0    0 -0.77655360333E+03  0.19495588622E+03 -0.37067287295E+03  0.89545146612E+03  0.15294330000E+03 0.  0.
<mgrwt>
<rscale>  0 0.81512879E+03</rscale>
<asrwt>0</asrwt>
<pdfrwt beam="1">  1        2 0.29742342E+00 0.81512879E+03</pdfrwt>
<pdfrwt beam="2">  1       -2 0.11268879E+00 0.81512879E+03</pdfrwt>
<totfact> 0.46171934E+00</totfact>
</mgrwt>
</event>
<event>
 4    1  0.3365401E-008  0.4793632E+03  0.7818608E-02  0.1019310E+00
         -2   -1    0    0    0  501 -0.00000000000E+00  0.00000000000E+00  0.10333000708E+04  0.10333000708E+04  0.25500000000E-02 0.  1.
          2   -1    0    0  501    0  0.00000000000E+00 -0.00000000000E+00 -0.70794743005E+03  0.70794743006E+03  0.25500000000E-02 0. -1.
    8880022    1    1    2    0    0 -0.41835250428E+03 -0.17714005973E+03  0.88370598757E+03  0.10053483695E+04  0.15294330000E+03 0.  0.
    8880022    1    1    2    0    0  0.41835250428E+03  0.17714005973E+03 -0.55835334682E+03  0.73589913135E+03  0.15294330000E+03 0.  0.
<mgrwt>
<rscale>  0 0.47936319E+03</rscale>
<asrwt>0</asrwt>
<pdfrwt beam="1">  1        2 0.10891499E+00 0.47936319E+03</pdfrwt>
<pdfrwt beam="2">  1       -2 0.15896924E+00 0.47936319E+03</pdfrwt>
<totfact> 0.10914584E+01</totfact>
</mgrwt>
</event>
<event>
 4    1  0.3365401E-008  0.7883075E+03  0.7818608E-02  0.9577097E-01
          2   -1    0    0  501    0  0.00000000000E+00  0.00000000000E+00  0.55446001066E+03  0.55446001067E+03  0.25500000000E-02 0. -1.
         -2   -1    0    0    0  501 -0.00000000000E+00 -0.00000000000E+00 -0.28559839908E+04  0.28559839908E+04  0.25500000000E-02 0.  1.
    8880022    1    1    2    0    0 -0.73022058994E+03 -0.25458767029E+03  0.17840056072E+03  0.80824216972E+03  0.15294330000E+03 0.  0.
    8880022    1    1    2    0    0  0.73022058994E+03  0.25458767029E+03 -0.24799245408E+04  0.26022018317E+04  0.15294330000E+03 0.  0.
<mgrwt>
<rscale>  0 0.78830746E+03</rscale>
<asrwt>0</asrwt>
<pdfrwt beam="1">  1        2 0.85301542E-01 0.78830746E+03</pdfrwt>
<pdfrwt beam="2">  1       -2 0.43938214E+00 0.78830746E+03</pdfrwt>
<totfact> 0.23564369E-01</totfact>
</mgrwt>
</event>
<event>
 4    1  0.3365401E-008  0.1968129E+03  0.7818608E-02  0.1152456E+00
         -2   -1    0    0    0  501 -0.00000000000E+00  0.00000000000E+00  0.62035000507E+02  0.62035000560E+02  0.25500000000E-02 0.  1.
          2   -1    0    0  501    0  0.00000000000E+00 -0.00000000000E+00 -0.64838800764E+03  0.64838800765E+03  0.25500000000E-02 0. -1.
    8880022    1    1    2    0    0 -0.10092864821E+03 -0.71812707335E+02 -0.36148440307E+03  0.41158994599E+03  0.15294330000E+03 0.  1.
    8880022    1    1    2    0    0  0.10092864821E+03  0.71812707335E+02 -0.22486860407E+03  0.29883306222E+03  0.15294330000E+03 0.  1.
<mgrwt>
<rscale>  0 0.19681288E+03</rscale>
<asrwt>0</asrwt>
<pdfrwt beam="1">  1        2 0.99751996E-01 0.19681288E+03</pdfrwt>
<pdfrwt beam="2">  1       -2 0.95438467E-02 0.19681288E+03</pdfrwt>
<totfact> 0.32517249E+03</totfact>
</mgrwt>
</event>
<event>
 4    1  0.3365401E-008  0.2849722E+03  0.7818608E-02  0.1093004E+00
          2   -1    0    0  501    0  0.00000000000E+00  0.00000000000E+00  0.37489780299E+04  0.37489780299E+04  0.25500000000E-02 0. -1.
         -2   -1    0    0    0  501 -0.00000000000E+00 -0.00000000000E+00 -0.59983111575E+02  0.59983111629E+02  0.25500000000E-02 0.  1.
    8880022    1    1    2    0    0 -0.23017191663E+03  0.69558652255E+02  0.33667366591E+04  0.33787756514E+04  0.15294330000E+03 0.  0.
    8880022    1    1    2    0    0  0.23017191663E+03 -0.69558652255E+02  0.32225825917E+03  0.43018549014E+03  0.15294330000E+03 0.  1.
<mgrwt>
<rscale>  0 0.28497223E+03</rscale>
<asrwt>0</asrwt>
<pdfrwt beam="1">  1        2 0.57676586E+00 0.28497223E+03</pdfrwt>
<pdfrwt beam="2">  1       -2 0.92281709E-02 0.28497223E+03</pdfrwt>
<totfact> 0.51448847E+01</totfact>
</mgrwt>
</event>
<event>
 4    1  0.3365401E-008  0.2410954E+03  0.7818608E-02  0.1119065E+00
          2   -1    0    0  501    0  0.00000000000E+00  0.00000000000E+00  0.13045213245E+04  0.13045213245E+04  0.25500000000E-02 0. -1.
         -2   -1    0    0    0  501 -0.00000000000E+00 -0.00000000000E+00 -0.12921364582E+03  0.12921364584E+03  0.25500000000E-02 0.  1.
    8880022    1    1    2    0    0  0.53101408631E+02 -0.17864927981E+03  0.74074766950E+01  0.24120913851E+03  0.15294330000E+03 0.  0.
    8880022    1    1    2    0    0 -0.53101408631E+02  0.17864927981E+03  0.11679002020E+04  0.11925258318E+04  0.15294330000E+03 0. -1.
<mgrwt>
<rscale>  0 0.24109537E+03</rscale>
<asrwt>0</asrwt>
<pdfrwt beam="1">  1        2 0.20069558E+00 0.24109537E+03</pdfrwt>
<pdfrwt beam="2">  1       -2 0.19879023E-01 0.24109537E+03</pdfrwt>
<totfact> 0.37453483E+02</totfact>
</mgrwt>
</event>
<event>
 4    1  0.3365401E-008  0.2540287E+03  0.7818608E-02  0.1110785E+00
          2   -1    0    0  501    0  0.00000000000E+00  0.00000000000E+00  0.48226733075E+03  0.48226733076E+03  0.25500000000E-02 0. -1.
         -2   -1    0    0    0  501 -0.00000000000E+00 -0.00000000000E+00 -0.23102024991E+03  0.23102024993E+03  0.25500000000E-02 0.  1.
    8880022    1    1    2    0    0  0.56167807904E+02  0.19489513276E+03  0.35697545457E+03  0.43813475507E+03  0.15294330000E+03 0.  0.
    8880022    1    1    2    0    0 -0.56167807904E+02 -0.19489513276E+03 -0.10572837373E+03  0.27515282562E+03  0.15294330000E+03 0.  1.
<mgrwt>
<rscale>  0 0.25402872E+03</rscale>
<asrwt>0</asrwt>
<pdfrwt beam="1">  1        2 0.74194974E-01 0.25402872E+03</pdfrwt>
<pdfrwt beam="2">  1       -2 0.35541577E-01 0.25402872E+03</pdfrwt>
<totfact> 0.48674912E+02</totfact>
</mgrwt>
</event>
<event>
 4    1  0.3365401E-008  0.2132151E+03  0.7818608E-02  0.1139045E+00
         -2   -1    0    0    0  501 -0.00000000000E+00  0.00000000000E+00  0.24536815368E+03  0.24536815369E+03  0.25500000000E-02 0.  1.
          2   -1    0    0  501    0  0.00000000000E+00 -0.00000000000E+00 -0.91527463061E+03  0.91527463062E+03  0.25500000000E-02 0. -1.
    8880022    1    1    2    0    0  0.82757044863E+02 -0.12337059261E+03  0.18331437029E+03  0.28118471325E+03  0.15294330000E+03 0.  1.
    8880022    1    1    2    0    0 -0.82757044863E+02  0.12337059261E+03 -0.85322084722E+03  0.87945807106E+03  0.15294330000E+03 0.  0.
<mgrwt>
<rscale>  0 0.21321511E+03</rscale>
<asrwt>0</asrwt>
<pdfrwt beam="1">  1        2 0.14081148E+00 0.21321511E+03</pdfrwt>
<pdfrwt beam="2">  1       -2 0.37748947E-01 0.21321511E+03</pdfrwt>
<totfact> 0.20151376E+02</totfact>
</mgrwt>
</event>
<event>
 4    1  0.3365401E-008  0.1700890E+03  0.7818608E-02  0.1177755E+00
         -2   -1    0    0    0  501 -0.00000000000E+00  0.00000000000E+00  0.90128668330E+02  0.90128668366E+02  0.25500000000E-02 0.  1.
          2   -1    0    0  501    0  0.00000000000E+00 -0.00000000000E+00 -0.22762021080E+04  0.22762021080E+04  0.25500000000E-02 0. -1.
    8880022    1    1    2    0    0 -0.21921750947E+02  0.71120088492E+02  0.35352247768E+01  0.17012577988E+03  0.15294330000E+03 0.  1.
    8880022    1    1    2    0    0  0.21921750947E+02 -0.71120088492E+02 -0.21896086644E+04  0.21962049965E+04  0.15294330000E+03 0.  0.
<mgrwt>
<rscale>  0 0.17008904E+03</rscale>
<asrwt>0</asrwt>
<pdfrwt beam="1">  1        2 0.35018490E+00 0.17008904E+03</pdfrwt>
<pdfrwt beam="2">  1       -2 0.13865951E-01 0.17008904E+03</pdfrwt>
<totfact> 0.21466158E+02</totfact>
</mgrwt>
</event>
<event>
 4    1  0.7459314E-008  0.6524629E+03  0.7818608E-02  0.9802169E-01
         -2   -1    0    0    0  501 -0.00000000000E+00  0.00000000000E+00  0.13589506792E+04  0.13589506792E+04  0.25500000000E-02 0.  1.
          2   -1    0    0  501    0  0.00000000000E+00 -0.00000000000E+00 -0.31907072763E+04  0.31907072763E+04  0.25500000000E-02 0. -1.
    8880022    1    1    2    0    0  0.57624595701E+03  0.26505988986E+03 -0.30761520870E+04  0.31445857380E+04  0.15294330000E+03 0.  0.
    8880022    1    1    2    0    0 -0.57624595701E+03 -0.26505988986E+03  0.12443954898E+04  0.14050722175E+04  0.15294330000E+03 0.  0.
<mgrwt>
<rscale>  0 0.65246287E+03</rscale>
<asrwt>0</asrwt>
<pdfrwt beam="1">  1        2 0.49087804E+00 0.65246287E+03</pdfrwt>
<pdfrwt beam="2">  1       -2 0.20906934E+00 0.65246287E+03</pdfrwt>
<totfact> 0.17053353E-01</totfact>
</mgrwt>
</event>
<event>
 4    1  0.3365401E-008  0.5539482E+03  0.7818608E-02  0.1000584E+00
          2   -1    0    0  501    0  0.00000000000E+00  0.00000000000E+00  0.10909173786E+04  0.10909173786E+04  0.25500000000E-02 0. -1.
         -2   -1    0    0    0  501 -0.00000000000E+00 -0.00000000000E+00 -0.11028908039E+04  0.11028908039E+04  0.25500000000E-02 0.  1.
    8880022    1    1    2    0    0  0.52175397158E+03 -0.10601779205E+03 -0.95273420401E+03  0.11020712752E+04  0.15294330000E+03 0.  0.
    8880022    1    1    2    0    0 -0.52175397158E+03  0.10601779205E+03  0.94076077865E+03  0.10917369073E+04  0.15294330000E+03 0.  0.
<mgrwt>
<rscale>  0 0.55394822E+03</rscale>
<asrwt>0</asrwt>
<pdfrwt beam="1">  1        2 0.16783344E+00 0.55394822E+03</pdfrwt>
<pdfrwt beam="2">  1       -2 0.16967551E+00 0.55394822E+03</pdfrwt>
<totfact> 0.49877312E+00</totfact>
</mgrwt>
</event>
<event>
 4    1  0.3365401E-008  0.4218994E+03  0.7818608E-02  0.1036450E+00
          2   -1    0    0  501    0  0.00000000000E+00  0.00000000000E+00  0.36165739523E+04  0.36165739523E+04  0.25500000000E-02 0. -1.
         -2   -1    0    0    0  501 -0.00000000000E+00 -0.00000000000E+00 -0.18084667463E+03  0.18084667464E+03  0.25500000000E-02 0.  1.
    8880022    1    1    2    0    0 -0.11672432249E+03  0.37547684732E+03  0.33377306569E+04  0.33642896756E+04  0.15294330000E+03 0. -1.
    8880022    1    1    2    0    0  0.11672432249E+03 -0.37547684732E+03  0.97996620810E+02  0.43313095138E+03  0.15294330000E+03 0.  0.
<mgrwt>
<rscale>  0 0.42189938E+03</rscale>
<asrwt>0</asrwt>
<pdfrwt beam="1">  1        2 0.55639600E+00 0.42189938E+03</pdfrwt>
<pdfrwt beam="2">  1       -2 0.27822565E-01 0.42189938E+03</pdfrwt>
<totfact> 0.93704481E+00</totfact>
</mgrwt>
</event>
<event>
 4    1  0.3365401E-008  0.7614926E+03  0.7818608E-02  0.9617491E-01
          2   -1    0    0  501    0  0.00000000000E+00  0.00000000000E+00  0.25099683530E+04  0.25099683530E+04  0.25500000000E-02 0. -1.
         -2   -1    0    0    0  501 -0.00000000000E+00 -0.00000000000E+00 -0.39792354922E+03  0.39792354923E+03  0.25500000000E-02 0.  1.
    8880022    1    1    2    0    0  0.63845760880E+03 -0.38581246554E+03  0.11441074965E+03  0.77003951162E+03  0.15294330000E+03 0.  0.
    8880022    1    1    2    0    0 -0.63845760880E+03  0.38581246554E+03  0.19976340541E+04  0.21378523906E+04  0.15294330000E+03 0.  0.
<mgrwt>
<rscale>  0 0.76149263E+03</rscale>
<asrwt>0</asrwt>
<pdfrwt beam="1">  1        2 0.38614897E+00 0.76149263E+03</pdfrwt>
<pdfrwt beam="2">  1       -2 0.61219008E-01 0.76149263E+03</pdfrwt>
<totfact> 0.89266151E+00</totfact>
</mgrwt>
</event>
<event>
 4    1  0.3365401E-008  0.4429454E+03  0.7818608E-02  0.1029847E+00
         -2   -1    0    0    0  501 -0.00000000000E+00  0.00000000000E+00  0.42322360806E+03  0.42322360807E+03  0.25500000000E-02 0.  1.
          2   -1    0    0  501    0  0.00000000000E+00 -0.00000000000E+00 -0.12532172809E+04  0.12532172809E+04  0.25500000000E-02 0. -1.
    8880022    1    1    2    0    0  0.41549326606E+03  0.13202061788E+02 -0.10803576104E+04  0.11676357172E+04  0.15294330000E+03 0.  0.
    8880022    1    1    2    0    0 -0.41549326606E+03 -0.13202061788E+02  0.25036393760E+03  0.50880517179E+03  0.15294330000E+03 0.  0.
<mgrwt>
<rscale>  0 0.44294537E+03</rscale>
<asrwt>0</asrwt>
<pdfrwt beam="1">  1        2 0.19280266E+00 0.44294537E+03</pdfrwt>
<pdfrwt beam="2">  1       -2 0.65111325E-01 0.44294537E+03</pdfrwt>
<totfact> 0.40624277E+01</totfact>
</mgrwt>
</event>
<event>
 4    1  0.3365401E-008  0.9930191E+03  0.7818608E-02  0.9316235E-01
          2   -1    0    0  501    0  0.00000000000E+00  0.00000000000E+00  0.24936268273E+04  0.24936268273E+04  0.25500000000E-02 0. -1.
         -2   -1    0    0    0  501 -0.00000000000E+00 -0.00000000000E+00 -0.60442471225E+03  0.60442471226E+03  0.25500000000E-02 0.  1.
    8880022    1    1    2    0    0 -0.28523387912E+03 -0.93879547261E+03  0.33761655417E+02  0.99359287819E+03  0.15294330000E+03 0.  0.
    8880022    1    1    2    0    0  0.28523387912E+03  0.93879547261E+03  0.18554404597E+04  0.21044586614E+04  0.15294330000E+03 0. -1.
<mgrwt>
<rscale>  0 0.99301911E+03</rscale>
<asrwt>0</asrwt>
<pdfrwt beam="1">  1        2 0.38363489E+00 0.99301911E+03</pdfrwt>
<pdfrwt beam="2">  1       -2 0.92988418E-01 0.99301911E+03</pdfrwt>
<totfact> 0.34742330E+00</totfact>
</mgrwt>
</event>
<event>
 4    1  0.3365401E-008  0.3896214E+03  0.7818608E-02  0.1047434E+00
          2   -1    0    0  501    0  0.00000000000E+00  0.00000000000E+00  0.89998978411E+03  0.89998978411E+03  0.25500000000E-02 0. -1.
         -2   -1    0    0    0  501 -0.00000000000E+00 -0.00000000000E+00 -0.31823181996E+03  0.31823181997E+03  0.25500000000E-02 0.  1.
    8880022    1    1    2    0    0  0.33581793470E+03 -0.12505789178E+03  0.70844886096E+03  0.80852000790E+03  0.15294330000E+03 0.  0.
    8880022    1    1    2    0    0 -0.33581793470E+03  0.12505789178E+03 -0.12669089682E+03  0.40970159618E+03  0.15294330000E+03 0.  0.
<mgrwt>
<rscale>  0 0.38962137E+03</rscale>
<asrwt>0</asrwt>
<pdfrwt beam="1">  1        2 0.13845996E+00 0.38962137E+03</pdfrwt>
<pdfrwt beam="2">  1       -2 0.48958742E-01 0.38962137E+03</pdfrwt>
<totfact> 0.12108703E+02</totfact>
</mgrwt>
</event>
<event>
 4    1  0.3365401E-008  0.2173089E+03  0.7818608E-02  0.1135905E+00
          2   -1    0    0  501    0  0.00000000000E+00  0.00000000000E+00  0.26631202391E+04  0.26631202391E+04  0.25500000000E-02 0. -1.
         -2   -1    0    0    0  501 -0.00000000000E+00 -0.00000000000E+00 -0.28440175783E+02  0.28440175897E+02  0.25500000000E-02 0.  1.
    8880022    1    1    2    0    0  0.15107944880E+03  0.31725506488E+02  0.49156771491E+03  0.53745881606E+03  0.15294330000E+03 0.  1.
    8880022    1    1    2    0    0 -0.15107944880E+03 -0.31725506488E+02  0.21431123485E+04  0.21541015990E+04  0.15294330000E+03 0.  0.
<mgrwt>
<rscale>  0 0.21730891E+03</rscale>
<asrwt>0</asrwt>
<pdfrwt beam="1">  1        2 0.40971075E+00 0.21730891E+03</pdfrwt>
<pdfrwt beam="2">  1       -2 0.43754122E-02 0.21730891E+03</pdfrwt>
<totfact> 0.78996135E+02</totfact>
</mgrwt>
</event>
<event>
 4    1  0.3365401E-008  0.1168721E+04  0.7818608E-02  0.9140685E-01
          2   -1    0    0  501    0  0.00000000000E+00  0.00000000000E+00  0.20665514326E+04  0.20665514326E+04  0.25500000000E-02 0. -1.
         -2   -1    0    0    0  501 -0.00000000000E+00 -0.00000000000E+00 -0.71203301402E+03  0.71203301402E+03  0.25500000000E-02 0.  1.
    8880022    1    1    2    0    0  0.85642296920E+03 -0.78042025158E+03  0.30517648091E+03  0.12079074504E+04  0.15294330000E+03 0.  0.
    8880022    1    1    2    0    0 -0.85642296920E+03  0.78042025158E+03  0.10493419377E+04  0.15706769962E+04  0.15294330000E+03 0.  0.
<mgrwt>
<rscale>  0 0.11687206E+04</rscale>
<asrwt>0</asrwt>
<pdfrwt beam="1">  1        2 0.31793099E+00 0.11687206E+04</pdfrwt>
<pdfrwt beam="2">  1       -2 0.10954354E+00 0.11687206E+04</pdfrwt>
<totfact> 0.39950311E+00</totfact>
</mgrwt>
</event>
<event>
 4    1  0.3365401E-008  0.9301263E+03  0.7818608E-02  0.9388686E-01
         -2   -1    0    0    0  501 -0.00000000000E+00  0.00000000000E+00  0.53056673226E+03  0.53056673227E+03  0.25500000000E-02 0.  1.
          2   -1    0    0  501    0  0.00000000000E+00 -0.00000000000E+00 -0.29485623912E+04  0.29485623912E+04  0.25500000000E-02 0. -1.
    8880022    1    1    2    0    0  0.68366160288E+03 -0.61184149387E+03 -0.45972551828E+02  0.93126168686E+03  0.15294330000E+03 0.  0.
    8880022    1    1    2    0    0 -0.68366160288E+03  0.61184149387E+03 -0.23720231071E+04  0.25478674366E+04  0.15294330000E+03 0.  0.
<mgrwt>
<rscale>  0 0.93012626E+03</rscale>
<asrwt>0</asrwt>
<pdfrwt beam="1">  1        2 0.45362497E+00 0.93012626E+03</pdfrwt>
<pdfrwt beam="2">  1       -2 0.81625653E-01 0.93012626E+03</pdfrwt>
<totfact> 0.25534343E+00</totfact>
</mgrwt>
</event>
<event>
 4    1  0.3365401E-008  0.2201104E+03  0.7818608E-02  0.1133801E+00
          2   -1    0    0  501    0  0.00000000000E+00  0.00000000000E+00  0.48691976998E+03  0.48691976999E+03  0.25500000000E-02 0. -1.
         -2   -1    0    0    0  501 -0.00000000000E+00 -0.00000000000E+00 -0.43522751080E+03  0.43522751081E+03  0.25500000000E-02 0.  1.
    8880022    1    1    2    0    0  0.71288448502E+02  0.14133255421E+03  0.43079994697E+03  0.48377389460E+03  0.15294330000E+03 0.  0.
    8880022    1    1    2    0    0 -0.71288448502E+02 -0.14133255421E+03 -0.37910768779E+03  0.43837338620E+03  0.15294330000E+03 0.  0.
<mgrwt>
<rscale>  0 0.22011040E+03</rscale>
<asrwt>0</asrwt>
<pdfrwt beam="1">  1        2 0.74910734E-01 0.22011040E+03</pdfrwt>
<pdfrwt beam="2">  1       -2 0.66958079E-01 0.22011040E+03</pdfrwt>
<totfact> 0.13681736E+02</totfact>
</mgrwt>
</event>
<event>
 4    1  0.3365401E-008  0.3051512E+03  0.7818608E-02  0.1082694E+00
         -2   -1    0    0    0  501 -0.00000000000E+00  0.00000000000E+00  0.24766406816E+03  0.24766406817E+03  0.25500000000E-02 0.  1.
          2   -1    0    0  501    0  0.00000000000E+00 -0.00000000000E+00 -0.10648413439E+04  0.10648413439E+04  0.25500000000E-02 0. -1.
    8880022    1    1    2    0    0 -0.26000555268E+03  0.46072706816E+02  0.11924118877E+03  0.32762126893E+03  0.15294330000E+03 0.  0.
    8880022    1    1    2    0    0  0.26000555268E+03 -0.46072706816E+02 -0.93641846454E+03  0.98488414318E+03  0.15294330000E+03 0.  0.
<mgrwt>
<rscale>  0 0.30515117E+03</rscale>
<asrwt>0</asrwt>
<pdfrwt beam="1">  1        2 0.16382174E+00 0.30515117E+03</pdfrwt>
<pdfrwt beam="2">  1       -2 0.38102165E-01 0.30515117E+03</pdfrwt>
<totfact> 0.15762986E+02</totfact>
</mgrwt>
</event>
<event>
 4    1  0.3365401E-008  0.1368953E+04  0.7818608E-02  0.8976604E-01
         -2   -1    0    0    0  501 -0.00000000000E+00  0.00000000000E+00  0.10725784389E+04  0.10725784389E+04  0.25500000000E-02 0.  1.
          2   -1    0    0  501    0  0.00000000000E+00 -0.00000000000E+00 -0.22405144259E+04  0.22405144259E+04  0.25500000000E-02 0. -1.
    8880022    1    1    2    0    0  0.93268514297E+03 -0.99032292150E+03 -0.13612559436E+04  0.19305570340E+04  0.15294330000E+03 0.  0.
    8880022    1    1    2    0    0 -0.93268514297E+03  0.99032292150E+03  0.19331995654E+03  0.13825358308E+04  0.15294330000E+03 0.  0.
<mgrwt>
<rscale>  0 0.13689531E+04</rscale>
<asrwt>0</asrwt>
<pdfrwt beam="1">  1        2 0.34469452E+00 0.13689531E+04</pdfrwt>
<pdfrwt beam="2">  1       -2 0.16501207E+00 0.13689531E+04</pdfrwt>
<totfact> 0.10833016E+00</totfact>
</mgrwt>
</event>
<event>
 4    1  0.3365401E-008  0.2424325E+03  0.7818608E-02  0.1118183E+00
         -2   -1    0    0    0  501 -0.00000000000E+00  0.00000000000E+00  0.92330251920E+02  0.92330251955E+02  0.25500000000E-02 0.  1.
          2   -1    0    0  501    0  0.00000000000E+00 -0.00000000000E+00 -0.11213554810E+04  0.11213554810E+04  0.25500000000E-02 0. -1.
    8880022    1    1    2    0    0 -0.34251528009E+01 -0.18806946808E+03 -0.11550147470E+03  0.26854068625E+03  0.15294330000E+03 0.  1.
    8880022    1    1    2    0    0  0.34251528009E+01  0.18806946808E+03 -0.91352375438E+03  0.94514504672E+03  0.15294330000E+03 0.  0.
<mgrwt>
<rscale>  0 0.24243248E+03</rscale>
<asrwt>0</asrwt>
<pdfrwt beam="1">  1        2 0.17251622E+00 0.24243248E+03</pdfrwt>
<pdfrwt beam="2">  1       -2 0.14204655E-01 0.24243248E+03</pdfrwt>
<totfact> 0.83538984E+02</totfact>
</mgrwt>
</event>
<event>
 4    1  0.3365401E-008  0.5049398E+03  0.7818608E-02  0.1012498E+00
          2   -1    0    0  501    0  0.00000000000E+00  0.00000000000E+00  0.18074421076E+04  0.18074421076E+04  0.25500000000E-02 0. -1.
         -2   -1    0    0    0  501 -0.00000000000E+00 -0.00000000000E+00 -0.73614719641E+03  0.73614719641E+03  0.25500000000E-02 0.  1.
    8880022    1    1    2    0    0  0.39178693665E+03  0.27941994952E+03 -0.60781965629E+03  0.79019548183E+03  0.15294330000E+03 0.  1.
    8880022    1    1    2    0    0 -0.39178693665E+03 -0.27941994952E+03  0.16791145675E+04  0.17533938222E+04  0.15294330000E+03 0.  0.
<mgrwt>
<rscale>  0 0.50493976E+03</rscale>
<asrwt>0</asrwt>
<pdfrwt beam="1">  1        2 0.27806801E+00 0.50493976E+03</pdfrwt>
<pdfrwt beam="2">  1       -2 0.11325342E+00 0.50493976E+03</pdfrwt>
<totfact> 0.56581447E+00</totfact>
</mgrwt>
</event>
<event>
 4    1  0.3365401E-008  0.5710240E+03  0.7818608E-02  0.9967415E-01
         -2   -1    0    0    0  501 -0.00000000000E+00  0.00000000000E+00  0.12461576271E+04  0.12461576271E+04  0.25500000000E-02 0.  1.
          2   -1    0    0  501    0  0.00000000000E+00 -0.00000000000E+00 -0.44241437944E+03  0.44241437944E+03  0.25500000000E-02 0. -1.
    8880022    1    1    2    0    0 -0.52477966328E+03  0.16517588113E+03 -0.13778874905E+03  0.58741310768E+03  0.15294330000E+03 0.  0.
    8880022    1    1    2    0    0  0.52477966328E+03 -0.16517588113E+03  0.94153199672E+03  0.11011588989E+04  0.15294330000E+03 0.  0.
<mgrwt>
<rscale>  0 0.57102401E+03</rscale>
<asrwt>0</asrwt>
<pdfrwt beam="1">  1        2 0.68063750E-01 0.57102401E+03</pdfrwt>
<pdfrwt beam="2">  1       -2 0.19171656E+00 0.57102401E+03</pdfrwt>
<totfact> 0.11122751E+01</totfact>
</mgrwt>
</event>
<event>
 4    1  0.3365401E-008  0.2209400E+03  0.7818608E-02  0.1133184E+00
          2   -1    0    0  501    0  0.00000000000E+00  0.00000000000E+00  0.73345268042E+03  0.73345268043E+03  0.25500000000E-02 0. -1.
         -2   -1    0    0    0  501 -0.00000000000E+00 -0.00000000000E+00 -0.35881103807E+03  0.35881103808E+03  0.25500000000E-02 0.  1.
    8880022    1    1    2    0    0 -0.16395385686E+02 -0.15860024026E+03  0.68020719540E+03  0.71518971369E+03  0.15294330000E+03 0. -1.
    8880022    1    1    2    0    0  0.16395385686E+02  0.15860024026E+03 -0.30556555305E+03  0.37707400481E+03  0.15294330000E+03 0.  0.
<mgrwt>
<rscale>  0 0.22094003E+03</rscale>
<asrwt>0</asrwt>
<pdfrwt beam="1">  1        2 0.11283887E+00 0.22094003E+03</pdfrwt>
<pdfrwt beam="2">  1       -2 0.55201699E-01 0.22094003E+03</pdfrwt>
<totfact> 0.12690838E+02</totfact>
</mgrwt>
</event>
<event>
 4    1  0.3365401E-008  0.5987041E+03  0.7818608E-02  0.9908098E-01
          2   -1    0    0  501    0  0.00000000000E+00  0.00000000000E+00  0.17194285651E+04  0.17194285651E+04  0.25500000000E-02 0. -1.
         -2   -1    0    0    0  501 -0.00000000000E+00 -0.00000000000E+00 -0.30004928736E+03  0.30004928737E+03  0.25500000000E-02 0.  1.
    8880022    1    1    2    0    0 -0.42882086960E+02 -0.57724875510E+03  0.15184271340E+03  0.61765917890E+03  0.15294330000E+03 0.  0.
    8880022    1    1    2    0    0  0.42882086960E+02  0.57724875510E+03  0.12675365644E+04  0.14018186736E+04  0.15294330000E+03 0.  0.
<mgrwt>
<rscale>  0 0.59870414E+03</rscale>
<asrwt>0</asrwt>
<pdfrwt beam="1">  1        2 0.26452747E+00 0.59870414E+03</pdfrwt>
<pdfrwt beam="2">  1       -2 0.46161429E-01 0.59870414E+03</pdfrwt>
<totfact> 0.44510832E+01</totfact>
</mgrwt>
</event>
<event>
 4    1  0.3365401E-008  0.3927018E+03  0.7818608E-02  0.1046337E+00
          2   -1    0    0  501    0  0.00000000000E+00  0.00000000000E+00  0.14294615964E+04  0.14294615964E+04  0.25500000000E-02 0. -1.
         -2   -1    0    0    0  501 -0.00000000000E+00 -0.00000000000E+00 -0.19343683757E+03  0.19343683759E+03  0.25500000000E-02 0.  1.
    8880022    1    1    2    0    0  0.27699940697E+03 -0.23258190009E+03  0.78363355443E+02  0.40044410372E+03  0.15294330000E+03 0.  1.
    8880022    1    1    2    0    0 -0.27699940697E+03  0.23258190009E+03  0.11576614034E+04  0.12224543303E+04  0.15294330000E+03 0. -1.
<mgrwt>
<rscale>  0 0.39270175E+03</rscale>
<asrwt>0</asrwt>
<pdfrwt beam="1">  1        2 0.21991717E+00 0.39270175E+03</pdfrwt>
<pdfrwt beam="2">  1       -2 0.29759513E-01 0.39270175E+03</pdfrwt>
<totfact> 0.15285117E+02</totfact>
</mgrwt>
</event>
<event>
 4    1  0.3365401E-008  0.7021059E+03  0.7818608E-02  0.9713638E-01
         -2   -1    0    0    0  501 -0.00000000000E+00  0.00000000000E+00  0.78862374559E+03  0.78862374559E+03  0.25500000000E-02 0.  1.
          2   -1    0    0  501    0  0.00000000000E+00 -0.00000000000E+00 -0.24219601749E+04  0.24219601749E+04  0.25500000000E-02 0. -1.
    8880022    1    1    2    0    0  0.70693292775E+02  0.68158895124E+03  0.56603867498E+03  0.90186056277E+03  0.15294330000E+03 0.  0.
    8880022    1    1    2    0    0 -0.70693292775E+02 -0.68158895124E+03 -0.21993751042E+04  0.23087233577E+04  0.15294330000E+03 0.  0.
<mgrwt>
<rscale>  0 0.70210590E+03</rscale>
<asrwt>0</asrwt>
<pdfrwt beam="1">  1        2 0.37260925E+00 0.70210590E+03</pdfrwt>
<pdfrwt beam="2">  1       -2 0.12132673E+00 0.70210590E+03</pdfrwt>
<totfact> 0.21121103E+00</totfact>
</mgrwt>
</event>
<event>
 4    1  0.3365401E-008  0.5014214E+03  0.7818608E-02  0.1013409E+00
         -2   -1    0    0    0  501 -0.00000000000E+00  0.00000000000E+00  0.35248605077E+03  0.35248605078E+03  0.25500000000E-02 0.  1.
          2   -1    0    0  501    0  0.00000000000E+00 -0.00000000000E+00 -0.10622924356E+04  0.10622924356E+04  0.25500000000E-02 0. -1.
    8880022    1    1    2    0    0 -0.40707622421E+03  0.24964118654E+03  0.50561474674E+02  0.50396417538E+03  0.15294330000E+03 0.  0.
    8880022    1    1    2    0    0  0.40707622421E+03 -0.24964118654E+03 -0.76036785951E+03  0.91081431100E+03  0.15294330000E+03 0. -1.
<mgrwt>
<rscale>  0 0.50142141E+03</rscale>
<asrwt>0</asrwt>
<pdfrwt beam="1">  1        2 0.16342960E+00 0.50142141E+03</pdfrwt>
<pdfrwt beam="2">  1       -2 0.54228624E-01 0.50142141E+03</pdfrwt>
<totfact> 0.76589161E+01</totfact>
</mgrwt>
</event>
<event>
 4    1  0.3365401E-008  0.1059663E+04  0.7818608E-02  0.9245424E-01
         -2   -1    0    0    0  501 -0.00000000000E+00  0.00000000000E+00  0.43874884283E+03  0.43874884284E+03  0.25500000000E-02 0.  1.
          2   -1    0    0  501    0  0.00000000000E+00 -0.00000000000E+00 -0.27407669136E+04  0.27407669136E+04  0.25500000000E-02 0. -1.
    8880022    1    1    2    0    0 -0.79354486689E+03  0.68540559004E+03 -0.15600855249E+04  0.18859355176E+04  0.15294330000E+03 0.  0.
    8880022    1    1    2    0    0  0.79354486689E+03 -0.68540559004E+03 -0.74193254587E+03  0.12935802388E+04  0.15294330000E+03 0.  0.
<mgrwt>
<rscale>  0 0.10596631E+04</rscale>
<asrwt>0</asrwt>
<pdfrwt beam="1">  1        2 0.42165644E+00 0.10596631E+04</pdfrwt>
<pdfrwt beam="2">  1       -2 0.67499823E-01 0.10596631E+04</pdfrwt>
<totfact> 0.50928342E+00</totfact>
</mgrwt>
</event>
<event>
 4    1  0.3365401E-008  0.7011738E+03  0.7818608E-02  0.9715227E-01
         -2   -1    0    0    0  501 -0.00000000000E+00  0.00000000000E+00  0.38187464452E+03  0.38187464453E+03  0.25500000000E-02 0.  1.
          2   -1    0    0  501    0  0.00000000000E+00 -0.00000000000E+00 -0.17169513145E+04  0.17169513145E+04  0.25500000000E-02 0. -1.
    8880022    1    1    2    0    0  0.65228056704E+03  0.20684063866E+03 -0.14267103325E+03  0.71554151848E+03  0.15294330000E+03 0.  0.
    8880022    1    1    2    0    0 -0.65228056704E+03 -0.20684063866E+03 -0.11924056368E+04  0.13832844406E+04  0.15294330000E+03 0.  0.
<mgrwt>
<rscale>  0 0.70117376E+03</rscale>
<asrwt>0</asrwt>
<pdfrwt beam="1">  1        2 0.26414635E+00 0.70117376E+03</pdfrwt>
<pdfrwt beam="2">  1       -2 0.58749946E-01 0.70117376E+03</pdfrwt>
<totfact> 0.26863892E+01</totfact>
</mgrwt>
</event>
<event>
 4    1  0.3365401E-008  0.6509139E+03  0.7818608E-02  0.9805066E-01
         -2   -1    0    0    0  501 -0.00000000000E+00  0.00000000000E+00  0.40670414701E+03  0.40670414701E+03  0.25500000000E-02 0.  1.
          2   -1    0    0  501    0  0.00000000000E+00 -0.00000000000E+00 -0.29695880932E+04  0.29695880932E+04  0.25500000000E-02 0. -1.
    8880022    1    1    2    0    0 -0.60276176583E+03  0.19229013923E+03 -0.26416203403E+04  0.27206335510E+04  0.15294330000E+03 0.  0.
    8880022    1    1    2    0    0  0.60276176583E+03 -0.19229013923E+03  0.78736394014E+02  0.65565868922E+03  0.15294330000E+03 0.  1.
<mgrwt>
<rscale>  0 0.65091389E+03</rscale>
<asrwt>0</asrwt>
<pdfrwt beam="1">  1        2 0.45685969E+00 0.65091389E+03</pdfrwt>
<pdfrwt beam="2">  1       -2 0.62569871E-01 0.65091389E+03</pdfrwt>
<totfact> 0.46867929E+00</totfact>
</mgrwt>
</event>
<event>
 4    1  0.3365401E-008  0.4382633E+03  0.7818608E-02  0.1031281E+00
         -2   -1    0    0    0  501 -0.00000000000E+00  0.00000000000E+00  0.12356526487E+04  0.12356526487E+04  0.25500000000E-02 0.  1.
          2   -1    0    0  501    0  0.00000000000E+00 -0.00000000000E+00 -0.62793825419E+03  0.62793825419E+03  0.25500000000E-02 0. -1.
    8880022    1    1    2    0    0 -0.15829341781E+03 -0.37898054784E+03  0.11121345482E+04  0.11953735684E+04  0.15294330000E+03 0.  0.
    8880022    1    1    2    0    0  0.15829341781E+03  0.37898054784E+03 -0.50442015363E+03  0.66821733453E+03  0.15294330000E+03 0. -1.
<mgrwt>
<rscale>  0 0.43826329E+03</rscale>
<asrwt>0</asrwt>
<pdfrwt beam="1">  1        2 0.96605886E-01 0.43826329E+03</pdfrwt>
<pdfrwt beam="2">  1       -2 0.19010041E+00 0.43826329E+03</pdfrwt>
<totfact> 0.77569128E+00</totfact>
</mgrwt>
</event>
<event>
 4    1  0.3365401E-008  0.4603806E+03  0.7818608E-02  0.1024671E+00
         -2   -1    0    0    0  501 -0.00000000000E+00  0.00000000000E+00  0.24731408073E+03  0.24731408074E+03  0.25500000000E-02 0.  1.
          2   -1    0    0  501    0  0.00000000000E+00 -0.00000000000E+00 -0.11130094347E+04  0.11130094347E+04  0.25500000000E-02 0. -1.
    8880022    1    1    2    0    0 -0.36696287397E+03  0.23215703632E+03 -0.10664803494E+03  0.47257179006E+03  0.15294330000E+03 0.  0.
    8880022    1    1    2    0    0  0.36696287397E+03 -0.23215703632E+03 -0.75904731908E+03  0.88775172543E+03  0.15294330000E+03 0. -1.
<mgrwt>
<rscale>  0 0.46038060E+03</rscale>
<asrwt>0</asrwt>
<pdfrwt beam="1">  1        2 0.17123222E+00 0.46038060E+03</pdfrwt>
<pdfrwt beam="2">  1       -2 0.38048321E-01 0.46038060E+03</pdfrwt>
<totfact> 0.14487936E+02</totfact>
</mgrwt>
</event>
<event>
 4    1  0.3365401E-008  0.4665231E+03  0.7818608E-02  0.1022906E+00
         -2   -1    0    0    0  501 -0.00000000000E+00  0.00000000000E+00  0.80689119305E+03  0.80689119306E+03  0.25500000000E-02 0.  1.
          2   -1    0    0  501    0  0.00000000000E+00 -0.00000000000E+00 -0.80802477291E+03  0.80802477291E+03  0.25500000000E-02 0. -1.
    8880022    1    1    2    0    0 -0.43884139904E+03  0.40870196905E+02 -0.65961495776E+03  0.80792059760E+03  0.15294330000E+03 0. -1.
    8880022    1    1    2    0    0  0.43884139904E+03 -0.40870196905E+02  0.65848137790E+03  0.80699536837E+03  0.15294330000E+03 0.  0.
<mgrwt>
<rscale>  0 0.46652310E+03</rscale>
<asrwt>0</asrwt>
<pdfrwt beam="1">  1        2 0.12431150E+00 0.46652310E+03</pdfrwt>
<pdfrwt beam="2">  1       -2 0.12413711E+00 0.46652310E+03</pdfrwt>
<totfact> 0.17450309E+01</totfact>
</mgrwt>
</event>
<event>
 4    1  0.3365401E-008  0.2931470E+03  0.7818608E-02  0.1088717E+00
          2   -1    0    0  501    0  0.00000000000E+00  0.00000000000E+00  0.81623026676E+03  0.81623026677E+03  0.25500000000E-02 0. -1.
         -2   -1    0    0    0  501 -0.00000000000E+00 -0.00000000000E+00 -0.10174663616E+04  0.10174663617E+04  0.25500000000E-02 0.  1.
    8880022    1    1    2    0    0  0.43285870136E+02 -0.24631244866E+03  0.76749951546E+03  0.82157814489E+03  0.15294330000E+03 0. -1.
    8880022    1    1    2    0    0 -0.43285870136E+02  0.24631244866E+03 -0.96873561035E+03  0.10121184835E+04  0.15294330000E+03 0.  0.
<mgrwt>
<rscale>  0 0.29314696E+03</rscale>
<asrwt>0</asrwt>
<pdfrwt beam="1">  1        2 0.12557389E+00 0.29314696E+03</pdfrwt>
<pdfrwt beam="2">  1       -2 0.15653329E+00 0.29314696E+03</pdfrwt>
<totfact> 0.98985467E+00</totfact>
</mgrwt>
</event>
<event>
 4    1  0.3365401E-008  0.1163129E+04  0.7818608E-02  0.9145756E-01
         -2   -1    0    0    0  501 -0.00000000000E+00  0.00000000000E+00  0.19648293918E+04  0.19648293918E+04  0.25500000000E-02 0.  1.
          2   -1    0    0  501    0  0.00000000000E+00 -0.00000000000E+00 -0.11775335928E+04  0.11775335928E+04  0.25500000000E-02 0. -1.
    8880022    1    1    2    0    0  0.11494074830E+04  0.91320731674E+02 -0.61884070119E+03  0.13175099637E+04  0.15294330000E+03 0.  0.
    8880022    1    1    2    0    0 -0.11494074830E+04 -0.91320731674E+02  0.14061365002E+04  0.18248530210E+04  0.15294330000E+03 0.  0.
<mgrwt>
<rscale>  0 0.11631288E+04</rscale>
<asrwt>0</asrwt>
<pdfrwt beam="1">  1        2 0.18115901E+00 0.11631288E+04</pdfrwt>
<pdfrwt beam="2">  1       -2 0.30228145E+00 0.11631288E+04</pdfrwt>
<totfact> 0.59026705E-01</totfact>
</mgrwt>
</event>
<event>
 4    1  0.3365401E-008  0.3374207E+03  0.7818608E-02  0.1067900E+00
          2   -1    0    0  501    0  0.00000000000E+00  0.00000000000E+00  0.32313110511E+04  0.32313110511E+04  0.25500000000E-02 0. -1.
         -2   -1    0    0    0  501 -0.00000000000E+00 -0.00000000000E+00 -0.10059391957E+03  0.10059391960E+03  0.25500000000E-02 0.  1.
    8880022    1    1    2    0    0 -0.30065521482E+03 -0.82173726417E+01  0.22249541423E+03  0.40417440021E+03  0.15294330000E+03 0.  0.
    8880022    1    1    2    0    0  0.30065521482E+03  0.82173726417E+01  0.29082217173E+04  0.29277305704E+04  0.15294330000E+03 0. -1.
<mgrwt>
<rscale>  0 0.33742071E+03</rscale>
<asrwt>0</asrwt>
<pdfrwt beam="1">  1        2 0.49712474E+00 0.33742071E+03</pdfrwt>
<pdfrwt beam="2">  1       -2 0.15475989E-01 0.33742071E+03</pdfrwt>
<totfact> 0.47997778E+01</totfact>
</mgrwt>
</event>
<event>
 4    1  0.3365401E-008  0.4061529E+03  0.7818608E-02  0.1041670E+00
          2   -1    0    0  501    0  0.00000000000E+00  0.00000000000E+00  0.19746936080E+04  0.19746936080E+04  0.25500000000E-02 0. -1.
         -2   -1    0    0    0  501 -0.00000000000E+00 -0.00000000000E+00 -0.12177034650E+03  0.12177034653E+03  0.25500000000E-02 0.  1.
    8880022    1    1    2    0    0  0.36647009101E+03  0.85253702932E+02  0.15138255027E+04  0.15673633361E+04  0.15294330000E+03 0.  0.
    8880022    1    1    2    0    0 -0.36647009101E+03 -0.85253702932E+02  0.33909775877E+03  0.52910061849E+03  0.15294330000E+03 0.  0.
<mgrwt>
<rscale>  0 0.40615290E+03</rscale>
<asrwt>0</asrwt>
<pdfrwt beam="1">  1        2 0.30379902E+00 0.40615290E+03</pdfrwt>
<pdfrwt beam="2">  1       -2 0.18733899E-01 0.40615290E+03</pdfrwt>
<totfact> 0.17636371E+02</totfact>
</mgrwt>
</event>
<event>
 4    1  0.3365401E-008  0.2130158E+03  0.7818608E-02  0.1139200E+00
         -2   -1    0    0    0  501 -0.00000000000E+00  0.00000000000E+00  0.99956714524E+02  0.99956714556E+02  0.25500000000E-02 0.  1.
          2   -1    0    0  501    0  0.00000000000E+00 -0.00000000000E+00 -0.18283999877E+04  0.18283999878E+04  0.25500000000E-02 0. -1.
    8880022    1    1    2    0    0  0.73241152741E+01  0.14808922368E+03 -0.28261308424E+02  0.21488232920E+03  0.15294330000E+03 0.  0.
    8880022    1    1    2    0    0 -0.73241152741E+01 -0.14808922368E+03 -0.17001819648E+04  0.17134743731E+04  0.15294330000E+03 0. -1.
<mgrwt>
<rscale>  0 0.21301576E+03</rscale>
<asrwt>0</asrwt>
<pdfrwt beam="1">  1        2 0.28129228E+00 0.21301576E+03</pdfrwt>
<pdfrwt beam="2">  1       -2 0.15377957E-01 0.21301576E+03</pdfrwt>
<totfact> 0.30569281E+02</totfact>
</mgrwt>
</event>
<event>
 4    1  0.3365401E-008  0.5854584E+03  0.7818608E-02  0.9936043E-01
          2   -1    0    0  501    0  0.00000000000E+00  0.00000000000E+00  0.40829180633E+03  0.40829180634E+03  0.25500000000E-02 0. -1.
         -2   -1    0    0    0  501 -0.00000000000E+00 -0.00000000000E+00 -0.84527266847E+03  0.84527266848E+03  0.25500000000E-02 0.  1.
    8880022    1    1    2    0    0 -0.43697168807E+03 -0.35836525975E+03 -0.16669975848E+03  0.60872849289E+03  0.15294330000E+03 0.  1.
    8880022    1    1    2    0    0  0.43697168807E+03  0.35836525975E+03 -0.27028110366E+03  0.64483598192E+03  0.15294330000E+03 0.  0.
<mgrwt>
<rscale>  0 0.58545843E+03</rscale>
<asrwt>0</asrwt>
<pdfrwt beam="1">  1        2 0.62814124E-01 0.58545843E+03</pdfrwt>
<pdfrwt beam="2">  1       -2 0.13004195E+00 0.58545843E+03</pdfrwt>
<totfact> 0.34565849E+01</totfact>
</mgrwt>
</event>
<event>
 4    1  0.3365401E-008  0.4996559E+03  0.7818608E-02  0.1013869E+00
         -2   -1    0    0    0  501 -0.00000000000E+00  0.00000000000E+00  0.46578053851E+03  0.46578053852E+03  0.25500000000E-02 0.  1.
          2   -1    0    0  501    0  0.00000000000E+00 -0.00000000000E+00 -0.71256091777E+03  0.71256091777E+03  0.25500000000E-02 0. -1.
    8880022    1    1    2    0    0 -0.20236360550E+03  0.43048034653E+03 -0.41667102005E+03  0.65059261411E+03  0.15294330000E+03 0.  0.
    8880022    1    1    2    0    0  0.20236360550E+03 -0.43048034653E+03  0.16989064079E+03  0.52774884218E+03  0.15294330000E+03 0.  0.
<mgrwt>
<rscale>  0 0.49965589E+03</rscale>
<asrwt>0</asrwt>
<pdfrwt beam="1">  1        2 0.10962476E+00 0.49965589E+03</pdfrwt>
<pdfrwt beam="2">  1       -2 0.71658544E-01 0.49965589E+03</pdfrwt>
<totfact> 0.73128275E+01</totfact>
</mgrwt>
</event>
<event>
 4    1  0.3365401E-008  0.4205987E+03  0.7818608E-02  0.1036872E+00
          2   -1    0    0  501    0  0.00000000000E+00  0.00000000000E+00  0.59874672613E+03  0.59874672613E+03  0.25500000000E-02 0. -1.
         -2   -1    0    0    0  501 -0.00000000000E+00 -0.00000000000E+00 -0.69286088679E+03  0.69286088680E+03  0.25500000000E-02 0.  1.
    8880022    1    1    2    0    0  0.36866369727E+03  0.13266014814E+03 -0.53615318112E+03  0.68144223763E+03  0.15294330000E+03 0.  0.
    8880022    1    1    2    0    0 -0.36866369727E+03 -0.13266014814E+03  0.44203902045E+03  0.61016537530E+03  0.15294330000E+03 0.  0.
<mgrwt>
<rscale>  0 0.42059873E+03</rscale>
<asrwt>0</asrwt>
<pdfrwt beam="1">  1        2 0.92114881E-01 0.42059873E+03</pdfrwt>
<pdfrwt beam="2">  1       -2 0.10659398E+00 0.42059873E+03</pdfrwt>
<totfact> 0.36907772E+01</totfact>
</mgrwt>
</event>
<event>
 4    1  0.3365401E-008  0.9349489E+03  0.7818608E-02  0.9382918E-01
          2   -1    0    0  501    0  0.00000000000E+00  0.00000000000E+00  0.74365162522E+03  0.74365162523E+03  0.25500000000E-02 0. -1.
         -2   -1    0    0    0  501 -0.00000000000E+00 -0.00000000000E+00 -0.13439917729E+04  0.13439917729E+04  0.25500000000E-02 0.  1.
    8880022    1    1    2    0    0 -0.12452668156E+03 -0.91390965787E+03 -0.66980642838E+03  0.11501174121E+04  0.15294330000E+03 0.  0.
    8880022    1    1    2    0    0  0.12452668156E+03  0.91390965787E+03  0.69466280742E+02  0.93752598596E+03  0.15294330000E+03 0.  0.
<mgrwt>
<rscale>  0 0.93494888E+03</rscale>
<asrwt>0</asrwt>
<pdfrwt beam="1">  1        2 0.11440794E+00 0.93494888E+03</pdfrwt>
<pdfrwt beam="2">  1       -2 0.20676797E+00 0.93494888E+03</pdfrwt>
<totfact> 0.45566695E+00</totfact>
</mgrwt>
</event>
<event>
 4    1  0.3365401E-008  0.2732039E+03  0.7818608E-02  0.1099460E+00
          2   -1    0    0  501    0  0.00000000000E+00  0.00000000000E+00  0.40317075908E+03  0.40317075909E+03  0.25500000000E-02 0. -1.
         -2   -1    0    0    0  501 -0.00000000000E+00 -0.00000000000E+00 -0.39261104503E+03  0.39261104504E+03  0.25500000000E-02 0.  1.
    8880022    1    1    2    0    0 -0.19439523015E+01  0.22637350404E+03 -0.28396680149E+03  0.39405271176E+03  0.15294330000E+03 0.  0.
    8880022    1    1    2    0    0  0.19439523015E+01 -0.22637350404E+03  0.29452651554E+03  0.40172909237E+03  0.15294330000E+03 0. -1.
<mgrwt>
<rscale>  0 0.27320394E+03</rscale>
<asrwt>0</asrwt>
<pdfrwt beam="1">  1        2 0.62026271E-01 0.27320394E+03</pdfrwt>
<pdfrwt beam="2">  1       -2 0.60401699E-01 0.27320394E+03</pdfrwt>
<totfact> 0.20808133E+02</totfact>
</mgrwt>
</event>
<event>
 4    1  0.3365401E-008  0.2171408E+03  0.7818608E-02  0.1136033E+00
         -2   -1    0    0    0  501 -0.00000000000E+00  0.00000000000E+00  0.28456976576E+03  0.28456976577E+03  0.25500000000E-02 0.  1.
          2   -1    0    0  501    0  0.00000000000E+00 -0.00000000000E+00 -0.18411291526E+04  0.18411291526E+04  0.25500000000E-02 0. -1.
    8880022    1    1    2    0    0  0.35443906952E+02 -0.15000731184E+03 -0.17921772378E+04  0.18052837364E+04  0.15294330000E+03 0.  0.
    8880022    1    1    2    0    0 -0.35443906952E+02  0.15000731184E+03  0.23561785095E+03  0.32041518199E+03  0.15294330000E+03 0.  0.
<mgrwt>
<rscale>  0 0.21714078E+03</rscale>
<asrwt>0</asrwt>
<pdfrwt beam="1">  1        2 0.28325063E+00 0.21714078E+03</pdfrwt>
<pdfrwt beam="2">  1       -2 0.43779965E-01 0.21714078E+03</pdfrwt>
<totfact> 0.46591975E+01</totfact>
</mgrwt>
</event>
<event>
 4    1  0.3365401E-008  0.5898798E+03  0.7818608E-02  0.9926628E-01
         -2   -1    0    0    0  501 -0.00000000000E+00  0.00000000000E+00  0.22212999350E+03  0.22212999352E+03  0.25500000000E-02 0.  1.
          2   -1    0    0  501    0  0.00000000000E+00 -0.00000000000E+00 -0.20051942779E+04  0.20051942780E+04  0.25500000000E-02 0. -1.
    8880022    1    1    2    0    0 -0.48463006195E+03 -0.29949994074E+03 -0.14124570035E+04  0.15306838182E+04  0.15294330000E+03 0.  0.
    8880022    1    1    2    0    0  0.48463006195E+03  0.29949994074E+03 -0.37060728091E+03  0.69664045327E+03  0.15294330000E+03 0.  0.
<mgrwt>
<rscale>  0 0.58987979E+03</rscale>
<asrwt>0</asrwt>
<pdfrwt beam="1">  1        2 0.30849142E+00 0.58987979E+03</pdfrwt>
<pdfrwt beam="2">  1       -2 0.34173846E-01 0.58987979E+03</pdfrwt>
<totfact> 0.55964623E+01</totfact>
</mgrwt>
</event>
<event>
 4    1  0.3365401E-008  0.9365311E+03  0.7818608E-02  0.9381034E-01
         -2   -1    0    0    0  501 -0.00000000000E+00  0.00000000000E+00  0.76734876635E+03  0.76734876635E+03  0.25500000000E-02 0.  1.
          2   -1    0    0  501    0  0.00000000000E+00 -0.00000000000E+00 -0.18168654610E+04  0.18168654610E+04  0.25500000000E-02 0. -1.
    8880022    1    1    2    0    0  0.65262768652E+03  0.65404585011E+03  0.26214095591E+03  0.97252681456E+03  0.15294330000E+03 0.  0.
    8880022    1    1    2    0    0 -0.65262768652E+03 -0.65404585011E+03 -0.13116576506E+04  0.16116874128E+04  0.15294330000E+03 0.  0.
<mgrwt>
<rscale>  0 0.93653111E+03</rscale>
<asrwt>0</asrwt>
<pdfrwt beam="1">  1        2 0.27951776E+00 0.93653111E+03</pdfrwt>
<pdfrwt beam="2">  1       -2 0.11805366E+00 0.93653111E+03</pdfrwt>
<totfact> 0.46920098E+00</totfact>
</mgrwt>
</event>
<event>
 4    1  0.3365401E-008  0.3578155E+03  0.7818608E-02  0.1059452E+00
         -2   -1    0    0    0  501 -0.00000000000E+00  0.00000000000E+00  0.11584131277E+04  0.11584131277E+04  0.25500000000E-02 0.  1.
          2   -1    0    0  501    0  0.00000000000E+00 -0.00000000000E+00 -0.26674704971E+03  0.26674704973E+03  0.25500000000E-02 0. -1.
    8880022    1    1    2    0    0  0.11837694948E+03 -0.30104349313E+03  0.99116008996E+03  0.10537695497E+04  0.15294330000E+03 0.  0.
    8880022    1    1    2    0    0 -0.11837694948E+03  0.30104349313E+03 -0.99494011984E+02  0.37139062772E+03  0.15294330000E+03 0.  0.
<mgrwt>
<rscale>  0 0.35781551E+03</rscale>
<asrwt>0</asrwt>
<pdfrwt beam="1">  1        2 0.41038008E-01 0.35781551E+03</pdfrwt>
<pdfrwt beam="2">  1       -2 0.17821740E+00 0.35781551E+03</pdfrwt>
<totfact> 0.24688546E+01</totfact>
</mgrwt>
</event>
<event>
 4    1  0.3365401E-008  0.1043939E+04  0.7818608E-02  0.9261624E-01
          2   -1    0    0  501    0  0.00000000000E+00  0.00000000000E+00  0.28918708953E+04  0.28918708953E+04  0.25500000000E-02 0. -1.
         -2   -1    0    0    0  501 -0.00000000000E+00 -0.00000000000E+00 -0.69323873597E+03  0.69323873598E+03  0.25500000000E-02 0.  1.
    8880022    1    1    2    0    0 -0.38450107329E+03  0.95842394184E+03  0.23103037718E+04  0.25352145271E+04  0.15294330000E+03 0.  0.
    8880022    1    1    2    0    0  0.38450107329E+03 -0.95842394184E+03 -0.11167161247E+03  0.10498951041E+04  0.15294330000E+03 0.  0.
<mgrwt>
<rscale>  0 0.10439393E+04</rscale>
<asrwt>0</asrwt>
<pdfrwt beam="1">  1        2 0.44490320E+00 0.10439393E+04</pdfrwt>
<pdfrwt beam="2">  1       -2 0.10665212E+00 0.10439393E+04</pdfrwt>
<totfact> 0.14525475E+00</totfact>
</mgrwt>
</event>
<event>
 4    1  0.3365401E-008  0.2604647E+03  0.7818608E-02  0.1106864E+00
         -2   -1    0    0    0  501 -0.00000000000E+00  0.00000000000E+00  0.10152794271E+03  0.10152794274E+03  0.25500000000E-02 0.  1.
          2   -1    0    0  501    0  0.00000000000E+00 -0.00000000000E+00 -0.18165931672E+04  0.18165931672E+04  0.25500000000E-02 0. -1.
    8880022    1    1    2    0    0 -0.19366527064E+03  0.83330472824E+02 -0.16200694695E+04  0.16408738354E+04  0.15294330000E+03 0.  0.
    8880022    1    1    2    0    0  0.19366527064E+03 -0.83330472824E+02 -0.94995754994E+02  0.27724727453E+03  0.15294330000E+03 0.  1.
<mgrwt>
<rscale>  0 0.26046470E+03</rscale>
<asrwt>0</asrwt>
<pdfrwt beam="1">  1        2 0.27947585E+00 0.26046470E+03</pdfrwt>
<pdfrwt beam="2">  1       -2 0.15619685E-01 0.26046470E+03</pdfrwt>
<totfact> 0.29887088E+02</totfact>
</mgrwt>
</event>
<event>
 4    1  0.3365401E-008  0.2609970E+03  0.7818608E-02  0.1106546E+00
         -2   -1    0    0    0  501 -0.00000000000E+00  0.00000000000E+00  0.12729263278E+03  0.12729263281E+03  0.25500000000E-02 0.  1.
          2   -1    0    0  501    0  0.00000000000E+00 -0.00000000000E+00 -0.81879451075E+03  0.81879451075E+03  0.25500000000E-02 0. -1.
    8880022    1    1    2    0    0 -0.21530216873E+02 -0.21039060666E+03 -0.67325864827E+02  0.26954068839E+03  0.15294330000E+03 0.  0.
    8880022    1    1    2    0    0  0.21530216873E+02  0.21039060666E+03 -0.62417601314E+03  0.67654645517E+03  0.15294330000E+03 0. -1.
<mgrwt>
<rscale>  0 0.26099696E+03</rscale>
<asrwt>0</asrwt>
<pdfrwt beam="1">  1        2 0.12596838E+00 0.26099696E+03</pdfrwt>
<pdfrwt beam="2">  1       -2 0.19583483E-01 0.26099696E+03</pdfrwt>
<totfact> 0.75319962E+02</totfact>
</mgrwt>
</event>
<event>
 4    1  0.3365401E-008  0.4909420E+03  0.7818608E-02  0.1016171E+00
          2   -1    0    0  501    0  0.00000000000E+00  0.00000000000E+00  0.68260178417E+03  0.68260178418E+03  0.25500000000E-02 0. -1.
         -2   -1    0    0    0  501 -0.00000000000E+00 -0.00000000000E+00 -0.47516895421E+03  0.47516895421E+03  0.25500000000E-02 0.  1.
    8880022    1    1    2    0    0  0.21963386236E+03  0.41157429770E+03  0.39712845742E+03  0.63145474955E+03  0.15294330000E+03 0.  0.
    8880022    1    1    2    0    0 -0.21963386236E+03 -0.41157429770E+03 -0.18969562745E+03  0.52631598884E+03  0.15294330000E+03 0.  0.
<mgrwt>
<rscale>  0 0.49094204E+03</rscale>
<asrwt>0</asrwt>
<pdfrwt beam="1">  1        2 0.10501566E+00 0.49094204E+03</pdfrwt>
<pdfrwt beam="2">  1       -2 0.73102916E-01 0.49094204E+03</pdfrwt>
<totfact> 0.73916106E+01</totfact>
</mgrwt>
</event>
<event>
 4    1  0.3365401E-008  0.1954781E+03  0.7818608E-02  0.1153611E+00
          2   -1    0    0  501    0  0.00000000000E+00  0.00000000000E+00  0.12299033982E+04  0.12299033982E+04  0.25500000000E-02 0. -1.
         -2   -1    0    0    0  501 -0.00000000000E+00 -0.00000000000E+00 -0.19644133073E+03  0.19644133075E+03  0.25500000000E-02 0.  1.
    8880022    1    1    2    0    0  0.11028560150E+03  0.51547145619E+02  0.11710804245E+04  0.11872830479E+04  0.15294330000E+03 0. -1.
    8880022    1    1    2    0    0 -0.11028560150E+03 -0.51547145619E+02 -0.13761835707E+03  0.23906168103E+03  0.15294330000E+03 0.  0.
<mgrwt>
<rscale>  0 0.19547807E+03</rscale>
<asrwt>0</asrwt>
<pdfrwt beam="1">  1        2 0.18921591E+00 0.19547807E+03</pdfrwt>
<pdfrwt beam="2">  1       -2 0.30221743E-01 0.19547807E+03</pdfrwt>
<totfact> 0.19883664E+02</totfact>
</mgrwt>
</event>
<event>
 4    1  0.3365401E-008  0.3735162E+03  0.7818608E-02  0.1053357E+00
          2   -1    0    0  501    0  0.00000000000E+00  0.00000000000E+00  0.27088929078E+04  0.27088929078E+04  0.25500000000E-02 0. -1.
         -2   -1    0    0    0  501 -0.00000000000E+00 -0.00000000000E+00 -0.27021713691E+03  0.27021713692E+03  0.25500000000E-02 0.  1.
    8880022    1    1    2    0    0  0.33260364139E+03  0.74145125157E+02  0.25594439879E+04  0.25865552114E+04  0.15294330000E+03 0. -1.
    8880022    1    1    2    0    0 -0.33260364139E+03 -0.74145125157E+02 -0.12076821700E+03  0.39255483325E+03  0.15294330000E+03 0.  0.
<mgrwt>
<rscale>  0 0.37351618E+03</rscale>
<asrwt>0</asrwt>
<pdfrwt beam="1">  1        2 0.41675276E+00 0.37351618E+03</pdfrwt>
<pdfrwt beam="2">  1       -2 0.41571867E-01 0.37351618E+03</pdfrwt>
<totfact> 0.16518554E+01</totfact>
</mgrwt>
</event>
<event>
 4    1  0.3365401E-008  0.2837853E+03  0.7818608E-02  0.1093639E+00
          2   -1    0    0  501    0  0.00000000000E+00  0.00000000000E+00  0.27250535458E+04  0.27250535458E+04  0.25500000000E-02 0. -1.
         -2   -1    0    0    0  501 -0.00000000000E+00 -0.00000000000E+00 -0.57714135031E+02  0.57714135088E+02  0.25500000000E-02 0.  1.
    8880022    1    1    2    0    0 -0.38433232832E+02  0.23593500214E+03  0.36175246912E+03  0.45978140518E+03  0.15294330000E+03 0.  0.
    8880022    1    1    2    0    0  0.38433232832E+02 -0.23593500214E+03  0.23055869417E+04  0.23229862757E+04  0.15294330000E+03 0.  0.
<mgrwt>
<rscale>  0 0.28378529E+03</rscale>
<asrwt>0</asrwt>
<pdfrwt beam="1">  1        2 0.41923902E+00 0.28378529E+03</pdfrwt>
<pdfrwt beam="2">  1       -2 0.88790975E-02 0.28378529E+03</pdfrwt>
<totfact> 0.24059997E+02</totfact>
</mgrwt>
</event>
<event>
 4    1  0.3365401E-008  0.6491985E+03  0.7818608E-02  0.9808284E-01
         -2   -1    0    0    0  501 -0.00000000000E+00  0.00000000000E+00  0.31181513945E+03  0.31181513946E+03  0.25500000000E-02 0.  1.
          2   -1    0    0  501    0  0.00000000000E+00 -0.00000000000E+00 -0.14169837726E+04  0.14169837726E+04  0.25500000000E-02 0. -1.
    8880022    1    1    2    0    0 -0.62147597326E+03 -0.10878711647E+03 -0.36694600445E+03  0.74572652175E+03  0.15294330000E+03 0.  0.
    8880022    1    1    2    0    0  0.62147597326E+03  0.10878711647E+03 -0.73822262873E+03  0.98307239033E+03  0.15294330000E+03 0.  0.
<mgrwt>
<rscale>  0 0.64919849E+03</rscale>
<asrwt>0</asrwt>
<pdfrwt beam="1">  1        2 0.21799750E+00 0.64919849E+03</pdfrwt>
<pdfrwt beam="2">  1       -2 0.47971561E-01 0.64919849E+03</pdfrwt>
<totfact> 0.60051862E+01</totfact>
</mgrwt>
</event>
<event>
 4    1  0.3365401E-008  0.7941669E+03  0.7818608E-02  0.9568499E-01
          2   -1    0    0  501    0  0.00000000000E+00  0.00000000000E+00  0.61575577179E+03  0.61575577180E+03  0.25500000000E-02 0. -1.
         -2   -1    0    0    0  501 -0.00000000000E+00 -0.00000000000E+00 -0.12639698405E+04  0.12639698405E+04  0.25500000000E-02 0.  1.
    8880022    1    1    2    0    0  0.40974682170E+03 -0.66288530104E+03  0.85180673664E+02  0.79872196690E+03  0.15294330000E+03 0.  0.
    8880022    1    1    2    0    0 -0.40974682170E+03  0.66288530104E+03 -0.73339474239E+03  0.10810036454E+04  0.15294330000E+03 0.  0.
<mgrwt>
<rscale>  0 0.79416688E+03</rscale>
<asrwt>0</asrwt>
<pdfrwt beam="1">  1        2 0.94731657E-01 0.79416688E+03</pdfrwt>
<pdfrwt beam="2">  1       -2 0.19445690E+00 0.79416688E+03</pdfrwt>
<totfact> 0.70540673E+00</totfact>
</mgrwt>
</event>
<event>
 4    1  0.3365401E-008  0.1123199E+04  0.7818608E-02  0.9182871E-01
         -2   -1    0    0    0  501 -0.00000000000E+00  0.00000000000E+00  0.14370441221E+04  0.14370441221E+04  0.25500000000E-02 0.  1.
          2   -1    0    0  501    0  0.00000000000E+00 -0.00000000000E+00 -0.16433120095E+04  0.16433120095E+04  0.25500000000E-02 0. -1.
    8880022    1    1    2    0    0  0.49609615446E+03 -0.99602859345E+03  0.94800360048E+03  0.14697914250E+04  0.15294330000E+03 0.  0.
    8880022    1    1    2    0    0 -0.49609615446E+03  0.99602859345E+03 -0.11542714879E+04  0.16105647066E+04  0.15294330000E+03 0.  0.
<mgrwt>
<rscale>  0 0.11231990E+04</rscale>
<asrwt>0</asrwt>
<pdfrwt beam="1">  1        2 0.25281723E+00 0.11231990E+04</pdfrwt>
<pdfrwt beam="2">  1       -2 0.22108371E+00 0.11231990E+04</pdfrwt>
<totfact> 0.10052350E+00</totfact>
</mgrwt>
</event>
<event>
 4    1  0.3365401E-008  0.6443583E+03  0.7818608E-02  0.9817423E-01
          2   -1    0    0  501    0  0.00000000000E+00  0.00000000000E+00  0.17356289584E+04  0.17356289584E+04  0.25500000000E-02 0. -1.
         -2   -1    0    0    0  501 -0.00000000000E+00 -0.00000000000E+00 -0.75282023087E+03  0.75282023087E+03  0.25500000000E-02 0.  1.
    8880022    1    1    2    0    0  0.62455287805E+03 -0.41709983270E+02  0.15191026233E+04  0.16501122547E+04  0.15294330000E+03 0.  0.
    8880022    1    1    2    0    0 -0.62455287805E+03  0.41709983270E+02 -0.53629389574E+03  0.83833693454E+03  0.15294330000E+03 0.  0.
<mgrwt>
<rscale>  0 0.64435834E+03</rscale>
<asrwt>0</asrwt>
<pdfrwt beam="1">  1        2 0.26701984E+00 0.64435834E+03</pdfrwt>
<pdfrwt beam="2">  1       -2 0.11581850E+00 0.64435834E+03</pdfrwt>
<totfact> 0.56923508E+00</totfact>
</mgrwt>
</event>
<event>
 4    1  0.3365401E-008  0.5317284E+03  0.7818608E-02  0.1005814E+00
         -2   -1    0    0    0  501 -0.00000000000E+00  0.00000000000E+00  0.37858695809E+03  0.37858695810E+03  0.25500000000E-02 0.  1.
          2   -1    0    0  501    0  0.00000000000E+00 -0.00000000000E+00 -0.85574435729E+03  0.85574435729E+03  0.25500000000E-02 0. -1.
    8880022    1    1    2    0    0 -0.50210688232E+03  0.85041705670E+02 -0.18388089893E+02  0.53204622716E+03  0.15294330000E+03 0.  0.
    8880022    1    1    2    0    0  0.50210688232E+03 -0.85041705670E+02 -0.45876930930E+03  0.70228508823E+03  0.15294330000E+03 0.  0.
<mgrwt>
<rscale>  0 0.53172838E+03</rscale>
<asrwt>0</asrwt>
<pdfrwt beam="1">  1        2 0.13165298E+00 0.53172838E+03</pdfrwt>
<pdfrwt beam="2">  1       -2 0.58244148E-01 0.53172838E+03</pdfrwt>
<totfact> 0.89447453E+01</totfact>
</mgrwt>
</event>
<event>
 4    1  0.3365401E-008  0.6667068E+03  0.7818608E-02  0.9775925E-01
          2   -1    0    0  501    0  0.00000000000E+00  0.00000000000E+00  0.83283011906E+03  0.83283011907E+03  0.25500000000E-02 0. -1.
         -2   -1    0    0    0  501 -0.00000000000E+00 -0.00000000000E+00 -0.57025198689E+03  0.57025198690E+03  0.25500000000E-02 0.  1.
    8880022    1    1    2    0    0 -0.38869316111E+03 -0.51963829741E+03 -0.46275816791E+02  0.66831088414E+03  0.15294330000E+03 0.  0.
    8880022    1    1    2    0    0  0.38869316111E+03  0.51963829741E+03  0.30885394896E+03  0.73477122183E+03  0.15294330000E+03 0.  0.
<mgrwt>
<rscale>  0 0.66670682E+03</rscale>
<asrwt>0</asrwt>
<pdfrwt beam="1">  1        2 0.12812771E+00 0.66670682E+03</pdfrwt>
<pdfrwt beam="2">  1       -2 0.87731076E-01 0.66670682E+03</pdfrwt>
<totfact> 0.37380224E+01</totfact>
</mgrwt>
</event>
<event>
 4    1  0.3365401E-008  0.2603841E+03  0.7818608E-02  0.1106913E+00
          2   -1    0    0  501    0  0.00000000000E+00  0.00000000000E+00  0.12764168911E+04  0.12764168911E+04  0.25500000000E-02 0. -1.
         -2   -1    0    0    0  501 -0.00000000000E+00 -0.00000000000E+00 -0.20281028689E+03  0.20281028691E+03  0.25500000000E-02 0.  1.
    8880022    1    1    2    0    0  0.96265286055E+01 -0.21051265375E+03 -0.98616180539E+02  0.27843320837E+03  0.15294330000E+03 0.  1.
    8880022    1    1    2    0    0 -0.96265286055E+01  0.21051265375E+03  0.11722227848E+04  0.12007939697E+04  0.15294330000E+03 0.  0.
<mgrwt>
<rscale>  0 0.26038414E+03</rscale>
<asrwt>0</asrwt>
<pdfrwt beam="1">  1        2 0.19637183E+00 0.26038414E+03</pdfrwt>
<pdfrwt beam="2">  1       -2 0.31201583E-01 0.26038414E+03</pdfrwt>
<totfact> 0.17423256E+02</totfact>
</mgrwt>
</event>
<event>
 4    1  0.3365401E-008  0.3532577E+03  0.7818608E-02  0.1061286E+00
          2   -1    0    0  501    0  0.00000000000E+00  0.00000000000E+00  0.87793041285E+03  0.87793041286E+03  0.25500000000E-02 0. -1.
         -2   -1    0    0    0  501 -0.00000000000E+00 -0.00000000000E+00 -0.71810937117E+03  0.71810937118E+03  0.25500000000E-02 0.  1.
    8880022    1    1    2    0    0  0.79921802038E+02 -0.30823997547E+03  0.79459977986E+03  0.86958601649E+03  0.15294330000E+03 0.  0.
    8880022    1    1    2    0    0 -0.79921802038E+02  0.30823997547E+03 -0.63477873817E+03  0.72645376754E+03  0.15294330000E+03 0.  1.
<mgrwt>
<rscale>  0 0.35325774E+03</rscale>
<asrwt>0</asrwt>
<pdfrwt beam="1">  1        2 0.13506622E+00 0.35325774E+03</pdfrwt>
<pdfrwt beam="2">  1       -2 0.11047836E+00 0.35325774E+03</pdfrwt>
<totfact> 0.21206307E+01</totfact>
</mgrwt>
</event>
<event>
 4    1  0.3365401E-008  0.2595499E+03  0.7818608E-02  0.1107414E+00
         -2   -1    0    0    0  501 -0.00000000000E+00  0.00000000000E+00  0.16722318801E+03  0.16722318803E+03  0.25500000000E-02 0.  1.
          2   -1    0    0  501    0  0.00000000000E+00 -0.00000000000E+00 -0.42313315731E+03  0.42313315732E+03  0.25500000000E-02 0. -1.
    8880022    1    1    2    0    0  0.20017745653E+03 -0.62477679498E+02 -0.19257937268E+03  0.32319180425E+03  0.15294330000E+03 0. -1.
    8880022    1    1    2    0    0 -0.20017745653E+03  0.62477679498E+02 -0.63330596619E+02  0.26716454110E+03  0.15294330000E+03 0.  1.
<mgrwt>
<rscale>  0 0.25954986E+03</rscale>
<asrwt>0</asrwt>
<pdfrwt beam="1">  1        2 0.65097408E-01 0.25954986E+03</pdfrwt>
<pdfrwt beam="2">  1       -2 0.25726645E-01 0.25954986E+03</pdfrwt>
<totfact> 0.10145392E+03</totfact>
</mgrwt>
</event>
<event>
 4    1  0.3365401E-008  0.4387868E+03  0.7818608E-02  0.1031120E+00
          2   -1    0    0  501    0  0.00000000000E+00  0.00000000000E+00  0.60000359899E+03  0.60000359899E+03  0.25500000000E-02 0. -1.
         -2   -1    0    0    0  501 -0.00000000000E+00 -0.00000000000E+00 -0.58070783665E+03  0.58070783665E+03  0.25500000000E-02 0.  1.
    8880022    1    1    2    0    0  0.37046541233E+03 -0.17859884562E+03 -0.38523769224E+03  0.58390230512E+03  0.15294330000E+03 0.  0.
    8880022    1    1    2    0    0 -0.37046541233E+03  0.17859884562E+03  0.40453345458E+03  0.59680913052E+03  0.15294330000E+03 0.  0.
<mgrwt>
<rscale>  0 0.43878676E+03</rscale>
<asrwt>0</asrwt>
<pdfrwt beam="1">  1        2 0.92308246E-01 0.43878676E+03</pdfrwt>
<pdfrwt beam="2">  1       -2 0.89339667E-01 0.43878676E+03</pdfrwt>
<totfact> 0.55476274E+01</totfact>
</mgrwt>
</event>
<event>
 4    1  0.3365401E-008  0.4884979E+03  0.7818608E-02  0.1016825E+00
         -2   -1    0    0    0  501 -0.00000000000E+00  0.00000000000E+00  0.19516175513E+03  0.19516175515E+03  0.25500000000E-02 0.  1.
          2   -1    0    0  501    0  0.00000000000E+00 -0.00000000000E+00 -0.25548209462E+04  0.25548209462E+04  0.25500000000E-02 0. -1.
    8880022    1    1    2    0    0  0.43267774169E+03  0.16741727871E+03 -0.21726863447E+04  0.22269252746E+04  0.15294330000E+03 0.  0.
    8880022    1    1    2    0    0 -0.43267774169E+03 -0.16741727871E+03 -0.18697284639E+03  0.52305742673E+03  0.15294330000E+03 0.  0.
<mgrwt>
<rscale>  0 0.48849793E+03</rscale>
<asrwt>0</asrwt>
<pdfrwt beam="1">  1        2 0.39304935E+00 0.48849793E+03</pdfrwt>
<pdfrwt beam="2">  1       -2 0.30024887E-01 0.48849793E+03</pdfrwt>
<totfact> 0.36198461E+01</totfact>
</mgrwt>
</event>
<event>
 4    1  0.3365401E-008  0.9535677E+03  0.7818608E-02  0.9360990E-01
          2   -1    0    0  501    0  0.00000000000E+00  0.00000000000E+00  0.21293189773E+04  0.21293189773E+04  0.25500000000E-02 0. -1.
         -2   -1    0    0    0  501 -0.00000000000E+00 -0.00000000000E+00 -0.57936634700E+03  0.57936634701E+03  0.25500000000E-02 0.  1.
    8880022    1    1    2    0    0  0.86971568370E+03  0.35985317614E+03  0.14694378131E+04  0.17517245270E+04  0.15294330000E+03 0.  0.
    8880022    1    1    2    0    0 -0.86971568370E+03 -0.35985317614E+03  0.80514817212E+02  0.95696079734E+03  0.15294330000E+03 0.  0.
<mgrwt>
<rscale>  0 0.95356769E+03</rscale>
<asrwt>0</asrwt>
<pdfrwt beam="1">  1        2 0.32758753E+00 0.95356769E+03</pdfrwt>
<pdfrwt beam="2">  1       -2 0.89133285E-01 0.95356769E+03</pdfrwt>
<totfact> 0.61696774E+00</totfact>
</mgrwt>
</event>
<event>
 4    1  0.3365401E-008  0.4604570E+03  0.7818608E-02  0.1024649E+00
          2   -1    0    0  501    0  0.00000000000E+00  0.00000000000E+00  0.11096973787E+04  0.11096973787E+04  0.25500000000E-02 0. -1.
         -2   -1    0    0    0  501 -0.00000000000E+00 -0.00000000000E+00 -0.11765090865E+04  0.11765090865E+04  0.25500000000E-02 0.  1.
    8880022    1    1    2    0    0 -0.69028909856E+02 -0.42879370974E+03 -0.10795813096E+04  0.11736764857E+04  0.15294330000E+03 0.  0.
    8880022    1    1    2    0    0  0.69028909856E+02  0.42879370974E+03  0.10127696018E+04  0.11125299795E+04  0.15294330000E+03 0.  0.
<mgrwt>
<rscale>  0 0.46045704E+03</rscale>
<asrwt>0</asrwt>
<pdfrwt beam="1">  1        2 0.17072267E+00 0.46045704E+03</pdfrwt>
<pdfrwt beam="2">  1       -2 0.18100140E+00 0.46045704E+03</pdfrwt>
<totfact> 0.41413192E+00</totfact>
</mgrwt>
</event>
<event>
 4    1  0.3365401E-008  0.6419647E+03  0.7818608E-02  0.9821975E-01
          2   -1    0    0  501    0  0.00000000000E+00  0.00000000000E+00  0.18123469347E+04  0.18123469347E+04  0.25500000000E-02 0. -1.
         -2   -1    0    0    0  501 -0.00000000000E+00 -0.00000000000E+00 -0.25148415933E+03  0.25148415934E+03  0.25500000000E-02 0.  1.
    8880022    1    1    2    0    0  0.61842099509E+03 -0.79262480567E+02  0.46105764048E+03  0.79037514438E+03  0.15294330000E+03 0.  1.
    8880022    1    1    2    0    0 -0.61842099509E+03  0.79262480567E+02  0.10998051349E+04  0.12734559497E+04  0.15294330000E+03 0.  0.
<mgrwt>
<rscale>  0 0.64196474E+03</rscale>
<asrwt>0</asrwt>
<pdfrwt beam="1">  1        2 0.27882261E+00 0.64196474E+03</pdfrwt>
<pdfrwt beam="2">  1       -2 0.38689871E-01 0.64196474E+03</pdfrwt>
<totfact> 0.55738641E+01</totfact>
</mgrwt>
</event>
<event>
 4    1  0.3365401E-008  0.3263217E+03  0.7818608E-02  0.1072776E+00
          2   -1    0    0  501    0  0.00000000000E+00  0.00000000000E+00  0.59980743843E+03  0.59980743844E+03  0.25500000000E-02 0. -1.
         -2   -1    0    0    0  501 -0.00000000000E+00 -0.00000000000E+00 -0.33693008347E+03  0.33693008348E+03  0.25500000000E-02 0.  1.
    8880022    1    1    2    0    0  0.22089657760E+03  0.18519957469E+03  0.45358836398E+03  0.55877386966E+03  0.15294330000E+03 0.  0.
    8880022    1    1    2    0    0 -0.22089657760E+03 -0.18519957469E+03 -0.19071100901E+03  0.37796365226E+03  0.15294330000E+03 0.  1.
<mgrwt>
<rscale>  0 0.32632167E+03</rscale>
<asrwt>0</asrwt>
<pdfrwt beam="1">  1        2 0.92278067E-01 0.32632167E+03</pdfrwt>
<pdfrwt beam="2">  1       -2 0.51835398E-01 0.32632167E+03</pdfrwt>
<totfact> 0.18105606E+02</totfact>
</mgrwt>
</event>
<event>
 4    1  0.3365401E-008  0.3375311E+03  0.7818608E-02  0.1067852E+00
         -2   -1    0    0    0  501 -0.00000000000E+00  0.00000000000E+00  0.43654704948E+03  0.43654704949E+03  0.25500000000E-02 0.  1.
          2   -1    0    0  501    0  0.00000000000E+00 -0.00000000000E+00 -0.11769559035E+04  0.11769559035E+04  0.25500000000E-02 0. -1.
    8880022    1    1    2    0    0  0.16205115099E+02  0.30045464757E+03  0.34150581444E+03  0.48015984350E+03  0.15294330000E+03 0.  0.
    8880022    1    1    2    0    0 -0.16205115099E+02 -0.30045464757E+03 -0.10819146685E+04  0.11333431095E+04  0.15294330000E+03 0. -1.
<mgrwt>
<rscale>  0 0.33753112E+03</rscale>
<asrwt>0</asrwt>
<pdfrwt beam="1">  1        2 0.18107014E+00 0.33753112E+03</pdfrwt>
<pdfrwt beam="2">  1       -2 0.67161085E-01 0.33753112E+03</pdfrwt>
<totfact> 0.42930225E+01</totfact>
</mgrwt>
</event>
<event>
 4    1  0.3365401E-008  0.9756512E+03  0.7818608E-02  0.9335661E-01
         -2   -1    0    0    0  501 -0.00000000000E+00  0.00000000000E+00  0.76549917844E+03  0.76549917845E+03  0.25500000000E-02 0.  1.
          2   -1    0    0  501    0  0.00000000000E+00 -0.00000000000E+00 -0.18165716248E+04  0.18165716248E+04  0.25500000000E-02 0. -1.
    8880022    1    1    2    0    0 -0.79355017608E+03  0.54660924336E+03 -0.12506695071E+04  0.15862122859E+04  0.15294330000E+03 0. -1.
    8880022    1    1    2    0    0  0.79355017608E+03 -0.54660924336E+03  0.19959706076E+03  0.99585851734E+03  0.15294330000E+03 0.  0.
<mgrwt>
<rscale>  0 0.97565117E+03</rscale>
<asrwt>0</asrwt>
<pdfrwt beam="1">  1        2 0.27947256E+00 0.97565117E+03</pdfrwt>
<pdfrwt beam="2">  1       -2 0.11776910E+00 0.97565117E+03</pdfrwt>
<totfact> 0.46987900E+00</totfact>
</mgrwt>
</event>
<event>
 4    1  0.4118608E-008  0.9537581E+03  0.7818608E-02  0.9360769E-01
          2   -1    0    0  501    0  0.00000000000E+00  0.00000000000E+00  0.41951142219E+04  0.41951142219E+04  0.25500000000E-02 0. -1.
         -2   -1    0    0    0  501 -0.00000000000E+00 -0.00000000000E+00 -0.10293022685E+04  0.10293022685E+04  0.25500000000E-02 0.  1.
    8880022    1    1    2    0    0 -0.44326775834E+03 -0.83052786976E+03 -0.73789996520E+03  0.12058817768E+04  0.15294330000E+03 0.  0.
    8880022    1    1    2    0    0  0.44326775834E+03  0.83052786976E+03  0.39037119186E+04  0.40185347136E+04  0.15294330000E+03 0.  0.
<mgrwt>
<rscale>  0 0.95375809E+03</rscale>
<asrwt>0</asrwt>
<pdfrwt beam="1">  1        2 0.64540219E+00 0.95375809E+03</pdfrwt>
<pdfrwt beam="2">  1       -2 0.15835419E+00 0.95375809E+03</pdfrwt>
<totfact> 0.64940854E-02</totfact>
</mgrwt>
</event>
<event>
 4    1  0.3365401E-008  0.7137444E+03  0.7818608E-02  0.9694012E-01
          2   -1    0    0  501    0  0.00000000000E+00  0.00000000000E+00  0.94423800904E+03  0.94423800904E+03  0.25500000000E-02 0. -1.
         -2   -1    0    0    0  501 -0.00000000000E+00 -0.00000000000E+00 -0.78620167441E+03  0.78620167441E+03  0.25500000000E-02 0.  1.
    8880022    1    1    2    0    0 -0.10905810394E+03  0.68858244578E+03  0.56367220089E+03  0.90948197219E+03  0.15294330000E+03 0.  0.
    8880022    1    1    2    0    0  0.10905810394E+03 -0.68858244578E+03 -0.40563586626E+03  0.82095771126E+03  0.15294330000E+03 0.  0.
<mgrwt>
<rscale>  0 0.71374443E+03</rscale>
<asrwt>0</asrwt>
<pdfrwt beam="1">  1        2 0.14526739E+00 0.71374443E+03</pdfrwt>
<pdfrwt beam="2">  1       -2 0.12095410E+00 0.71374443E+03</pdfrwt>
<totfact> 0.14550540E+01</totfact>
</mgrwt>
</event>
<event>
 4    1  0.3365401E-008  0.4088549E+03  0.7818608E-02  0.1040756E+00
         -2   -1    0    0    0  501 -0.00000000000E+00  0.00000000000E+00  0.53258685117E+03  0.53258685117E+03  0.25500000000E-02 0.  1.
          2   -1    0    0  501    0  0.00000000000E+00 -0.00000000000E+00 -0.13526332234E+04  0.13526332234E+04  0.25500000000E-02 0. -1.
    8880022    1    1    2    0    0 -0.29307130186E+03  0.24058231711E+03  0.41601592179E+03  0.58329369916E+03  0.15294330000E+03 0.  0.
    8880022    1    1    2    0    0  0.29307130186E+03 -0.24058231711E+03 -0.12360622940E+04  0.13019263754E+04  0.15294330000E+03 0.  0.
<mgrwt>
<rscale>  0 0.40885485E+03</rscale>
<asrwt>0</asrwt>
<pdfrwt beam="1">  1        2 0.20809742E+00 0.40885485E+03</pdfrwt>
<pdfrwt beam="2">  1       -2 0.81936439E-01 0.40885485E+03</pdfrwt>
<totfact> 0.21743221E+01</totfact>
</mgrwt>
</event>
<event>
 4    1  0.3365401E-008  0.6160585E+03  0.7818608E-02  0.9872639E-01
          2   -1    0    0  501    0  0.00000000000E+00  0.00000000000E+00  0.10739562459E+04  0.10739562460E+04  0.25500000000E-02 0. -1.
         -2   -1    0    0    0  501 -0.00000000000E+00 -0.00000000000E+00 -0.64469344731E+03  0.64469344731E+03  0.25500000000E-02 0.  1.
    8880022    1    1    2    0    0  0.53844529955E+03 -0.25731900244E+03 -0.36300121122E+03  0.71505100656E+03  0.15294330000E+03 0.  0.
    8880022    1    1    2    0    0 -0.53844529955E+03  0.25731900244E+03  0.79226400986E+03  0.10035986867E+04  0.15294330000E+03 0.  0.
<mgrwt>
<rscale>  0 0.61605849E+03</rscale>
<asrwt>0</asrwt>
<pdfrwt beam="1">  1        2 0.16522404E+00 0.61605849E+03</pdfrwt>
<pdfrwt beam="2">  1       -2 0.99183608E-01 0.61605849E+03</pdfrwt>
<totfact> 0.19688009E+01</totfact>
</mgrwt>
</event>
<event>
 4    1  0.3365401E-008  0.6509711E+03  0.7818608E-02  0.9804959E-01
         -2   -1    0    0    0  501 -0.00000000000E+00  0.00000000000E+00  0.21727348733E+03  0.21727348735E+03  0.25500000000E-02 0.  1.
          2   -1    0    0  501    0  0.00000000000E+00 -0.00000000000E+00 -0.29358478322E+04  0.29358478322E+04  0.25500000000E-02 0. -1.
    8880022    1    1    2    0    0  0.58648471698E+03  0.23750236026E+03 -0.44587311082E+03  0.78902862961E+03  0.15294330000E+03 0.  0.
    8880022    1    1    2    0    0 -0.58648471698E+03 -0.23750236026E+03 -0.22727012340E+04  0.23640926899E+04  0.15294330000E+03 0.  1.
<mgrwt>
<rscale>  0 0.65097108E+03</rscale>
<asrwt>0</asrwt>
<pdfrwt beam="1">  1        2 0.45166887E+00 0.65097108E+03</pdfrwt>
<pdfrwt beam="2">  1       -2 0.33426692E-01 0.65097108E+03</pdfrwt>
<totfact> 0.17201571E+01</totfact>
</mgrwt>
</event>
<event>
 4    1  0.3365401E-008  0.3893799E+03  0.7818608E-02  0.1047520E+00
          2   -1    0    0  501    0  0.00000000000E+00  0.00000000000E+00  0.65235475009E+03  0.65235475009E+03  0.25500000000E-02 0. -1.
         -2   -1    0    0    0  501 -0.00000000000E+00 -0.00000000000E+00 -0.31078624165E+03  0.31078624166E+03  0.25500000000E-02 0.  1.
    8880022    1    1    2    0    0 -0.28294469764E+03 -0.21947055505E+03  0.41261350390E+03  0.56733286797E+03  0.15294330000E+03 0.  1.
    8880022    1    1    2    0    0  0.28294469764E+03  0.21947055505E+03 -0.71044995461E+02  0.39580812379E+03  0.15294330000E+03 0.  1.
<mgrwt>
<rscale>  0 0.38937987E+03</rscale>
<asrwt>0</asrwt>
<pdfrwt beam="1">  1        2 0.10036227E+00 0.38937987E+03</pdfrwt>
<pdfrwt beam="2">  1       -2 0.47813269E-01 0.38937987E+03</pdfrwt>
<totfact> 0.19159522E+02</totfact>
</mgrwt>
</event>
<event>
 4    1  0.3365401E-008  0.1447577E+04  0.7818608E-02  0.8920082E-01
          2   -1    0    0  501    0  0.00000000000E+00  0.00000000000E+00  0.35556417460E+04  0.35556417460E+04  0.25500000000E-02 0. -1.
         -2   -1    0    0    0  501 -0.00000000000E+00 -0.00000000000E+00 -0.83848554001E+03  0.83848554001E+03  0.25500000000E-02 0.  1.
    8880022    1    1    2    0    0 -0.86295312679E+03 -0.11521283361E+04  0.25562062884E+04  0.29376300045E+04  0.15294330000E+03 0.  0.
    8880022    1    1    2    0    0  0.86295312679E+03  0.11521283361E+04  0.16094991758E+03  0.14564972814E+04  0.15294330000E+03 0.  0.
<mgrwt>
<rscale>  0 0.14475771E+04</rscale>
<asrwt>0</asrwt>
<pdfrwt beam="1">  1        2 0.54702180E+00 0.14475771E+04</pdfrwt>
<pdfrwt beam="2">  1       -2 0.12899778E+00 0.14475771E+04</pdfrwt>
<totfact> 0.31696401E-01</totfact>
</mgrwt>
</event>
<event>
 4    1  0.3365401E-008  0.5072040E+03  0.7818608E-02  0.1011915E+00
          2   -1    0    0  501    0  0.00000000000E+00  0.00000000000E+00  0.15249065715E+04  0.15249065715E+04  0.25500000000E-02 0. -1.
         -2   -1    0    0    0  501 -0.00000000000E+00 -0.00000000000E+00 -0.58405682564E+03  0.58405682565E+03  0.25500000000E-02 0.  1.
    8880022    1    1    2    0    0  0.36689959590E+03  0.31503798429E+03 -0.41881871965E+03  0.65777277076E+03  0.15294330000E+03 0.  1.
    8880022    1    1    2    0    0 -0.36689959590E+03 -0.31503798429E+03  0.13596684655E+04  0.14511906264E+04  0.15294330000E+03 0.  0.
<mgrwt>
<rscale>  0 0.50720400E+03</rscale>
<asrwt>0</asrwt>
<pdfrwt beam="1">  1        2 0.23460101E+00 0.50720400E+03</pdfrwt>
<pdfrwt beam="2">  1       -2 0.89854898E-01 0.50720400E+03</pdfrwt>
<totfact> 0.13886996E+01</totfact>
</mgrwt>
</event>
<event>
 4    1  0.3365401E-008  0.3234209E+03  0.7818608E-02  0.1074086E+00
          2   -1    0    0  501    0  0.00000000000E+00  0.00000000000E+00  0.85280597221E+03  0.85280597221E+03  0.25500000000E-02 0. -1.
         -2   -1    0    0    0  501 -0.00000000000E+00 -0.00000000000E+00 -0.46860081947E+03  0.46860081948E+03  0.25500000000E-02 0.  1.
    8880022    1    1    2    0    0  0.15241488892E+02 -0.28456473845E+03 -0.37558444444E+03  0.49564576188E+03  0.15294330000E+03 0.  1.
    8880022    1    1    2    0    0 -0.15241488892E+02  0.28456473845E+03  0.75978959717E+03  0.82576102980E+03  0.15294330000E+03 0.  0.
<mgrwt>
<rscale>  0 0.32342085E+03</rscale>
<asrwt>0</asrwt>
<pdfrwt beam="1">  1        2 0.13120092E+00 0.32342085E+03</pdfrwt>
<pdfrwt beam="2">  1       -2 0.72092434E-01 0.32342085E+03</pdfrwt>
<totfact> 0.58659156E+01</totfact>
</mgrwt>
</event>
<event>
 4    1  0.3365401E-008  0.6328830E+03  0.7818608E-02  0.9839439E-01
          2   -1    0    0  501    0  0.00000000000E+00  0.00000000000E+00  0.48793482667E+04  0.48793482667E+04  0.25500000000E-02 0. -1.
         -2   -1    0    0    0  501 -0.00000000000E+00 -0.00000000000E+00 -0.88587459761E+02  0.88587459798E+02  0.25500000000E-02 0.  1.
    8880022    1    1    2    0    0 -0.22124340963E+03  0.57288799445E+03  0.17226142240E+04  0.18351950082E+04  0.15294330000E+03 0.  0.
    8880022    1    1    2    0    0  0.22124340963E+03 -0.57288799445E+03  0.30681465830E+04  0.31327407183E+04  0.15294330000E+03 0.  0.
<mgrwt>
<rscale>  0 0.63288305E+03</rscale>
<asrwt>0</asrwt>
<pdfrwt beam="1">  1        2 0.75066907E+00 0.63288305E+03</pdfrwt>
<pdfrwt beam="2">  1       -2 0.13628838E-01 0.63288305E+03</pdfrwt>
<totfact> 0.23799774E+00</totfact>
</mgrwt>
</event>
<event>
 4    1  0.3365401E-008  0.4187649E+03  0.7818608E-02  0.1037469E+00
         -2   -1    0    0    0  501 -0.00000000000E+00  0.00000000000E+00  0.38166440241E+03  0.38166440242E+03  0.25500000000E-02 0.  1.
          2   -1    0    0  501    0  0.00000000000E+00 -0.00000000000E+00 -0.68605677827E+03  0.68605677828E+03  0.25500000000E-02 0. -1.
    8880022    1    1    2    0    0  0.90942635945E+02  0.37908018945E+03  0.15460953036E+03  0.44639457093E+03  0.15294330000E+03 0.  1.
    8880022    1    1    2    0    0 -0.90942635945E+02 -0.37908018945E+03 -0.45900190622E+03  0.62132660976E+03  0.15294330000E+03 0.  0.
<mgrwt>
<rscale>  0 0.41876486E+03</rscale>
<asrwt>0</asrwt>
<pdfrwt beam="1">  1        2 0.10554720E+00 0.41876486E+03</pdfrwt>
<pdfrwt beam="2">  1       -2 0.58717601E-01 0.41876486E+03</pdfrwt>
<totfact> 0.11816639E+02</totfact>
</mgrwt>
</event>
<event>
 4    1  0.3365401E-008  0.2735783E+03  0.7818608E-02  0.1099249E+00
         -2   -1    0    0    0  501 -0.00000000000E+00  0.00000000000E+00  0.56305149788E+03  0.56305149788E+03  0.25500000000E-02 0.  1.
          2   -1    0    0  501    0  0.00000000000E+00 -0.00000000000E+00 -0.38345114550E+03  0.38345114551E+03  0.25500000000E-02 0. -1.
    8880022    1    1    2    0    0 -0.19954972637E+03 -0.10785802681E+03 -0.29272591783E+03  0.40066639892E+03  0.15294330000E+03 0. -1.
    8880022    1    1    2    0    0  0.19954972637E+03  0.10785802681E+03  0.47232627020E+03  0.54583624447E+03  0.15294330000E+03 0.  0.
<mgrwt>
<rscale>  0 0.27357833E+03</rscale>
<asrwt>0</asrwt>
<pdfrwt beam="1">  1        2 0.58992484E-01 0.27357833E+03</pdfrwt>
<pdfrwt beam="2">  1       -2 0.86623307E-01 0.27357833E+03</pdfrwt>
<totfact> 0.10066465E+02</totfact>
</mgrwt>
</event>
<event>
 4    1  0.3365401E-008  0.9090203E+03  0.7818608E-02  0.9414375E-01
         -2   -1    0    0    0  501 -0.00000000000E+00  0.00000000000E+00  0.76324571184E+03  0.76324571184E+03  0.25500000000E-02 0.  1.
          2   -1    0    0  501    0  0.00000000000E+00 -0.00000000000E+00 -0.22186404210E+04  0.22186404210E+04  0.25500000000E-02 0. -1.
    8880022    1    1    2    0    0 -0.35683305352E+02  0.89535076583E+03  0.33916267515E+03  0.97023155246E+03  0.15294330000E+03 0.  0.
    8880022    1    1    2    0    0  0.35683305352E+02 -0.89535076583E+03 -0.17945573843E+04  0.20116545804E+04  0.15294330000E+03 0.  0.
<mgrwt>
<rscale>  0 0.90902032E+03</rscale>
<asrwt>0</asrwt>
<pdfrwt beam="1">  1        2 0.34132929E+00 0.90902032E+03</pdfrwt>
<pdfrwt beam="2">  1       -2 0.11742242E+00 0.90902032E+03</pdfrwt>
<totfact> 0.28675722E+00</totfact>
</mgrwt>
</event>
<event>
 4    1  0.3365401E-008  0.5052774E+03  0.7818608E-02  0.1012411E+00
          2   -1    0    0  501    0  0.00000000000E+00  0.00000000000E+00  0.24799504767E+04  0.24799504767E+04  0.25500000000E-02 0. -1.
         -2   -1    0    0    0  501 -0.00000000000E+00 -0.00000000000E+00 -0.13112288112E+03  0.13112288114E+03  0.25500000000E-02 0.  1.
    8880022    1    1    2    0    0  0.25945937071E+03 -0.40570243785E+03  0.17795915022E+04  0.18499327557E+04  0.15294330000E+03 0.  0.
    8880022    1    1    2    0    0 -0.25945937071E+03  0.40570243785E+03  0.56923609342E+03  0.76114060211E+03  0.15294330000E+03 0.  0.
<mgrwt>
<rscale>  0 0.50527743E+03</rscale>
<asrwt>0</asrwt>
<pdfrwt beam="1">  1        2 0.38153084E+00 0.50527743E+03</pdfrwt>
<pdfrwt beam="2">  1       -2 0.20172751E-01 0.50527743E+03</pdfrwt>
<totfact> 0.80945856E+01</totfact>
</mgrwt>
</event>
<event>
 4    1  0.3365401E-008  0.3949643E+03  0.7818608E-02  0.1045537E+00
         -2   -1    0    0    0  501 -0.00000000000E+00  0.00000000000E+00  0.13324243906E+03  0.13324243909E+03  0.25500000000E-02 0.  1.
          2   -1    0    0  501    0  0.00000000000E+00 -0.00000000000E+00 -0.21530825753E+04  0.21530825753E+04  0.25500000000E-02 0. -1.
    8880022    1    1    2    0    0  0.35339402648E+03 -0.87850875688E+02 -0.17820699750E+04  0.18253137164E+04  0.15294330000E+03 0. -1.
    8880022    1    1    2    0    0 -0.35339402648E+03  0.87850875688E+02 -0.23777016121E+03  0.46101129801E+03  0.15294330000E+03 0.  1.
<mgrwt>
<rscale>  0 0.39496426E+03</rscale>
<asrwt>0</asrwt>
<pdfrwt beam="1">  1        2 0.33124345E+00 0.39496426E+03</pdfrwt>
<pdfrwt beam="2">  1       -2 0.20498838E-01 0.39496426E+03</pdfrwt>
<totfact> 0.12141248E+02</totfact>
</mgrwt>
</event>
<event>
 4    1  0.3365401E-008  0.4427835E+03  0.7818608E-02  0.1029896E+00
          2   -1    0    0  501    0  0.00000000000E+00  0.00000000000E+00  0.13017206262E+04  0.13017206262E+04  0.25500000000E-02 0. -1.
         -2   -1    0    0    0  501 -0.00000000000E+00 -0.00000000000E+00 -0.23212872812E+03  0.23212872813E+03  0.25500000000E-02 0.  1.
    8880022    1    1    2    0    0  0.29646677368E+03  0.29115807603E+03  0.80324544247E+02  0.45001028717E+03  0.15294330000E+03 0.  0.
    8880022    1    1    2    0    0 -0.29646677368E+03 -0.29115807603E+03  0.98926735382E+03  0.10838390672E+04  0.15294330000E+03 0.  0.
<mgrwt>
<rscale>  0 0.44278350E+03</rscale>
<asrwt>0</asrwt>
<pdfrwt beam="1">  1        2 0.20026471E+00 0.44278350E+03</pdfrwt>
<pdfrwt beam="2">  1       -2 0.35712112E-01 0.44278350E+03</pdfrwt>
<totfact> 0.12729225E+02</totfact>
</mgrwt>
</event>
<event>
 4    1  0.3365401E-008  0.9576611E+03  0.7818608E-02  0.9356240E-01
         -2   -1    0    0    0  501 -0.00000000000E+00  0.00000000000E+00  0.55049625315E+03  0.55049625316E+03  0.25500000000E-02 0.  1.
          2   -1    0    0  501    0  0.00000000000E+00 -0.00000000000E+00 -0.24197000511E+04  0.24197000511E+04  0.25500000000E-02 0. -1.
    8880022    1    1    2    0    0  0.92780987734E+03  0.18136141691E+03 -0.10574428902E+03  0.96348152017E+03  0.15294330000E+03 0.  0.
    8880022    1    1    2    0    0 -0.92780987734E+03 -0.18136141691E+03 -0.17634595090E+04  0.20067147841E+04  0.15294330000E+03 0.  0.
<mgrwt>
<rscale>  0 0.95766110E+03</rscale>
<asrwt>0</asrwt>
<pdfrwt beam="1">  1        2 0.37226154E+00 0.95766110E+03</pdfrwt>
<pdfrwt beam="2">  1       -2 0.84691732E-01 0.95766110E+03</pdfrwt>
<totfact> 0.47723171E+00</totfact>
</mgrwt>
</event>
<event>
 4    1  0.3365401E-008  0.3186565E+03  0.7818608E-02  0.1076269E+00
         -2   -1    0    0    0  501 -0.00000000000E+00  0.00000000000E+00  0.24593163413E+03  0.24593163415E+03  0.25500000000E-02 0.  1.
          2   -1    0    0  501    0  0.00000000000E+00 -0.00000000000E+00 -0.29455331997E+04  0.29455331997E+04  0.25500000000E-02 0. -1.
    8880022    1    1    2    0    0  0.30569680172E+02  0.27787726703E+03  0.12987097059E+03  0.34410522067E+03  0.15294330000E+03 0.  0.
    8880022    1    1    2    0    0 -0.30569680172E+02 -0.27787726703E+03 -0.28294725361E+04  0.28473596132E+04  0.15294330000E+03 0.  0.
<mgrwt>
<rscale>  0 0.31865645E+03</rscale>
<asrwt>0</asrwt>
<pdfrwt beam="1">  1        2 0.45315893E+00 0.31865645E+03</pdfrwt>
<pdfrwt beam="2">  1       -2 0.37835638E-01 0.31865645E+03</pdfrwt>
<totfact> 0.14739922E+01</totfact>
</mgrwt>
</event>
<event>
 4    1  0.3365401E-008  0.4974951E+03  0.7818608E-02  0.1014435E+00
         -2   -1    0    0    0  501 -0.00000000000E+00  0.00000000000E+00  0.62368816100E+03  0.62368816100E+03  0.25500000000E-02 0.  1.
          2   -1    0    0  501    0  0.00000000000E+00 -0.00000000000E+00 -0.15436984109E+04  0.15436984109E+04  0.25500000000E-02 0. -1.
    8880022    1    1    2    0    0 -0.67332229839E+02 -0.46858945928E+03 -0.13940784739E+04  0.14801878782E+04  0.15294330000E+03 0.  0.
    8880022    1    1    2    0    0  0.67332229839E+02  0.46858945928E+03  0.47406822400E+03  0.68719869365E+03  0.15294330000E+03 0.  0.
<mgrwt>
<rscale>  0 0.49749509E+03</rscale>
<asrwt>0</asrwt>
<pdfrwt beam="1">  1        2 0.23749206E+00 0.49749509E+03</pdfrwt>
<pdfrwt beam="2">  1       -2 0.95952025E-01 0.49749509E+03</pdfrwt>
<totfact> 0.11675986E+01</totfact>
</mgrwt>
</event>
<event>
 4    1  0.3365401E-008  0.5995337E+03  0.7818608E-02  0.9906374E-01
          2   -1    0    0  501    0  0.00000000000E+00  0.00000000000E+00  0.10979569227E+04  0.10979569227E+04  0.25500000000E-02 0. -1.
         -2   -1    0    0    0  501 -0.00000000000E+00 -0.00000000000E+00 -0.92856057537E+03  0.92856057538E+03  0.25500000000E-02 0.  1.
    8880022    1    1    2    0    0 -0.46206898468E+02  0.57785285724E+03  0.90000391842E+03  0.10814100556E+04  0.15294330000E+03 0.  0.
    8880022    1    1    2    0    0  0.46206898468E+02 -0.57785285724E+03 -0.73060757105E+03  0.94510744256E+03  0.15294330000E+03 0.  0.
<mgrwt>
<rscale>  0 0.59953370E+03</rscale>
<asrwt>0</asrwt>
<pdfrwt beam="1">  1        2 0.16891645E+00 0.59953370E+03</pdfrwt>
<pdfrwt beam="2">  1       -2 0.14285547E+00 0.59953370E+03</pdfrwt>
<totfact> 0.77552472E+00</totfact>
</mgrwt>
</event>
<event>
 4    1  0.3365401E-008  0.5462540E+03  0.7818608E-02  0.1002365E+00
          2   -1    0    0  501    0  0.00000000000E+00  0.00000000000E+00  0.66625048170E+03  0.66625048171E+03  0.25500000000E-02 0. -1.
         -2   -1    0    0    0  501 -0.00000000000E+00 -0.00000000000E+00 -0.49984862400E+03  0.49984862401E+03  0.25500000000E-02 0.  1.
    8880022    1    1    2    0    0 -0.52440122967E+03 -0.22656068681E+01  0.27121902737E+03  0.60987965737E+03  0.15294330000E+03 0.  0.
    8880022    1    1    2    0    0  0.52440122967E+03  0.22656068681E+01 -0.10481716967E+03  0.55621944835E+03  0.15294330000E+03 0.  0.
<mgrwt>
<rscale>  0 0.54625400E+03</rscale>
<asrwt>0</asrwt>
<pdfrwt beam="1">  1        2 0.10250007E+00 0.54625400E+03</pdfrwt>
<pdfrwt beam="2">  1       -2 0.76899788E-01 0.54625400E+03</pdfrwt>
<totfact> 0.67752585E+01</totfact>
</mgrwt>
</event>
<event>
 4    1  0.3365401E-008  0.6364780E+03  0.7818608E-02  0.9832488E-01
         -2   -1    0    0    0  501 -0.00000000000E+00  0.00000000000E+00  0.16980870702E+04  0.16980870702E+04  0.25500000000E-02 0.  1.
          2   -1    0    0  501    0  0.00000000000E+00 -0.00000000000E+00 -0.54869636471E+03  0.54869636471E+03  0.25500000000E-02 0. -1.
    8880022    1    1    2    0    0 -0.57881234502E+03  0.21607599664E+03  0.14192698999E+04  0.15554521108E+04  0.15294330000E+03 0.  0.
    8880022    1    1    2    0    0  0.57881234502E+03 -0.21607599664E+03 -0.26987919447E+03  0.69133132410E+03  0.15294330000E+03 0.  0.
<mgrwt>
<rscale>  0 0.63647798E+03</rscale>
<asrwt>0</asrwt>
<pdfrwt beam="1">  1        2 0.84414825E-01 0.63647798E+03</pdfrwt>
<pdfrwt beam="2">  1       -2 0.26124416E+00 0.63647798E+03</pdfrwt>
<totfact> 0.31797651E+00</totfact>
</mgrwt>
</event>
<event>
 4    1  0.3365401E-008  0.3000548E+03  0.7818608E-02  0.1085213E+00
         -2   -1    0    0    0  501 -0.00000000000E+00  0.00000000000E+00  0.18837132102E+03  0.18837132104E+03  0.25500000000E-02 0.  1.
          2   -1    0    0  501    0  0.00000000000E+00 -0.00000000000E+00 -0.12894054719E+04  0.12894054719E+04  0.25500000000E-02 0. -1.
    8880022    1    1    2    0    0 -0.22205640147E+03 -0.13165165256E+03 -0.11366759247E+04  0.11756126122E+04  0.15294330000E+03 0.  0.
    8880022    1    1    2    0    0  0.22205640147E+03  0.13165165256E+03  0.35641773872E+02  0.30216418073E+03  0.15294330000E+03 0.  0.
<mgrwt>
<rscale>  0 0.30005476E+03</rscale>
<asrwt>0</asrwt>
<pdfrwt beam="1">  1        2 0.19837007E+00 0.30005476E+03</pdfrwt>
<pdfrwt beam="2">  1       -2 0.28980204E-01 0.30005476E+03</pdfrwt>
<totfact> 0.19465779E+02</totfact>
</mgrwt>
</event>
<event>
 4    1  0.3365401E-008  0.1920267E+03  0.7818608E-02  0.1156646E+00
         -2   -1    0    0    0  501 -0.00000000000E+00  0.00000000000E+00  0.55965161350E+03  0.55965161351E+03  0.25500000000E-02 0.  1.
          2   -1    0    0  501    0  0.00000000000E+00 -0.00000000000E+00 -0.21770730209E+03  0.21770730210E+03  0.25500000000E-02 0. -1.
    8880022    1    1    2    0    0  0.85801076890E+02  0.78235339821E+02  0.49554993779E+03  0.53145459548E+03  0.15294330000E+03 0.  0.
    8880022    1    1    2    0    0 -0.85801076890E+02 -0.78235339821E+02 -0.15360562637E+03  0.24590432014E+03  0.15294330000E+03 0. -1.
<mgrwt>
<rscale>  0 0.19202668E+03</rscale>
<asrwt>0</asrwt>
<pdfrwt beam="1">  1        2 0.33493432E-01 0.19202668E+03</pdfrwt>
<pdfrwt beam="2">  1       -2 0.86100247E-01 0.19202668E+03</pdfrwt>
<totfact> 0.18958676E+02</totfact>
</mgrwt>
</event>
<event>
 4    1  0.3365401E-008  0.8140375E+03  0.7818608E-02  0.9539918E-01
          2   -1    0    0  501    0  0.00000000000E+00  0.00000000000E+00  0.88336737316E+03  0.88336737317E+03  0.25500000000E-02 0. -1.
         -2   -1    0    0    0  501 -0.00000000000E+00 -0.00000000000E+00 -0.10367871923E+04  0.10367871923E+04  0.25500000000E-02 0.  1.
    8880022    1    1    2    0    0 -0.16739927191E+03 -0.78182025745E+03  0.42810069286E+03  0.91974305512E+03  0.15294330000E+03 0.  0.
    8880022    1    1    2    0    0  0.16739927191E+03  0.78182025745E+03 -0.58152051203E+03  0.10004115104E+04  0.15294330000E+03 0.  0.
<mgrwt>
<rscale>  0 0.81403752E+03</rscale>
<asrwt>0</asrwt>
<pdfrwt beam="1">  1        2 0.13590267E+00 0.81403752E+03</pdfrwt>
<pdfrwt beam="2">  1       -2 0.15950572E+00 0.81403752E+03</pdfrwt>
<totfact> 0.77233366E+00</totfact>
</mgrwt>
</event>
<event>
 4    1  0.3365401E-008  0.2072972E+03  0.7818608E-02  0.1143724E+00
          2   -1    0    0  501    0  0.00000000000E+00  0.00000000000E+00  0.11544837815E+04  0.11544837815E+04  0.25500000000E-02 0. -1.
         -2   -1    0    0    0  501 -0.00000000000E+00 -0.00000000000E+00 -0.31456086224E+03  0.31456086225E+03  0.25500000000E-02 0.  1.
    8880022    1    1    2    0    0 -0.72466183547E+02  0.11970431586E+03 -0.26973511365E+03  0.34018988160E+03  0.15294330000E+03 0.  0.
    8880022    1    1    2    0    0  0.72466183547E+02 -0.11970431586E+03  0.11096580329E+04  0.11288547621E+04  0.15294330000E+03 0. -1.
<mgrwt>
<rscale>  0 0.20729719E+03</rscale>
<asrwt>0</asrwt>
<pdfrwt beam="1">  1        2 0.17761289E+00 0.20729719E+03</pdfrwt>
<pdfrwt beam="2">  1       -2 0.48393979E-01 0.20729719E+03</pdfrwt>
<totfact> 0.89664846E+01</totfact>
</mgrwt>
</event>
<event>
 4    1  0.3365401E-008  0.7371734E+03  0.7818608E-02  0.9655691E-01
          2   -1    0    0  501    0  0.00000000000E+00  0.00000000000E+00  0.20294398365E+04  0.20294398365E+04  0.25500000000E-02 0. -1.
         -2   -1    0    0    0  501 -0.00000000000E+00 -0.00000000000E+00 -0.44321341514E+03  0.44321341515E+03  0.25500000000E-02 0.  1.
    8880022    1    1    2    0    0 -0.59420732773E+03 -0.40859594596E+03  0.15709605471E+04  0.17353217826E+04  0.15294330000E+03 0.  0.
    8880022    1    1    2    0    0  0.59420732773E+03  0.40859594596E+03  0.15265874230E+02  0.73733146909E+03  0.15294330000E+03 0.  0.
<mgrwt>
<rscale>  0 0.73717342E+03</rscale>
<asrwt>0</asrwt>
<pdfrwt beam="1">  1        2 0.31222151E+00 0.73717342E+03</pdfrwt>
<pdfrwt beam="2">  1       -2 0.68186680E-01 0.73717342E+03</pdfrwt>
<totfact> 0.13141035E+01</totfact>
</mgrwt>
</event>
<event>
 4    1  0.3365401E-008  0.5720734E+03  0.7818608E-02  0.9965101E-01
         -2   -1    0    0    0  501 -0.00000000000E+00  0.00000000000E+00  0.62577691483E+03  0.62577691483E+03  0.25500000000E-02 0.  1.
          2   -1    0    0  501    0  0.00000000000E+00 -0.00000000000E+00 -0.14001519509E+04  0.14001519509E+04  0.25500000000E-02 0. -1.
    8880022    1    1    2    0    0 -0.11982978070E+03  0.53806795917E+03 -0.11889566226E+04  0.13194263180E+04  0.15294330000E+03 0. -1.
    8880022    1    1    2    0    0  0.11982978070E+03 -0.53806795917E+03  0.41458158658E+03  0.70650254775E+03  0.15294330000E+03 0.  0.
<mgrwt>
<rscale>  0 0.57207339E+03</rscale>
<asrwt>0</asrwt>
<pdfrwt beam="1">  1        2 0.21540799E+00 0.57207339E+03</pdfrwt>
<pdfrwt beam="2">  1       -2 0.96273372E-01 0.57207339E+03</pdfrwt>
<totfact> 0.13715733E+01</totfact>
</mgrwt>
</event>
<event>
 4    1  0.5355514E-008  0.8555125E+03  0.7818608E-02  0.9482968E-01
          2   -1    0    0  501    0  0.00000000000E+00  0.00000000000E+00  0.14405937713E+04  0.14405937713E+04  0.25500000000E-02 0. -1.
         -2   -1    0    0    0  501 -0.00000000000E+00 -0.00000000000E+00 -0.13193941756E+04  0.13193941756E+04  0.25500000000E-02 0.  1.
    8880022    1    1    2    0    0  0.60202165500E+03  0.58828554948E+03 -0.10215589968E+04  0.13324730383E+04  0.15294330000E+03 0.  0.
    8880022    1    1    2    0    0 -0.60202165500E+03 -0.58828554948E+03  0.11427585925E+04  0.14275149087E+04  0.15294330000E+03 0.  0.
<mgrwt>
<rscale>  0 0.85551249E+03</rscale>
<asrwt>0</asrwt>
<pdfrwt beam="1">  1        2 0.22162981E+00 0.85551249E+03</pdfrwt>
<pdfrwt beam="2">  1       -2 0.20298372E+00 0.85551249E+03</pdfrwt>
<totfact> 0.17685048E+00</totfact>
</mgrwt>
</event>
<event>
 4    1  0.3365401E-008  0.7253480E+03  0.7818608E-02  0.9674839E-01
          2   -1    0    0  501    0  0.00000000000E+00  0.00000000000E+00  0.10822330767E+04  0.10822330767E+04  0.25500000000E-02 0. -1.
         -2   -1    0    0    0  501 -0.00000000000E+00 -0.00000000000E+00 -0.79753697512E+03  0.79753697512E+03  0.25500000000E-02 0.  1.
    8880022    1    1    2    0    0 -0.70890619849E+03  0.13785846148E+02  0.72963208094E+03  0.10288307316E+04  0.15294330000E+03 0.  0.
    8880022    1    1    2    0    0  0.70890619849E+03 -0.13785846148E+02 -0.44493597939E+03  0.85093932015E+03  0.15294330000E+03 0.  0.
<mgrwt>
<rscale>  0 0.72534799E+03</rscale>
<asrwt>0</asrwt>
<pdfrwt beam="1">  1        2 0.16649740E+00 0.72534799E+03</pdfrwt>
<pdfrwt beam="2">  1       -2 0.12269800E+00 0.72534799E+03</pdfrwt>
<totfact> 0.11463103E+01</totfact>
</mgrwt>
</event>
<event>
 4    1  0.3365401E-008  0.1201329E+04  0.7818608E-02  0.9111694E-01
          2   -1    0    0  501    0  0.00000000000E+00  0.00000000000E+00  0.24381075000E+04  0.24381075000E+04  0.25500000000E-02 0. -1.
         -2   -1    0    0    0  501 -0.00000000000E+00 -0.00000000000E+00 -0.84456983119E+03  0.84456983119E+03  0.25500000000E-02 0.  1.
    8880022    1    1    2    0    0 -0.63972820356E+03  0.10052594975E+04  0.16944679485E+04  0.20771162974E+04  0.15294330000E+03 0.  0.
    8880022    1    1    2    0    0  0.63972820356E+03 -0.10052594975E+04 -0.10093027969E+03  0.12055610337E+04  0.15294330000E+03 0.  0.
<mgrwt>
<rscale>  0 0.12013286E+04</rscale>
<asrwt>0</asrwt>
<pdfrwt beam="1">  1        2 0.37509346E+00 0.12013286E+04</pdfrwt>
<pdfrwt beam="2">  1       -2 0.12993382E+00 0.12013286E+04</pdfrwt>
<totfact> 0.16088752E+00</totfact>
</mgrwt>
</event>
<event>
 4    1  0.3365401E-008  0.5485025E+03  0.7818608E-02  0.1001841E+00
         -2   -1    0    0    0  501 -0.00000000000E+00  0.00000000000E+00  0.57096752528E+03  0.57096752528E+03  0.25500000000E-02 0.  1.
          2   -1    0    0  501    0  0.00000000000E+00 -0.00000000000E+00 -0.14887064631E+04  0.14887064631E+04  0.25500000000E-02 0. -1.
    8880022    1    1    2    0    0  0.48571482308E+03  0.20382443355E+03 -0.12866267160E+04  0.13986648092E+04  0.15294330000E+03 0.  0.
    8880022    1    1    2    0    0 -0.48571482308E+03 -0.20382443355E+03  0.36888777819E+03  0.66100917920E+03  0.15294330000E+03 0.  0.
<mgrwt>
<rscale>  0 0.54850245E+03</rscale>
<asrwt>0</asrwt>
<pdfrwt beam="1">  1        2 0.22903176E+00 0.54850245E+03</pdfrwt>
<pdfrwt beam="2">  1       -2 0.87841159E-01 0.54850245E+03</pdfrwt>
<totfact> 0.15195107E+01</totfact>
</mgrwt>
</event>
<event>
 4    1  0.3365401E-008  0.4988878E+03  0.7818608E-02  0.1014070E+00
          2   -1    0    0  501    0  0.00000000000E+00  0.00000000000E+00  0.14924568172E+04  0.14924568172E+04  0.25500000000E-02 0. -1.
         -2   -1    0    0    0  501 -0.00000000000E+00 -0.00000000000E+00 -0.31334086919E+03  0.31334086920E+03  0.25500000000E-02 0.  1.
    8880022    1    1    2    0    0  0.47465482703E+03  0.14147625935E+02  0.12070940840E+04  0.13061260050E+04  0.15294330000E+03 0.  0.
    8880022    1    1    2    0    0 -0.47465482703E+03 -0.14147625935E+02 -0.27978135995E+02  0.49967168145E+03  0.15294330000E+03 0.  0.
<mgrwt>
<rscale>  0 0.49888778E+03</rscale>
<asrwt>0</asrwt>
<pdfrwt beam="1">  1        2 0.22960874E+00 0.49888778E+03</pdfrwt>
<pdfrwt beam="2">  1       -2 0.48206287E-01 0.49888778E+03</pdfrwt>
<totfact> 0.55083873E+01</totfact>
</mgrwt>
</event>
<event>
 4    1  0.3365401E-008  0.1658744E+03  0.7818608E-02  0.1182220E+00
         -2   -1    0    0    0  501 -0.00000000000E+00  0.00000000000E+00  0.44447550542E+02  0.44447550616E+02  0.25500000000E-02 0.  1.
          2   -1    0    0  501    0  0.00000000000E+00 -0.00000000000E+00 -0.10747619076E+04  0.10747619076E+04  0.25500000000E-02 0. -1.
    8880022    1    1    2    0    0  0.32097905605E+02  0.55609281273E+02 -0.87955893361E+03  0.89506325945E+03  0.15294330000E+03 0.  0.
    8880022    1    1    2    0    0 -0.32097905605E+02 -0.55609281273E+02 -0.15075542344E+03  0.22414619876E+03  0.15294330000E+03 0.  1.
<mgrwt>
<rscale>  0 0.16587441E+03</rscale>
<asrwt>0</asrwt>
<pdfrwt beam="1">  1        2 0.16534797E+00 0.16587441E+03</pdfrwt>
<pdfrwt beam="2">  1       -2 0.68380855E-02 0.16587441E+03</pdfrwt>
<totfact> 0.28343658E+03</totfact>
</mgrwt>
</event>
<event>
 4    1  0.3365401E-008  0.1004526E+04  0.7818608E-02  0.9303595E-01
         -2   -1    0    0    0  501 -0.00000000000E+00  0.00000000000E+00  0.66242679301E+03  0.66242679301E+03  0.25500000000E-02 0.  1.
          2   -1    0    0  501    0  0.00000000000E+00 -0.00000000000E+00 -0.21086641433E+04  0.21086641433E+04  0.25500000000E-02 0. -1.
    8880022    1    1    2    0    0 -0.52717692114E+03 -0.84128746874E+03 -0.14531336965E+04  0.17665416226E+04  0.15294330000E+03 0.  0.
    8880022    1    1    2    0    0  0.52717692114E+03  0.84128746874E+03  0.68963461972E+01  0.10045493138E+04  0.15294330000E+03 0.  0.
<mgrwt>
<rscale>  0 0.10045256E+04</rscale>
<asrwt>0</asrwt>
<pdfrwt beam="1">  1        2 0.32440986E+00 0.10045256E+04</pdfrwt>
<pdfrwt beam="2">  1       -2 0.10191182E+00 0.10045256E+04</pdfrwt>
<totfact> 0.45938848E+00</totfact>
</mgrwt>
</event>
<event>
 4    1  0.3365401E-008  0.4751094E+03  0.7818608E-02  0.1020488E+00
         -2   -1    0    0    0  501 -0.00000000000E+00  0.00000000000E+00  0.67597833175E+03  0.67597833175E+03  0.25500000000E-02 0.  1.
          2   -1    0    0  501    0  0.00000000000E+00 -0.00000000000E+00 -0.89726414779E+03  0.89726414780E+03  0.25500000000E-02 0. -1.
    8880022    1    1    2    0    0 -0.20066818315E+03  0.40257862348E+03 -0.73393102728E+03  0.87429038289E+03  0.15294330000E+03 0.  0.
    8880022    1    1    2    0    0  0.20066818315E+03 -0.40257862348E+03  0.51264521123E+03  0.69895209666E+03  0.15294330000E+03 0.  0.
<mgrwt>
<rscale>  0 0.47510938E+03</rscale>
<asrwt>0</asrwt>
<pdfrwt beam="1">  1        2 0.13804064E+00 0.47510938E+03</pdfrwt>
<pdfrwt beam="2">  1       -2 0.10399667E+00 0.47510938E+03</pdfrwt>
<totfact> 0.23263409E+01</totfact>
</mgrwt>
</event>
<event>
 4    1  0.3365401E-008  0.8718198E+03  0.7818608E-02  0.9461510E-01
         -2   -1    0    0    0  501 -0.00000000000E+00  0.00000000000E+00  0.40647345586E+03  0.40647345587E+03  0.25500000000E-02 0.  1.
          2   -1    0    0  501    0  0.00000000000E+00 -0.00000000000E+00 -0.27149093324E+04  0.27149093324E+04  0.25500000000E-02 0. -1.
    8880022    1    1    2    0    0 -0.35316419217E+03  0.78227439029E+03 -0.28352124543E+03  0.91676284718E+03  0.15294330000E+03 0.  0.
    8880022    1    1    2    0    0  0.35316419217E+03 -0.78227439029E+03 -0.20249146311E+04  0.22046199411E+04  0.15294330000E+03 0.  0.
<mgrwt>
<rscale>  0 0.87181983E+03</rscale>
<asrwt>0</asrwt>
<pdfrwt beam="1">  1        2 0.41767835E+00 0.87181983E+03</pdfrwt>
<pdfrwt beam="2">  1       -2 0.62534379E-01 0.87181983E+03</pdfrwt>
<totfact> 0.63850646E+00</totfact>
</mgrwt>
</event>
<event>
 4    1  0.3365401E-008  0.4607880E+03  0.7818608E-02  0.1024553E+00
         -2   -1    0    0    0  501 -0.00000000000E+00  0.00000000000E+00  0.13351114070E+03  0.13351114073E+03  0.25500000000E-02 0.  1.
          2   -1    0    0  501    0  0.00000000000E+00 -0.00000000000E+00 -0.21516892791E+04  0.21516892791E+04  0.25500000000E-02 0. -1.
    8880022    1    1    2    0    0  0.39820236234E+03  0.17426659445E+03 -0.42547156052E+03  0.62717754196E+03  0.15294330000E+03 0.  0.
    8880022    1    1    2    0    0 -0.39820236234E+03 -0.17426659445E+03 -0.15927065779E+04  0.16580228779E+04  0.15294330000E+03 0.  0.
<mgrwt>
<rscale>  0 0.46078804E+03</rscale>
<asrwt>0</asrwt>
<pdfrwt beam="1">  1        2 0.33102909E+00 0.46078804E+03</pdfrwt>
<pdfrwt beam="2">  1       -2 0.20540177E-01 0.46078804E+03</pdfrwt>
<totfact> 0.11971959E+02</totfact>
</mgrwt>
</event>
<event>
 4    1  0.3365401E-008  0.5582808E+03  0.7818608E-02  0.9995952E-01
         -2   -1    0    0    0  501 -0.00000000000E+00  0.00000000000E+00  0.77635949445E+03  0.77635949445E+03  0.25500000000E-02 0.  1.
          2   -1    0    0  501    0  0.00000000000E+00 -0.00000000000E+00 -0.76705105140E+03  0.76705105140E+03  0.25500000000E-02 0. -1.
    8880022    1    1    2    0    0 -0.21203587068E+03  0.49328147003E+03  0.53742079213E+03  0.77491843439E+03  0.15294330000E+03 0.  0.
    8880022    1    1    2    0    0  0.21203587068E+03 -0.49328147003E+03 -0.52811234907E+03  0.76849211147E+03  0.15294330000E+03 0.  0.
<mgrwt>
<rscale>  0 0.55828082E+03</rscale>
<asrwt>0</asrwt>
<pdfrwt beam="1">  1        2 0.11800785E+00 0.55828082E+03</pdfrwt>
<pdfrwt beam="2">  1       -2 0.11943992E+00 0.55828082E+03</pdfrwt>
<totfact> 0.20271443E+01</totfact>
</mgrwt>
</event>
<event>
 4    1  0.3365401E-008  0.4456051E+03  0.7818608E-02  0.1029041E+00
          2   -1    0    0  501    0  0.00000000000E+00  0.00000000000E+00  0.99492668143E+03  0.99492668143E+03  0.25500000000E-02 0. -1.
         -2   -1    0    0    0  501 -0.00000000000E+00 -0.00000000000E+00 -0.25465515286E+03  0.25465515288E+03  0.25500000000E-02 0.  1.
    8880022    1    1    2    0    0  0.23785026567E+03 -0.34438275012E+03  0.79565919402E+02  0.45265286479E+03  0.15294330000E+03 0.  0.
    8880022    1    1    2    0    0 -0.23785026567E+03  0.34438275012E+03  0.66070560916E+03  0.79692896951E+03  0.15294330000E+03 0.  0.
<mgrwt>
<rscale>  0 0.44560507E+03</rscale>
<asrwt>0</asrwt>
<pdfrwt beam="1">  1        2 0.15306564E+00 0.44560507E+03</pdfrwt>
<pdfrwt beam="2">  1       -2 0.39177716E-01 0.44560507E+03</pdfrwt>
<totfact> 0.16203838E+02</totfact>
</mgrwt>
</event>
<event>
 4    1  0.3365401E-008  0.2652878E+03  0.7818608E-02  0.1104007E+00
          2   -1    0    0  501    0  0.00000000000E+00  0.00000000000E+00  0.22250974272E+04  0.22250974272E+04  0.25500000000E-02 0. -1.
         -2   -1    0    0    0  501 -0.00000000000E+00 -0.00000000000E+00 -0.52742922160E+02  0.52742922222E+02  0.25500000000E-02 0.  1.
    8880022    1    1    2    0    0 -0.19710717722E+03 -0.90192747799E+02  0.18067794286E+04  0.18261515621E+04  0.15294330000E+03 0.  0.
    8880022    1    1    2    0    0  0.19710717722E+03  0.90192747799E+02  0.36557507636E+03  0.45168878726E+03  0.15294330000E+03 0.  0.
<mgrwt>
<rscale>  0 0.26528781E+03</rscale>
<asrwt>0</asrwt>
<pdfrwt beam="1">  1        2 0.34232266E+00 0.26528781E+03</pdfrwt>
<pdfrwt beam="2">  1       -2 0.81142962E-02 0.26528781E+03</pdfrwt>
<totfact> 0.52321070E+02</totfact>
</mgrwt>
</event>
<event>
 4    1  0.3365401E-008  0.5406197E+03  0.7818608E-02  0.1003689E+00
         -2   -1    0    0    0  501 -0.00000000000E+00  0.00000000000E+00  0.45278172344E+03  0.45278172345E+03  0.25500000000E-02 0.  1.
          2   -1    0    0  501    0  0.00000000000E+00 -0.00000000000E+00 -0.12289029706E+04  0.12289029706E+04  0.25500000000E-02 0. -1.
    8880022    1    1    2    0    0  0.39077800329E+03  0.34083797625E+03 -0.96741047346E+03  0.11082204885E+04  0.15294330000E+03 0.  0.
    8880022    1    1    2    0    0 -0.39077800329E+03 -0.34083797625E+03  0.19128922633E+03  0.57346420554E+03  0.15294330000E+03 0.  1.
<mgrwt>
<rscale>  0 0.54061967E+03</rscale>
<asrwt>0</asrwt>
<pdfrwt beam="1">  1        2 0.18906199E+00 0.54061967E+03</pdfrwt>
<pdfrwt beam="2">  1       -2 0.69658727E-01 0.54061967E+03</pdfrwt>
<totfact> 0.35735860E+01</totfact>
</mgrwt>
</event>
<event>
 4    1  0.3365401E-008  0.5645917E+03  0.7818608E-02  0.9981718E-01
          2   -1    0    0  501    0  0.00000000000E+00  0.00000000000E+00  0.41031263969E+04  0.41031263969E+04  0.25500000000E-02 0. -1.
         -2   -1    0    0    0  501 -0.00000000000E+00 -0.00000000000E+00 -0.15727557408E+03  0.15727557410E+03  0.25500000000E-02 0.  1.
    8880022    1    1    2    0    0 -0.22697417724E+03  0.49381657769E+03  0.45757686738E+03  0.72673264142E+03  0.15294330000E+03 0.  0.
    8880022    1    1    2    0    0  0.22697417724E+03 -0.49381657769E+03  0.34882739555E+04  0.35336693296E+04  0.15294330000E+03 0. -1.
<mgrwt>
<rscale>  0 0.56459166E+03</rscale>
<asrwt>0</asrwt>
<pdfrwt beam="1">  1        2 0.63125018E+00 0.56459166E+03</pdfrwt>
<pdfrwt beam="2">  1       -2 0.24196244E-01 0.56459166E+03</pdfrwt>
<totfact> 0.49773547E+00</totfact>
</mgrwt>
</event>
<event>
 4    1  0.3365401E-008  0.3790274E+03  0.7818608E-02  0.1051294E+00
         -2   -1    0    0    0  501 -0.00000000000E+00  0.00000000000E+00  0.95244591172E+03  0.95244591172E+03  0.25500000000E-02 0.  1.
          2   -1    0    0  501    0  0.00000000000E+00 -0.00000000000E+00 -0.11074833579E+04  0.11074833579E+04  0.25500000000E-02 0. -1.
    8880022    1    1    2    0    0  0.17970406767E+03  0.29660847316E+03  0.87974139635E+03  0.95791790659E+03  0.15294330000E+03 0.  0.
    8880022    1    1    2    0    0 -0.17970406767E+03 -0.29660847316E+03 -0.10347788425E+04  0.11020113630E+04  0.15294330000E+03 0.  1.
<mgrwt>
<rscale>  0 0.37902743E+03</rscale>
<asrwt>0</asrwt>
<pdfrwt beam="1">  1        2 0.17038205E+00 0.37902743E+03</pdfrwt>
<pdfrwt beam="2">  1       -2 0.14653014E+00 0.37902743E+03</pdfrwt>
<totfact> 0.74983067E+00</totfact>
</mgrwt>
</event>
<event>
 4    1  0.3365401E-008  0.5668995E+03  0.7818608E-02  0.9976563E-01
         -2   -1    0    0    0  501 -0.00000000000E+00  0.00000000000E+00  0.32403637849E+03  0.32403637850E+03  0.25500000000E-02 0.  1.
          2   -1    0    0  501    0  0.00000000000E+00 -0.00000000000E+00 -0.14800202407E+04  0.14800202407E+04  0.25500000000E-02 0. -1.
    8880022    1    1    2    0    0  0.27570798905E+03  0.47113535688E+03 -0.10960757230E+04  0.12340004308E+04  0.15294330000E+03 0.  0.
    8880022    1    1    2    0    0 -0.27570798905E+03 -0.47113535688E+03 -0.59908139208E+02  0.57005618836E+03  0.15294330000E+03 0.  0.
<mgrwt>
<rscale>  0 0.56689953E+03</rscale>
<asrwt>0</asrwt>
<pdfrwt beam="1">  1        2 0.22769542E+00 0.56689953E+03</pdfrwt>
<pdfrwt beam="2">  1       -2 0.49851752E-01 0.56689953E+03</pdfrwt>
<totfact> 0.51780412E+01</totfact>
</mgrwt>
</event>
<event>
 4    1  0.3365401E-008  0.2239033E+03  0.7818608E-02  0.1131006E+00
          2   -1    0    0  501    0  0.00000000000E+00  0.00000000000E+00  0.25515536238E+04  0.25515536238E+04  0.25500000000E-02 0. -1.
         -2   -1    0    0    0  501 -0.00000000000E+00 -0.00000000000E+00 -0.30656070489E+02  0.30656070595E+02  0.25500000000E-02 0.  1.
    8880022    1    1    2    0    0  0.16321036299E+03 -0.10169191131E+02  0.20341275946E+04  0.20464133891E+04  0.15294330000E+03 0.  1.
    8880022    1    1    2    0    0 -0.16321036299E+03  0.10169191131E+02  0.48676995876E+03  0.53579630532E+03  0.15294330000E+03 0.  0.
<mgrwt>
<rscale>  0 0.22390330E+03</rscale>
<asrwt>0</asrwt>
<pdfrwt beam="1">  1        2 0.39254671E+00 0.22390330E+03</pdfrwt>
<pdfrwt beam="2">  1       -2 0.47163186E-02 0.22390330E+03</pdfrwt>
<totfact> 0.81145757E+02</totfact>
</mgrwt>
</event>
<event>
 4    1  0.3365401E-008  0.4993716E+03  0.7818608E-02  0.1013943E+00
         -2   -1    0    0    0  501 -0.00000000000E+00  0.00000000000E+00  0.26480526049E+03  0.26480526050E+03  0.25500000000E-02 0.  1.
          2   -1    0    0  501    0  0.00000000000E+00 -0.00000000000E+00 -0.18688343911E+04  0.18688343911E+04  0.25500000000E-02 0. -1.
    8880022    1    1    2    0    0 -0.40055487060E+03 -0.25600017287E+03 -0.50611883256E+02  0.50192978454E+03  0.15294330000E+03 0.  0.
    8880022    1    1    2    0    0  0.40055487060E+03  0.25600017287E+03 -0.15534172473E+04  0.16317098670E+04  0.15294330000E+03 0.  0.
<mgrwt>
<rscale>  0 0.49937155E+03</rscale>
<asrwt>0</asrwt>
<pdfrwt beam="1">  1        2 0.28751297E+00 0.49937155E+03</pdfrwt>
<pdfrwt beam="2">  1       -2 0.40739272E-01 0.49937155E+03</pdfrwt>
<totfact> 0.48046086E+01</totfact>
</mgrwt>
</event>
<event>
 4    1  0.3365401E-008  0.8065502E+03  0.7818608E-02  0.9550584E-01
         -2   -1    0    0    0  501 -0.00000000000E+00  0.00000000000E+00  0.37169208642E+03  0.37169208643E+03  0.25500000000E-02 0.  1.
          2   -1    0    0  501    0  0.00000000000E+00 -0.00000000000E+00 -0.22144194203E+04  0.22144194204E+04  0.25500000000E-02 0. -1.
    8880022    1    1    2    0    0 -0.79124427596E+03  0.32619426139E+02 -0.15134219323E+04  0.17149254005E+04  0.15294330000E+03 0.  0.
    8880022    1    1    2    0    0  0.79124427596E+03 -0.32619426139E+02 -0.32930540168E+03  0.87118610629E+03  0.15294330000E+03 0.  0.
<mgrwt>
<rscale>  0 0.80655017E+03</rscale>
<asrwt>0</asrwt>
<pdfrwt beam="1">  1        2 0.34067990E+00 0.80655017E+03</pdfrwt>
<pdfrwt beam="2">  1       -2 0.57183399E-01 0.80655017E+03</pdfrwt>
<totfact> 0.14981513E+01</totfact>
</mgrwt>
</event>
<event>
 4    1  0.3365401E-008  0.5302392E+03  0.7818608E-02  0.1006174E+00
         -2   -1    0    0    0  501 -0.00000000000E+00  0.00000000000E+00  0.17732935084E+04  0.17732935084E+04  0.25500000000E-02 0.  1.
          2   -1    0    0  501    0  0.00000000000E+00 -0.00000000000E+00 -0.83326002727E+03  0.83326002727E+03  0.25500000000E-02 0. -1.
    8880022    1    1    2    0    0 -0.25460402421E+03  0.43924797268E+03 -0.70273296398E+03  0.88033360854E+03  0.15294330000E+03 0.  0.
    8880022    1    1    2    0    0  0.25460402421E+03 -0.43924797268E+03  0.16427664451E+04  0.17262199271E+04  0.15294330000E+03 0.  0.
<mgrwt>
<rscale>  0 0.53023923E+03</rscale>
<asrwt>0</asrwt>
<pdfrwt beam="1">  1        2 0.12819385E+00 0.53023923E+03</pdfrwt>
<pdfrwt beam="2">  1       -2 0.27281438E+00 0.53023923E+03</pdfrwt>
<totfact> 0.16482764E+00</totfact>
</mgrwt>
</event>
<event>
 4    1  0.3365401E-008  0.9798599E+03  0.7818608E-02  0.9330914E-01
         -2   -1    0    0    0  501 -0.00000000000E+00  0.00000000000E+00  0.68841487295E+03  0.68841487296E+03  0.25500000000E-02 0.  1.
          2   -1    0    0  501    0  0.00000000000E+00 -0.00000000000E+00 -0.17033044856E+04  0.17033044856E+04  0.25500000000E-02 0. -1.
    8880022    1    1    2    0    0 -0.39768065650E+03 -0.88237400627E+03  0.15837230550E+01  0.97986119052E+03  0.15294330000E+03 0.  0.
    8880022    1    1    2    0    0  0.39768065650E+03  0.88237400627E+03 -0.10164733357E+04  0.14118581681E+04  0.15294330000E+03 0.  0.
<mgrwt>
<rscale>  0 0.97985991E+03</rscale>
<asrwt>0</asrwt>
<pdfrwt beam="1">  1        2 0.26204684E+00 0.97985991E+03</pdfrwt>
<pdfrwt beam="2">  1       -2 0.10590998E+00 0.97985991E+03</pdfrwt>
<totfact> 0.70234674E+00</totfact>
</mgrwt>
</event>
<event>
 4    1  0.4006688E-008  0.5720878E+03  0.7818608E-02  0.9965069E-01
         -2   -1    0    0    0  501 -0.00000000000E+00  0.00000000000E+00  0.19397134344E+04  0.19397134344E+04  0.25500000000E-02 0.  1.
          2   -1    0    0  501    0  0.00000000000E+00 -0.00000000000E+00 -0.11361414887E+04  0.11361414887E+04  0.25500000000E-02 0. -1.
    8880022    1    1    2    0    0  0.13950792924E+03  0.53332011573E+03  0.18209273228E+04  0.19086803755E+04  0.15294330000E+03 0.  0.
    8880022    1    1    2    0    0 -0.13950792924E+03 -0.53332011573E+03 -0.10173553771E+04  0.11671745475E+04  0.15294330000E+03 0.  0.
<mgrwt>
<rscale>  0 0.57208781E+03</rscale>
<asrwt>0</asrwt>
<pdfrwt beam="1">  1        2 0.17479100E+00 0.57208781E+03</pdfrwt>
<pdfrwt beam="2">  1       -2 0.29841745E+00 0.57208781E+03</pdfrwt>
<totfact> 0.73485479E-01</totfact>
</mgrwt>
</event>
<event>
 4    1  0.3365401E-008  0.4475928E+03  0.7818608E-02  0.1028442E+00
         -2   -1    0    0    0  501 -0.00000000000E+00  0.00000000000E+00  0.10272543362E+04  0.10272543362E+04  0.25500000000E-02 0.  1.
          2   -1    0    0  501    0  0.00000000000E+00 -0.00000000000E+00 -0.34743516646E+03  0.34743516647E+03  0.25500000000E-02 0. -1.
    8880022    1    1    2    0    0 -0.41892678290E+03  0.38052550761E+02 -0.11533633108E+03  0.46221398544E+03  0.15294330000E+03 0.  0.
    8880022    1    1    2    0    0  0.41892678290E+03 -0.38052550761E+02  0.79515550084E+03  0.91247551725E+03  0.15294330000E+03 0.  0.
<mgrwt>
<rscale>  0 0.44759278E+03</rscale>
<asrwt>0</asrwt>
<pdfrwt beam="1">  1        2 0.53451565E-01 0.44759278E+03</pdfrwt>
<pdfrwt beam="2">  1       -2 0.15803913E+00 0.44759278E+03</pdfrwt>
<totfact> 0.25323779E+01</totfact>
</mgrwt>
</event>
<event>
 4    1  0.3365401E-008  0.2724674E+03  0.7818608E-02  0.1099876E+00
          2   -1    0    0  501    0  0.00000000000E+00  0.00000000000E+00  0.10949338314E+04  0.10949338314E+04  0.25500000000E-02 0. -1.
         -2   -1    0    0    0  501 -0.00000000000E+00 -0.00000000000E+00 -0.20362362523E+03  0.20362362525E+03  0.25500000000E-02 0.  1.
    8880022    1    1    2    0    0  0.17815924857E+03 -0.13822486321E+03 -0.84620778666E+02  0.28530538000E+03  0.15294330000E+03 0.  1.
    8880022    1    1    2    0    0 -0.17815924857E+03  0.13822486321E+03  0.97593098483E+03  0.10132520766E+04  0.15294330000E+03 0.  0.
<mgrwt>
<rscale>  0 0.27246740E+03</rscale>
<asrwt>0</asrwt>
<pdfrwt beam="1">  1        2 0.16845136E+00 0.27246740E+03</pdfrwt>
<pdfrwt beam="2">  1       -2 0.31326711E-01 0.27246740E+03</pdfrwt>
<totfact> 0.21925476E+02</totfact>
</mgrwt>
</event>
<event>
 4    1  0.3365401E-008  0.5498698E+03  0.7818608E-02  0.1001524E+00
         -2   -1    0    0    0  501 -0.00000000000E+00  0.00000000000E+00  0.63478176044E+03  0.63478176044E+03  0.25500000000E-02 0.  1.
          2   -1    0    0  501    0  0.00000000000E+00 -0.00000000000E+00 -0.55964647738E+03  0.55964647739E+03  0.25500000000E-02 0. -1.
    8880022    1    1    2    0    0  0.20002942816E+03 -0.48882852964E+03  0.26801668988E+03  0.61171047284E+03  0.15294330000E+03 0.  0.
    8880022    1    1    2    0    0 -0.20002942816E+03  0.48882852964E+03 -0.19288140682E+03  0.58271776499E+03  0.15294330000E+03 0.  0.
<mgrwt>
<rscale>  0 0.54986976E+03</rscale>
<asrwt>0</asrwt>
<pdfrwt beam="1">  1        2 0.86099458E-01 0.54986976E+03</pdfrwt>
<pdfrwt beam="2">  1       -2 0.97658733E-01 0.54986976E+03</pdfrwt>
<totfact> 0.48456750E+01</totfact>
</mgrwt>
</event>
<event>
 4    1  0.3365401E-008  0.5754748E+03  0.7818608E-02  0.9957636E-01
          2   -1    0    0  501    0  0.00000000000E+00  0.00000000000E+00  0.29941109272E+04  0.29941109272E+04  0.25500000000E-02 0. -1.
         -2   -1    0    0    0  501 -0.00000000000E+00 -0.00000000000E+00 -0.42767577544E+03  0.42767577545E+03  0.25500000000E-02 0.  1.
    8880022    1    1    2    0    0  0.14107907080E+03  0.53654108499E+03  0.27563506137E+04  0.28157840824E+04  0.15294330000E+03 0.  0.
    8880022    1    1    2    0    0 -0.14107907080E+03 -0.53654108499E+03 -0.18991546189E+03  0.60600262028E+03  0.15294330000E+03 0.  0.
<mgrwt>
<rscale>  0 0.57547484E+03</rscale>
<asrwt>0</asrwt>
<pdfrwt beam="1">  1        2 0.46063248E+00 0.57547484E+03</pdfrwt>
<pdfrwt beam="2">  1       -2 0.65796269E-01 0.57547484E+03</pdfrwt>
<totfact> 0.41430677E+00</totfact>
</mgrwt>
</event>
<event>
 4    1  0.3365401E-008  0.4918702E+03  0.7818608E-02  0.1015923E+00
         -2   -1    0    0    0  501 -0.00000000000E+00  0.00000000000E+00  0.17858589772E+03  0.17858589774E+03  0.25500000000E-02 0.  1.
          2   -1    0    0  501    0  0.00000000000E+00 -0.00000000000E+00 -0.19991636984E+04  0.19991636984E+04  0.25500000000E-02 0. -1.
    8880022    1    1    2    0    0 -0.42137444763E+03 -0.20245538518E+03 -0.29207070996E+03  0.57205031312E+03  0.15294330000E+03 0.  1.
    8880022    1    1    2    0    0  0.42137444763E+03  0.20245538518E+03 -0.15285070908E+04  0.16056992831E+04  0.15294330000E+03 0.  0.
<mgrwt>
<rscale>  0 0.49187017E+03</rscale>
<asrwt>0</asrwt>
<pdfrwt beam="1">  1        2 0.30756363E+00 0.49187017E+03</pdfrwt>
<pdfrwt beam="2">  1       -2 0.27474755E-01 0.49187017E+03</pdfrwt>
<totfact> 0.85802780E+01</totfact>
</mgrwt>
</event>
<event>
 4    1  0.3365401E-008  0.2057572E+03  0.7818608E-02  0.1144971E+00
         -2   -1    0    0    0  501 -0.00000000000E+00  0.00000000000E+00  0.27609259962E+02  0.27609260080E+02  0.25500000000E-02 0.  1.
          2   -1    0    0  501    0  0.00000000000E+00 -0.00000000000E+00 -0.19412152632E+04  0.19412152632E+04  0.25500000000E-02 0. -1.
    8880022    1    1    2    0    0  0.66164782708E+02 -0.12069220945E+03 -0.14080058922E+04  0.14229605171E+04  0.15294330000E+03 0.  0.
    8880022    1    1    2    0    0 -0.66164782708E+02  0.12069220945E+03 -0.50560011107E+03  0.54586400616E+03  0.15294330000E+03 0.  0.
<mgrwt>
<rscale>  0 0.20575724E+03</rscale>
<asrwt>0</asrwt>
<pdfrwt beam="1">  1        2 0.29864840E+00 0.20575724E+03</pdfrwt>
<pdfrwt beam="2">  1       -2 0.42475800E-02 0.20575724E+03</pdfrwt>
<totfact> 0.20094133E+03</totfact>
</mgrwt>
</event>
<event>
 4    1  0.3365401E-008  0.5204236E+03  0.7818608E-02  0.1008581E+00
          2   -1    0    0  501    0  0.00000000000E+00  0.00000000000E+00  0.19326126421E+04  0.19326126421E+04  0.25500000000E-02 0. -1.
         -2   -1    0    0    0  501 -0.00000000000E+00 -0.00000000000E+00 -0.22611754211E+03  0.22611754213E+03  0.25500000000E-02 0.  1.
    8880022    1    1    2    0    0  0.34194615756E+01  0.49743079727E+03  0.15188087441E+04  0.16054970399E+04  0.15294330000E+03 0.  0.
    8880022    1    1    2    0    0 -0.34194615756E+01 -0.49743079727E+03  0.18768635582E+03  0.55323314431E+03  0.15294330000E+03 0.  1.
<mgrwt>
<rscale>  0 0.52042362E+03</rscale>
<asrwt>0</asrwt>
<pdfrwt beam="1">  1        2 0.29732502E+00 0.52042362E+03</pdfrwt>
<pdfrwt beam="2">  1       -2 0.34787314E-01 0.52042362E+03</pdfrwt>
<totfact> 0.59881777E+01</totfact>
</mgrwt>
</event>
<event>
 4    1  0.3365401E-008  0.6053281E+03  0.7818608E-02  0.9894413E-01
         -2   -1    0    0    0  501 -0.00000000000E+00  0.00000000000E+00  0.68496526863E+03  0.68496526864E+03  0.25500000000E-02 0.  1.
          2   -1    0    0  501    0  0.00000000000E+00 -0.00000000000E+00 -0.10091651879E+04  0.10091651879E+04  0.25500000000E-02 0. -1.
    8880022    1    1    2    0    0  0.22311257274E+03  0.54152681729E+03 -0.74276202700E+03  0.95818453115E+03  0.15294330000E+03 0.  0.
    8880022    1    1    2    0    0 -0.22311257274E+03 -0.54152681729E+03  0.41856210778E+03  0.73594592535E+03  0.15294330000E+03 0.  0.
<mgrwt>
<rscale>  0 0.60532815E+03</rscale>
<asrwt>0</asrwt>
<pdfrwt beam="1">  1        2 0.15525618E+00 0.60532815E+03</pdfrwt>
<pdfrwt beam="2">  1       -2 0.10537927E+00 0.60532815E+03</pdfrwt>
<totfact> 0.18730335E+01</totfact>
</mgrwt>
</event>
<event>
 4    1  0.3365401E-008  0.1454891E+04  0.7818608E-02  0.8915017E-01
          2   -1    0    0  501    0  0.00000000000E+00  0.00000000000E+00  0.45149297019E+04  0.45149297019E+04  0.25500000000E-02 0. -1.
         -2   -1    0    0    0  501 -0.00000000000E+00 -0.00000000000E+00 -0.71821342952E+03  0.71821342952E+03  0.25500000000E-02 0.  1.
    8880022    1    1    2    0    0 -0.70400527561E+03  0.12639985725E+04  0.35649841151E+03  0.14979314369E+04  0.15294330000E+03 0.  0.
    8880022    1    1    2    0    0  0.70400527561E+03 -0.12639985725E+04  0.34402178609E+04  0.37352116945E+04  0.15294330000E+03 0.  0.
<mgrwt>
<rscale>  0 0.14548909E+04</rscale>
<asrwt>0</asrwt>
<pdfrwt beam="1">  1        2 0.69460458E+00 0.14548909E+04</pdfrwt>
<pdfrwt beam="2">  1       -2 0.11049437E+00 0.14548909E+04</pdfrwt>
<totfact> 0.76201746E-02</totfact>
</mgrwt>
</event>
<event>
 4    1  0.3365401E-008  0.1216204E+04  0.7818608E-02  0.9098790E-01
         -2   -1    0    0    0  501 -0.00000000000E+00  0.00000000000E+00  0.10008757232E+04  0.10008757233E+04  0.25500000000E-02 0.  1.
          2   -1    0    0  501    0  0.00000000000E+00 -0.00000000000E+00 -0.18550513090E+04  0.18550513090E+04  0.25500000000E-02 0. -1.
    8880022    1    1    2    0    0 -0.68167439237E+03 -0.99553087845E+03 -0.10709908218E+04  0.16205476545E+04  0.15294330000E+03 0.  0.
    8880022    1    1    2    0    0  0.68167439237E+03  0.99553087845E+03  0.21681523612E+03  0.12353793777E+04  0.15294330000E+03 0.  0.
<mgrwt>
<rscale>  0 0.12162045E+04</rscale>
<asrwt>0</asrwt>
<pdfrwt beam="1">  1        2 0.28539251E+00 0.12162045E+04</pdfrwt>
<pdfrwt beam="2">  1       -2 0.15398088E+00 0.12162045E+04</pdfrwt>
<totfact> 0.21811929E+00</totfact>
</mgrwt>
</event>
<event>
 4    1  0.3412507E-008  0.5783015E+03  0.7818608E-02  0.9951475E-01
         -2   -1    0    0    0  501 -0.00000000000E+00  0.00000000000E+00  0.57301561341E+03  0.57301561341E+03  0.25500000000E-02 0.  1.
          2   -1    0    0  501    0  0.00000000000E+00 -0.00000000000E+00 -0.25616640643E+04  0.25616640643E+04  0.25500000000E-02 0. -1.
    8880022    1    1    2    0    0  0.53974286299E+03 -0.14042314153E+03  0.38294322742E+03  0.69359799976E+03  0.15294330000E+03 0.  0.
    8880022    1    1    2    0    0 -0.53974286299E+03  0.14042314153E+03 -0.23715916783E+04  0.24410816779E+04  0.15294330000E+03 0.  0.
<mgrwt>
<rscale>  0 0.57830154E+03</rscale>
<asrwt>0</asrwt>
<pdfrwt beam="1">  1        2 0.39410216E+00 0.57830154E+03</pdfrwt>
<pdfrwt beam="2">  1       -2 0.88156249E-01 0.57830154E+03</pdfrwt>
<totfact> 0.38771492E+00</totfact>
</mgrwt>
</event>
<event>
 4    1  0.3365401E-008  0.4525450E+03  0.7818608E-02  0.1026966E+00
         -2   -1    0    0    0  501 -0.00000000000E+00  0.00000000000E+00  0.23985203820E+03  0.23985203821E+03  0.25500000000E-02 0.  1.
          2   -1    0    0  501    0  0.00000000000E+00 -0.00000000000E+00 -0.19704950611E+04  0.19704950611E+04  0.25500000000E-02 0. -1.
    8880022    1    1    2    0    0 -0.29783879092E+03 -0.30446247592E+03 -0.16972785895E+04  0.17565738266E+04  0.15294330000E+03 0.  0.
    8880022    1    1    2    0    0  0.29783879092E+03  0.30446247592E+03 -0.33364433338E+02  0.45377327273E+03  0.15294330000E+03 0.  0.
<mgrwt>
<rscale>  0 0.45254502E+03</rscale>
<asrwt>0</asrwt>
<pdfrwt beam="1">  1        2 0.30315308E+00 0.45254502E+03</pdfrwt>
<pdfrwt beam="2">  1       -2 0.36900315E-01 0.45254502E+03</pdfrwt>
<totfact> 0.51725972E+01</totfact>
</mgrwt>
</event>
<event>
 4    1  0.3365401E-008  0.5711382E+03  0.7818608E-02  0.9967163E-01
         -2   -1    0    0    0  501 -0.00000000000E+00  0.00000000000E+00  0.98254097319E+03  0.98254097319E+03  0.25500000000E-02 0.  1.
          2   -1    0    0  501    0  0.00000000000E+00 -0.00000000000E+00 -0.40808461754E+03  0.40808461755E+03  0.25500000000E-02 0. -1.
    8880022    1    1    2    0    0 -0.49913269199E+03 -0.23167595596E+03 -0.13010997395E+02  0.57128638340E+03  0.15294330000E+03 0.  0.
    8880022    1    1    2    0    0  0.49913269199E+03  0.23167595596E+03  0.58746735304E+03  0.81933920735E+03  0.15294330000E+03 0.  0.
<mgrwt>
<rscale>  0 0.57113820E+03</rscale>
<asrwt>0</asrwt>
<pdfrwt beam="1">  1        2 0.62782248E-01 0.57113820E+03</pdfrwt>
<pdfrwt beam="2">  1       -2 0.15116015E+00 0.57113820E+03</pdfrwt>
<totfact> 0.23498975E+01</totfact>
</mgrwt>
</event>
<event>
 4    1  0.3365401E-008  0.5945444E+03  0.7818608E-02  0.9916790E-01
          2   -1    0    0  501    0  0.00000000000E+00  0.00000000000E+00  0.71584755424E+03  0.71584755425E+03  0.25500000000E-02 0. -1.
         -2   -1    0    0    0  501 -0.00000000000E+00 -0.00000000000E+00 -0.59737017756E+03  0.59737017757E+03  0.25500000000E-02 0.  1.
    8880022    1    1    2    0    0 -0.36169224631E+03 -0.44639685266E+03 -0.21416821442E+03  0.63194232979E+03  0.15294330000E+03 0.  0.
    8880022    1    1    2    0    0  0.36169224631E+03  0.44639685266E+03  0.33264559110E+03  0.68127540202E+03  0.15294330000E+03 0.  0.
<mgrwt>
<rscale>  0 0.59454443E+03</rscale>
<asrwt>0</asrwt>
<pdfrwt beam="1">  1        2 0.11013039E+00 0.59454443E+03</pdfrwt>
<pdfrwt beam="2">  1       -2 0.91903104E-01 0.59454443E+03</pdfrwt>
<totfact> 0.41191645E+01</totfact>
</mgrwt>
</event>
<event>
 4    1  0.3365401E-008  0.1221002E+04  0.7818608E-02  0.9094670E-01
         -2   -1    0    0    0  501 -0.00000000000E+00  0.00000000000E+00  0.16192256408E+04  0.16192256408E+04  0.25500000000E-02 0.  1.
          2   -1    0    0  501    0  0.00000000000E+00 -0.00000000000E+00 -0.17518151660E+04  0.17518151660E+04  0.25500000000E-02 0. -1.
    8880022    1    1    2    0    0 -0.11369299931E+04 -0.41814317375E+03 -0.12272529629E+04  0.17311831246E+04  0.15294330000E+03 0.  0.
    8880022    1    1    2    0    0  0.11369299931E+04  0.41814317375E+03  0.10946634378E+04  0.16398576822E+04  0.15294330000E+03 0.  0.
<mgrwt>
<rscale>  0 0.12210017E+04</rscale>
<asrwt>0</asrwt>
<pdfrwt beam="1">  1        2 0.26951003E+00 0.12210017E+04</pdfrwt>
<pdfrwt beam="2">  1       -2 0.24911164E+00 0.12210017E+04</pdfrwt>
<totfact> 0.57883105E-01</totfact>
</mgrwt>
</event>
<event>
 4    1  0.3365401E-008  0.6433472E+03  0.7818608E-02  0.9819343E-01
         -2   -1    0    0    0  501 -0.00000000000E+00  0.00000000000E+00  0.58200504802E+03  0.58200504803E+03  0.25500000000E-02 0.  1.
          2   -1    0    0  501    0  0.00000000000E+00 -0.00000000000E+00 -0.22926466744E+04  0.22926466744E+04  0.25500000000E-02 0. -1.
    8880022    1    1    2    0    0 -0.51462247034E+03 -0.35449639845E+03 -0.20490894602E+04  0.21477111659E+04  0.15294330000E+03 0.  0.
    8880022    1    1    2    0    0  0.51462247034E+03  0.35449639845E+03  0.33844783378E+03  0.72694055651E+03  0.15294330000E+03 0.  0.
<mgrwt>
<rscale>  0 0.64334721E+03</rscale>
<asrwt>0</asrwt>
<pdfrwt beam="1">  1        2 0.35271487E+00 0.64334721E+03</pdfrwt>
<pdfrwt beam="2">  1       -2 0.89539240E-01 0.64334721E+03</pdfrwt>
<totfact> 0.52128161E+00</totfact>
</mgrwt>
</event>
<event>
 4    1  0.3365401E-008  0.6376480E+03  0.7818608E-02  0.9830237E-01
         -2   -1    0    0    0  501 -0.00000000000E+00  0.00000000000E+00  0.25524247298E+03  0.25524247299E+03  0.25500000000E-02 0.  1.
          2   -1    0    0  501    0  0.00000000000E+00 -0.00000000000E+00 -0.27302125674E+04  0.27302125674E+04  0.25500000000E-02 0. -1.
    8880022    1    1    2    0    0  0.55324780340E+03 -0.27770525178E+03 -0.22008876669E+04  0.22913972842E+04  0.15294330000E+03 0.  0.
    8880022    1    1    2    0    0 -0.55324780340E+03  0.27770525178E+03 -0.27408242756E+03  0.69405775620E+03  0.15294330000E+03 0.  0.
<mgrwt>
<rscale>  0 0.63764802E+03</rscale>
<asrwt>0</asrwt>
<pdfrwt beam="1">  1        2 0.42003268E+00 0.63764802E+03</pdfrwt>
<pdfrwt beam="2">  1       -2 0.39268075E-01 0.63764802E+03</pdfrwt>
<totfact> 0.16775045E+01</totfact>
</mgrwt>
</event>
<event>
 4    1  0.3365401E-008  0.1087577E+04  0.7818608E-02  0.9217386E-01
         -2   -1    0    0    0  501 -0.00000000000E+00  0.00000000000E+00  0.38559497775E+03  0.38559497776E+03  0.25500000000E-02 0.  1.
          2   -1    0    0  501    0  0.00000000000E+00 -0.00000000000E+00 -0.40996412359E+04  0.40996412359E+04  0.25500000000E-02 0. -1.
    8880022    1    1    2    0    0  0.95764103556E+03 -0.49229570524E+03 -0.73178031494E+03  0.13108491510E+04  0.15294330000E+03 0.  0.
    8880022    1    1    2    0    0 -0.95764103556E+03  0.49229570524E+03 -0.29822659432E+04  0.31743870626E+04  0.15294330000E+03 0.  0.
<mgrwt>
<rscale>  0 0.10875767E+04</rscale>
<asrwt>0</asrwt>
<pdfrwt beam="1">  1        2 0.63071400E+00 0.10875767E+04</pdfrwt>
<pdfrwt beam="2">  1       -2 0.59322307E-01 0.10875767E+04</pdfrwt>
<totfact> 0.78268024E-01</totfact>
</mgrwt>
</event>
<event>
 4    1  0.3365401E-008  0.1777791E+03  0.7818608E-02  0.1169970E+00
         -2   -1    0    0    0  501 -0.00000000000E+00  0.00000000000E+00  0.11140726375E+03  0.11140726378E+03  0.25500000000E-02 0.  1.
          2   -1    0    0  501    0  0.00000000000E+00 -0.00000000000E+00 -0.17304133785E+04  0.17304133785E+04  0.25500000000E-02 0. -1.
    8880022    1    1    2    0    0  0.49766414608E+02 -0.75743339697E+02  0.32540944074E+02  0.18073271864E+03  0.15294330000E+03 0.  1.
    8880022    1    1    2    0    0 -0.49766414608E+02  0.75743339697E+02 -0.16515470588E+04  0.16610879236E+04  0.15294330000E+03 0.  0.
<mgrwt>
<rscale>  0 0.17777908E+03</rscale>
<asrwt>0</asrwt>
<pdfrwt beam="1">  1        2 0.26621742E+00 0.17777908E+03</pdfrwt>
<pdfrwt beam="2">  1       -2 0.17139580E-01 0.17777908E+03</pdfrwt>
<totfact> 0.28973526E+02</totfact>
</mgrwt>
</event>
<event>
 4    1  0.3365401E-008  0.4350394E+03  0.7818608E-02  0.1032280E+00
          2   -1    0    0  501    0  0.00000000000E+00  0.00000000000E+00  0.10546104103E+04  0.10546104103E+04  0.25500000000E-02 0. -1.
         -2   -1    0    0    0  501 -0.00000000000E+00 -0.00000000000E+00 -0.46049778858E+03  0.46049778859E+03  0.25500000000E-02 0.  1.
    8880022    1    1    2    0    0  0.27067248282E+03 -0.30430910691E+03 -0.29475470944E+03  0.52548988312E+03  0.15294330000E+03 0.  0.
    8880022    1    1    2    0    0 -0.27067248282E+03  0.30430910691E+03  0.88886733120E+03  0.98961831581E+03  0.15294330000E+03 0.  0.
<mgrwt>
<rscale>  0 0.43503940E+03</rscale>
<asrwt>0</asrwt>
<pdfrwt beam="1">  1        2 0.16224775E+00 0.43503940E+03</pdfrwt>
<pdfrwt beam="2">  1       -2 0.70845814E-01 0.43503940E+03</pdfrwt>
<totfact> 0.44428134E+01</totfact>
</mgrwt>
</event>
<event>
 4    1  0.3365401E-008  0.1093404E+04  0.7818608E-02  0.9211644E-01
         -2   -1    0    0    0  501 -0.00000000000E+00  0.00000000000E+00  0.10320419407E+04  0.10320419407E+04  0.25500000000E-02 0.  1.
          2   -1    0    0  501    0  0.00000000000E+00 -0.00000000000E+00 -0.14661218931E+04  0.14661218931E+04  0.25500000000E-02 0. -1.
    8880022    1    1    2    0    0  0.10517431879E+04  0.25686117456E+03 -0.78927491115E+03  0.13485132312E+04  0.15294330000E+03 0.  0.
    8880022    1    1    2    0    0 -0.10517431879E+04 -0.25686117456E+03  0.35519495876E+03  0.11496506026E+04  0.15294330000E+03 0.  0.
<mgrwt>
<rscale>  0 0.10934043E+04</rscale>
<asrwt>0</asrwt>
<pdfrwt beam="1">  1        2 0.22555721E+00 0.10934043E+04</pdfrwt>
<pdfrwt beam="2">  1       -2 0.15877568E+00 0.10934043E+04</pdfrwt>
<totfact> 0.33512495E+00</totfact>
</mgrwt>
</event>
<event>
 4    1  0.3365401E-008  0.3306917E+03  0.7818608E-02  0.1070831E+00
         -2   -1    0    0    0  501 -0.00000000000E+00  0.00000000000E+00  0.10911457141E+03  0.10911457144E+03  0.25500000000E-02 0.  1.
          2   -1    0    0  501    0  0.00000000000E+00 -0.00000000000E+00 -0.25225297343E+04  0.25225297343E+04  0.25500000000E-02 0. -1.
    8880022    1    1    2    0    0 -0.29985972021E+02 -0.29166111206E+03 -0.22282227264E+04  0.22526281394E+04  0.15294330000E+03 0.  0.
    8880022    1    1    2    0    0  0.29985972021E+02  0.29166111206E+03 -0.18519243642E+03  0.37901616631E+03  0.15294330000E+03 0.  0.
<mgrwt>
<rscale>  0 0.33069172E+03</rscale>
<asrwt>0</asrwt>
<pdfrwt beam="1">  1        2 0.38808146E+00 0.33069172E+03</pdfrwt>
<pdfrwt beam="2">  1       -2 0.16786859E-01 0.33069172E+03</pdfrwt>
<totfact> 0.10914523E+02</totfact>
</mgrwt>
</event>
<event>
 4    1  0.3365401E-008  0.4759497E+03  0.7818608E-02  0.1020254E+00
         -2   -1    0    0    0  501 -0.00000000000E+00  0.00000000000E+00  0.46223858790E+03  0.46223858791E+03  0.25500000000E-02 0.  1.
          2   -1    0    0  501    0  0.00000000000E+00 -0.00000000000E+00 -0.80915854142E+03  0.80915854142E+03  0.25500000000E-02 0. -1.
    8880022    1    1    2    0    0  0.37777208334E+03  0.24581445059E+03 -0.57266102567E+03  0.74462661408E+03  0.15294330000E+03 0. -1.
    8880022    1    1    2    0    0 -0.37777208334E+03 -0.24581445059E+03  0.22574107215E+03  0.52677051525E+03  0.15294330000E+03 0.  0.
<mgrwt>
<rscale>  0 0.47594973E+03</rscale>
<asrwt>0</asrwt>
<pdfrwt beam="1">  1        2 0.12448593E+00 0.47594973E+03</pdfrwt>
<pdfrwt beam="2">  1       -2 0.71113629E-01 0.47594973E+03</pdfrwt>
<totfact> 0.63343007E+01</totfact>
</mgrwt>
</event>
<event>
 4    1  0.3365401E-008  0.7525602E+03  0.7818608E-02  0.9631342E-01
          2   -1    0    0  501    0  0.00000000000E+00  0.00000000000E+00  0.32437968665E+04  0.32437968665E+04  0.25500000000E-02 0. -1.
         -2   -1    0    0    0  501 -0.00000000000E+00 -0.00000000000E+00 -0.25435507176E+03  0.25435507177E+03  0.25500000000E-02 0.  1.
    8880022    1    1    2    0    0  0.58614261491E+03 -0.44653327784E+03  0.24741760079E+04  0.25860962287E+04  0.15294330000E+03 0.  0.
    8880022    1    1    2    0    0 -0.58614261491E+03  0.44653327784E+03  0.51526578689E+03  0.91205570958E+03  0.15294330000E+03 0.  0.
<mgrwt>
<rscale>  0 0.75256015E+03</rscale>
<asrwt>0</asrwt>
<pdfrwt beam="1">  1        2 0.49904566E+00 0.75256015E+03</pdfrwt>
<pdfrwt beam="2">  1       -2 0.39131551E-01 0.75256015E+03</pdfrwt>
<totfact> 0.80302431E+00</totfact>
</mgrwt>
</event>
<event>
 4    1  0.3365401E-008  0.1027619E+04  0.7818608E-02  0.9278761E-01
          2   -1    0    0  501    0  0.00000000000E+00  0.00000000000E+00  0.90572630608E+03  0.90572630608E+03  0.25500000000E-02 0. -1.
         -2   -1    0    0    0  501 -0.00000000000E+00 -0.00000000000E+00 -0.16087390443E+04  0.16087390443E+04  0.25500000000E-02 0.  1.
    8880022    1    1    2    0    0  0.40885603976E+03 -0.93029312343E+03  0.30810522445E+03  0.10728136087E+04  0.15294330000E+03 0.  0.
    8880022    1    1    2    0    0 -0.40885603976E+03  0.93029312343E+03 -0.10111179627E+04  0.14416517417E+04  0.15294330000E+03 0.  0.
<mgrwt>
<rscale>  0 0.10276187E+04</rscale>
<asrwt>0</asrwt>
<pdfrwt beam="1">  1        2 0.13934251E+00 0.10276187E+04</pdfrwt>
<pdfrwt beam="2">  1       -2 0.24749831E+00 0.10276187E+04</pdfrwt>
<totfact> 0.19223059E+00</totfact>
</mgrwt>
</event>
<event>
 4    1  0.3365401E-008  0.5969935E+03  0.7818608E-02  0.9911663E-01
         -2   -1    0    0    0  501 -0.00000000000E+00  0.00000000000E+00  0.13649115342E+03  0.13649115344E+03  0.25500000000E-02 0.  1.
          2   -1    0    0  501    0  0.00000000000E+00 -0.00000000000E+00 -0.30860583142E+04  0.30860583142E+04  0.25500000000E-02 0. -1.
    8880022    1    1    2    0    0  0.53664008952E+03 -0.21219553675E+03 -0.84271430004E+03  0.10327480700E+04  0.15294330000E+03 0.  0.
    8880022    1    1    2    0    0 -0.53664008952E+03  0.21219553675E+03 -0.21068528607E+04  0.21898013977E+04  0.15294330000E+03 0.  0.
<mgrwt>
<rscale>  0 0.59699345E+03</rscale>
<asrwt>0</asrwt>
<pdfrwt beam="1">  1        2 0.47477815E+00 0.59699345E+03</pdfrwt>
<pdfrwt beam="2">  1       -2 0.20998641E-01 0.59699345E+03</pdfrwt>
<totfact> 0.32752895E+01</totfact>
</mgrwt>
</event>
<event>
 4    1  0.3365401E-008  0.5109857E+03  0.7818608E-02  0.1010951E+00
         -2   -1    0    0    0  501 -0.00000000000E+00  0.00000000000E+00  0.27844038079E+03  0.27844038080E+03  0.25500000000E-02 0.  1.
          2   -1    0    0  501    0  0.00000000000E+00 -0.00000000000E+00 -0.12435129233E+04  0.12435129233E+04  0.25500000000E-02 0. -1.
    8880022    1    1    2    0    0  0.47910993632E+03  0.90379257130E+02 -0.10518890078E+03  0.52170020037E+03  0.15294330000E+03 0.  0.
    8880022    1    1    2    0    0 -0.47910993632E+03 -0.90379257130E+02 -0.85988364171E+03  0.10002531037E+04  0.15294330000E+03 0.  0.
<mgrwt>
<rscale>  0 0.51098571E+03</rscale>
<asrwt>0</asrwt>
<pdfrwt beam="1">  1        2 0.19130968E+00 0.51098571E+03</pdfrwt>
<pdfrwt beam="2">  1       -2 0.42836982E-01 0.51098571E+03</pdfrwt>
<totfact> 0.95923131E+01</totfact>
</mgrwt>
</event>
<event>
 4    1  0.3365401E-008  0.3930030E+03  0.7818608E-02  0.1046230E+00
          2   -1    0    0  501    0  0.00000000000E+00  0.00000000000E+00  0.49851221859E+03  0.49851221860E+03  0.25500000000E-02 0. -1.
         -2   -1    0    0    0  501 -0.00000000000E+00 -0.00000000000E+00 -0.50009834019E+03  0.50009834019E+03  0.25500000000E-02 0.  1.
    8880022    1    1    2    0    0 -0.21017037085E+03  0.29476793514E+03  0.30719070339E+03  0.49881610001E+03  0.15294330000E+03 0.  0.
    8880022    1    1    2    0    0  0.21017037085E+03 -0.29476793514E+03 -0.30877682498E+03  0.49979445878E+03  0.15294330000E+03 0.  0.
<mgrwt>
<rscale>  0 0.39300302E+03</rscale>
<asrwt>0</asrwt>
<pdfrwt beam="1">  1        2 0.76694188E-01 0.39300302E+03</pdfrwt>
<pdfrwt beam="2">  1       -2 0.76938206E-01 0.39300302E+03</pdfrwt>
<totfact> 0.96708141E+01</totfact>
</mgrwt>
</event>
<event>
 4    1  0.3365401E-008  0.1002870E+04  0.7818608E-02  0.9305403E-01
         -2   -1    0    0    0  501 -0.00000000000E+00  0.00000000000E+00  0.86063687091E+03  0.86063687092E+03  0.25500000000E-02 0.  1.
          2   -1    0    0  501    0  0.00000000000E+00 -0.00000000000E+00 -0.14499874687E+04  0.14499874687E+04  0.25500000000E-02 0. -1.
    8880022    1    1    2    0    0 -0.95923969737E+03 -0.24943063497E+03  0.21425999102E+03  0.10255025282E+04  0.15294330000E+03 0.  0.
    8880022    1    1    2    0    0  0.95923969737E+03  0.24943063497E+03 -0.80361058885E+03  0.12851218114E+04  0.15294330000E+03 0.  0.
<mgrwt>
<rscale>  0 0.10028699E+04</rscale>
<asrwt>0</asrwt>
<pdfrwt beam="1">  1        2 0.22307500E+00 0.10028699E+04</pdfrwt>
<pdfrwt beam="2">  1       -2 0.13240567E+00 0.10028699E+04</pdfrwt>
<totfact> 0.55761623E+00</totfact>
</mgrwt>
</event>
<event>
 4    1  0.3365401E-008  0.5623164E+03  0.7818608E-02  0.9986827E-01
          2   -1    0    0  501    0  0.00000000000E+00  0.00000000000E+00  0.95521289994E+03  0.95521289995E+03  0.25500000000E-02 0. -1.
         -2   -1    0    0    0  501 -0.00000000000E+00 -0.00000000000E+00 -0.53849855638E+03  0.53849855638E+03  0.25500000000E-02 0.  1.
    8880022    1    1    2    0    0 -0.32649305092E+03 -0.43152098960E+03 -0.25522358955E+03  0.61752636416E+03  0.15294330000E+03 0.  0.
    8880022    1    1    2    0    0  0.32649305092E+03  0.43152098960E+03  0.67193793312E+03  0.87618509217E+03  0.15294330000E+03 0.  0.
<mgrwt>
<rscale>  0 0.56231640E+03</rscale>
<asrwt>0</asrwt>
<pdfrwt beam="1">  1        2 0.14695583E+00 0.56231640E+03</pdfrwt>
<pdfrwt beam="2">  1       -2 0.82845932E-01 0.56231640E+03</pdfrwt>
<totfact> 0.35640508E+01</totfact>
</mgrwt>
</event>
<event>
 4    1  0.3365401E-008  0.4074965E+03  0.7818608E-02  0.1041214E+00
          2   -1    0    0  501    0  0.00000000000E+00  0.00000000000E+00  0.35019300347E+04  0.35019300347E+04  0.25500000000E-02 0. -1.
         -2   -1    0    0    0  501 -0.00000000000E+00 -0.00000000000E+00 -0.52078627749E+03  0.52078627750E+03  0.25500000000E-02 0.  1.
    8880022    1    1    2    0    0 -0.26364416804E+03  0.27046909818E+03  0.34081778005E+04  0.34324523817E+04  0.15294330000E+03 0.  0.
    8880022    1    1    2    0    0  0.26364416804E+03 -0.27046909818E+03 -0.42703404329E+03  0.59026393042E+03  0.15294330000E+03 0.  0.
<mgrwt>
<rscale>  0 0.40749654E+03</rscale>
<asrwt>0</asrwt>
<pdfrwt beam="1">  1        2 0.53875846E+00 0.40749654E+03</pdfrwt>
<pdfrwt beam="2">  1       -2 0.80120966E-01 0.40749654E+03</pdfrwt>
<totfact> 0.13555041E+00</totfact>
</mgrwt>
</event>
<event>
 4    1  0.3365401E-008  0.4203333E+03  0.7818608E-02  0.1036958E+00
          2   -1    0    0  501    0  0.00000000000E+00  0.00000000000E+00  0.83729931860E+03  0.83729931860E+03  0.25500000000E-02 0. -1.
         -2   -1    0    0    0  501 -0.00000000000E+00 -0.00000000000E+00 -0.60934039769E+03  0.60934039769E+03  0.25500000000E-02 0.  1.
    8880022    1    1    2    0    0  0.23209660153E+03  0.31530872172E+03 -0.47083906421E+03  0.63116519219E+03  0.15294330000E+03 0.  0.
    8880022    1    1    2    0    0 -0.23209660153E+03 -0.31530872172E+03  0.69879798512E+03  0.81547452410E+03  0.15294330000E+03 0.  0.
<mgrwt>
<rscale>  0 0.42033329E+03</rscale>
<asrwt>0</asrwt>
<pdfrwt beam="1">  1        2 0.12881528E+00 0.42033329E+03</pdfrwt>
<pdfrwt beam="2">  1       -2 0.93744676E-01 0.42033329E+03</pdfrwt>
<totfact> 0.32847529E+01</totfact>
</mgrwt>
</event>
<event>
 4    1  0.3365401E-008  0.8690856E+03  0.7818608E-02  0.9465073E-01
          2   -1    0    0  501    0  0.00000000000E+00  0.00000000000E+00  0.98128766599E+03  0.98128766599E+03  0.25500000000E-02 0. -1.
         -2   -1    0    0    0  501 -0.00000000000E+00 -0.00000000000E+00 -0.11789136252E+04  0.11789136252E+04  0.25500000000E-02 0.  1.
    8880022    1    1    2    0    0  0.47648376132E+03  0.71055002097E+03 -0.73515622362E+03  0.11383164908E+04  0.15294330000E+03 0.  0.
    8880022    1    1    2    0    0 -0.47648376132E+03 -0.71055002097E+03  0.53753026441E+03  0.10218848004E+04  0.15294330000E+03 0.  0.
<mgrwt>
<rscale>  0 0.86908559E+03</rscale>
<asrwt>0</asrwt>
<pdfrwt beam="1">  1        2 0.15096733E+00 0.86908559E+03</pdfrwt>
<pdfrwt beam="2">  1       -2 0.18137133E+00 0.86908559E+03</pdfrwt>
<totfact> 0.46218713E+00</totfact>
</mgrwt>
</event>
<event>
 4    1  0.3365401E-008  0.1940755E+03  0.7818608E-02  0.1154836E+00
         -2   -1    0    0    0  501 -0.00000000000E+00  0.00000000000E+00  0.73934161841E+03  0.73934161842E+03  0.25500000000E-02 0.  1.
          2   -1    0    0  501    0  0.00000000000E+00 -0.00000000000E+00 -0.59282977824E+03  0.59282977825E+03  0.25500000000E-02 0. -1.
    8880022    1    1    2    0    0  0.11876310447E+03 -0.12999249369E+02 -0.56356720201E+03  0.59604806825E+03  0.15294330000E+03 0.  0.
    8880022    1    1    2    0    0 -0.11876310447E+03  0.12999249369E+02  0.71007904218E+03  0.73612332841E+03  0.15294330000E+03 0.  1.
<mgrwt>
<rscale>  0 0.19407552E+03</rscale>
<asrwt>0</asrwt>
<pdfrwt beam="1">  1        2 0.91204582E-01 0.19407552E+03</pdfrwt>
<pdfrwt beam="2">  1       -2 0.11374486E+00 0.19407552E+03</pdfrwt>
<totfact> 0.33436255E+01</totfact>
</mgrwt>
</event>
<event>
 4    1  0.3365401E-008  0.6993788E+03  0.7818608E-02  0.9718295E-01
         -2   -1    0    0    0  501 -0.00000000000E+00  0.00000000000E+00  0.50297749881E+03  0.50297749882E+03  0.25500000000E-02 0.  1.
          2   -1    0    0  501    0  0.00000000000E+00 -0.00000000000E+00 -0.23220510551E+04  0.23220510551E+04  0.25500000000E-02 0. -1.
    8880022    1    1    2    0    0 -0.62920807188E+03  0.26426557817E+03 -0.19863896750E+04  0.21059142166E+04  0.15294330000E+03 0.  0.
    8880022    1    1    2    0    0  0.62920807188E+03 -0.26426557817E+03  0.16731611876E+03  0.71911433732E+03  0.15294330000E+03 0.  0.
<mgrwt>
<rscale>  0 0.69937883E+03</rscale>
<asrwt>0</asrwt>
<pdfrwt beam="1">  1        2 0.35723862E+00 0.69937883E+03</pdfrwt>
<pdfrwt beam="2">  1       -2 0.77381155E-01 0.69937883E+03</pdfrwt>
<totfact> 0.69117040E+00</totfact>
</mgrwt>
</event>
<event>
 4    1  0.3365401E-008  0.4217675E+03  0.7818608E-02  0.1036493E+00
         -2   -1    0    0    0  501 -0.00000000000E+00  0.00000000000E+00  0.55071122731E+03  0.55071122732E+03  0.25500000000E-02 0.  1.
          2   -1    0    0  501    0  0.00000000000E+00 -0.00000000000E+00 -0.46234237795E+03  0.46234237796E+03  0.25500000000E-02 0. -1.
    8880022    1    1    2    0    0  0.81239318984E+00 -0.39305911951E+03  0.32224497964E+03  0.53078207518E+03  0.15294330000E+03 0.  0.
    8880022    1    1    2    0    0 -0.81239318984E+00  0.39305911951E+03 -0.23387613028E+03  0.48227153010E+03  0.15294330000E+03 0.  0.
<mgrwt>
<rscale>  0 0.42176745E+03</rscale>
<asrwt>0</asrwt>
<pdfrwt beam="1">  1        2 0.71129597E-01 0.42176745E+03</pdfrwt>
<pdfrwt beam="2">  1       -2 0.84724804E-01 0.42176745E+03</pdfrwt>
<totfact> 0.84695812E+01</totfact>
</mgrwt>
</event>
<event>
 4    1  0.3365401E-008  0.7637317E+03  0.7818608E-02  0.9614050E-01
         -2   -1    0    0    0  501 -0.00000000000E+00  0.00000000000E+00  0.51779626893E+03  0.51779626894E+03  0.25500000000E-02 0.  1.
          2   -1    0    0  501    0  0.00000000000E+00 -0.00000000000E+00 -0.14324178588E+04  0.14324178588E+04  0.25500000000E-02 0. -1.
    8880022    1    1    2    0    0  0.10512602474E+03  0.74083934563E+03 -0.90795679275E+03  0.11864533736E+04  0.15294330000E+03 0.  0.
    8880022    1    1    2    0    0 -0.10512602474E+03 -0.74083934563E+03 -0.66647971326E+01  0.76376075420E+03  0.15294330000E+03 0.  0.
<mgrwt>
<rscale>  0 0.76373167E+03</rscale>
<asrwt>0</asrwt>
<pdfrwt beam="1">  1        2 0.22037198E+00 0.76373167E+03</pdfrwt>
<pdfrwt beam="2">  1       -2 0.79660965E-01 0.76373167E+03</pdfrwt>
<totfact> 0.19760069E+01</totfact>
</mgrwt>
</event>
<event>
 4    1  0.3365401E-008  0.2888381E+03  0.7818608E-02  0.1090957E+00
         -2   -1    0    0    0  501 -0.00000000000E+00  0.00000000000E+00  0.72851664030E+03  0.72851664031E+03  0.25500000000E-02 0.  1.
          2   -1    0    0  501    0  0.00000000000E+00 -0.00000000000E+00 -0.56260527848E+03  0.56260527849E+03  0.25500000000E-02 0. -1.
    8880022    1    1    2    0    0  0.52675003686E+02 -0.23929302490E+03  0.65908131821E+03  0.71959408336E+03  0.15294330000E+03 0.  0.
    8880022    1    1    2    0    0 -0.52675003686E+02  0.23929302490E+03 -0.49316995639E+03  0.57152783544E+03  0.15294330000E+03 0. -1.
<mgrwt>
<rscale>  0 0.28883812E+03</rscale>
<asrwt>0</asrwt>
<pdfrwt beam="1">  1        2 0.86554659E-01 0.28883812E+03</pdfrwt>
<pdfrwt beam="2">  1       -2 0.11207948E+00 0.28883812E+03</pdfrwt>
<totfact> 0.35967536E+01</totfact>
</mgrwt>
</event>
<event>
 4    1  0.3365401E-008  0.3526711E+03  0.7818608E-02  0.1061524E+00
          2   -1    0    0  501    0  0.00000000000E+00  0.00000000000E+00  0.68028927374E+03  0.68028927374E+03  0.25500000000E-02 0. -1.
         -2   -1    0    0    0  501 -0.00000000000E+00 -0.00000000000E+00 -0.37933840704E+03  0.37933840705E+03  0.25500000000E-02 0.  1.
    8880022    1    1    2    0    0  0.18562529022E+03 -0.25793118413E+03 -0.23085467208E+03  0.42151011465E+03  0.15294330000E+03 0.  0.
    8880022    1    1    2    0    0 -0.18562529022E+03  0.25793118413E+03  0.53180553878E+03  0.63811756613E+03  0.15294330000E+03 0.  0.
<mgrwt>
<rscale>  0 0.35267109E+03</rscale>
<asrwt>0</asrwt>
<pdfrwt beam="1">  1        2 0.10465989E+00 0.35267109E+03</pdfrwt>
<pdfrwt beam="2">  1       -2 0.58359754E-01 0.35267109E+03</pdfrwt>
<totfact> 0.12178758E+02</totfact>
</mgrwt>
</event>
<event>
 4    1  0.3365401E-008  0.1650210E+04  0.7818608E-02  0.8790282E-01
         -2   -1    0    0    0  501 -0.00000000000E+00  0.00000000000E+00  0.18760631401E+04  0.18760631401E+04  0.25500000000E-02 0.  1.
          2   -1    0    0  501    0  0.00000000000E+00 -0.00000000000E+00 -0.19501944797E+04  0.19501944797E+04  0.25500000000E-02 0. -1.
    8880022    1    1    2    0    0 -0.10515838825E+04 -0.12625263705E+04 -0.10044570660E+04  0.19318714110E+04  0.15294330000E+03 0.  0.
    8880022    1    1    2    0    0  0.10515838825E+04  0.12625263705E+04  0.93032572637E+03  0.18943862088E+04  0.15294330000E+03 0.  0.
<mgrwt>
<rscale>  0 0.16502100E+04</rscale>
<asrwt>0</asrwt>
<pdfrwt beam="1">  1        2 0.30002992E+00 0.16502100E+04</pdfrwt>
<pdfrwt beam="2">  1       -2 0.28862510E+00 0.16502100E+04</pdfrwt>
<totfact> 0.24505915E-01</totfact>
</mgrwt>
</event>
<event>
 4    1  0.3365401E-008  0.2962743E+03  0.7818608E-02  0.1087118E+00
          2   -1    0    0  501    0  0.00000000000E+00  0.00000000000E+00  0.16213915721E+04  0.16213915721E+04  0.25500000000E-02 0. -1.
         -2   -1    0    0    0  501 -0.00000000000E+00 -0.00000000000E+00 -0.16517095799E+03  0.16517095801E+03  0.25500000000E-02 0.  1.
    8880022    1    1    2    0    0  0.66311971645E+02  0.24492756579E+03  0.14605095456E+04  0.14902572180E+04  0.15294330000E+03 0.  0.
    8880022    1    1    2    0    0 -0.66311971645E+02 -0.24492756579E+03 -0.42889314098E+01  0.29630531216E+03  0.15294330000E+03 0.  0.
<mgrwt>
<rscale>  0 0.29627427E+03</rscale>
<asrwt>0</asrwt>
<pdfrwt beam="1">  1        2 0.24944485E+00 0.29627427E+03</pdfrwt>
<pdfrwt beam="2">  1       -2 0.25410917E-01 0.29627427E+03</pdfrwt>
<totfact> 0.16291011E+02</totfact>
</mgrwt>
</event>
<event>
 4    1  0.3365401E-008  0.2388333E+03  0.7818608E-02  0.1120573E+00
          2   -1    0    0  501    0  0.00000000000E+00  0.00000000000E+00  0.53956418339E+03  0.53956418339E+03  0.25500000000E-02 0. -1.
         -2   -1    0    0    0  501 -0.00000000000E+00 -0.00000000000E+00 -0.29320126783E+03  0.29320126784E+03  0.25500000000E-02 0.  1.
    8880022    1    1    2    0    0  0.18131538586E+03  0.27828190107E+02 -0.20977827740E+03  0.31788088335E+03  0.15294330000E+03 0.  0.
    8880022    1    1    2    0    0 -0.18131538586E+03 -0.27828190107E+02  0.45614119296E+03  0.51488456788E+03  0.15294330000E+03 0.  0.
<mgrwt>
<rscale>  0 0.23883327E+03</rscale>
<asrwt>0</asrwt>
<pdfrwt beam="1">  1        2 0.83009873E-01 0.23883327E+03</pdfrwt>
<pdfrwt beam="2">  1       -2 0.45107888E-01 0.23883327E+03</pdfrwt>
<totfact> 0.27199759E+02</totfact>
</mgrwt>
</event>
<event>
 4    1  0.3365401E-008  0.3049058E+03  0.7818608E-02  0.1082814E+00
         -2   -1    0    0    0  501 -0.00000000000E+00  0.00000000000E+00  0.20094143740E+03  0.20094143741E+03  0.25500000000E-02 0.  1.
          2   -1    0    0  501    0  0.00000000000E+00 -0.00000000000E+00 -0.26954002222E+04  0.26954002222E+04  0.25500000000E-02 0. -1.
    8880022    1    1    2    0    0 -0.56753690834E+02  0.25759441609E+03  0.70806650558E+02  0.31301932752E+03  0.15294330000E+03 0.  0.
    8880022    1    1    2    0    0  0.56753690834E+02 -0.25759441609E+03 -0.25652654354E+04  0.25833223321E+04  0.15294330000E+03 0.  0.
<mgrwt>
<rscale>  0 0.30490575E+03</rscale>
<asrwt>0</asrwt>
<pdfrwt beam="1">  1        2 0.41467693E+00 0.30490575E+03</pdfrwt>
<pdfrwt beam="2">  1       -2 0.30914069E-01 0.30490575E+03</pdfrwt>
<totfact> 0.30150720E+01</totfact>
</mgrwt>
</event>
<event>
 4    1  0.3365401E-008  0.5998503E+03  0.7818608E-02  0.9905717E-01
          2   -1    0    0  501    0  0.00000000000E+00  0.00000000000E+00  0.69581560305E+03  0.69581560306E+03  0.25500000000E-02 0. -1.
         -2   -1    0    0    0  501 -0.00000000000E+00 -0.00000000000E+00 -0.61665558855E+03  0.61665558855E+03  0.25500000000E-02 0.  1.
    8880022    1    1    2    0    0 -0.72346036297E+02  0.57549529258E+03  0.30322941412E+03  0.67213727121E+03  0.15294330000E+03 0. -1.
    8880022    1    1    2    0    0  0.72346036297E+02 -0.57549529258E+03 -0.22406939961E+03  0.64033392040E+03  0.15294330000E+03 0.  0.
<mgrwt>
<rscale>  0 0.59985034E+03</rscale>
<asrwt>0</asrwt>
<pdfrwt beam="1">  1        2 0.10704855E+00 0.59985034E+03</pdfrwt>
<pdfrwt beam="2">  1       -2 0.94870091E-01 0.59985034E+03</pdfrwt>
<totfact> 0.39633508E+01</totfact>
</mgrwt>
</event>
<event>
 4    1  0.3365401E-008  0.1104179E+04  0.7818608E-02  0.9201129E-01
         -2   -1    0    0    0  501 -0.00000000000E+00  0.00000000000E+00  0.15172970721E+04  0.15172970721E+04  0.25500000000E-02 0.  1.
          2   -1    0    0  501    0  0.00000000000E+00 -0.00000000000E+00 -0.98445829793E+03  0.98445829794E+03  0.25500000000E-02 0. -1.
    8880022    1    1    2    0    0  0.10198736699E+04  0.39455862266E+03  0.80265565693E+03  0.13650884828E+04  0.15294330000E+03 0.  0.
    8880022    1    1    2    0    0 -0.10198736699E+04 -0.39455862266E+03 -0.26981688281E+03  0.11366668872E+04  0.15294330000E+03 0.  0.
<mgrwt>
<rscale>  0 0.11041786E+04</rscale>
<asrwt>0</asrwt>
<pdfrwt beam="1">  1        2 0.15145512E+00 0.11041786E+04</pdfrwt>
<pdfrwt beam="2">  1       -2 0.23343032E+00 0.11041786E+04</pdfrwt>
<totfact> 0.20625858E+00</totfact>
</mgrwt>
</event>
<event>
 4    1  0.3365401E-008  0.5096355E+03  0.7818608E-02  0.1011294E+00
          2   -1    0    0  501    0  0.00000000000E+00  0.00000000000E+00  0.20945676923E+04  0.20945676923E+04  0.25500000000E-02 0. -1.
         -2   -1    0    0    0  501 -0.00000000000E+00 -0.00000000000E+00 -0.15687525101E+03  0.15687525103E+03  0.25500000000E-02 0.  1.
    8880022    1    1    2    0    0 -0.23664237761E+03  0.42466118324E+03  0.14841721339E+04  0.15692339888E+04  0.15294330000E+03 0.  0.
    8880022    1    1    2    0    0  0.23664237761E+03 -0.42466118324E+03  0.45352030734E+03  0.68220895451E+03  0.15294330000E+03 0.  0.
<mgrwt>
<rscale>  0 0.50963554E+03</rscale>
<asrwt>0</asrwt>
<pdfrwt beam="1">  1        2 0.32224116E+00 0.50963554E+03</pdfrwt>
<pdfrwt beam="2">  1       -2 0.24134656E-01 0.50963554E+03</pdfrwt>
<totfact> 0.95962285E+01</totfact>
</mgrwt>
</event>
<event>
 4    1  0.3365401E-008  0.5709712E+03  0.7818608E-02  0.9967532E-01
          2   -1    0    0  501    0  0.00000000000E+00  0.00000000000E+00  0.76971391423E+03  0.76971391423E+03  0.25500000000E-02 0. -1.
         -2   -1    0    0    0  501 -0.00000000000E+00 -0.00000000000E+00 -0.71395716803E+03  0.71395716803E+03  0.25500000000E-02 0.  1.
    8880022    1    1    2    0    0 -0.52401938008E+03 -0.16739232162E+03 -0.44525031171E+03  0.72405524177E+03  0.15294330000E+03 0.  0.
    8880022    1    1    2    0    0  0.52401938008E+03  0.16739232162E+03  0.50100705791E+03  0.75961584050E+03  0.15294330000E+03 0.  0.
<mgrwt>
<rscale>  0 0.57097124E+03</rscale>
<asrwt>0</asrwt>
<pdfrwt beam="1">  1        2 0.11841753E+00 0.57097124E+03</pdfrwt>
<pdfrwt beam="2">  1       -2 0.10983956E+00 0.57097124E+03</pdfrwt>
<totfact> 0.24701477E+01</totfact>
</mgrwt>
</event>
<event>
 4    1  0.3365401E-008  0.1008331E+04  0.7818608E-02  0.9299455E-01
         -2   -1    0    0    0  501 -0.00000000000E+00  0.00000000000E+00  0.27077953198E+04  0.27077953198E+04  0.25500000000E-02 0.  1.
          2   -1    0    0  501    0  0.00000000000E+00 -0.00000000000E+00 -0.10441755164E+04  0.10441755164E+04  0.25500000000E-02 0. -1.
    8880022    1    1    2    0    0 -0.61190735535E+03 -0.78670754117E+03 -0.66945021723E+03  0.12103283080E+04  0.15294330000E+03 0.  0.
    8880022    1    1    2    0    0  0.61190735535E+03  0.78670754117E+03  0.23330700207E+04  0.25416425282E+04  0.15294330000E+03 0.  0.
<mgrwt>
<rscale>  0 0.10083308E+04</rscale>
<asrwt>0</asrwt>
<pdfrwt beam="1">  1        2 0.16064239E+00 0.10083308E+04</pdfrwt>
<pdfrwt beam="2">  1       -2 0.41658389E+00 0.10083308E+04</pdfrwt>
<totfact> 0.13856263E-01</totfact>
</mgrwt>
</event>
<event>
 4    1  0.3365401E-008  0.9453813E+03  0.7818608E-02  0.9370566E-01
         -2   -1    0    0    0  501 -0.00000000000E+00  0.00000000000E+00  0.10261060069E+04  0.10261060070E+04  0.25500000000E-02 0.  1.
          2   -1    0    0  501    0  0.00000000000E+00 -0.00000000000E+00 -0.11489605023E+04  0.11489605023E+04  0.25500000000E-02 0. -1.
    8880022    1    1    2    0    0 -0.12619559242E+03  0.92435315282E+03 -0.59633132249E+03  0.11177462941E+04  0.15294330000E+03 0.  0.
    8880022    1    1    2    0    0  0.12619559242E+03 -0.92435315282E+03  0.47347682711E+03  0.10573202152E+04  0.15294330000E+03 0.  1.
<mgrwt>
<rscale>  0 0.94538126E+03</rscale>
<asrwt>0</asrwt>
<pdfrwt beam="1">  1        2 0.17676316E+00 0.94538126E+03</pdfrwt>
<pdfrwt beam="2">  1       -2 0.15786246E+00 0.94538126E+03</pdfrwt>
<totfact> 0.52959450E+00</totfact>
</mgrwt>
</event>
<event>
 4    1  0.3365401E-008  0.9622756E+03  0.7818608E-02  0.9350916E-01
          2   -1    0    0  501    0  0.00000000000E+00  0.00000000000E+00  0.11156139137E+04  0.11156139137E+04  0.25500000000E-02 0. -1.
         -2   -1    0    0    0  501 -0.00000000000E+00 -0.00000000000E+00 -0.11174114611E+04  0.11174114611E+04  0.25500000000E-02 0.  1.
    8880022    1    1    2    0    0 -0.13179508414E+03 -0.94085743573E+03  0.56533940015E+03  0.11160568753E+04  0.15294330000E+03 0.  0.
    8880022    1    1    2    0    0  0.13179508414E+03  0.94085743573E+03 -0.56713694748E+03  0.11169684995E+04  0.15294330000E+03 0.  0.
<mgrwt>
<rscale>  0 0.96227559E+03</rscale>
<asrwt>0</asrwt>
<pdfrwt beam="1">  1        2 0.17163291E+00 0.96227559E+03</pdfrwt>
<pdfrwt beam="2">  1       -2 0.17190946E+00 0.96227559E+03</pdfrwt>
<totfact> 0.43810444E+00</totfact>
</mgrwt>
</event>
<event>
 4    1  0.3365401E-008  0.9489626E+03  0.7818608E-02  0.9366364E-01
         -2   -1    0    0    0  501 -0.00000000000E+00  0.00000000000E+00  0.20186961557E+04  0.20186961557E+04  0.25500000000E-02 0.  1.
          2   -1    0    0  501    0  0.00000000000E+00 -0.00000000000E+00 -0.11888166637E+04  0.11888166637E+04  0.25500000000E-02 0. -1.
    8880022    1    1    2    0    0 -0.91372389773E+03 -0.20554088193E+03  0.16825742065E+04  0.19317313552E+04  0.15294330000E+03 0.  0.
    8880022    1    1    2    0    0  0.91372389773E+03  0.20554088193E+03 -0.85269471448E+03  0.12757814643E+04  0.15294330000E+03 0.  0.
<mgrwt>
<rscale>  0 0.94896263E+03</rscale>
<asrwt>0</asrwt>
<pdfrwt beam="1">  1        2 0.18289487E+00 0.94896263E+03</pdfrwt>
<pdfrwt beam="2">  1       -2 0.31056864E+00 0.94896263E+03</pdfrwt>
<totfact> 0.53382232E-01</totfact>
</mgrwt>
</event>
<event>
 4    1  0.3365401E-008  0.1930278E+03  0.7818608E-02  0.1155758E+00
          2   -1    0    0  501    0  0.00000000000E+00  0.00000000000E+00  0.97412148633E+03  0.97412148633E+03  0.25500000000E-02 0. -1.
         -2   -1    0    0    0  501 -0.00000000000E+00 -0.00000000000E+00 -0.76307043154E+02  0.76307043197E+02  0.25500000000E-02 0.  1.
    8880022    1    1    2    0    0  0.11757524988E+03  0.66425400205E+01  0.77992349543E+02  0.20818867002E+03  0.15294330000E+03 0.  1.
    8880022    1    1    2    0    0 -0.11757524988E+03 -0.66425400205E+01  0.81982209363E+03  0.84223985951E+03  0.15294330000E+03 0.  0.
<mgrwt>
<rscale>  0 0.19302776E+03</rscale>
<asrwt>0</asrwt>
<pdfrwt beam="1">  1        2 0.14986485E+00 0.19302776E+03</pdfrwt>
<pdfrwt beam="2">  1       -2 0.11739545E-01 0.19302776E+03</pdfrwt>
<totfact> 0.13965674E+03</totfact>
</mgrwt>
</event>
<event>
 4    1  0.3365401E-008  0.5411793E+03  0.7818608E-02  0.1003556E+00
         -2   -1    0    0    0  501 -0.00000000000E+00  0.00000000000E+00  0.38366844007E+03  0.38366844007E+03  0.25500000000E-02 0.  1.
          2   -1    0    0  501    0  0.00000000000E+00 -0.00000000000E+00 -0.91435644731E+03  0.91435644731E+03  0.25500000000E-02 0. -1.
    8880022    1    1    2    0    0 -0.22744784277E+03  0.46663782693E+03 -0.52909038597E+03  0.75684322832E+03  0.15294330000E+03 0. -1.
    8880022    1    1    2    0    0  0.22744784277E+03 -0.46663782693E+03 -0.15976212733E+01  0.54118165907E+03  0.15294330000E+03 0.  0.
<mgrwt>
<rscale>  0 0.54117930E+03</rscale>
<asrwt>0</asrwt>
<pdfrwt beam="1">  1        2 0.14067022E+00 0.54117930E+03</pdfrwt>
<pdfrwt beam="2">  1       -2 0.59025914E-01 0.54117930E+03</pdfrwt>
<totfact> 0.79375765E+01</totfact>
</mgrwt>
</event>
<event>
 4    1  0.3365401E-008  0.6218805E+03  0.7818608E-02  0.9861023E-01
          2   -1    0    0  501    0  0.00000000000E+00  0.00000000000E+00  0.27849647148E+03  0.27849647149E+03  0.25500000000E-02 0. -1.
         -2   -1    0    0    0  501 -0.00000000000E+00 -0.00000000000E+00 -0.17885391373E+04  0.17885391373E+04  0.25500000000E-02 0.  1.
    8880022    1    1    2    0    0  0.45599046914E+03 -0.39422887290E+03 -0.26632832620E+03  0.67651026786E+03  0.15294330000E+03 0.  0.
    8880022    1    1    2    0    0 -0.45599046914E+03  0.39422887290E+03 -0.12437143396E+04  0.13905253409E+04  0.15294330000E+03 0.  0.
<mgrwt>
<rscale>  0 0.62188051E+03</rscale>
<asrwt>0</asrwt>
<pdfrwt beam="1">  1        2 0.42845612E-01 0.62188051E+03</pdfrwt>
<pdfrwt beam="2">  1       -2 0.27515986E+00 0.62188051E+03</pdfrwt>
<totfact> 0.56510653E+00</totfact>
</mgrwt>
</event>
<event>
 4    1  0.3365401E-008  0.2865661E+03  0.7818608E-02  0.1092156E+00
          2   -1    0    0  501    0  0.00000000000E+00  0.00000000000E+00  0.24552482429E+04  0.24552482429E+04  0.25500000000E-02 0. -1.
         -2   -1    0    0    0  501 -0.00000000000E+00 -0.00000000000E+00 -0.24355633934E+03  0.24355633935E+03  0.25500000000E-02 0.  1.
    8880022    1    1    2    0    0  0.70945429903E+02 -0.23172234471E+03  0.23591736235E+04  0.23765143252E+04  0.15294330000E+03 0.  0.
    8880022    1    1    2    0    0 -0.70945429903E+02  0.23172234471E+03 -0.14748171993E+03  0.32229025705E+03  0.15294330000E+03 0.  0.
<mgrwt>
<rscale>  0 0.28656614E+03</rscale>
<asrwt>0</asrwt>
<pdfrwt beam="1">  1        2 0.37773051E+00 0.28656614E+03</pdfrwt>
<pdfrwt beam="2">  1       -2 0.37470205E-01 0.28656614E+03</pdfrwt>
<totfact> 0.28835322E+01</totfact>
</mgrwt>
</event>
<event>
 4    1  0.3365401E-008  0.5556785E+03  0.7818608E-02  0.1000188E+00
          2   -1    0    0  501    0  0.00000000000E+00  0.00000000000E+00  0.31277023140E+03  0.31277023141E+03  0.25500000000E-02 0. -1.
         -2   -1    0    0    0  501 -0.00000000000E+00 -0.00000000000E+00 -0.13061421594E+04  0.13061421594E+04  0.25500000000E-02 0.  1.
    8880022    1    1    2    0    0 -0.23408714766E+03  0.48019803204E+03 -0.96715101606E+02  0.56403227440E+03  0.15294330000E+03 0.  0.
    8880022    1    1    2    0    0  0.23408714766E+03 -0.48019803204E+03 -0.89665682644E+03  0.10548801165E+04  0.15294330000E+03 0.  0.
<mgrwt>
<rscale>  0 0.55567850E+03</rscale>
<asrwt>0</asrwt>
<pdfrwt beam="1">  1        2 0.48118498E-01 0.55567850E+03</pdfrwt>
<pdfrwt beam="2">  1       -2 0.20094494E+00 0.55567850E+03</pdfrwt>
<totfact> 0.14278024E+01</totfact>
</mgrwt>
</event>
<event>
 4    1  0.3365401E-008  0.2012159E+03  0.7818608E-02  0.1148717E+00
         -2   -1    0    0    0  501 -0.00000000000E+00  0.00000000000E+00  0.84902325201E+03  0.84902325201E+03  0.25500000000E-02 0.  1.
          2   -1    0    0  501    0  0.00000000000E+00 -0.00000000000E+00 -0.58156824496E+03  0.58156824496E+03  0.25500000000E-02 0. -1.
    8880022    1    1    2    0    0  0.13045154693E+03 -0.88634065188E+01  0.81906961655E+03  0.84342329577E+03  0.15294330000E+03 0.  0.
    8880022    1    1    2    0    0 -0.13045154693E+03  0.88634065188E+01 -0.55161460950E+03  0.58716820120E+03  0.15294330000E+03 0. -1.
<mgrwt>
<rscale>  0 0.20121585E+03</rscale>
<asrwt>0</asrwt>
<pdfrwt beam="1">  1        2 0.89472038E-01 0.20121585E+03</pdfrwt>
<pdfrwt beam="2">  1       -2 0.13061896E+00 0.20121585E+03</pdfrwt>
<totfact> 0.24370004E+01</totfact>
</mgrwt>
</event>
<event>
 4    1  0.3365401E-008  0.1343870E+04  0.7818608E-02  0.8995482E-01
          2   -1    0    0  501    0  0.00000000000E+00  0.00000000000E+00  0.45762705582E+04  0.45762705582E+04  0.25500000000E-02 0. -1.
         -2   -1    0    0    0  501 -0.00000000000E+00 -0.00000000000E+00 -0.47216565165E+03  0.47216565166E+03  0.25500000000E-02 0.  1.
    8880022    1    1    2    0    0 -0.11136523803E+04  0.73645947800E+03  0.10292342205E+04  0.16927223401E+04  0.15294330000E+03 0.  0.
    8880022    1    1    2    0    0  0.11136523803E+04 -0.73645947800E+03  0.30748706860E+04  0.33557138698E+04  0.15294330000E+03 0.  0.
<mgrwt>
<rscale>  0 0.13438697E+04</rscale>
<asrwt>0</asrwt>
<pdfrwt beam="1">  1        2 0.70404158E+00 0.13438697E+04</pdfrwt>
<pdfrwt beam="2">  1       -2 0.72640874E-01 0.13438697E+04</pdfrwt>
<totfact> 0.17921613E-01</totfact>
</mgrwt>
</event>
<event>
 4    1  0.3365401E-008  0.5218548E+03  0.7818608E-02  0.1008227E+00
          2   -1    0    0  501    0  0.00000000000E+00  0.00000000000E+00  0.20186111858E+03  0.20186111859E+03  0.25500000000E-02 0. -1.
         -2   -1    0    0    0  501 -0.00000000000E+00 -0.00000000000E+00 -0.18192874245E+04  0.18192874245E+04  0.25500000000E-02 0.  1.
    8880022    1    1    2    0    0  0.48778153186E+03 -0.10492818145E+03 -0.13224603968E+04  0.14217010586E+04  0.15294330000E+03 0.  0.
    8880022    1    1    2    0    0 -0.48778153186E+03  0.10492818145E+03 -0.29496590921E+03  0.59944748451E+03  0.15294330000E+03 0.  0.
<mgrwt>
<rscale>  0 0.52185477E+03</rscale>
<asrwt>0</asrwt>
<pdfrwt beam="1">  1        2 0.31055558E-01 0.52185477E+03</pdfrwt>
<pdfrwt beam="2">  1       -2 0.27989036E+00 0.52185477E+03</pdfrwt>
<totfact> 0.76943302E+00</totfact>
</mgrwt>
</event>
<event>
 4    1  0.3365401E-008  0.6133678E+03  0.7818608E-02  0.9878054E-01
         -2   -1    0    0    0  501 -0.00000000000E+00  0.00000000000E+00  0.33716293753E+03  0.33716293754E+03  0.25500000000E-02 0.  1.
          2   -1    0    0  501    0  0.00000000000E+00 -0.00000000000E+00 -0.12371301360E+04  0.12371301360E+04  0.25500000000E-02 0. -1.
    8880022    1    1    2    0    0  0.35087000813E+03 -0.47928970908E+03 -0.69645120603E+03  0.92804327660E+03  0.15294330000E+03 0.  0.
    8880022    1    1    2    0    0 -0.35087000813E+03  0.47928970908E+03 -0.20351599241E+03  0.64624979692E+03  0.15294330000E+03 0.  0.
<mgrwt>
<rscale>  0 0.61336779E+03</rscale>
<asrwt>0</asrwt>
<pdfrwt beam="1">  1        2 0.19032771E+00 0.61336779E+03</pdfrwt>
<pdfrwt beam="2">  1       -2 0.51871222E-01 0.61336779E+03</pdfrwt>
<totfact> 0.65157857E+01</totfact>
</mgrwt>
</event>
<event>
 4    1  0.3365401E-008  0.9052674E+03  0.7818608E-02  0.9419021E-01
          2   -1    0    0  501    0  0.00000000000E+00  0.00000000000E+00  0.89586268821E+03  0.89586268821E+03  0.25500000000E-02 0. -1.
         -2   -1    0    0    0  501 -0.00000000000E+00 -0.00000000000E+00 -0.10675391622E+04  0.10675391622E+04  0.25500000000E-02 0.  1.
    8880022    1    1    2    0    0 -0.71236629046E+03  0.53726312529E+03 -0.45720580006E+03  0.10141726649E+04  0.15294330000E+03 0.  0.
    8880022    1    1    2    0    0  0.71236629046E+03 -0.53726312529E+03  0.28552932608E+03  0.94922918552E+03  0.15294330000E+03 0.  0.
<mgrwt>
<rscale>  0 0.90526739E+03</rscale>
<asrwt>0</asrwt>
<pdfrwt beam="1">  1        2 0.13782503E+00 0.90526739E+03</pdfrwt>
<pdfrwt beam="2">  1       -2 0.16423679E+00 0.90526739E+03</pdfrwt>
<totfact> 0.69246277E+00</totfact>
</mgrwt>
</event>
<event>
 4    1  0.3365401E-008  0.3812408E+03  0.7818608E-02  0.1050476E+00
          2   -1    0    0  501    0  0.00000000000E+00  0.00000000000E+00  0.39639326777E+04  0.39639326777E+04  0.25500000000E-02 0. -1.
         -2   -1    0    0    0  501 -0.00000000000E+00 -0.00000000000E+00 -0.23315647004E+03  0.23315647005E+03  0.25500000000E-02 0.  1.
    8880022    1    1    2    0    0  0.11498693526E+03  0.32974369797E+03 -0.61091308030E+02  0.38610452285E+03  0.15294330000E+03 0.  0.
    8880022    1    1    2    0    0 -0.11498693526E+03 -0.32974369797E+03  0.37918675156E+04  0.38109846249E+04  0.15294330000E+03 0.  0.
<mgrwt>
<rscale>  0 0.38124081E+03</rscale>
<asrwt>0</asrwt>
<pdfrwt beam="1">  1        2 0.60983572E+00 0.38124081E+03</pdfrwt>
<pdfrwt beam="2">  1       -2 0.35870231E-01 0.38124081E+03</pdfrwt>
<totfact> 0.33284925E+00</totfact>
</mgrwt>
</event>
<event>
 4    1  0.3365401E-008  0.3819681E+03  0.7818608E-02  0.1050209E+00
          2   -1    0    0  501    0  0.00000000000E+00  0.00000000000E+00  0.13427181105E+04  0.13427181105E+04  0.25500000000E-02 0. -1.
         -2   -1    0    0    0  501 -0.00000000000E+00 -0.00000000000E+00 -0.14570804957E+03  0.14570804959E+03  0.25500000000E-02 0.  1.
    8880022    1    1    2    0    0 -0.16456134693E+03 -0.30891345640E+03  0.97377066617E+03  0.10460061777E+04  0.15294330000E+03 0.  0.
    8880022    1    1    2    0    0  0.16456134693E+03  0.30891345640E+03  0.22323939479E+03  0.44241998243E+03  0.15294330000E+03 0.  0.
<mgrwt>
<rscale>  0 0.38196808E+03</rscale>
<asrwt>0</asrwt>
<pdfrwt beam="1">  1        2 0.20657201E+00 0.38196808E+03</pdfrwt>
<pdfrwt beam="2">  1       -2 0.22416624E-01 0.38196808E+03</pdfrwt>
<totfact> 0.28415760E+02</totfact>
</mgrwt>
</event>
<event>
 4    1  0.3365401E-008  0.2409889E+03  0.7818608E-02  0.1119136E+00
         -2   -1    0    0    0  501 -0.00000000000E+00  0.00000000000E+00  0.11120114748E+04  0.11120114748E+04  0.25500000000E-02 0.  1.
          2   -1    0    0  501    0  0.00000000000E+00 -0.00000000000E+00 -0.20879265028E+04  0.20879265029E+04  0.25500000000E-02 0. -1.
    8880022    1    1    2    0    0 -0.18222773707E+03  0.38432490132E+02 -0.20677895924E+04  0.20817851608E+04  0.15294330000E+03 0. -1.
    8880022    1    1    2    0    0  0.18222773707E+03 -0.38432490132E+02  0.10918745644E+04  0.11181528168E+04  0.15294330000E+03 0.  0.
<mgrwt>
<rscale>  0 0.24098892E+03</rscale>
<asrwt>0</asrwt>
<pdfrwt beam="1">  1        2 0.32121946E+00 0.24098892E+03</pdfrwt>
<pdfrwt beam="2">  1       -2 0.17107869E+00 0.24098892E+03</pdfrwt>
<totfact> 0.15518134E+00</totfact>
</mgrwt>
</event>
<event>
 4    1  0.3365401E-008  0.6961533E+03  0.7818608E-02  0.9723833E-01
         -2   -1    0    0    0  501 -0.00000000000E+00  0.00000000000E+00  0.53645193979E+03  0.53645193980E+03  0.25500000000E-02 0.  1.
          2   -1    0    0  501    0  0.00000000000E+00 -0.00000000000E+00 -0.12780512766E+04  0.12780512767E+04  0.25500000000E-02 0. -1.
    8880022    1    1    2    0    0 -0.22778098966E+03  0.63980741685E+03 -0.86201129935E+03  0.11080130158E+04  0.15294330000E+03 0.  0.
    8880022    1    1    2    0    0  0.22778098966E+03 -0.63980741685E+03  0.12041196250E+03  0.70649020067E+03  0.15294330000E+03 0.  0.
<mgrwt>
<rscale>  0 0.69615326E+03</rscale>
<asrwt>0</asrwt>
<pdfrwt beam="1">  1        2 0.19662327E+00 0.69615326E+03</pdfrwt>
<pdfrwt beam="2">  1       -2 0.82531068E-01 0.69615326E+03</pdfrwt>
<totfact> 0.22521418E+01</totfact>
</mgrwt>
</event>
<event>
 4    1  0.3365401E-008  0.5405431E+03  0.7818608E-02  0.1003707E+00
          2   -1    0    0  501    0  0.00000000000E+00  0.00000000000E+00  0.21900188310E+04  0.21900188310E+04  0.25500000000E-02 0. -1.
         -2   -1    0    0    0  501 -0.00000000000E+00 -0.00000000000E+00 -0.54324762041E+03  0.54324762042E+03  0.25500000000E-02 0.  1.
    8880022    1    1    2    0    0  0.41671732459E+03 -0.30845082856E+03  0.20103972559E+04  0.20817982664E+04  0.15294330000E+03 0.  0.
    8880022    1    1    2    0    0 -0.41671732459E+03  0.30845082856E+03 -0.36362604534E+03  0.65146818503E+03  0.15294330000E+03 0.  0.
<mgrwt>
<rscale>  0 0.54054315E+03</rscale>
<asrwt>0</asrwt>
<pdfrwt beam="1">  1        2 0.33692598E+00 0.54054315E+03</pdfrwt>
<pdfrwt beam="2">  1       -2 0.83576555E-01 0.54054315E+03</pdfrwt>
<totfact> 0.71003267E+00</totfact>
</mgrwt>
</event>
<event>
 4    1  0.3365401E-008  0.7977489E+03  0.7818608E-02  0.9563281E-01
         -2   -1    0    0    0  501 -0.00000000000E+00  0.00000000000E+00  0.13460177967E+04  0.13460177967E+04  0.25500000000E-02 0.  1.
          2   -1    0    0  501    0  0.00000000000E+00 -0.00000000000E+00 -0.82977735773E+03  0.82977735773E+03  0.25500000000E-02 0. -1.
    8880022    1    1    2    0    0  0.14628451079E+03  0.76916354288E+03 -0.45543037849E+03  0.91859686286E+03  0.15294330000E+03 0.  0.
    8880022    1    1    2    0    0 -0.14628451079E+03 -0.76916354288E+03  0.97167081745E+03  0.12571982916E+04  0.15294330000E+03 0.  0.
<mgrwt>
<rscale>  0 0.79774894E+03</rscale>
<asrwt>0</asrwt>
<pdfrwt beam="1">  1        2 0.12765806E+00 0.79774894E+03</pdfrwt>
<pdfrwt beam="2">  1       -2 0.20707966E+00 0.79774894E+03</pdfrwt>
<totfact> 0.39878571E+00</totfact>
</mgrwt>
</event>
<event>
 4    1  0.3365401E-008  0.2400383E+03  0.7818608E-02  0.1119767E+00
         -2   -1    0    0    0  501 -0.00000000000E+00  0.00000000000E+00  0.15575499957E+03  0.15575499959E+03  0.25500000000E-02 0.  1.
          2   -1    0    0  501    0  0.00000000000E+00 -0.00000000000E+00 -0.75366207189E+03  0.75366207189E+03  0.25500000000E-02 0. -1.
    8880022    1    1    2    0    0 -0.38670925231E+02  0.18091787347E+03  0.25504925224E+02  0.24138946046E+03  0.15294330000E+03 0.  1.
    8880022    1    1    2    0    0  0.38670925231E+02 -0.18091787347E+03 -0.62341199754E+03  0.66802761102E+03  0.15294330000E+03 0. -1.
<mgrwt>
<rscale>  0 0.24003827E+03</rscale>
<asrwt>0</asrwt>
<pdfrwt beam="1">  1        2 0.11594801E+00 0.24003827E+03</pdfrwt>
<pdfrwt beam="2">  1       -2 0.23962308E-01 0.24003827E+03</pdfrwt>
<totfact> 0.59019801E+02</totfact>
</mgrwt>
</event>
<event>
 4    1  0.3365401E-008  0.5008609E+03  0.7818608E-02  0.1013554E+00
          2   -1    0    0  501    0  0.00000000000E+00  0.00000000000E+00  0.17381334701E+04  0.17381334701E+04  0.25500000000E-02 0. -1.
         -2   -1    0    0    0  501 -0.00000000000E+00 -0.00000000000E+00 -0.26271389766E+03  0.26271389767E+03  0.25500000000E-02 0.  1.
    8880022    1    1    2    0    0  0.36906322040E+03  0.30209661079E+03  0.66138593273E+02  0.50520885724E+03  0.15294330000E+03 0.  0.
    8880022    1    1    2    0    0 -0.36906322040E+03 -0.30209661079E+03  0.14092809791E+04  0.14956385105E+04  0.15294330000E+03 0.  0.
<mgrwt>
<rscale>  0 0.50086093E+03</rscale>
<asrwt>0</asrwt>
<pdfrwt beam="1">  1        2 0.26740515E+00 0.50086093E+03</pdfrwt>
<pdfrwt beam="2">  1       -2 0.40417523E-01 0.50086093E+03</pdfrwt>
<totfact> 0.57351142E+01</totfact>
</mgrwt>
</event>
<event>
 4    1  0.3365401E-008  0.7572418E+03  0.7818608E-02  0.9624057E-01
          2   -1    0    0  501    0  0.00000000000E+00  0.00000000000E+00  0.57375082940E+03  0.57375082940E+03  0.25500000000E-02 0. -1.
         -2   -1    0    0    0  501 -0.00000000000E+00 -0.00000000000E+00 -0.13784736339E+04  0.13784736339E+04  0.25500000000E-02 0.  1.
    8880022    1    1    2    0    0 -0.99080046790E+02 -0.73498752376E+03  0.10950159571E+03  0.76511814005E+03  0.15294330000E+03 0.  0.
    8880022    1    1    2    0    0  0.99080046790E+02  0.73498752376E+03 -0.91422440020E+03  0.11871063232E+04  0.15294330000E+03 0.  0.
<mgrwt>
<rscale>  0 0.75724182E+03</rscale>
<asrwt>0</asrwt>
<pdfrwt beam="1">  1        2 0.88269359E-01 0.75724182E+03</pdfrwt>
<pdfrwt beam="2">  1       -2 0.21207287E+00 0.75724182E+03</pdfrwt>
<totfact> 0.59350054E+00</totfact>
</mgrwt>
</event>
<event>
 4    1  0.3365401E-008  0.2479908E+03  0.7818608E-02  0.1114581E+00
         -2   -1    0    0    0  501 -0.00000000000E+00  0.00000000000E+00  0.30049555781E+03  0.30049555783E+03  0.25500000000E-02 0.  1.
          2   -1    0    0  501    0  0.00000000000E+00 -0.00000000000E+00 -0.66564635456E+03  0.66564635456E+03  0.25500000000E-02 0. -1.
    8880022    1    1    2    0    0  0.29776526057E+02 -0.19292786870E+03  0.21943114913E+03  0.33113363805E+03  0.15294330000E+03 0.  0.
    8880022    1    1    2    0    0 -0.29776526057E+02  0.19292786870E+03 -0.58458194587E+03  0.63500827434E+03  0.15294330000E+03 0.  0.
<mgrwt>
<rscale>  0 0.24799084E+03</rscale>
<asrwt>0</asrwt>
<pdfrwt beam="1">  1        2 0.10240713E+00 0.24799084E+03</pdfrwt>
<pdfrwt beam="2">  1       -2 0.46230086E-01 0.24799084E+03</pdfrwt>
<totfact> 0.20277875E+02</totfact>
</mgrwt>
</event>
<event>
 4    1  0.3365401E-008  0.5586903E+03  0.7818608E-02  0.9995023E-01
         -2   -1    0    0    0  501 -0.00000000000E+00  0.00000000000E+00  0.30914161213E+03  0.30914161214E+03  0.25500000000E-02 0.  1.
          2   -1    0    0  501    0  0.00000000000E+00 -0.00000000000E+00 -0.18788020188E+04  0.18788020188E+04  0.25500000000E-02 0. -1.
    8880022    1    1    2    0    0 -0.44305141575E+03  0.30405359970E+03 -0.15288858825E+04  0.16277674414E+04  0.15294330000E+03 0.  0.
    8880022    1    1    2    0    0  0.44305141575E+03 -0.30405359970E+03 -0.40774524133E+02  0.56017618953E+03  0.15294330000E+03 0.  0.
<mgrwt>
<rscale>  0 0.55869026E+03</rscale>
<asrwt>0</asrwt>
<pdfrwt beam="1">  1        2 0.28904646E+00 0.55869026E+03</pdfrwt>
<pdfrwt beam="2">  1       -2 0.47560249E-01 0.55869026E+03</pdfrwt>
<totfact> 0.34598622E+01</totfact>
</mgrwt>
</event>
<event>
 4    1  0.3365401E-008  0.3323607E+03  0.7818608E-02  0.1070097E+00
         -2   -1    0    0    0  501 -0.00000000000E+00  0.00000000000E+00  0.65425979936E+03  0.65425979936E+03  0.25500000000E-02 0.  1.
          2   -1    0    0  501    0  0.00000000000E+00 -0.00000000000E+00 -0.87793115089E+03  0.87793115089E+03  0.25500000000E-02 0. -1.
    8880022    1    1    2    0    0 -0.45078665383E+02  0.29161597885E+03  0.57666512926E+03  0.66558717649E+03  0.15294330000E+03 0.  0.
    8880022    1    1    2    0    0  0.45078665383E+02 -0.29161597885E+03 -0.80033648079E+03  0.86660377376E+03  0.15294330000E+03 0.  0.
<mgrwt>
<rscale>  0 0.33236067E+03</rscale>
<asrwt>0</asrwt>
<pdfrwt beam="1">  1        2 0.13506633E+00 0.33236067E+03</pdfrwt>
<pdfrwt beam="2">  1       -2 0.10065535E+00 0.33236067E+03</pdfrwt>
<totfact> 0.26566231E+01</totfact>
</mgrwt>
</event>
<event>
 4    1  0.3365401E-008  0.3255278E+03  0.7818608E-02  0.1073133E+00
         -2   -1    0    0    0  501 -0.00000000000E+00  0.00000000000E+00  0.19806587996E+03  0.19806587997E+03  0.25500000000E-02 0.  1.
          2   -1    0    0  501    0  0.00000000000E+00 -0.00000000000E+00 -0.14656125227E+04  0.14656125227E+04  0.25500000000E-02 0. -1.
    8880022    1    1    2    0    0 -0.75048066626E+02 -0.27738869709E+03  0.29069539731E+02  0.32682318268E+03  0.15294330000E+03 0.  0.
    8880022    1    1    2    0    0  0.75048066626E+02  0.27738869709E+03 -0.12966161825E+04  0.13368552200E+04  0.15294330000E+03 0.  0.
<mgrwt>
<rscale>  0 0.32552781E+03</rscale>
<asrwt>0</asrwt>
<pdfrwt beam="1">  1        2 0.22547884E+00 0.32552781E+03</pdfrwt>
<pdfrwt beam="2">  1       -2 0.30471675E-01 0.32552781E+03</pdfrwt>
<totfact> 0.14144426E+02</totfact>
</mgrwt>
</event>
<event>
 4    1  0.3365401E-008  0.5054346E+03  0.7818608E-02  0.1012370E+00
         -2   -1    0    0    0  501 -0.00000000000E+00  0.00000000000E+00  0.10006614337E+04  0.10006614337E+04  0.25500000000E-02 0.  1.
          2   -1    0    0  501    0  0.00000000000E+00 -0.00000000000E+00 -0.87592456611E+03  0.87592456612E+03  0.25500000000E-02 0. -1.
    8880022    1    1    2    0    0 -0.48014146520E+03 -0.39200199239E+02 -0.72743907352E+03  0.88579441233E+03  0.15294330000E+03 0.  0.
    8880022    1    1    2    0    0  0.48014146520E+03  0.39200199239E+02  0.85217594112E+03  0.99079158751E+03  0.15294330000E+03 0.  0.
<mgrwt>
<rscale>  0 0.50543460E+03</rscale>
<asrwt>0</asrwt>
<pdfrwt beam="1">  1        2 0.13475763E+00 0.50543460E+03</pdfrwt>
<pdfrwt beam="2">  1       -2 0.15394791E+00 0.50543460E+03</pdfrwt>
<totfact> 0.89730097E+00</totfact>
</mgrwt>
</event>
<event>
 4    1  0.3365401E-008  0.2486130E+03  0.7818608E-02  0.1114185E+00
          2   -1    0    0  501    0  0.00000000000E+00  0.00000000000E+00  0.12004693467E+04  0.12004693467E+04  0.25500000000E-02 0. -1.
         -2   -1    0    0    0  501 -0.00000000000E+00 -0.00000000000E+00 -0.10080614099E+03  0.10080614103E+03  0.25500000000E-02 0.  1.
    8880022    1    1    2    0    0 -0.10687634636E+02  0.19571036662E+03  0.94734552580E+02  0.26605086282E+03  0.15294330000E+03 0.  0.
    8880022    1    1    2    0    0  0.10687634636E+02 -0.19571036662E+03  0.10049286532E+04  0.10352246250E+04  0.15294330000E+03 0.  0.
<mgrwt>
<rscale>  0 0.24861300E+03</rscale>
<asrwt>0</asrwt>
<pdfrwt beam="1">  1        2 0.18468759E+00 0.24861300E+03</pdfrwt>
<pdfrwt beam="2">  1       -2 0.15508638E-01 0.24861300E+03</pdfrwt>
<totfact> 0.65030853E+02</totfact>
</mgrwt>
</event>
<event>
 4    1  0.3365401E-008  0.4558701E+03  0.7818608E-02  0.1025986E+00
          2   -1    0    0  501    0  0.00000000000E+00  0.00000000000E+00  0.65919249422E+03  0.65919249422E+03  0.25500000000E-02 0. -1.
         -2   -1    0    0    0  501 -0.00000000000E+00 -0.00000000000E+00 -0.73388790697E+03  0.73388790697E+03  0.25500000000E-02 0.  1.
    8880022    1    1    2    0    0 -0.15198359266E+03  0.40165516448E+03 -0.56341948815E+03  0.72474758105E+03  0.15294330000E+03 0.  0.
    8880022    1    1    2    0    0  0.15198359266E+03 -0.40165516448E+03  0.48872407540E+03  0.66833282015E+03  0.15294330000E+03 0.  0.
<mgrwt>
<rscale>  0 0.45587009E+03</rscale>
<asrwt>0</asrwt>
<pdfrwt beam="1">  1        2 0.10141423E+00 0.45587009E+03</pdfrwt>
<pdfrwt beam="2">  1       -2 0.11290583E+00 0.45587009E+03</pdfrwt>
<totfact> 0.28500475E+01</totfact>
</mgrwt>
</event>
<event>
 4    1  0.3365401E-008  0.3843295E+03  0.7818608E-02  0.1049345E+00
          2   -1    0    0  501    0  0.00000000000E+00  0.00000000000E+00  0.20829843546E+04  0.20829843546E+04  0.25500000000E-02 0. -1.
         -2   -1    0    0    0  501 -0.00000000000E+00 -0.00000000000E+00 -0.26771945209E+03  0.26771945211E+03  0.25500000000E-02 0.  1.
    8880022    1    1    2    0    0  0.35242508120E+03 -0.10678812230E+02  0.19153723042E+04  0.19535506627E+04  0.15294330000E+03 0. -1.
    8880022    1    1    2    0    0 -0.35242508120E+03  0.10678812230E+02 -0.10010740174E+03  0.39715314400E+03  0.15294330000E+03 0.  0.
<mgrwt>
<rscale>  0 0.38432945E+03</rscale>
<asrwt>0</asrwt>
<pdfrwt beam="1">  1        2 0.32045914E+00 0.38432945E+03</pdfrwt>
<pdfrwt beam="2">  1       -2 0.41187607E-01 0.38432945E+03</pdfrwt>
<totfact> 0.37018934E+01</totfact>
</mgrwt>
</event>
<event>
 4    1  0.3365401E-008  0.7177247E+03  0.7818608E-02  0.9687392E-01
          2   -1    0    0  501    0  0.00000000000E+00  0.00000000000E+00  0.32279972691E+03  0.32279972692E+03  0.25500000000E-02 0. -1.
         -2   -1    0    0    0  501 -0.00000000000E+00 -0.00000000000E+00 -0.29155371215E+04  0.29155371215E+04  0.25500000000E-02 0.  1.
    8880022    1    1    2    0    0 -0.59496416768E+03  0.37115318450E+03 -0.20700233973E+03  0.74697969775E+03  0.15294330000E+03 0.  0.
    8880022    1    1    2    0    0  0.59496416768E+03 -0.37115318450E+03 -0.23857350548E+04  0.24913571506E+04  0.15294330000E+03 0.  0.
<mgrwt>
<rscale>  0 0.71772467E+03</rscale>
<asrwt>0</asrwt>
<pdfrwt beam="1">  1        2 0.49661499E-01 0.71772467E+03</pdfrwt>
<pdfrwt beam="2">  1       -2 0.44854415E+00 0.71772467E+03</pdfrwt>
<totfact> 0.38474338E-01</totfact>
</mgrwt>
</event>
<event>
 4    1  0.3365401E-008  0.2626945E+03  0.7818608E-02  0.1105535E+00
         -2   -1    0    0    0  501 -0.00000000000E+00  0.00000000000E+00  0.11413371437E+03  0.11413371440E+03  0.25500000000E-02 0.  1.
          2   -1    0    0  501    0  0.00000000000E+00 -0.00000000000E+00 -0.12396506534E+04  0.12396506534E+04  0.25500000000E-02 0. -1.
    8880022    1    1    2    0    0 -0.16452570555E+03  0.13619111546E+03 -0.10472259465E+04  0.10796715074E+04  0.15294330000E+03 0.  0.
    8880022    1    1    2    0    0  0.16452570555E+03 -0.13619111546E+03 -0.78290992447E+02  0.27411286039E+03  0.15294330000E+03 0.  1.
<mgrwt>
<rscale>  0 0.26269446E+03</rscale>
<asrwt>0</asrwt>
<pdfrwt beam="1">  1        2 0.19071548E+00 0.26269446E+03</pdfrwt>
<pdfrwt beam="2">  1       -2 0.17559034E-01 0.26269446E+03</pdfrwt>
<totfact> 0.50119829E+02</totfact>
</mgrwt>
</event>
<event>
 4    1  0.3365401E-008  0.4579359E+03  0.7818608E-02  0.1025382E+00
          2   -1    0    0  501    0  0.00000000000E+00  0.00000000000E+00  0.39479471620E+04  0.39479471620E+04  0.25500000000E-02 0. -1.
         -2   -1    0    0    0  501 -0.00000000000E+00 -0.00000000000E+00 -0.12671258870E+03  0.12671258873E+03  0.25500000000E-02 0.  1.
    8880022    1    1    2    0    0 -0.34772756826E+03 -0.25573253685E+03  0.35795942148E+03  0.58124021934E+03  0.15294330000E+03 0.  0.
    8880022    1    1    2    0    0  0.34772756826E+03  0.25573253685E+03  0.34632751518E+04  0.34934195314E+04  0.15294330000E+03 0.  0.
<mgrwt>
<rscale>  0 0.45793585E+03</rscale>
<asrwt>0</asrwt>
<pdfrwt beam="1">  1        2 0.60737651E+00 0.45793585E+03</pdfrwt>
<pdfrwt beam="2">  1       -2 0.19494244E-01 0.45793585E+03</pdfrwt>
<totfact> 0.99758203E+00</totfact>
</mgrwt>
</event>
<event>
 4    1  0.3365401E-008  0.2272742E+03  0.7818608E-02  0.1128573E+00
         -2   -1    0    0    0  501 -0.00000000000E+00  0.00000000000E+00  0.75100596889E+02  0.75100596933E+02  0.25500000000E-02 0.  1.
          2   -1    0    0  501    0  0.00000000000E+00 -0.00000000000E+00 -0.13184737331E+04  0.13184737331E+04  0.25500000000E-02 0. -1.
    8880022    1    1    2    0    0 -0.48665191867E+01 -0.16804229085E+03 -0.13977237077E+03  0.26681428591E+03  0.15294330000E+03 0.  1.
    8880022    1    1    2    0    0  0.48665191867E+01  0.16804229085E+03 -0.11036007654E+04  0.11267600441E+04  0.15294330000E+03 0.  0.
<mgrwt>
<rscale>  0 0.22727417E+03</rscale>
<asrwt>0</asrwt>
<pdfrwt beam="1">  1        2 0.20284210E+00 0.22727417E+03</pdfrwt>
<pdfrwt beam="2">  1       -2 0.11553939E-01 0.22727417E+03</pdfrwt>
<totfact> 0.90603007E+02</totfact>
</mgrwt>
</event>
<event>
 4    1  0.3365401E-008  0.3533853E+03  0.7818608E-02  0.1061234E+00
          2   -1    0    0  501    0  0.00000000000E+00  0.00000000000E+00  0.11172478654E+04  0.11172478654E+04  0.25500000000E-02 0. -1.
         -2   -1    0    0    0  501 -0.00000000000E+00 -0.00000000000E+00 -0.14114582641E+03  0.14114582644E+03  0.25500000000E-02 0.  1.
    8880022    1    1    2    0    0 -0.21649916490E+03 -0.23370408983E+03  0.77506665199E+03  0.85182712920E+03  0.15294330000E+03 0.  0.
    8880022    1    1    2    0    0  0.21649916490E+03  0.23370408983E+03  0.20103538697E+03  0.40656656261E+03  0.15294330000E+03 0.  0.
<mgrwt>
<rscale>  0 0.35338526E+03</rscale>
<asrwt>0</asrwt>
<pdfrwt beam="1">  1        2 0.17188429E+00 0.35338526E+03</pdfrwt>
<pdfrwt beam="2">  1       -2 0.21714743E-01 0.35338526E+03</pdfrwt>
<totfact> 0.40572040E+02</totfact>
</mgrwt>
</event>
<event>
 4    1  0.3365401E-008  0.6056800E+03  0.7818608E-02  0.9893692E-01
         -2   -1    0    0    0  501 -0.00000000000E+00  0.00000000000E+00  0.28585904077E+04  0.28585904077E+04  0.25500000000E-02 0.  1.
          2   -1    0    0  501    0  0.00000000000E+00 -0.00000000000E+00 -0.57348433457E+03  0.57348433458E+03  0.25500000000E-02 0. -1.
    8880022    1    1    2    0    0 -0.61596772547E+02  0.58280563133E+03 -0.36933753502E+03  0.70940710039E+03  0.15294330000E+03 0.  0.
    8880022    1    1    2    0    0  0.61596772547E+02 -0.58280563133E+03  0.26544436081E+04  0.27226676418E+04  0.15294330000E+03 0.  0.
<mgrwt>
<rscale>  0 0.60567996E+03</rscale>
<asrwt>0</asrwt>
<pdfrwt beam="1">  1        2 0.88228357E-01 0.60567996E+03</pdfrwt>
<pdfrwt beam="2">  1       -2 0.43978315E+00 0.60567996E+03</pdfrwt>
<totfact> 0.23461505E-01</totfact>
</mgrwt>
</event>
<event>
 4    1  0.3365401E-008  0.9340632E+03  0.7818608E-02  0.9383975E-01
          2   -1    0    0  501    0  0.00000000000E+00  0.00000000000E+00  0.28041888342E+04  0.28041888342E+04  0.25500000000E-02 0. -1.
         -2   -1    0    0    0  501 -0.00000000000E+00 -0.00000000000E+00 -0.32651431494E+03  0.32651431495E+03  0.25500000000E-02 0.  1.
    8880022    1    1    2    0    0 -0.89381419545E+03  0.22400594455E+03  0.15785918466E+04  0.18342372666E+04  0.15294330000E+03 0.  0.
    8880022    1    1    2    0    0  0.89381419545E+03 -0.22400594455E+03  0.89908267261E+03  0.12964658825E+04  0.15294330000E+03 0.  0.
<mgrwt>
<rscale>  0 0.93406324E+03</rscale>
<asrwt>0</asrwt>
<pdfrwt beam="1">  1        2 0.43141365E+00 0.93406324E+03</pdfrwt>
<pdfrwt beam="2">  1       -2 0.50232973E-01 0.93406324E+03</pdfrwt>
<totfact> 0.88555346E+00</totfact>
</mgrwt>
</event>
<event>
 4    1  0.3365401E-008  0.3999045E+03  0.7818608E-02  0.1043813E+00
         -2   -1    0    0    0  501 -0.00000000000E+00  0.00000000000E+00  0.34839790709E+03  0.34839790710E+03  0.25500000000E-02 0.  1.
          2   -1    0    0  501    0  0.00000000000E+00 -0.00000000000E+00 -0.14527926963E+04  0.14527926963E+04  0.25500000000E-02 0. -1.
    8880022    1    1    2    0    0 -0.27197791037E+03 -0.25011989172E+03 -0.12970496470E+04  0.13572992978E+04  0.15294330000E+03 0.  0.
    8880022    1    1    2    0    0  0.27197791037E+03  0.25011989172E+03  0.19265485779E+03  0.44389130562E+03  0.15294330000E+03 0.  0.
<mgrwt>
<rscale>  0 0.39990448E+03</rscale>
<asrwt>0</asrwt>
<pdfrwt beam="1">  1        2 0.22350657E+00 0.39990448E+03</pdfrwt>
<pdfrwt beam="2">  1       -2 0.53599679E-01 0.39990448E+03</pdfrwt>
<totfact> 0.47535853E+01</totfact>
</mgrwt>
</event>
<event>
 4    1  0.3365401E-008  0.2902957E+03  0.7818608E-02  0.1090195E+00
         -2   -1    0    0    0  501 -0.00000000000E+00  0.00000000000E+00  0.80162084051E+03  0.80162084052E+03  0.25500000000E-02 0.  1.
          2   -1    0    0  501    0  0.00000000000E+00 -0.00000000000E+00 -0.24145669495E+03  0.24145669497E+03  0.25500000000E-02 0. -1.
    8880022    1    1    2    0    0  0.21519284562E+03  0.12071447622E+03 -0.11180685021E+03  0.31108257802E+03  0.15294330000E+03 0.  0.
    8880022    1    1    2    0    0 -0.21519284562E+03 -0.12071447622E+03  0.67197099577E+03  0.73199495747E+03  0.15294330000E+03 0.  1.
<mgrwt>
<rscale>  0 0.29029571E+03</rscale>
<asrwt>0</asrwt>
<pdfrwt beam="1">  1        2 0.37147184E-01 0.29029571E+03</pdfrwt>
<pdfrwt beam="2">  1       -2 0.12332628E+00 0.29029571E+03</pdfrwt>
<totfact> 0.72387165E+01</totfact>
</mgrwt>
</event>
<event>
 4    1  0.3365401E-008  0.2148484E+03  0.7818608E-02  0.1137783E+00
         -2   -1    0    0    0  501 -0.00000000000E+00  0.00000000000E+00  0.21952523118E+02  0.21952523266E+02  0.25500000000E-02 0.  1.
          2   -1    0    0  501    0  0.00000000000E+00 -0.00000000000E+00 -0.29595799969E+04  0.29595799969E+04  0.25500000000E-02 0. -1.
    8880022    1    1    2    0    0 -0.14446819139E+03 -0.43555943539E+02 -0.66667128296E+03  0.70043588649E+03  0.15294330000E+03 0.  1.
    8880022    1    1    2    0    0  0.14446819139E+03  0.43555943539E+02 -0.22709561908E+04  0.22810966337E+04  0.15294330000E+03 0. -1.
<mgrwt>
<rscale>  0 0.21484839E+03</rscale>
<asrwt>0</asrwt>
<pdfrwt beam="1">  1        2 0.45531968E+00 0.21484839E+03</pdfrwt>
<pdfrwt beam="2">  1       -2 0.33773136E-02 0.21484839E+03</pdfrwt>
<totfact> 0.79045880E+02</totfact>
</mgrwt>
</event>
<event>
 4    1  0.3365401E-008  0.1826807E+03  0.7818608E-02  0.1165234E+00
         -2   -1    0    0    0  501 -0.00000000000E+00  0.00000000000E+00  0.61926730168E+03  0.61926730169E+03  0.25500000000E-02 0.  1.
          2   -1    0    0  501    0  0.00000000000E+00 -0.00000000000E+00 -0.37119513644E+03  0.37119513645E+03  0.25500000000E-02 0. -1.
    8880022    1    1    2    0    0 -0.99901341148E+02 -0.56722807710E+00 -0.33383740353E+03  0.38055178980E+03  0.15294330000E+03 0. -1.
    8880022    1    1    2    0    0  0.99901341148E+02  0.56722807710E+00  0.58190956877E+03  0.60991064833E+03  0.15294330000E+03 0.  0.
<mgrwt>
<rscale>  0 0.18268074E+03</rscale>
<asrwt>0</asrwt>
<pdfrwt beam="1">  1        2 0.57106945E-01 0.18268074E+03</pdfrwt>
<pdfrwt beam="2">  1       -2 0.95271891E-01 0.18268074E+03</pdfrwt>
<totfact> 0.85093400E+01</totfact>
</mgrwt>
</event>
<event>
 4    1  0.3365401E-008  0.1799655E+04  0.7818608E-02  0.8706483E-01
          2   -1    0    0  501    0  0.00000000000E+00  0.00000000000E+00  0.37374211262E+04  0.37374211262E+04  0.25500000000E-02 0. -1.
         -2   -1    0    0    0  501 -0.00000000000E+00 -0.00000000000E+00 -0.12373344327E+04  0.12373344327E+04  0.25500000000E-02 0.  1.
    8880022    1    1    2    0    0  0.16523381062E+04 -0.69652420570E+03 -0.11153869718E+03  0.18031083495E+04  0.15294330000E+03 0.  0.
    8880022    1    1    2    0    0 -0.16523381062E+04  0.69652420570E+03  0.26116253906E+04  0.31716472093E+04  0.15294330000E+03 0.  0.
<mgrwt>
<rscale>  0 0.17996552E+04</rscale>
<asrwt>0</asrwt>
<pdfrwt beam="1">  1        2 0.57498787E+00 0.17996552E+04</pdfrwt>
<pdfrwt beam="2">  1       -2 0.19035914E+00 0.17996552E+04</pdfrwt>
<totfact> 0.77320892E-02</totfact>
</mgrwt>
</event>
<event>
 4    1  0.3365401E-008  0.1476653E+04  0.7818608E-02  0.8900128E-01
          2   -1    0    0  501    0  0.00000000000E+00  0.00000000000E+00  0.24819173667E+04  0.24819173667E+04  0.25500000000E-02 0. -1.
         -2   -1    0    0    0  501 -0.00000000000E+00 -0.00000000000E+00 -0.12231707528E+04  0.12231707528E+04  0.25500000000E-02 0.  1.
    8880022    1    1    2    0    0 -0.11765282959E+04  0.87914387161E+03  0.16126860585E+04  0.21866094197E+04  0.15294330000E+03 0.  0.
    8880022    1    1    2    0    0  0.11765282959E+04 -0.87914387161E+03 -0.35393944465E+03  0.15184786997E+04  0.15294330000E+03 0.  0.
<mgrwt>
<rscale>  0 0.14766531E+04</rscale>
<asrwt>0</asrwt>
<pdfrwt beam="1">  1        2 0.38183344E+00 0.14766531E+04</pdfrwt>
<pdfrwt beam="2">  1       -2 0.18818012E+00 0.14766531E+04</pdfrwt>
<totfact> 0.53613404E-01</totfact>
</mgrwt>
</event>
<event>
 4    1  0.3365401E-008  0.6772161E+03  0.7818608E-02  0.9757009E-01
         -2   -1    0    0    0  501 -0.00000000000E+00  0.00000000000E+00  0.19756922654E+03  0.19756922656E+03  0.25500000000E-02 0.  1.
          2   -1    0    0  501    0  0.00000000000E+00 -0.00000000000E+00 -0.26124952149E+04  0.26124952149E+04  0.25500000000E-02 0. -1.
    8880022    1    1    2    0    0  0.26098732406E+02  0.65920324382E+03 -0.16765296260E+04  0.18081408409E+04  0.15294330000E+03 0.  0.
    8880022    1    1    2    0    0 -0.26098732406E+02 -0.65920324382E+03 -0.73839636235E+03  0.10019236006E+04  0.15294330000E+03 0.  0.
<mgrwt>
<rscale>  0 0.67721615E+03</rscale>
<asrwt>0</asrwt>
<pdfrwt beam="1">  1        2 0.40192232E+00 0.67721615E+03</pdfrwt>
<pdfrwt beam="2">  1       -2 0.30395268E-01 0.67721615E+03</pdfrwt>
<totfact> 0.31664395E+01</totfact>
</mgrwt>
</event>
<event>
 4    1  0.3365401E-008  0.4346077E+03  0.7818608E-02  0.1032414E+00
         -2   -1    0    0    0  501 -0.00000000000E+00  0.00000000000E+00  0.14611444483E+04  0.14611444483E+04  0.25500000000E-02 0.  1.
          2   -1    0    0  501    0  0.00000000000E+00 -0.00000000000E+00 -0.67235799982E+03  0.67235799983E+03  0.25500000000E-02 0. -1.
    8880022    1    1    2    0    0 -0.99071943512E+02  0.39455914179E+03 -0.56433940027E+03  0.71229402502E+03  0.15294330000E+03 0.  0.
    8880022    1    1    2    0    0  0.99071943512E+02 -0.39455914179E+03  0.13531258488E+04  0.14212084232E+04  0.15294330000E+03 0.  1.
<mgrwt>
<rscale>  0 0.43460766E+03</rscale>
<asrwt>0</asrwt>
<pdfrwt beam="1">  1        2 0.10343969E+00 0.43460766E+03</pdfrwt>
<pdfrwt beam="2">  1       -2 0.22479145E+00 0.43460766E+03</pdfrwt>
<totfact> 0.43093672E+00</totfact>
</mgrwt>
</event>
<event>
 4    1  0.3365401E-008  0.1046202E+04  0.7818608E-02  0.9259274E-01
          2   -1    0    0  501    0  0.00000000000E+00  0.00000000000E+00  0.13509192662E+04  0.13509192662E+04  0.25500000000E-02 0. -1.
         -2   -1    0    0    0  501 -0.00000000000E+00 -0.00000000000E+00 -0.11060482991E+04  0.11060482991E+04  0.25500000000E-02 0.  1.
    8880022    1    1    2    0    0  0.61999488508E+03  0.82870610058E+03 -0.51290086814E+03  0.11651636847E+04  0.15294330000E+03 0.  0.
    8880022    1    1    2    0    0 -0.61999488508E+03 -0.82870610058E+03  0.75777183523E+03  0.12918038806E+04  0.15294330000E+03 0. -1.
<mgrwt>
<rscale>  0 0.10462022E+04</rscale>
<asrwt>0</asrwt>
<pdfrwt beam="1">  1        2 0.20783373E+00 0.10462022E+04</pdfrwt>
<pdfrwt beam="2">  1       -2 0.17016128E+00 0.10462022E+04</pdfrwt>
<totfact> 0.32385696E+00</totfact>
</mgrwt>
</event>
<event>
 4    1  0.3365401E-008  0.2575173E+03  0.7818608E-02  0.1108644E+00
         -2   -1    0    0    0  501 -0.00000000000E+00  0.00000000000E+00  0.47352909574E+03  0.47352909575E+03  0.25500000000E-02 0.  1.
          2   -1    0    0  501    0  0.00000000000E+00 -0.00000000000E+00 -0.19199224738E+04  0.19199224738E+04  0.25500000000E-02 0. -1.
    8880022    1    1    2    0    0  0.12311100222E+03  0.16663485857E+03 -0.18754498707E+04  0.18930471113E+04  0.15294330000E+03 0.  0.
    8880022    1    1    2    0    0 -0.12311100222E+03 -0.16663485857E+03  0.42905649265E+03  0.50040445827E+03  0.15294330000E+03 0.  1.
<mgrwt>
<rscale>  0 0.25751728E+03</rscale>
<asrwt>0</asrwt>
<pdfrwt beam="1">  1        2 0.29537268E+00 0.25751728E+03</pdfrwt>
<pdfrwt beam="2">  1       -2 0.72850631E-01 0.25751728E+03</pdfrwt>
<totfact> 0.14658938E+01</totfact>
</mgrwt>
</event>
<event>
 4    1  0.3365401E-008  0.1558822E+04  0.7818608E-02  0.8846252E-01
          2   -1    0    0  501    0  0.00000000000E+00  0.00000000000E+00  0.16820936997E+04  0.16820936998E+04  0.25500000000E-02 0. -1.
         -2   -1    0    0    0  501 -0.00000000000E+00 -0.00000000000E+00 -0.18284231376E+04  0.18284231376E+04  0.25500000000E-02 0.  1.
    8880022    1    1    2    0    0 -0.15470975618E+04 -0.11412099504E+03  0.73105955670E+03  0.17217358089E+04  0.15294330000E+03 0.  0.
    8880022    1    1    2    0    0  0.15470975618E+04  0.11412099504E+03 -0.87738899459E+03  0.17887810285E+04  0.15294330000E+03 0.  0.
<mgrwt>
<rscale>  0 0.15588220E+04</rscale>
<asrwt>0</asrwt>
<pdfrwt beam="1">  1        2 0.25878364E+00 0.15588220E+04</pdfrwt>
<pdfrwt beam="2">  1       -2 0.28129587E+00 0.15588220E+04</pdfrwt>
<totfact> 0.38726420E-01</totfact>
</mgrwt>
</event>
<event>
 4    1  0.3365401E-008  0.1751490E+03  0.7818608E-02  0.1172582E+00
          2   -1    0    0  501    0  0.00000000000E+00  0.00000000000E+00  0.81151335282E+03  0.81151335283E+03  0.25500000000E-02 0. -1.
         -2   -1    0    0    0  501 -0.00000000000E+00 -0.00000000000E+00 -0.71605539124E+02  0.71605539170E+02  0.25500000000E-02 0.  1.
    8880022    1    1    2    0    0 -0.11316488333E+02  0.84601757602E+02  0.67333898824E+03  0.69574605022E+03  0.15294330000E+03 0. -1.
    8880022    1    1    2    0    0  0.11316488333E+02 -0.84601757602E+02  0.66568825459E+02  0.18737284178E+03  0.15294330000E+03 0.  0.
<mgrwt>
<rscale>  0 0.17514900E+03</rscale>
<asrwt>0</asrwt>
<pdfrwt beam="1">  1        2 0.12484822E+00 0.17514900E+03</pdfrwt>
<pdfrwt beam="2">  1       -2 0.11016236E-01 0.17514900E+03</pdfrwt>
<totfact> 0.19651659E+03</totfact>
</mgrwt>
</event>
<event>
 4    1  0.3365401E-008  0.8648843E+03  0.7818608E-02  0.9470575E-01
          2   -1    0    0  501    0  0.00000000000E+00  0.00000000000E+00  0.33291688371E+04  0.33291688371E+04  0.25500000000E-02 0. -1.
         -2   -1    0    0    0  501 -0.00000000000E+00 -0.00000000000E+00 -0.63357052677E+03  0.63357052678E+03  0.25500000000E-02 0.  1.
    8880022    1    1    2    0    0  0.77507538079E+03 -0.35198199848E+03 -0.24392284989E+03  0.89862293699E+03  0.15294330000E+03 0.  0.
    8880022    1    1    2    0    0 -0.77507538079E+03  0.35198199848E+03  0.29395211602E+04  0.30641164269E+04  0.15294330000E+03 0.  0.
<mgrwt>
<rscale>  0 0.86488428E+03</rscale>
<asrwt>0</asrwt>
<pdfrwt beam="1">  1        2 0.51217982E+00 0.86488428E+03</pdfrwt>
<pdfrwt beam="2">  1       -2 0.97472389E-01 0.86488428E+03</pdfrwt>
<totfact> 0.98533447E-01</totfact>
</mgrwt>
</event>
<event>
 4    1  0.3365401E-008  0.5452253E+03  0.7818608E-02  0.1002605E+00
          2   -1    0    0  501    0  0.00000000000E+00  0.00000000000E+00  0.18593411039E+04  0.18593411039E+04  0.25500000000E-02 0. -1.
         -2   -1    0    0    0  501 -0.00000000000E+00 -0.00000000000E+00 -0.36889922483E+03  0.36889922484E+03  0.25500000000E-02 0.  1.
    8880022    1    1    2    0    0  0.22379337285E+03 -0.47307031542E+03 -0.93411639462E+02  0.55316939943E+03  0.15294330000E+03 0.  0.
    8880022    1    1    2    0    0 -0.22379337285E+03  0.47307031542E+03  0.15838535185E+04  0.16750709293E+04  0.15294330000E+03 0.  0.
<mgrwt>
<rscale>  0 0.54522532E+03</rscale>
<asrwt>0</asrwt>
<pdfrwt beam="1">  1        2 0.28605248E+00 0.54522532E+03</pdfrwt>
<pdfrwt beam="2">  1       -2 0.56753726E-01 0.54522532E+03</pdfrwt>
<totfact> 0.24765765E+01</totfact>
</mgrwt>
</event>
<event>
 4    1  0.3365401E-008  0.6864542E+03  0.7818608E-02  0.9740682E-01
         -2   -1    0    0    0  501 -0.00000000000E+00  0.00000000000E+00  0.76474199031E+03  0.76474199031E+03  0.25500000000E-02 0.  1.
          2   -1    0    0  501    0  0.00000000000E+00 -0.00000000000E+00 -0.10439040046E+04  0.10439040046E+04  0.25500000000E-02 0. -1.
    8880022    1    1    2    0    0 -0.53904115938E+03 -0.39656318195E+03  0.43928049339E+03  0.81497652339E+03  0.15294330000E+03 0.  0.
    8880022    1    1    2    0    0  0.53904115938E+03  0.39656318195E+03 -0.71844250767E+03  0.99366947151E+03  0.15294330000E+03 0.  0.
<mgrwt>
<rscale>  0 0.68645421E+03</rscale>
<asrwt>0</asrwt>
<pdfrwt beam="1">  1        2 0.16060062E+00 0.68645421E+03</pdfrwt>
<pdfrwt beam="2">  1       -2 0.11765261E+00 0.68645421E+03</pdfrwt>
<totfact> 0.13501029E+01</totfact>
</mgrwt>
</event>
<event>
 4    1  0.3365401E-008  0.1666577E+03  0.7818608E-02  0.1181379E+00
         -2   -1    0    0    0  501 -0.00000000000E+00  0.00000000000E+00  0.10902147280E+04  0.10902147280E+04  0.25500000000E-02 0.  1.
          2   -1    0    0  501    0  0.00000000000E+00 -0.00000000000E+00 -0.45965520556E+02  0.45965520626E+02  0.25500000000E-02 0. -1.
    8880022    1    1    2    0    0  0.65141839476E+02 -0.11817874464E+02  0.90140686872E+03  0.91668376085E+03  0.15294330000E+03 0.  1.
    8880022    1    1    2    0    0 -0.65141839476E+02  0.11817874464E+02  0.14284233876E+03  0.21949648782E+03  0.15294330000E+03 0.  0.
<mgrwt>
<rscale>  0 0.16665766E+03</rscale>
<asrwt>0</asrwt>
<pdfrwt beam="1">  1        2 0.70716185E-02 0.16665766E+03</pdfrwt>
<pdfrwt beam="2">  1       -2 0.16772534E+00 0.16665766E+03</pdfrwt>
<totfact> 0.23440815E+02</totfact>
</mgrwt>
</event>
<event>
 4    1  0.3365401E-008  0.3209434E+03  0.7818608E-02  0.1075216E+00
         -2   -1    0    0    0  501 -0.00000000000E+00  0.00000000000E+00  0.12532575698E+03  0.12532575700E+03  0.25500000000E-02 0.  1.
          2   -1    0    0  501    0  0.00000000000E+00 -0.00000000000E+00 -0.17676402419E+04  0.17676402419E+04  0.25500000000E-02 0. -1.
    8880022    1    1    2    0    0 -0.17949108014E+03  0.21770613173E+03 -0.12884362686E+03  0.34584005095E+03  0.15294330000E+03 0.  0.
    8880022    1    1    2    0    0  0.17949108014E+03 -0.21770613173E+03 -0.15134708581E+04  0.15471259480E+04  0.15294330000E+03 0. -1.
<mgrwt>
<rscale>  0 0.32094339E+03</rscale>
<asrwt>0</asrwt>
<pdfrwt beam="1">  1        2 0.27194463E+00 0.32094339E+03</pdfrwt>
<pdfrwt beam="2">  1       -2 0.19280887E-01 0.32094339E+03</pdfrwt>
<totfact> 0.21957914E+02</totfact>
</mgrwt>
</event>
<event>
 4    1  0.3365401E-008  0.3494936E+03  0.7818608E-02  0.1062823E+00
         -2   -1    0    0    0  501 -0.00000000000E+00  0.00000000000E+00  0.35300477177E+03  0.35300477178E+03  0.25500000000E-02 0.  1.
          2   -1    0    0  501    0  0.00000000000E+00 -0.00000000000E+00 -0.13539392273E+04  0.13539392273E+04  0.25500000000E-02 0. -1.
    8880022    1    1    2    0    0  0.11076550087E+03 -0.29408358757E+03  0.23591467962E+03  0.42166520100E+03  0.15294330000E+03 0.  1.
    8880022    1    1    2    0    0 -0.11076550087E+03  0.29408358757E+03 -0.12368491351E+04  0.12852787981E+04  0.15294330000E+03 0.  0.
<mgrwt>
<rscale>  0 0.34949364E+03</rscale>
<asrwt>0</asrwt>
<pdfrwt beam="1">  1        2 0.20829834E+00 0.34949364E+03</pdfrwt>
<pdfrwt beam="2">  1       -2 0.54308427E-01 0.34949364E+03</pdfrwt>
<totfact> 0.53009600E+01</totfact>
</mgrwt>
</event>
<event>
 4    1  0.3365401E-008  0.2734230E+03  0.7818608E-02  0.1099336E+00
         -2   -1    0    0    0  501 -0.00000000000E+00  0.00000000000E+00  0.15630543089E+04  0.15630543089E+04  0.25500000000E-02 0.  1.
          2   -1    0    0  501    0  0.00000000000E+00 -0.00000000000E+00 -0.36781255677E+03  0.36781255678E+03  0.25500000000E-02 0. -1.
    8880022    1    1    2    0    0  0.14675426259E+03 -0.17271848931E+03  0.14980976881E+04  0.15228449777E+04  0.15294330000E+03 0.  0.
    8880022    1    1    2    0    0 -0.14675426259E+03  0.17271848931E+03 -0.30285593592E+03  0.40802188798E+03  0.15294330000E+03 0. -1.
<mgrwt>
<rscale>  0 0.27342301E+03</rscale>
<asrwt>0</asrwt>
<pdfrwt beam="1">  1        2 0.56586548E-01 0.27342301E+03</pdfrwt>
<pdfrwt beam="2">  1       -2 0.24046989E+00 0.27342301E+03</pdfrwt>
<totfact> 0.72110666E+00</totfact>
</mgrwt>
</event>
<event>
 4    1  0.3365401E-008  0.5046337E+03  0.7818608E-02  0.1012576E+00
         -2   -1    0    0    0  501 -0.00000000000E+00  0.00000000000E+00  0.34977494164E+03  0.34977494165E+03  0.25500000000E-02 0.  1.
          2   -1    0    0  501    0  0.00000000000E+00 -0.00000000000E+00 -0.11517173245E+04  0.11517173245E+04  0.25500000000E-02 0. -1.
    8880022    1    1    2    0    0 -0.26479179080E+03  0.40143346675E+03  0.54363144514E+02  0.50755347029E+03  0.15294330000E+03 0.  0.
    8880022    1    1    2    0    0  0.26479179080E+03 -0.40143346675E+03 -0.85630552738E+03  0.99393879588E+03  0.15294330000E+03 0.  0.
<mgrwt>
<rscale>  0 0.50463370E+03</rscale>
<asrwt>0</asrwt>
<pdfrwt beam="1">  1        2 0.17718728E+00 0.50463370E+03</pdfrwt>
<pdfrwt beam="2">  1       -2 0.53811530E-01 0.50463370E+03</pdfrwt>
<totfact> 0.68714538E+01</totfact>
</mgrwt>
</event>
<event>
 4    1  0.3365401E-008  0.1462406E+04  0.7818608E-02  0.8909845E-01
          2   -1    0    0  501    0  0.00000000000E+00  0.00000000000E+00  0.22727695882E+04  0.22727695882E+04  0.25500000000E-02 0. -1.
         -2   -1    0    0    0  501 -0.00000000000E+00 -0.00000000000E+00 -0.17054546775E+04  0.17054546775E+04  0.25500000000E-02 0.  1.
    8880022    1    1    2    0    0  0.44641039512E+03 -0.13841810085E+04  0.16154013011E+04  0.21790255441E+04  0.15294330000E+03 0.  0.
    8880022    1    1    2    0    0 -0.44641039512E+03  0.13841810085E+04 -0.10480863904E+04  0.17991987216E+04  0.15294330000E+03 0.  0.
<mgrwt>
<rscale>  0 0.14624059E+04</rscale>
<asrwt>0</asrwt>
<pdfrwt beam="1">  1        2 0.34965686E+00 0.14624059E+04</pdfrwt>
<pdfrwt beam="2">  1       -2 0.26237764E+00 0.14624059E+04</pdfrwt>
<totfact> 0.23866367E-01</totfact>
</mgrwt>
</event>
<event>
 4    1  0.3365401E-008  0.7174265E+03  0.7818608E-02  0.9687886E-01
          2   -1    0    0  501    0  0.00000000000E+00  0.00000000000E+00  0.24977576541E+04  0.24977576541E+04  0.25500000000E-02 0. -1.
         -2   -1    0    0    0  501 -0.00000000000E+00 -0.00000000000E+00 -0.33935997563E+03  0.33935997564E+03  0.25500000000E-02 0.  1.
    8880022    1    1    2    0    0 -0.62472502572E+03 -0.31784859598E+03  0.19682437998E+04  0.20949187087E+04  0.15294330000E+03 0.  0.
    8880022    1    1    2    0    0  0.62472502572E+03  0.31784859598E+03  0.19015387865E+03  0.74219892098E+03  0.15294330000E+03 0.  0.
<mgrwt>
<rscale>  0 0.71742647E+03</rscale>
<asrwt>0</asrwt>
<pdfrwt beam="1">  1        2 0.38427039E+00 0.71742647E+03</pdfrwt>
<pdfrwt beam="2">  1       -2 0.52209229E-01 0.71742647E+03</pdfrwt>
<totfact> 0.12736135E+01</totfact>
</mgrwt>
</event>
<event>
 4    1  0.3365401E-008  0.4879470E+03  0.7818608E-02  0.1016974E+00
         -2   -1    0    0    0  501 -0.00000000000E+00  0.00000000000E+00  0.99808640223E+02  0.99808640255E+02  0.25500000000E-02 0.  1.
          2   -1    0    0  501    0  0.00000000000E+00 -0.00000000000E+00 -0.46206455546E+04  0.46206455546E+04  0.25500000000E-02 0. -1.
    8880022    1    1    2    0    0  0.46262899041E+03 -0.25981190198E+02 -0.39019778079E+04  0.39323686337E+04  0.15294330000E+03 0.  0.
    8880022    1    1    2    0    0 -0.46262899041E+03  0.25981190198E+02 -0.61885910648E+03  0.78808556115E+03  0.15294330000E+03 0.  0.
<mgrwt>
<rscale>  0 0.48794698E+03</rscale>
<asrwt>0</asrwt>
<pdfrwt beam="1">  1        2 0.71086838E+00 0.48794698E+03</pdfrwt>
<pdfrwt beam="2">  1       -2 0.15355179E-01 0.48794698E+03</pdfrwt>
<totfact> 0.38631165E+00</totfact>
</mgrwt>
</event>
<event>
 4    1  0.3365401E-008  0.4922326E+03  0.7818608E-02  0.1015826E+00
         -2   -1    0    0    0  501 -0.00000000000E+00  0.00000000000E+00  0.40341198647E+03  0.40341198648E+03  0.25500000000E-02 0.  1.
          2   -1    0    0  501    0  0.00000000000E+00 -0.00000000000E+00 -0.16582888809E+04  0.16582888809E+04  0.25500000000E-02 0. -1.
    8880022    1    1    2    0    0 -0.43585579740E+03 -0.17009130150E+03  0.19583219578E+03  0.52975770772E+03  0.15294330000E+03 0.  0.
    8880022    1    1    2    0    0  0.43585579740E+03  0.17009130150E+03 -0.14507090902E+04  0.15319431597E+04  0.15294330000E+03 0. -1.
<mgrwt>
<rscale>  0 0.49223265E+03</rscale>
<asrwt>0</asrwt>
<pdfrwt beam="1">  1        2 0.25512136E+00 0.49223265E+03</pdfrwt>
<pdfrwt beam="2">  1       -2 0.62063383E-01 0.49223265E+03</pdfrwt>
<totfact> 0.26616308E+01</totfact>
</mgrwt>
</event>
<event>
 4    1  0.3365401E-008  0.7256122E+03  0.7818608E-02  0.9674407E-01
         -2   -1    0    0    0  501 -0.00000000000E+00  0.00000000000E+00  0.47880680856E+03  0.47880680857E+03  0.25500000000E-02 0.  1.
          2   -1    0    0  501    0  0.00000000000E+00 -0.00000000000E+00 -0.15500541886E+04  0.15500541886E+04  0.25500000000E-02 0. -1.
    8880022    1    1    2    0    0 -0.51098557505E+03  0.49195041967E+03 -0.10824594345E+04  0.13031621364E+04  0.15294330000E+03 0.  0.
    8880022    1    1    2    0    0  0.51098557505E+03 -0.49195041967E+03  0.11212054510E+02  0.72569886075E+03  0.15294330000E+03 0.  0.
<mgrwt>
<rscale>  0 0.72561224E+03</rscale>
<asrwt>0</asrwt>
<pdfrwt beam="1">  1        2 0.23846987E+00 0.72561224E+03</pdfrwt>
<pdfrwt beam="2">  1       -2 0.73662587E-01 0.72561224E+03</pdfrwt>
<totfact> 0.20320114E+01</totfact>
</mgrwt>
</event>
<event>
 4    1  0.3365401E-008  0.1098128E+04  0.7818608E-02  0.9207019E-01
         -2   -1    0    0    0  501 -0.00000000000E+00  0.00000000000E+00  0.88971135385E+03  0.88971135386E+03  0.25500000000E-02 0.  1.
          2   -1    0    0  501    0  0.00000000000E+00 -0.00000000000E+00 -0.27782857980E+04  0.27782857980E+04  0.25500000000E-02 0. -1.
    8880022    1    1    2    0    0 -0.68263847080E+03  0.84646195603E+03  0.36821697621E+03  0.11582178204E+04  0.15294330000E+03 0.  0.
    8880022    1    1    2    0    0  0.68263847080E+03 -0.84646195603E+03 -0.22567914204E+04  0.25097793315E+04  0.15294330000E+03 0.  0.
<mgrwt>
<rscale>  0 0.10981279E+04</rscale>
<asrwt>0</asrwt>
<pdfrwt beam="1">  1        2 0.42742858E+00 0.10981279E+04</pdfrwt>
<pdfrwt beam="2">  1       -2 0.13687867E+00 0.10981279E+04</pdfrwt>
<totfact> 0.90455393E-01</totfact>
</mgrwt>
</event>
<event>
 4    1  0.3365401E-008  0.4616516E+03  0.7818608E-02  0.1024303E+00
         -2   -1    0    0    0  501 -0.00000000000E+00  0.00000000000E+00  0.46874623988E+03  0.46874623989E+03  0.25500000000E-02 0.  1.
          2   -1    0    0  501    0  0.00000000000E+00 -0.00000000000E+00 -0.14955069549E+04  0.14955069549E+04  0.25500000000E-02 0. -1.
    8880022    1    1    2    0    0  0.42317781881E+03  0.10320387912E+03 -0.13327234642E+04  0.14104162478E+04  0.15294330000E+03 0.  0.
    8880022    1    1    2    0    0 -0.42317781881E+03 -0.10320387912E+03  0.30596274915E+03  0.55383694702E+03  0.15294330000E+03 0.  0.
<mgrwt>
<rscale>  0 0.46165156E+03</rscale>
<asrwt>0</asrwt>
<pdfrwt beam="1">  1        2 0.23007799E+00 0.46165156E+03</pdfrwt>
<pdfrwt beam="2">  1       -2 0.72114807E-01 0.46165156E+03</pdfrwt>
<totfact> 0.23782924E+01</totfact>
</mgrwt>
</event>
<event>
 4    1  0.3653843E-008  0.8413185E+03  0.7818608E-02  0.9502064E-01
          2   -1    0    0  501    0  0.00000000000E+00  0.00000000000E+00  0.15305836570E+04  0.15305836570E+04  0.25500000000E-02 0. -1.
         -2   -1    0    0    0  501 -0.00000000000E+00 -0.00000000000E+00 -0.18594071750E+04  0.18594071750E+04  0.25500000000E-02 0.  1.
    8880022    1    1    2    0    0  0.69452229659E+03 -0.44951521537E+03 -0.16335849220E+04  0.18375027891E+04  0.15294330000E+03 0.  0.
    8880022    1    1    2    0    0 -0.69452229659E+03  0.44951521537E+03  0.13047614040E+04  0.15524880430E+04  0.15294330000E+03 0.  0.
<mgrwt>
<rscale>  0 0.84131849E+03</rscale>
<asrwt>0</asrwt>
<pdfrwt beam="1">  1        2 0.23547441E+00 0.84131849E+03</pdfrwt>
<pdfrwt beam="2">  1       -2 0.28606264E+00 0.84131849E+03</pdfrwt>
<totfact> 0.48692145E-01</totfact>
</mgrwt>
</event>
<event>
 4    1  0.3365401E-008  0.1120066E+04  0.7818608E-02  0.9185852E-01
          2   -1    0    0  501    0  0.00000000000E+00  0.00000000000E+00  0.16033334337E+04  0.16033334337E+04  0.25500000000E-02 0. -1.
         -2   -1    0    0    0  501 -0.00000000000E+00 -0.00000000000E+00 -0.10786030882E+04  0.10786030882E+04  0.25500000000E-02 0.  1.
    8880022    1    1    2    0    0  0.11093559204E+04  0.22048905412E+02 -0.44028086330E+03  0.12034930843E+04  0.15294330000E+03 0.  1.
    8880022    1    1    2    0    0 -0.11093559204E+04 -0.22048905412E+02  0.96501120880E+03  0.14784434377E+04  0.15294330000E+03 0.  0.
<mgrwt>
<rscale>  0 0.11200662E+04</rscale>
<asrwt>0</asrwt>
<pdfrwt beam="1">  1        2 0.24666668E+00 0.11200662E+04</pdfrwt>
<pdfrwt beam="2">  1       -2 0.16593894E+00 0.11200662E+04</pdfrwt>
<totfact> 0.24786278E+00</totfact>
</mgrwt>
</event>
<event>
 4    1  0.3365401E-008  0.2127372E+03  0.7818608E-02  0.1139417E+00
         -2   -1    0    0    0  501 -0.00000000000E+00  0.00000000000E+00  0.48143155849E+03  0.48143155849E+03  0.25500000000E-02 0.  1.
          2   -1    0    0  501    0  0.00000000000E+00 -0.00000000000E+00 -0.20242870753E+03  0.20242870754E+03  0.25500000000E-02 0. -1.
    8880022    1    1    2    0    0 -0.66757834548E+02 -0.13194256301E+03 -0.11074214014E+03  0.23983519972E+03  0.15294330000E+03 0. -1.
    8880022    1    1    2    0    0  0.66757834548E+02  0.13194256301E+03  0.38974499111E+03  0.44402506631E+03  0.15294330000E+03 0.  0.
<mgrwt>
<rscale>  0 0.21273717E+03</rscale>
<asrwt>0</asrwt>
<pdfrwt beam="1">  1        2 0.31142879E-01 0.21273717E+03</pdfrwt>
<pdfrwt beam="2">  1       -2 0.74066392E-01 0.21273717E+03</pdfrwt>
<totfact> 0.28568613E+02</totfact>
</mgrwt>
</event>
<event>
 4    1  0.3365401E-008  0.2833176E+03  0.7818608E-02  0.1093891E+00
          2   -1    0    0  501    0  0.00000000000E+00  0.00000000000E+00  0.46701843249E+03  0.46701843250E+03  0.25500000000E-02 0. -1.
         -2   -1    0    0    0  501 -0.00000000000E+00 -0.00000000000E+00 -0.34213520930E+03  0.34213520931E+03  0.25500000000E-02 0.  1.
    8880022    1    1    2    0    0 -0.23802181654E+03  0.14928247274E+02 -0.22296131838E+03  0.36052827937E+03  0.15294330000E+03 0.  0.
    8880022    1    1    2    0    0  0.23802181654E+03 -0.14928247274E+02  0.34784454157E+03  0.44862536245E+03  0.15294330000E+03 0. -1.
<mgrwt>
<rscale>  0 0.28331765E+03</rscale>
<asrwt>0</asrwt>
<pdfrwt beam="1">  1        2 0.71848989E-01 0.28331765E+03</pdfrwt>
<pdfrwt beam="2">  1       -2 0.52636186E-01 0.28331765E+03</pdfrwt>
<totfact> 0.23448935E+02</totfact>
</mgrwt>
</event>
<event>
 4    1  0.3365401E-008  0.5438906E+03  0.7818608E-02  0.1002918E+00
         -2   -1    0    0    0  501 -0.00000000000E+00  0.00000000000E+00  0.10190068831E+04  0.10190068831E+04  0.25500000000E-02 0.  1.
          2   -1    0    0  501    0  0.00000000000E+00 -0.00000000000E+00 -0.46823725082E+03  0.46823725083E+03  0.25500000000E-02 0. -1.
    8880022    1    1    2    0    0 -0.26807163707E+03  0.44784248601E+03 -0.18302470049E+03  0.57385972927E+03  0.15294330000E+03 0.  0.
    8880022    1    1    2    0    0  0.26807163707E+03 -0.44784248601E+03  0.73379433278E+03  0.91338440468E+03  0.15294330000E+03 0.  0.
<mgrwt>
<rscale>  0 0.54389057E+03</rscale>
<asrwt>0</asrwt>
<pdfrwt beam="1">  1        2 0.72036501E-01 0.54389057E+03</pdfrwt>
<pdfrwt beam="2">  1       -2 0.15677029E+00 0.54389057E+03</pdfrwt>
<totfact> 0.18323044E+01</totfact>
</mgrwt>
</event>
<event>
 4    1  0.3365401E-008  0.3615404E+03  0.7818608E-02  0.1057976E+00
          2   -1    0    0  501    0  0.00000000000E+00  0.00000000000E+00  0.68827493445E+03  0.68827493446E+03  0.25500000000E-02 0. -1.
         -2   -1    0    0    0  501 -0.00000000000E+00 -0.00000000000E+00 -0.40026525247E+03  0.40026525248E+03  0.25500000000E-02 0.  1.
    8880022    1    1    2    0    0  0.31055404104E+03 -0.10428805042E+03  0.53856701852E+03  0.64866470254E+03  0.15294330000E+03 0.  0.
    8880022    1    1    2    0    0 -0.31055404104E+03  0.10428805042E+03 -0.25055733653E+03  0.43987548440E+03  0.15294330000E+03 0.  1.
<mgrwt>
<rscale>  0 0.36154040E+03</rscale>
<asrwt>0</asrwt>
<pdfrwt beam="1">  1        2 0.10588845E+00 0.36154040E+03</pdfrwt>
<pdfrwt beam="2">  1       -2 0.61579270E-01 0.36154040E+03</pdfrwt>
<totfact> 0.10721651E+02</totfact>
</mgrwt>
</event>
<event>
 4    1  0.3365401E-008  0.3578383E+03  0.7818608E-02  0.1059443E+00
         -2   -1    0    0    0  501 -0.00000000000E+00  0.00000000000E+00  0.16305554010E+03  0.16305554012E+03  0.25500000000E-02 0.  1.
          2   -1    0    0  501    0  0.00000000000E+00 -0.00000000000E+00 -0.21715315727E+04  0.21715315727E+04  0.25500000000E-02 0. -1.
    8880022    1    1    2    0    0  0.30370061659E+03 -0.11145627871E+03 -0.19368784306E+04  0.19696563848E+04  0.15294330000E+03 0.  0.
    8880022    1    1    2    0    0 -0.30370061659E+03  0.11145627871E+03 -0.71597602031E+02  0.36493072797E+03  0.15294330000E+03 0.  1.
<mgrwt>
<rscale>  0 0.35783826E+03</rscale>
<asrwt>0</asrwt>
<pdfrwt beam="1">  1        2 0.33408176E+00 0.35783826E+03</pdfrwt>
<pdfrwt beam="2">  1       -2 0.25085469E-01 0.35783826E+03</pdfrwt>
<totfact> 0.83897678E+01</totfact>
</mgrwt>
</event>
<event>
 4    1  0.3365401E-008  0.1187493E+04  0.7818608E-02  0.9123875E-01
          2   -1    0    0  501    0  0.00000000000E+00  0.00000000000E+00  0.27590370895E+04  0.27590370895E+04  0.25500000000E-02 0. -1.
         -2   -1    0    0    0  501 -0.00000000000E+00 -0.00000000000E+00 -0.55222416395E+03  0.55222416395E+03  0.25500000000E-02 0.  1.
    8880022    1    1    2    0    0  0.10755001690E+04 -0.47963347178E+03  0.65159145963E+03  0.13545153982E+04  0.15294330000E+03 0.  0.
    8880022    1    1    2    0    0 -0.10755001690E+04  0.47963347178E+03  0.15552214659E+04  0.19567458552E+04  0.15294330000E+03 0.  0.
<mgrwt>
<rscale>  0 0.11874934E+04</rscale>
<asrwt>0</asrwt>
<pdfrwt beam="1">  1        2 0.42446725E+00 0.11874934E+04</pdfrwt>
<pdfrwt beam="2">  1       -2 0.84957563E-01 0.11874934E+04</pdfrwt>
<totfact> 0.29246181E+00</totfact>
</mgrwt>
</event>
<event>
 4    1  0.3365401E-008  0.1082412E+04  0.7818608E-02  0.9222506E-01
          2   -1    0    0  501    0  0.00000000000E+00  0.00000000000E+00  0.27641660053E+04  0.27641660053E+04  0.25500000000E-02 0. -1.
         -2   -1    0    0    0  501 -0.00000000000E+00 -0.00000000000E+00 -0.16727929309E+04  0.16727929309E+04  0.25500000000E-02 0.  1.
    8880022    1    1    2    0    0 -0.10179887204E+04  0.33454894376E+03  0.24626070900E+04  0.26899905880E+04  0.15294330000E+03 0.  0.
    8880022    1    1    2    0    0  0.10179887204E+04 -0.33454894376E+03 -0.13712340156E+04  0.17469683481E+04  0.15294330000E+03 0.  0.
<mgrwt>
<rscale>  0 0.10824120E+04</rscale>
<asrwt>0</asrwt>
<pdfrwt beam="1">  1        2 0.42525631E+00 0.10824120E+04</pdfrwt>
<pdfrwt beam="2">  1       -2 0.25735276E+00 0.10824120E+04</pdfrwt>
<totfact> 0.14100681E-01</totfact>
</mgrwt>
</event>
<event>
 4    1  0.3365401E-008  0.4633698E+03  0.7818608E-02  0.1023808E+00
         -2   -1    0    0    0  501 -0.00000000000E+00  0.00000000000E+00  0.20089870441E+03  0.20089870443E+03  0.25500000000E-02 0.  1.
          2   -1    0    0  501    0  0.00000000000E+00 -0.00000000000E+00 -0.19943881306E+04  0.19943881306E+04  0.25500000000E-02 0. -1.
    8880022    1    1    2    0    0 -0.42148597360E+03  0.11691661423E+03 -0.14896136449E+03  0.48672483166E+03  0.15294330000E+03 0.  1.
    8880022    1    1    2    0    0  0.42148597360E+03 -0.11691661423E+03 -0.16445280617E+04  0.17085620034E+04  0.15294330000E+03 0.  0.
<mgrwt>
<rscale>  0 0.46336980E+03</rscale>
<asrwt>0</asrwt>
<pdfrwt beam="1">  1        2 0.30682893E+00 0.46336980E+03</pdfrwt>
<pdfrwt beam="2">  1       -2 0.30907494E-01 0.46336980E+03</pdfrwt>
<totfact> 0.69904261E+01</totfact>
</mgrwt>
</event>
<event>
 4    1  0.3365401E-008  0.5467777E+03  0.7818608E-02  0.1002243E+00
          2   -1    0    0  501    0  0.00000000000E+00  0.00000000000E+00  0.23420045275E+03  0.23420045277E+03  0.25500000000E-02 0. -1.
         -2   -1    0    0    0  501 -0.00000000000E+00 -0.00000000000E+00 -0.24024914580E+04  0.24024914580E+04  0.25500000000E-02 0.  1.
    8880022    1    1    2    0    0  0.51025427497E+03  0.12334810212E+03 -0.19866692530E+04  0.20605388987E+04  0.15294330000E+03 0.  1.
    8880022    1    1    2    0    0 -0.51025427497E+03 -0.12334810212E+03 -0.18162175233E+03  0.57615301211E+03  0.15294330000E+03 0.  0.
<mgrwt>
<rscale>  0 0.54677768E+03</rscale>
<asrwt>0</asrwt>
<pdfrwt beam="1">  1        2 0.36030841E-01 0.54677768E+03</pdfrwt>
<pdfrwt beam="2">  1       -2 0.36961405E+00 0.54677768E+03</pdfrwt>
<totfact> 0.18527361E+00</totfact>
</mgrwt>
</event>
<event>
 4    1  0.3365401E-008  0.5722761E+03  0.7818608E-02  0.9964655E-01
          2   -1    0    0  501    0  0.00000000000E+00  0.00000000000E+00  0.21079154387E+04  0.21079154387E+04  0.25500000000E-02 0. -1.
         -2   -1    0    0    0  501 -0.00000000000E+00 -0.00000000000E+00 -0.28900937654E+03  0.28900937655E+03  0.25500000000E-02 0.  1.
    8880022    1    1    2    0    0 -0.44088372753E+03  0.33125490753E+03  0.17244218332E+04  0.18169013696E+04  0.15294330000E+03 0.  0.
    8880022    1    1    2    0    0  0.44088372753E+03 -0.33125490753E+03  0.94484228938E+02  0.58002344564E+03  0.15294330000E+03 0.  0.
<mgrwt>
<rscale>  0 0.57227609E+03</rscale>
<asrwt>0</asrwt>
<pdfrwt beam="1">  1        2 0.32429468E+00 0.57227609E+03</pdfrwt>
<pdfrwt beam="2">  1       -2 0.44462981E-01 0.57227609E+03</pdfrwt>
<totfact> 0.29676613E+01</totfact>
</mgrwt>
</event>
<event>
 4    1  0.3365401E-008  0.7336157E+03  0.7818608E-02  0.9661411E-01
          2   -1    0    0  501    0  0.00000000000E+00  0.00000000000E+00  0.34588128199E+04  0.34588128199E+04  0.25500000000E-02 0. -1.
         -2   -1    0    0    0  501 -0.00000000000E+00 -0.00000000000E+00 -0.61965868665E+03  0.61965868666E+03  0.25500000000E-02 0.  1.
    8880022    1    1    2    0    0 -0.14098219473E+03  0.70350865198E+03  0.31843039978E+04  0.32677184710E+04  0.15294330000E+03 0.  0.
    8880022    1    1    2    0    0  0.14098219473E+03 -0.70350865198E+03 -0.34514986451E+03  0.81075303554E+03  0.15294330000E+03 0.  0.
<mgrwt>
<rscale>  0 0.73361574E+03</rscale>
<asrwt>0</asrwt>
<pdfrwt beam="1">  1        2 0.53212504E+00 0.73361574E+03</pdfrwt>
<pdfrwt beam="2">  1       -2 0.95332107E-01 0.73361574E+03</pdfrwt>
<totfact> 0.87600287E-01</totfact>
</mgrwt>
</event>
<event>
 4    1  0.3365401E-008  0.7646650E+03  0.7818608E-02  0.9612620E-01
          2   -1    0    0  501    0  0.00000000000E+00  0.00000000000E+00  0.17095584621E+04  0.17095584621E+04  0.25500000000E-02 0. -1.
         -2   -1    0    0    0  501 -0.00000000000E+00 -0.00000000000E+00 -0.69733925965E+03  0.69733925965E+03  0.25500000000E-02 0.  1.
    8880022    1    1    2    0    0  0.59102024363E+03 -0.46045197507E+03 -0.35292684440E+03  0.84218166701E+03  0.15294330000E+03 0.  0.
    8880022    1    1    2    0    0 -0.59102024363E+03  0.46045197507E+03  0.13651460468E+04  0.15647160547E+04  0.15294330000E+03 0.  0.
<mgrwt>
<rscale>  0 0.76466503E+03</rscale>
<asrwt>0</asrwt>
<pdfrwt beam="1">  1        2 0.26300899E+00 0.76466503E+03</pdfrwt>
<pdfrwt beam="2">  1       -2 0.10728296E+00 0.76466503E+03</pdfrwt>
<totfact> 0.69439007E+00</totfact>
</mgrwt>
</event>
<event>
 4    1  0.3365401E-008  0.1146494E+04  0.7818608E-02  0.9161024E-01
          2   -1    0    0  501    0  0.00000000000E+00  0.00000000000E+00  0.19883597499E+04  0.19883597499E+04  0.25500000000E-02 0. -1.
         -2   -1    0    0    0  501 -0.00000000000E+00 -0.00000000000E+00 -0.95091549353E+03  0.95091549354E+03  0.25500000000E-02 0.  1.
    8880022    1    1    2    0    0 -0.34968255808E+03 -0.10811011458E+04  0.13300959162E+04  0.17560194698E+04  0.15294330000E+03 0.  0.
    8880022    1    1    2    0    0  0.34968255808E+03  0.10811011458E+04 -0.29265165984E+03  0.11832557737E+04  0.15294330000E+03 0.  0.
<mgrwt>
<rscale>  0 0.11464943E+04</rscale>
<asrwt>0</asrwt>
<pdfrwt beam="1">  1        2 0.30590149E+00 0.11464943E+04</pdfrwt>
<pdfrwt beam="2">  1       -2 0.14629469E+00 0.11464943E+04</pdfrwt>
<totfact> 0.21264060E+00</totfact>
</mgrwt>
</event>
<event>
 4    1  0.3365401E-008  0.4419611E+03  0.7818608E-02  0.1030147E+00
         -2   -1    0    0    0  501 -0.00000000000E+00  0.00000000000E+00  0.57251550396E+03  0.57251550397E+03  0.25500000000E-02 0.  1.
          2   -1    0    0  501    0  0.00000000000E+00 -0.00000000000E+00 -0.13948574248E+04  0.13948574248E+04  0.25500000000E-02 0. -1.
    8880022    1    1    2    0    0 -0.10997715872E+03 -0.39980362885E+03  0.44378959968E+03  0.62632162575E+03  0.15294330000E+03 0.  1.
    8880022    1    1    2    0    0  0.10997715872E+03  0.39980362885E+03 -0.12661315205E+04  0.13410513031E+04  0.15294330000E+03 0.  0.
<mgrwt>
<rscale>  0 0.44196105E+03</rscale>
<asrwt>0</asrwt>
<pdfrwt beam="1">  1        2 0.21459345E+00 0.44196105E+03</pdfrwt>
<pdfrwt beam="2">  1       -2 0.88079309E-01 0.44196105E+03</pdfrwt>
<totfact> 0.17372517E+01</totfact>
</mgrwt>
</event>
<event>
 4    1  0.3365401E-008  0.2660895E+03  0.7818608E-02  0.1103539E+00
         -2   -1    0    0    0  501 -0.00000000000E+00  0.00000000000E+00  0.37155307599E+03  0.37155307600E+03  0.25500000000E-02 0.  1.
          2   -1    0    0  501    0  0.00000000000E+00 -0.00000000000E+00 -0.12208476458E+04  0.12208476458E+04  0.25500000000E-02 0. -1.
    8880022    1    1    2    0    0 -0.18954206410E+03  0.10717181453E+03 -0.11560736363E+04  0.11863009304E+04  0.15294330000E+03 0.  0.
    8880022    1    1    2    0    0  0.18954206410E+03 -0.10717181453E+03  0.30677906652E+03  0.40609979138E+03  0.15294330000E+03 0.  1.
<mgrwt>
<rscale>  0 0.26608954E+03</rscale>
<asrwt>0</asrwt>
<pdfrwt beam="1">  1        2 0.18782271E+00 0.26608954E+03</pdfrwt>
<pdfrwt beam="2">  1       -2 0.57162012E-01 0.26608954E+03</pdfrwt>
<totfact> 0.57787539E+01</totfact>
</mgrwt>
</event>
<event>
 4    1  0.3365401E-008  0.2653282E+03  0.7818608E-02  0.1103984E+00
          2   -1    0    0  501    0  0.00000000000E+00  0.00000000000E+00  0.24419262108E+04  0.24419262108E+04  0.25500000000E-02 0. -1.
         -2   -1    0    0    0  501 -0.00000000000E+00 -0.00000000000E+00 -0.46281150893E+02  0.46281150963E+02  0.25500000000E-02 0.  1.
    8880022    1    1    2    0    0  0.64732139560E+02 -0.20692307270E+03  0.43385472773E+03  0.50855578425E+03  0.15294330000E+03 0.  0.
    8880022    1    1    2    0    0 -0.64732139560E+02  0.20692307270E+03  0.19617903322E+04  0.19796515775E+04  0.15294330000E+03 0. -1.
<mgrwt>
<rscale>  0 0.26532821E+03</rscale>
<asrwt>0</asrwt>
<pdfrwt beam="1">  1        2 0.37568090E+00 0.26532821E+03</pdfrwt>
<pdfrwt beam="2">  1       -2 0.71201781E-02 0.26532821E+03</pdfrwt>
<totfact> 0.49061228E+02</totfact>
</mgrwt>
</event>
<event>
 4    1  0.3365401E-008  0.6672211E+03  0.7818608E-02  0.9774991E-01
         -2   -1    0    0    0  501 -0.00000000000E+00  0.00000000000E+00  0.62797818410E+03  0.62797818410E+03  0.25500000000E-02 0.  1.
          2   -1    0    0  501    0  0.00000000000E+00 -0.00000000000E+00 -0.10464928219E+04  0.10464928219E+04  0.25500000000E-02 0. -1.
    8880022    1    1    2    0    0  0.25176847725E+02 -0.64896723881E+03  0.26625918288E+03  0.71838565979E+03  0.15294330000E+03 0.  0.
    8880022    1    1    2    0    0 -0.25176847725E+02  0.64896723881E+03 -0.68477382066E+03  0.95608534618E+03  0.15294330000E+03 0.  0.
<mgrwt>
<rscale>  0 0.66722111E+03</rscale>
<asrwt>0</asrwt>
<pdfrwt beam="1">  1        2 0.16099890E+00 0.66722111E+03</pdfrwt>
<pdfrwt beam="2">  1       -2 0.96612028E-01 0.66722111E+03</pdfrwt>
<totfact> 0.21637182E+01</totfact>
</mgrwt>
</event>
<event>
 4    1  0.3365401E-008  0.7541015E+03  0.7818608E-02  0.9628938E-01
         -2   -1    0    0    0  501 -0.00000000000E+00  0.00000000000E+00  0.46435889611E+03  0.46435889611E+03  0.25500000000E-02 0.  1.
          2   -1    0    0  501    0  0.00000000000E+00 -0.00000000000E+00 -0.20172033812E+04  0.20172033812E+04  0.25500000000E-02 0. -1.
    8880022    1    1    2    0    0 -0.90172301398E+02 -0.73290270789E+03  0.13265546981E+01  0.75410266936E+03  0.15294330000E+03 0.  0.
    8880022    1    1    2    0    0  0.90172301398E+02  0.73290270789E+03 -0.15541710398E+04  0.17274596079E+04  0.15294330000E+03 0.  0.
<mgrwt>
<rscale>  0 0.75410150E+03</rscale>
<asrwt>0</asrwt>
<pdfrwt beam="1">  1        2 0.31033898E+00 0.75410150E+03</pdfrwt>
<pdfrwt beam="2">  1       -2 0.71439831E-01 0.75410150E+03</pdfrwt>
<totfact> 0.12024599E+01</totfact>
</mgrwt>
</event>
<event>
 4    1  0.3365401E-008  0.6544574E+03  0.7818608E-02  0.9798451E-01
         -2   -1    0    0    0  501 -0.00000000000E+00  0.00000000000E+00  0.64842811061E+03  0.64842811061E+03  0.25500000000E-02 0.  1.
          2   -1    0    0  501    0  0.00000000000E+00 -0.00000000000E+00 -0.18404580810E+04  0.18404580810E+04  0.25500000000E-02 0. -1.
    8880022    1    1    2    0    0  0.39008703578E+02  0.63513864438E+03 -0.15924236967E+04  0.17216642122E+04  0.15294330000E+03 0.  0.
    8880022    1    1    2    0    0 -0.39008703578E+02 -0.63513864438E+03  0.40039372638E+03  0.76722197941E+03  0.15294330000E+03 0.  0.
<mgrwt>
<rscale>  0 0.65445736E+03</rscale>
<asrwt>0</asrwt>
<pdfrwt beam="1">  1        2 0.28314740E+00 0.65445736E+03</pdfrwt>
<pdfrwt beam="2">  1       -2 0.99758171E-01 0.65445736E+03</pdfrwt>
<totfact> 0.71367134E+00</totfact>
</mgrwt>
</event>
<event>
 4    1  0.3365401E-008  0.1615672E+03  0.7818608E-02  0.1186939E+00
          2   -1    0    0  501    0  0.00000000000E+00  0.00000000000E+00  0.68534457114E+03  0.68534457115E+03  0.25500000000E-02 0. -1.
         -2   -1    0    0    0  501 -0.00000000000E+00 -0.00000000000E+00 -0.80391804609E+02  0.80391804649E+02  0.25500000000E-02 0.  1.
    8880022    1    1    2    0    0  0.33979936219E+02 -0.39467142663E+02  0.24742376071E+02  0.16345069472E+03  0.15294330000E+03 0.  0.
    8880022    1    1    2    0    0 -0.33979936219E+02  0.39467142663E+02  0.58021039046E+03  0.60228568108E+03  0.15294330000E+03 0. -1.
<mgrwt>
<rscale>  0 0.16156715E+03</rscale>
<asrwt>0</asrwt>
<pdfrwt beam="1">  1        2 0.10543762E+00 0.16156715E+03</pdfrwt>
<pdfrwt beam="2">  1       -2 0.12367971E-01 0.16156715E+03</pdfrwt>
<totfact> 0.20051049E+03</totfact>
</mgrwt>
</event>
<event>
 4    1  0.3365401E-008  0.5235080E+03  0.7818608E-02  0.1007819E+00
          2   -1    0    0  501    0  0.00000000000E+00  0.00000000000E+00  0.19526228735E+04  0.19526228735E+04  0.25500000000E-02 0. -1.
         -2   -1    0    0    0  501 -0.00000000000E+00 -0.00000000000E+00 -0.20976199347E+03  0.20976199348E+03  0.25500000000E-02 0.  1.
    8880022    1    1    2    0    0  0.11130373357E+03  0.48813974096E+03  0.24950131303E+03  0.57992368984E+03  0.15294330000E+03 0.  0.
    8880022    1    1    2    0    0 -0.11130373357E+03 -0.48813974096E+03  0.14933595670E+04  0.15824611771E+04  0.15294330000E+03 0.  0.
<mgrwt>
<rscale>  0 0.52350796E+03</rscale>
<asrwt>0</asrwt>
<pdfrwt beam="1">  1        2 0.30040351E+00 0.52350796E+03</pdfrwt>
<pdfrwt beam="2">  1       -2 0.32271077E-01 0.52350796E+03</pdfrwt>
<totfact> 0.67231536E+01</totfact>
</mgrwt>
</event>
<event>
 4    1  0.3365401E-008  0.3755661E+03  0.7818608E-02  0.1052585E+00
          2   -1    0    0  501    0  0.00000000000E+00  0.00000000000E+00  0.90859681262E+03  0.90859681262E+03  0.25500000000E-02 0. -1.
         -2   -1    0    0    0  501 -0.00000000000E+00 -0.00000000000E+00 -0.81102840992E+03  0.81102840993E+03  0.25500000000E-02 0.  1.
    8880022    1    1    2    0    0 -0.27299619324E+03  0.20768073830E+03 -0.72437317316E+03  0.81594507021E+03  0.15294330000E+03 0.  0.
    8880022    1    1    2    0    0  0.27299619324E+03 -0.20768073830E+03  0.82194157586E+03  0.90368015234E+03  0.15294330000E+03 0.  0.
<mgrwt>
<rscale>  0 0.37556606E+03</rscale>
<asrwt>0</asrwt>
<pdfrwt beam="1">  1        2 0.13978413E+00 0.37556606E+03</pdfrwt>
<pdfrwt beam="2">  1       -2 0.12477360E+00 0.37556606E+03</pdfrwt>
<totfact> 0.14983787E+01</totfact>
</mgrwt>
</event>
<event>
 4    1  0.3365401E-008  0.1000798E+04  0.7818608E-02  0.9307671E-01
          2   -1    0    0  501    0  0.00000000000E+00  0.00000000000E+00  0.12688281597E+04  0.12688281597E+04  0.25500000000E-02 0. -1.
         -2   -1    0    0    0  501 -0.00000000000E+00 -0.00000000000E+00 -0.90208742169E+03  0.90208742169E+03  0.25500000000E-02 0.  1.
    8880022    1    1    2    0    0  0.11642202455E+03  0.98216595239E+03 -0.20029495088E+03  0.10206437999E+04  0.15294330000E+03 0.  0.
    8880022    1    1    2    0    0 -0.11642202455E+03 -0.98216595239E+03  0.56703568886E+03  0.11502717815E+04  0.15294330000E+03 0.  0.
<mgrwt>
<rscale>  0 0.10007975E+04</rscale>
<asrwt>0</asrwt>
<pdfrwt beam="1">  1        2 0.19520433E+00 0.10007975E+04</pdfrwt>
<pdfrwt beam="2">  1       -2 0.13878268E+00 0.10007975E+04</pdfrwt>
<totfact> 0.62827326E+00</totfact>
</mgrwt>
</event>
<event>
 4    1  0.3365401E-008  0.6076840E+03  0.7818608E-02  0.9889591E-01
         -2   -1    0    0    0  501 -0.00000000000E+00  0.00000000000E+00  0.47076166010E+03  0.47076166010E+03  0.25500000000E-02 0.  1.
          2   -1    0    0  501    0  0.00000000000E+00 -0.00000000000E+00 -0.10958719479E+04  0.10958719479E+04  0.25500000000E-02 0. -1.
    8880022    1    1    2    0    0 -0.58657652922E+03  0.42616274024E+02  0.10503064784E+03  0.61669381499E+03  0.15294330000E+03 0.  0.
    8880022    1    1    2    0    0  0.58657652922E+03 -0.42616274024E+02 -0.73014093564E+03  0.94993979302E+03  0.15294330000E+03 0.  0.
<mgrwt>
<rscale>  0 0.60768398E+03</rscale>
<asrwt>0</asrwt>
<pdfrwt beam="1">  1        2 0.16859568E+00 0.60768398E+03</pdfrwt>
<pdfrwt beam="2">  1       -2 0.72424871E-01 0.60768398E+03</pdfrwt>
<totfact> 0.39029605E+01</totfact>
</mgrwt>
</event>
<event>
 4    1  0.3365401E-008  0.7797197E+03  0.7818608E-02  0.9589845E-01
          2   -1    0    0  501    0  0.00000000000E+00  0.00000000000E+00  0.18237010029E+04  0.18237010029E+04  0.25500000000E-02 0. -1.
         -2   -1    0    0    0  501 -0.00000000000E+00 -0.00000000000E+00 -0.60097965655E+03  0.60097965655E+03  0.25500000000E-02 0.  1.
    8880022    1    1    2    0    0  0.59849451041E+03 -0.47578935407E+03  0.14203587667E+04  0.16203030172E+04  0.15294330000E+03 0.  0.
    8880022    1    1    2    0    0 -0.59849451041E+03  0.47578935407E+03 -0.19763742033E+03  0.80437764226E+03  0.15294330000E+03 0.  0.
<mgrwt>
<rscale>  0 0.77971972E+03</rscale>
<asrwt>0</asrwt>
<pdfrwt beam="1">  1        2 0.28056938E+00 0.77971972E+03</pdfrwt>
<pdfrwt beam="2">  1       -2 0.92458411E-01 0.77971972E+03</pdfrwt>
<totfact> 0.85356437E+00</totfact>
</mgrwt>
</event>
<event>
 4    1  0.5763785E-008  0.7842707E+03  0.7818608E-02  0.9583068E-01
         -2   -1    0    0    0  501 -0.00000000000E+00  0.00000000000E+00  0.13716280218E+04  0.13716280219E+04  0.25500000000E-02 0.  1.
          2   -1    0    0  501    0  0.00000000000E+00 -0.00000000000E+00 -0.26539839502E+04  0.26539839502E+04  0.25500000000E-02 0. -1.
    8880022    1    1    2    0    0  0.25901159907E+03 -0.72429403791E+03  0.11937182911E+04  0.14283010444E+04  0.15294330000E+03 0.  0.
    8880022    1    1    2    0    0 -0.25901159907E+03  0.72429403791E+03 -0.24760742194E+04  0.25973109277E+04  0.15294330000E+03 0.  0.
<mgrwt>
<rscale>  0 0.78427069E+03</rscale>
<asrwt>0</asrwt>
<pdfrwt beam="1">  1        2 0.40830522E+00 0.78427069E+03</pdfrwt>
<pdfrwt beam="2">  1       -2 0.21101970E+00 0.78427069E+03</pdfrwt>
<totfact> 0.33702962E-01</totfact>
</mgrwt>
</event>
<event>
 4    1  0.3365401E-008  0.6002390E+03  0.7818608E-02  0.9904910E-01
          2   -1    0    0  501    0  0.00000000000E+00  0.00000000000E+00  0.70016411543E+03  0.70016411544E+03  0.25500000000E-02 0. -1.
         -2   -1    0    0    0  501 -0.00000000000E+00 -0.00000000000E+00 -0.89033621595E+03  0.89033621596E+03  0.25500000000E-02 0.  1.
    8880022    1    1    2    0    0 -0.15162326061E+03  0.56027278164E+03 -0.61171983398E+03  0.85702276009E+03  0.15294330000E+03 0.  0.
    8880022    1    1    2    0    0  0.15162326061E+03 -0.56027278164E+03  0.42154773346E+03  0.73347757130E+03  0.15294330000E+03 0.  0.
<mgrwt>
<rscale>  0 0.60023900E+03</rscale>
<asrwt>0</asrwt>
<pdfrwt beam="1">  1        2 0.10771756E+00 0.60023900E+03</pdfrwt>
<pdfrwt beam="2">  1       -2 0.13697480E+00 0.60023900E+03</pdfrwt>
<totfact> 0.16057166E+01</totfact>
</mgrwt>
</event>
<event>
 4    1  0.3365401E-008  0.6566064E+03  0.7818608E-02  0.9794461E-01
          2   -1    0    0  501    0  0.00000000000E+00  0.00000000000E+00  0.12310691065E+04  0.12310691065E+04  0.25500000000E-02 0. -1.
         -2   -1    0    0    0  501 -0.00000000000E+00 -0.00000000000E+00 -0.38036191749E+03  0.38036191749E+03  0.25500000000E-02 0.  1.
    8880022    1    1    2    0    0 -0.27211374991E+03  0.57766294197E+03  0.65220669706E+03  0.92547587549E+03  0.15294330000E+03 0.  0.
    8880022    1    1    2    0    0  0.27211374991E+03 -0.57766294197E+03  0.19850049193E+03  0.68595514848E+03  0.15294330000E+03 0.  1.
<mgrwt>
<rscale>  0 0.65660644E+03</rscale>
<asrwt>0</asrwt>
<pdfrwt beam="1">  1        2 0.18939525E+00 0.65660644E+03</pdfrwt>
<pdfrwt beam="2">  1       -2 0.58517218E-01 0.65660644E+03</pdfrwt>
<totfact> 0.50935874E+01</totfact>
</mgrwt>
</event>
<event>
 4    1  0.3365401E-008  0.6421583E+03  0.7818608E-02  0.9821606E-01
         -2   -1    0    0    0  501 -0.00000000000E+00  0.00000000000E+00  0.68294549998E+03  0.68294549998E+03  0.25500000000E-02 0.  1.
          2   -1    0    0  501    0  0.00000000000E+00 -0.00000000000E+00 -0.76763107191E+03  0.76763107192E+03  0.25500000000E-02 0. -1.
    8880022    1    1    2    0    0 -0.58871782484E+03 -0.20588101238E+03  0.29271765470E+03  0.70572724684E+03  0.15294330000E+03 0.  0.
    8880022    1    1    2    0    0  0.58871782484E+03  0.20588101238E+03 -0.37740322664E+03  0.74484932506E+03  0.15294330000E+03 0.  0.
<mgrwt>
<rscale>  0 0.64215833E+03</rscale>
<asrwt>0</asrwt>
<pdfrwt beam="1">  1        2 0.11809709E+00 0.64215833E+03</pdfrwt>
<pdfrwt beam="2">  1       -2 0.10506854E+00 0.64215833E+03</pdfrwt>
<totfact> 0.27359166E+01</totfact>
</mgrwt>
</event>
<event>
 4    1  0.3365401E-008  0.5569823E+03  0.7818608E-02  0.9998906E-01
         -2   -1    0    0    0  501 -0.00000000000E+00  0.00000000000E+00  0.12226328025E+03  0.12226328028E+03  0.25500000000E-02 0.  1.
          2   -1    0    0  501    0  0.00000000000E+00 -0.00000000000E+00 -0.33468761611E+04  0.33468761611E+04  0.25500000000E-02 0. -1.
    8880022    1    1    2    0    0 -0.48975981698E+03 -0.21673253974E+03 -0.24653619866E+04  0.25274965975E+04  0.15294330000E+03 0.  0.
    8880022    1    1    2    0    0  0.48975981698E+03  0.21673253974E+03 -0.75925089425E+03  0.94164284394E+03  0.15294330000E+03 0.  0.
<mgrwt>
<rscale>  0 0.55698234E+03</rscale>
<asrwt>0</asrwt>
<pdfrwt beam="1">  1        2 0.51490396E+00 0.55698234E+03</pdfrwt>
<pdfrwt beam="2">  1       -2 0.18809738E-01 0.55698234E+03</pdfrwt>
<totfact> 0.27339229E+01</totfact>
</mgrwt>
</event>
<event>
 4    1  0.3365401E-008  0.3938813E+03  0.7818608E-02  0.1045919E+00
          2   -1    0    0  501    0  0.00000000000E+00  0.00000000000E+00  0.23899157004E+04  0.23899157004E+04  0.25500000000E-02 0. -1.
         -2   -1    0    0    0  501 -0.00000000000E+00 -0.00000000000E+00 -0.10449965530E+03  0.10449965534E+03  0.25500000000E-02 0.  1.
    8880022    1    1    2    0    0  0.27995728180E+03 -0.23102981915E+03  0.19103207759E+04  0.19505045441E+04  0.15294330000E+03 0.  0.
    8880022    1    1    2    0    0 -0.27995728180E+03  0.23102981915E+03  0.37509526925E+03  0.54391081163E+03  0.15294330000E+03 0.  0.
<mgrwt>
<rscale>  0 0.39388134E+03</rscale>
<asrwt>0</asrwt>
<pdfrwt beam="1">  1        2 0.36767937E+00 0.39388134E+03</pdfrwt>
<pdfrwt beam="2">  1       -2 0.16076869E-01 0.39388134E+03</pdfrwt>
<totfact> 0.13683373E+02</totfact>
</mgrwt>
</event>
<event>
 4    1  0.3365401E-008  0.5709213E+03  0.7818608E-02  0.9967642E-01
          2   -1    0    0  501    0  0.00000000000E+00  0.00000000000E+00  0.11557512404E+04  0.11557512404E+04  0.25500000000E-02 0. -1.
         -2   -1    0    0    0  501 -0.00000000000E+00 -0.00000000000E+00 -0.62119156247E+03  0.62119156248E+03  0.25500000000E-02 0.  1.
    8880022    1    1    2    0    0 -0.98801260273E+02  0.54110792095E+03  0.92378324416E+03  0.10859680503E+04  0.15294330000E+03 0.  0.
    8880022    1    1    2    0    0  0.98801260273E+02 -0.54110792095E+03 -0.38922356623E+03  0.69097475255E+03  0.15294330000E+03 0.  0.
<mgrwt>
<rscale>  0 0.57092129E+03</rscale>
<asrwt>0</asrwt>
<pdfrwt beam="1">  1        2 0.17780788E+00 0.57092129E+03</pdfrwt>
<pdfrwt beam="2">  1       -2 0.95567932E-01 0.57092129E+03</pdfrwt>
<totfact> 0.19289851E+01</totfact>
</mgrwt>
</event>
<event>
 4    1  0.3365401E-008  0.5920553E+03  0.7818608E-02  0.9922027E-01
         -2   -1    0    0    0  501 -0.00000000000E+00  0.00000000000E+00  0.11763579087E+04  0.11763579087E+04  0.25500000000E-02 0.  1.
          2   -1    0    0  501    0  0.00000000000E+00 -0.00000000000E+00 -0.15662740825E+04  0.15662740825E+04  0.25500000000E-02 0. -1.
    8880022    1    1    2    0    0 -0.40820878304E+03 -0.40062883298E+03 -0.14289544440E+04  0.15467515406E+04  0.15294330000E+03 0.  0.
    8880022    1    1    2    0    0  0.40820878304E+03  0.40062883298E+03  0.10390382701E+04  0.11958804506E+04  0.15294330000E+03 0.  0.
<mgrwt>
<rscale>  0 0.59205534E+03</rscale>
<asrwt>0</asrwt>
<pdfrwt beam="1">  1        2 0.24096524E+00 0.59205534E+03</pdfrwt>
<pdfrwt beam="2">  1       -2 0.18097814E+00 0.59205534E+03</pdfrwt>
<totfact> 0.22116146E+00</totfact>
</mgrwt>
</event>
<event>
 4    1  0.3365401E-008  0.1673878E+03  0.7818608E-02  0.1180600E+00
         -2   -1    0    0    0  501 -0.00000000000E+00  0.00000000000E+00  0.26954876996E+02  0.26954877116E+02  0.25500000000E-02 0.  1.
          2   -1    0    0  501    0  0.00000000000E+00 -0.00000000000E+00 -0.15119632682E+04  0.15119632682E+04  0.25500000000E-02 0. -1.
    8880022    1    1    2    0    0 -0.41658108807E+02 -0.53773828559E+02 -0.31235947294E+03  0.35438272533E+03  0.15294330000E+03 0.  1.
    8880022    1    1    2    0    0  0.41658108807E+02  0.53773828559E+02 -0.11726489183E+04  0.11845354200E+04  0.15294330000E+03 0.  0.
<mgrwt>
<rscale>  0 0.16738780E+03</rscale>
<asrwt>0</asrwt>
<pdfrwt beam="1">  1        2 0.23260967E+00 0.16738780E+03</pdfrwt>
<pdfrwt beam="2">  1       -2 0.41469053E-02 0.16738780E+03</pdfrwt>
<totfact> 0.34830513E+03</totfact>
</mgrwt>
</event>
<event>
 4    1  0.3365401E-008  0.4538359E+03  0.7818608E-02  0.1026584E+00
          2   -1    0    0  501    0  0.00000000000E+00  0.00000000000E+00  0.85273001888E+03  0.85273001888E+03  0.25500000000E-02 0. -1.
         -2   -1    0    0    0  501 -0.00000000000E+00 -0.00000000000E+00 -0.29022869130E+03  0.29022869131E+03  0.25500000000E-02 0.  1.
    8880022    1    1    2    0    0 -0.47398561260E+02  0.42465137660E+03  0.51532372547E+03  0.68667722425E+03  0.15294330000E+03 0.  0.
    8880022    1    1    2    0    0  0.47398561260E+02 -0.42465137660E+03  0.47177602108E+02  0.45628148594E+03  0.15294330000E+03 0.  0.
<mgrwt>
<rscale>  0 0.45383595E+03</rscale>
<asrwt>0</asrwt>
<pdfrwt beam="1">  1        2 0.13118923E+00 0.45383595E+03</pdfrwt>
<pdfrwt beam="2">  1       -2 0.44650569E-01 0.45383595E+03</pdfrwt>
<totfact> 0.15535719E+02</totfact>
</mgrwt>
</event>
<event>
 4    1  0.3365401E-008  0.5598026E+03  0.7818608E-02  0.9992502E-01
         -2   -1    0    0    0  501 -0.00000000000E+00  0.00000000000E+00  0.10569678235E+03  0.10569678238E+03  0.25500000000E-02 0.  1.
          2   -1    0    0  501    0  0.00000000000E+00 -0.00000000000E+00 -0.40911411772E+04  0.40911411772E+04  0.25500000000E-02 0. -1.
    8880022    1    1    2    0    0  0.15063861334E+03  0.51700604618E+03 -0.89171946301E+03  0.10528734479E+04  0.15294330000E+03 0.  0.
    8880022    1    1    2    0    0 -0.15063861334E+03 -0.51700604618E+03 -0.30937249318E+04  0.31439645116E+04  0.15294330000E+03 0.  0.
<mgrwt>
<rscale>  0 0.55980255E+03</rscale>
<asrwt>0</asrwt>
<pdfrwt beam="1">  1        2 0.62940621E+00 0.55980255E+03</pdfrwt>
<pdfrwt beam="2">  1       -2 0.16261047E-01 0.55980255E+03</pdfrwt>
<totfact> 0.10178794E+01</totfact>
</mgrwt>
</event>
<event>
 4    1  0.3365401E-008  0.3263649E+03  0.7818608E-02  0.1072757E+00
         -2   -1    0    0    0  501 -0.00000000000E+00  0.00000000000E+00  0.68972631707E+03  0.68972631708E+03  0.25500000000E-02 0.  1.
          2   -1    0    0  501    0  0.00000000000E+00 -0.00000000000E+00 -0.37763595549E+03  0.37763595550E+03  0.25500000000E-02 0. -1.
    8880022    1    1    2    0    0 -0.28756838111E+03 -0.20659811300E+02  0.56634243374E+03  0.65364960559E+03  0.15294330000E+03 0.  0.
    8880022    1    1    2    0    0  0.28756838111E+03  0.20659811300E+02 -0.25425207216E+03  0.41371266699E+03  0.15294330000E+03 0.  0.
<mgrwt>
<rscale>  0 0.32636491E+03</rscale>
<asrwt>0</asrwt>
<pdfrwt beam="1">  1        2 0.58097840E-01 0.32636491E+03</pdfrwt>
<pdfrwt beam="2">  1       -2 0.10611174E+00 0.32636491E+03</pdfrwt>
<totfact> 0.63635304E+01</totfact>
</mgrwt>
</event>
<event>
 4    1  0.3365401E-008  0.4098006E+03  0.7818608E-02  0.1040438E+00
          2   -1    0    0  501    0  0.00000000000E+00  0.00000000000E+00  0.37785037394E+04  0.37785037394E+04  0.25500000000E-02 0. -1.
         -2   -1    0    0    0  501 -0.00000000000E+00 -0.00000000000E+00 -0.60532124630E+02  0.60532124684E+02  0.25500000000E-02 0.  1.
    8880022    1    1    2    0    0 -0.18575730177E+03  0.33172147520E+03  0.86944211398E+03  0.96117956431E+03  0.15294330000E+03 0.  0.
    8880022    1    1    2    0    0  0.18575730177E+03 -0.33172147520E+03  0.28485295008E+04  0.28778562998E+04  0.15294330000E+03 0.  0.
<mgrwt>
<rscale>  0 0.40980064E+03</rscale>
<asrwt>0</asrwt>
<pdfrwt beam="1">  1        2 0.58130839E+00 0.40980064E+03</pdfrwt>
<pdfrwt beam="2">  1       -2 0.93126326E-02 0.40980064E+03</pdfrwt>
<totfact> 0.46132691E+01</totfact>
</mgrwt>
</event>
<event>
 4    1  0.3365401E-008  0.2328295E+03  0.7818608E-02  0.1124664E+00
         -2   -1    0    0    0  501 -0.00000000000E+00  0.00000000000E+00  0.20366225543E+03  0.20366225545E+03  0.25500000000E-02 0.  1.
          2   -1    0    0  501    0  0.00000000000E+00 -0.00000000000E+00 -0.29574804708E+03  0.29574804709E+03  0.25500000000E-02 0. -1.
    8880022    1    1    2    0    0  0.10848713727E+03  0.13801614516E+03  0.32919984270E+02  0.23514526076E+03  0.15294330000E+03 0.  0.
    8880022    1    1    2    0    0 -0.10848713727E+03 -0.13801614516E+03 -0.12500577591E+03  0.26426504178E+03  0.15294330000E+03 0.  0.
<mgrwt>
<rscale>  0 0.23282948E+03</rscale>
<asrwt>0</asrwt>
<pdfrwt beam="1">  1        2 0.45499700E-01 0.23282948E+03</pdfrwt>
<pdfrwt beam="2">  1       -2 0.31332655E-01 0.23282948E+03</pdfrwt>
<totfact> 0.10472626E+03</totfact>
</mgrwt>
</event>
<event>
 4    1  0.3365401E-008  0.6812240E+03  0.7818608E-02  0.9749891E-01
         -2   -1    0    0    0  501 -0.00000000000E+00  0.00000000000E+00  0.14307596727E+04  0.14307596727E+04  0.25500000000E-02 0.  1.
          2   -1    0    0  501    0  0.00000000000E+00 -0.00000000000E+00 -0.93383146867E+03  0.93383146867E+03  0.25500000000E-02 0. -1.
    8880022    1    1    2    0    0 -0.63836318934E+03  0.18211805603E+03 -0.70668734262E+03  0.98156670740E+03  0.15294330000E+03 0.  0.
    8880022    1    1    2    0    0  0.63836318934E+03 -0.18211805603E+03  0.12036155467E+04  0.13830244340E+04  0.15294330000E+03 0.  0.
<mgrwt>
<rscale>  0 0.68122405E+03</rscale>
<asrwt>0</asrwt>
<pdfrwt beam="1">  1        2 0.14366638E+00 0.68122405E+03</pdfrwt>
<pdfrwt beam="2">  1       -2 0.22011687E+00 0.68122405E+03</pdfrwt>
<totfact> 0.28508187E+00</totfact>
</mgrwt>
</event>
<event>
 4    1  0.3365401E-008  0.3491579E+03  0.7818608E-02  0.1062961E+00
         -2   -1    0    0    0  501 -0.00000000000E+00  0.00000000000E+00  0.47012787866E+03  0.47012787867E+03  0.25500000000E-02 0.  1.
          2   -1    0    0  501    0  0.00000000000E+00 -0.00000000000E+00 -0.56435349022E+03  0.56435349023E+03  0.25500000000E-02 0. -1.
    8880022    1    1    2    0    0  0.22043828008E+03 -0.22344254625E+03 -0.42738477821E+03  0.55187771150E+03  0.15294330000E+03 0. -1.
    8880022    1    1    2    0    0 -0.22043828008E+03  0.22344254625E+03  0.33315916665E+03  0.48260365740E+03  0.15294330000E+03 0.  0.
<mgrwt>
<rscale>  0 0.34915793E+03</rscale>
<asrwt>0</asrwt>
<pdfrwt beam="1">  1        2 0.86823613E-01 0.34915793E+03</pdfrwt>
<pdfrwt beam="2">  1       -2 0.72327366E-01 0.34915793E+03</pdfrwt>
<totfact> 0.96462793E+01</totfact>
</mgrwt>
</event>
<event>
 4    1  0.3365401E-008  0.5001058E+03  0.7818608E-02  0.1013751E+00
         -2   -1    0    0    0  501 -0.00000000000E+00  0.00000000000E+00  0.12325568099E+04  0.12325568099E+04  0.25500000000E-02 0.  1.
          2   -1    0    0  501    0  0.00000000000E+00 -0.00000000000E+00 -0.65768546517E+03  0.65768546517E+03  0.25500000000E-02 0. -1.
    8880022    1    1    2    0    0  0.23524886534E+03  0.41397115612E+03  0.10733476101E+04  0.11841371930E+04  0.15294330000E+03 0.  0.
    8880022    1    1    2    0    0 -0.23524886534E+03 -0.41397115612E+03 -0.49847626538E+03  0.70610508205E+03  0.15294330000E+03 0. -1.
<mgrwt>
<rscale>  0 0.50010579E+03</rscale>
<asrwt>0</asrwt>
<pdfrwt beam="1">  1        2 0.10118238E+00 0.50010579E+03</pdfrwt>
<pdfrwt beam="2">  1       -2 0.18962412E+00 0.50010579E+03</pdfrwt>
<totfact> 0.73003509E+00</totfact>
</mgrwt>
</event>
<event>
 4    1  0.3365401E-008  0.4645308E+03  0.7818608E-02  0.1023475E+00
         -2   -1    0    0    0  501 -0.00000000000E+00  0.00000000000E+00  0.14426059008E+03  0.14426059010E+03  0.25500000000E-02 0.  1.
          2   -1    0    0  501    0  0.00000000000E+00 -0.00000000000E+00 -0.17745114808E+04  0.17745114808E+04  0.25500000000E-02 0. -1.
    8880022    1    1    2    0    0 -0.25089738022E+03  0.35978840428E+03 -0.43492676772E+03  0.63635692622E+03  0.15294330000E+03 0.  0.
    8880022    1    1    2    0    0  0.25089738022E+03 -0.35978840428E+03 -0.11953241230E+04  0.12824151447E+04  0.15294330000E+03 0.  0.
<mgrwt>
<rscale>  0 0.46453078E+03</rscale>
<asrwt>0</asrwt>
<pdfrwt beam="1">  1        2 0.27300175E+00 0.46453078E+03</pdfrwt>
<pdfrwt beam="2">  1       -2 0.22193938E-01 0.46453078E+03</pdfrwt>
<totfact> 0.16659508E+02</totfact>
</mgrwt>
</event>
<event>
 4    1  0.3365401E-008  0.1896741E+03  0.7818608E-02  0.1158756E+00
         -2   -1    0    0    0  501 -0.00000000000E+00  0.00000000000E+00  0.72068019740E+02  0.72068019786E+02  0.25500000000E-02 0.  1.
          2   -1    0    0  501    0  0.00000000000E+00 -0.00000000000E+00 -0.24042646529E+04  0.24042646529E+04  0.25500000000E-02 0. -1.
    8880022    1    1    2    0    0  0.97284465882E+02 -0.55859980129E+02 -0.63942820943E+02  0.20016228927E+03  0.15294330000E+03 0.  1.
    8880022    1    1    2    0    0 -0.97284465882E+02  0.55859980129E+02 -0.22682538122E+04  0.22761703834E+04  0.15294330000E+03 0.  0.
<mgrwt>
<rscale>  0 0.18967408E+03</rscale>
<asrwt>0</asrwt>
<pdfrwt beam="1">  1        2 0.36988681E+00 0.18967408E+03</pdfrwt>
<pdfrwt beam="2">  1       -2 0.11087389E-01 0.18967408E+03</pdfrwt>
<totfact> 0.26129473E+02</totfact>
</mgrwt>
</event>
<event>
 4    1  0.3365401E-008  0.2485041E+03  0.7818608E-02  0.1114254E+00
         -2   -1    0    0    0  501 -0.00000000000E+00  0.00000000000E+00  0.37556127126E+03  0.37556127127E+03  0.25500000000E-02 0.  1.
          2   -1    0    0  501    0  0.00000000000E+00 -0.00000000000E+00 -0.35431043224E+03  0.35431043225E+03  0.25500000000E-02 0. -1.
    8880022    1    1    2    0    0 -0.19377452649E+03 -0.28531783471E+02  0.27777986461E+03  0.37271428197E+03  0.15294330000E+03 0.  0.
    8880022    1    1    2    0    0  0.19377452649E+03  0.28531783471E+02 -0.25652902559E+03  0.35715742155E+03  0.15294330000E+03 0.  0.
<mgrwt>
<rscale>  0 0.24850409E+03</rscale>
<asrwt>0</asrwt>
<pdfrwt beam="1">  1        2 0.54509297E-01 0.24850409E+03</pdfrwt>
<pdfrwt beam="2">  1       -2 0.57778657E-01 0.24850409E+03</pdfrwt>
<totfact> 0.26299309E+02</totfact>
</mgrwt>
</event>
<event>
 4    1  0.3365401E-008  0.9724559E+03  0.7818608E-02  0.9339281E-01
          2   -1    0    0  501    0  0.00000000000E+00  0.00000000000E+00  0.10470063655E+04  0.10470063655E+04  0.25500000000E-02 0. -1.
         -2   -1    0    0    0  501 -0.00000000000E+00 -0.00000000000E+00 -0.15883726282E+04  0.15883726282E+04  0.25500000000E-02 0.  1.
    8880022    1    1    2    0    0  0.75033521947E+03 -0.59939623554E+03  0.59474809903E+03  0.11399104101E+04  0.15294330000E+03 0.  0.
    8880022    1    1    2    0    0 -0.75033521947E+03  0.59939623554E+03 -0.11361143617E+04  0.14954685837E+04  0.15294330000E+03 0.  0.
<mgrwt>
<rscale>  0 0.97245588E+03</rscale>
<asrwt>0</asrwt>
<pdfrwt beam="1">  1        2 0.16107790E+00 0.97245588E+03</pdfrwt>
<pdfrwt beam="2">  1       -2 0.24436502E+00 0.97245588E+03</pdfrwt>
<totfact> 0.16360481E+00</totfact>
</mgrwt>
</event>
<event>
 4    1  0.3365401E-008  0.8457535E+03  0.7818608E-02  0.9496054E-01
          2   -1    0    0  501    0  0.00000000000E+00  0.00000000000E+00  0.19908996258E+04  0.19908996258E+04  0.25500000000E-02 0. -1.
         -2   -1    0    0    0  501 -0.00000000000E+00 -0.00000000000E+00 -0.71192767778E+03  0.71192767779E+03  0.25500000000E-02 0.  1.
    8880022    1    1    2    0    0 -0.82399170778E+03  0.11377606111E+03  0.15906123581E+04  0.18014845692E+04  0.15294330000E+03 0.  0.
    8880022    1    1    2    0    0  0.82399170778E+03 -0.11377606111E+03 -0.31164041005E+03  0.90134273435E+03  0.15294330000E+03 0.  0.
<mgrwt>
<rscale>  0 0.84575350E+03</rscale>
<asrwt>0</asrwt>
<pdfrwt beam="1">  1        2 0.30629224E+00 0.84575350E+03</pdfrwt>
<pdfrwt beam="2">  1       -2 0.10952734E+00 0.84575350E+03</pdfrwt>
<totfact> 0.45800393E+00</totfact>
</mgrwt>
</event>
<event>
 4    1  0.3365401E-008  0.1030248E+04  0.7818608E-02  0.9275977E-01
          2   -1    0    0  501    0  0.00000000000E+00  0.00000000000E+00  0.16832897470E+04  0.16832897470E+04  0.25500000000E-02 0. -1.
         -2   -1    0    0    0  501 -0.00000000000E+00 -0.00000000000E+00 -0.77707725442E+03  0.77707725442E+03  0.25500000000E-02 0.  1.
    8880022    1    1    2    0    0 -0.10100780031E+04  0.13327580508E+03 -0.81070873438E+02  0.10334331871E+04  0.15294330000E+03 0.  0.
    8880022    1    1    2    0    0  0.10100780031E+04 -0.13327580508E+03  0.98728336602E+03  0.14269338143E+04  0.15294330000E+03 0.  0.
<mgrwt>
<rscale>  0 0.10302484E+04</rscale>
<asrwt>0</asrwt>
<pdfrwt beam="1">  1        2 0.25896765E+00 0.10302484E+04</pdfrwt>
<pdfrwt beam="2">  1       -2 0.11955035E+00 0.10302484E+04</pdfrwt>
<totfact> 0.53278213E+00</totfact>
</mgrwt>
</event>
<event>
 4    1  0.3365401E-008  0.5375927E+03  0.7818608E-02  0.1004407E+00
          2   -1    0    0  501    0  0.00000000000E+00  0.00000000000E+00  0.17870489994E+04  0.17870489994E+04  0.25500000000E-02 0. -1.
         -2   -1    0    0    0  501 -0.00000000000E+00 -0.00000000000E+00 -0.25210611418E+03  0.25210611420E+03  0.25500000000E-02 0.  1.
    8880022    1    1    2    0    0  0.20131818206E+03  0.47443146038E+03  0.13779545368E+04  0.14791093873E+04  0.15294330000E+03 0.  0.
    8880022    1    1    2    0    0 -0.20131818206E+03 -0.47443146038E+03  0.15698834843E+03  0.56004572634E+03  0.15294330000E+03 0.  0.
<mgrwt>
<rscale>  0 0.53759267E+03</rscale>
<asrwt>0</asrwt>
<pdfrwt beam="1">  1        2 0.27493061E+00 0.53759267E+03</pdfrwt>
<pdfrwt beam="2">  1       -2 0.38785556E-01 0.53759267E+03</pdfrwt>
<totfact> 0.58111133E+01</totfact>
</mgrwt>
</event>
<event>
 4    1  0.3365401E-008  0.4863851E+03  0.7818608E-02  0.1017395E+00
          2   -1    0    0  501    0  0.00000000000E+00  0.00000000000E+00  0.18537011158E+04  0.18537011158E+04  0.25500000000E-02 0. -1.
         -2   -1    0    0    0  501 -0.00000000000E+00 -0.00000000000E+00 -0.13142611194E+03  0.13142611197E+03  0.25500000000E-02 0.  1.
    8880022    1    1    2    0    0 -0.88445010598E+02  0.45316251996E+03  0.10300354048E+04  0.11390976155E+04  0.15294330000E+03 0.  0.
    8880022    1    1    2    0    0  0.88445010598E+02 -0.45316251996E+03  0.69223959909E+03  0.84602961234E+03  0.15294330000E+03 0.  0.
<mgrwt>
<rscale>  0 0.48638508E+03</rscale>
<asrwt>0</asrwt>
<pdfrwt beam="1">  1        2 0.28518477E+00 0.48638508E+03</pdfrwt>
<pdfrwt beam="2">  1       -2 0.20219403E-01 0.48638508E+03</pdfrwt>
<totfact> 0.17726583E+02</totfact>
</mgrwt>
</event>
<event>
 4    1  0.3365401E-008  0.4876035E+03  0.7818608E-02  0.1017066E+00
         -2   -1    0    0    0  501 -0.00000000000E+00  0.00000000000E+00  0.41669833091E+03  0.41669833092E+03  0.25500000000E-02 0.  1.
          2   -1    0    0  501    0  0.00000000000E+00 -0.00000000000E+00 -0.10410453782E+04  0.10410453782E+04  0.25500000000E-02 0. -1.
    8880022    1    1    2    0    0  0.20934868444E+03  0.41296324077E+03 -0.80215880222E+03  0.93873100880E+03  0.15294330000E+03 0.  0.
    8880022    1    1    2    0    0 -0.20934868444E+03 -0.41296324077E+03  0.17781175491E+03  0.51901270033E+03  0.15294330000E+03 0.  0.
<mgrwt>
<rscale>  0 0.48760349E+03</rscale>
<asrwt>0</asrwt>
<pdfrwt beam="1">  1        2 0.16016083E+00 0.48760349E+03</pdfrwt>
<pdfrwt beam="2">  1       -2 0.64107436E-01 0.48760349E+03</pdfrwt>
<totfact> 0.55714406E+01</totfact>
</mgrwt>
</event>
<event>
 4    1  0.3365401E-008  0.7778772E+03  0.7818608E-02  0.9592603E-01
         -2   -1    0    0    0  501 -0.00000000000E+00  0.00000000000E+00  0.57501512506E+03  0.57501512507E+03  0.25500000000E-02 0.  1.
          2   -1    0    0  501    0  0.00000000000E+00 -0.00000000000E+00 -0.26054473513E+04  0.26054473513E+04  0.25500000000E-02 0. -1.
    8880022    1    1    2    0    0  0.62178712480E+03  0.44168097691E+03  0.21257462577E+03  0.80639998665E+03  0.15294330000E+03 0.  0.
    8880022    1    1    2    0    0 -0.62178712480E+03 -0.44168097691E+03 -0.22430068520E+04  0.23740624897E+04  0.15294330000E+03 0.  0.
<mgrwt>
<rscale>  0 0.77787722E+03</rscale>
<asrwt>0</asrwt>
<pdfrwt beam="1">  1        2 0.40083805E+00 0.77787722E+03</pdfrwt>
<pdfrwt beam="2">  1       -2 0.88463867E-01 0.77787722E+03</pdfrwt>
<totfact> 0.34814264E+00</totfact>
</mgrwt>
</event>
<event>
 4    1  0.3365401E-008  0.2059564E+03  0.7818608E-02  0.1144809E+00
         -2   -1    0    0    0  501 -0.00000000000E+00  0.00000000000E+00  0.10712953050E+04  0.10712953050E+04  0.25500000000E-02 0.  1.
          2   -1    0    0  501    0  0.00000000000E+00 -0.00000000000E+00 -0.53264606103E+03  0.53264606103E+03  0.25500000000E-02 0. -1.
    8880022    1    1    2    0    0 -0.63312450145E+02 -0.12254761311E+03  0.10409118685E+04  0.10610916807E+04  0.15294330000E+03 0.  0.
    8880022    1    1    2    0    0  0.63312450145E+02  0.12254761311E+03 -0.50226262455E+03  0.54284968533E+03  0.15294330000E+03 0.  0.
<mgrwt>
<rscale>  0 0.20595640E+03</rscale>
<asrwt>0</asrwt>
<pdfrwt beam="1">  1        2 0.81945549E-01 0.20595640E+03</pdfrwt>
<pdfrwt beam="2">  1       -2 0.16481466E+00 0.20595640E+03</pdfrwt>
<totfact> 0.14814701E+01</totfact>
</mgrwt>
</event>
<event>
 4    1  0.3365401E-008  0.8996295E+03  0.7818608E-02  0.9426045E-01
         -2   -1    0    0    0  501 -0.00000000000E+00  0.00000000000E+00  0.16279010147E+04  0.16279010148E+04  0.25500000000E-02 0.  1.
          2   -1    0    0  501    0  0.00000000000E+00 -0.00000000000E+00 -0.10793605494E+04  0.10793605494E+04  0.25500000000E-02 0. -1.
    8880022    1    1    2    0    0 -0.68838793924E+03 -0.55862653135E+03 -0.71987971926E+03  0.11521979082E+04  0.15294330000E+03 0.  0.
    8880022    1    1    2    0    0  0.68838793924E+03  0.55862653135E+03  0.12684201846E+04  0.15550636560E+04  0.15294330000E+03 0.  0.
<mgrwt>
<rscale>  0 0.89962948E+03</rscale>
<asrwt>0</asrwt>
<pdfrwt beam="1">  1        2 0.16605547E+00 0.89962948E+03</pdfrwt>
<pdfrwt beam="2">  1       -2 0.25044631E+00 0.89962948E+03</pdfrwt>
<totfact> 0.14481491E+00</totfact>
</mgrwt>
</event>
<event>
 4    1  0.3365401E-008  0.5411541E+03  0.7818608E-02  0.1003562E+00
         -2   -1    0    0    0  501 -0.00000000000E+00  0.00000000000E+00  0.23605525561E+03  0.23605525563E+03  0.25500000000E-02 0.  1.
          2   -1    0    0  501    0  0.00000000000E+00 -0.00000000000E+00 -0.17499901794E+04  0.17499901794E+04  0.25500000000E-02 0. -1.
    8880022    1    1    2    0    0  0.38916028103E+03 -0.34352635217E+03 -0.12927283786E+04  0.14014258428E+04  0.15294330000E+03 0.  0.
    8880022    1    1    2    0    0 -0.38916028103E+03  0.34352635217E+03 -0.22120654515E+03  0.58461959222E+03  0.15294330000E+03 0.  0.
<mgrwt>
<rscale>  0 0.54115407E+03</rscale>
<asrwt>0</asrwt>
<pdfrwt beam="1">  1        2 0.26922925E+00 0.54115407E+03</pdfrwt>
<pdfrwt beam="2">  1       -2 0.36316194E-01 0.54115407E+03</pdfrwt>
<totfact> 0.68994092E+01</totfact>
</mgrwt>
</event>
<event>
 4    1  0.3365401E-008  0.6284491E+03  0.7818608E-02  0.9848080E-01
         -2   -1    0    0    0  501 -0.00000000000E+00  0.00000000000E+00  0.19633507957E+03  0.19633507959E+03  0.25500000000E-02 0.  1.
          2   -1    0    0  501    0  0.00000000000E+00 -0.00000000000E+00 -0.23393443079E+04  0.23393443079E+04  0.25500000000E-02 0. -1.
    8880022    1    1    2    0    0  0.33174610282E+03 -0.51137182761E+03 -0.15460554308E+04  0.16689025349E+04  0.15294330000E+03 0.  0.
    8880022    1    1    2    0    0 -0.33174610282E+03  0.51137182761E+03 -0.59695379752E+03  0.86677685260E+03  0.15294330000E+03 0.  0.
<mgrwt>
<rscale>  0 0.62844910E+03</rscale>
<asrwt>0</asrwt>
<pdfrwt beam="1">  1        2 0.35989910E+00 0.62844910E+03</pdfrwt>
<pdfrwt beam="2">  1       -2 0.30205399E-01 0.62844910E+03</pdfrwt>
<totfact> 0.46010483E+01</totfact>
</mgrwt>
</event>
<event>
 4    1  0.3365401E-008  0.2103899E+03  0.7818608E-02  0.1141258E+00
         -2   -1    0    0    0  501 -0.00000000000E+00  0.00000000000E+00  0.61996606043E+02  0.61996606096E+02  0.25500000000E-02 0.  1.
          2   -1    0    0  501    0  0.00000000000E+00 -0.00000000000E+00 -0.18816974775E+04  0.18816974775E+04  0.25500000000E-02 0. -1.
    8880022    1    1    2    0    0  0.13651541538E+03  0.47284233193E+02 -0.14426584251E+03  0.25510104601E+03  0.15294330000E+03 0.  0.
    8880022    1    1    2    0    0 -0.13651541538E+03 -0.47284233193E+02 -0.16754350289E+04  0.16885930376E+04  0.15294330000E+03 0. -1.
<mgrwt>
<rscale>  0 0.21038990E+03</rscale>
<asrwt>0</asrwt>
<pdfrwt beam="1">  1        2 0.28949187E+00 0.21038990E+03</pdfrwt>
<pdfrwt beam="2">  1       -2 0.95379409E-02 0.21038990E+03</pdfrwt>
<totfact> 0.62090654E+02</totfact>
</mgrwt>
</event>
<event>
 4    1  0.3365401E-008  0.6048757E+03  0.7818608E-02  0.9895342E-01
         -2   -1    0    0    0  501 -0.00000000000E+00  0.00000000000E+00  0.15833995637E+03  0.15833995639E+03  0.25500000000E-02 0.  1.
          2   -1    0    0  501    0  0.00000000000E+00 -0.00000000000E+00 -0.31905636312E+04  0.31905636312E+04  0.25500000000E-02 0. -1.
    8880022    1    1    2    0    0  0.55267910354E+03  0.19242851618E+03 -0.23954361007E+04  0.24706251620E+04  0.15294330000E+03 0.  0.
    8880022    1    1    2    0    0 -0.55267910354E+03 -0.19242851618E+03 -0.63678757408E+03  0.87827842558E+03  0.15294330000E+03 0.  0.
<mgrwt>
<rscale>  0 0.60487567E+03</rscale>
<asrwt>0</asrwt>
<pdfrwt beam="1">  1        2 0.49085589E+00 0.60487567E+03</pdfrwt>
<pdfrwt beam="2">  1       -2 0.24359996E-01 0.60487567E+03</pdfrwt>
<totfact> 0.21626907E+01</totfact>
</mgrwt>
</event>
<event>
 4    1  0.3365401E-008  0.6066362E+03  0.7818608E-02  0.9891733E-01
          2   -1    0    0  501    0  0.00000000000E+00  0.00000000000E+00  0.24221146378E+04  0.24221146378E+04  0.25500000000E-02 0. -1.
         -2   -1    0    0    0  501 -0.00000000000E+00 -0.00000000000E+00 -0.22830887955E+03  0.22830887956E+03  0.25500000000E-02 0.  1.
    8880022    1    1    2    0    0  0.51141213425E+03  0.28822468196E+03  0.18633676397E+04  0.19596291619E+04  0.15294330000E+03 0.  0.
    8880022    1    1    2    0    0 -0.51141213425E+03 -0.28822468196E+03  0.33043811852E+03  0.69079435546E+03  0.15294330000E+03 0.  0.
<mgrwt>
<rscale>  0 0.60663621E+03</rscale>
<asrwt>0</asrwt>
<pdfrwt beam="1">  1        2 0.37263301E+00 0.60663621E+03</pdfrwt>
<pdfrwt beam="2">  1       -2 0.35124444E-01 0.60663621E+03</pdfrwt>
<totfact> 0.31295458E+01</totfact>
</mgrwt>
</event>
<event>
 4    1  0.3365401E-008  0.7216095E+03  0.7818608E-02  0.9680974E-01
         -2   -1    0    0    0  501 -0.00000000000E+00  0.00000000000E+00  0.36207041395E+03  0.36207041396E+03  0.25500000000E-02 0.  1.
          2   -1    0    0  501    0  0.00000000000E+00 -0.00000000000E+00 -0.16277746915E+04  0.16277746915E+04  0.25500000000E-02 0. -1.
    8880022    1    1    2    0    0 -0.69937955682E+03  0.90536848761E+02 -0.97240846453E+03  0.12109081552E+04  0.15294330000E+03 0.  0.
    8880022    1    1    2    0    0  0.69937955682E+03 -0.90536848761E+02 -0.29329581303E+03  0.77893695023E+03  0.15294330000E+03 0.  0.
<mgrwt>
<rscale>  0 0.72160955E+03</rscale>
<asrwt>0</asrwt>
<pdfrwt beam="1">  1        2 0.25042687E+00 0.72160955E+03</pdfrwt>
<pdfrwt beam="2">  1       -2 0.55703141E-01 0.72160955E+03</pdfrwt>
<totfact> 0.33510241E+01</totfact>
</mgrwt>
</event>
<event>
 4    1  0.3365401E-008  0.6568513E+03  0.7818608E-02  0.9794007E-01
         -2   -1    0    0    0  501 -0.00000000000E+00  0.00000000000E+00  0.94463505715E+03  0.94463505715E+03  0.25500000000E-02 0.  1.
          2   -1    0    0  501    0  0.00000000000E+00 -0.00000000000E+00 -0.14087979116E+04  0.14087979116E+04  0.25500000000E-02 0. -1.
    8880022    1    1    2    0    0 -0.35627296332E+02 -0.63780301700E+03 -0.11994209282E+04  0.13675029100E+04  0.15294330000E+03 0.  0.
    8880022    1    1    2    0    0  0.35627296332E+02  0.63780301700E+03  0.73525807377E+03  0.98593005877E+03  0.15294330000E+03 0.  0.
<mgrwt>
<rscale>  0 0.65685131E+03</rscale>
<asrwt>0</asrwt>
<pdfrwt beam="1">  1        2 0.21673814E+00 0.65685131E+03</pdfrwt>
<pdfrwt beam="2">  1       -2 0.14532847E+00 0.65685131E+03</pdfrwt>
<totfact> 0.48452479E+00</totfact>
</mgrwt>
</event>
<event>
 4    1  0.3365401E-008  0.1968172E+03  0.7818608E-02  0.1152452E+00
          2   -1    0    0  501    0  0.00000000000E+00  0.00000000000E+00  0.75563230557E+03  0.75563230557E+03  0.25500000000E-02 0. -1.
         -2   -1    0    0    0  501 -0.00000000000E+00 -0.00000000000E+00 -0.12479074437E+03  0.12479074440E+03  0.25500000000E-02 0.  1.
    8880022    1    1    2    0    0 -0.22960266433E+02 -0.12173002730E+03 -0.22481986590E+02  0.19809711284E+03  0.15294330000E+03 0.  1.
    8880022    1    1    2    0    0  0.22960266433E+02  0.12173002730E+03  0.65332354778E+03  0.68232593713E+03  0.15294330000E+03 0.  0.
<mgrwt>
<rscale>  0 0.19681724E+03</rscale>
<asrwt>0</asrwt>
<pdfrwt beam="1">  1        2 0.11625112E+00 0.19681724E+03</pdfrwt>
<pdfrwt beam="2">  1       -2 0.19198576E-01 0.19681724E+03</pdfrwt>
<totfact> 0.86378904E+02</totfact>
</mgrwt>
</event>
<event>
 4    1  0.3365401E-008  0.1775492E+03  0.7818608E-02  0.1170196E+00
          2   -1    0    0  501    0  0.00000000000E+00  0.00000000000E+00  0.80835519776E+03  0.80835519776E+03  0.25500000000E-02 0. -1.
         -2   -1    0    0    0  501 -0.00000000000E+00 -0.00000000000E+00 -0.54058199742E+02  0.54058199802E+02  0.25500000000E-02 0.  1.
    8880022    1    1    2    0    0  0.90072262641E+02 -0.43668787729E+01  0.14954496053E+03  0.23213666311E+03  0.15294330000E+03 0.  1.
    8880022    1    1    2    0    0 -0.90072262641E+02  0.43668787729E+01  0.60475203749E+03  0.63027673445E+03  0.15294330000E+03 0. -1.
<mgrwt>
<rscale>  0 0.17754925E+03</rscale>
<asrwt>0</asrwt>
<pdfrwt beam="1">  1        2 0.12436233E+00 0.17754925E+03</pdfrwt>
<pdfrwt beam="2">  1       -2 0.83166469E-02 0.17754925E+03</pdfrwt>
<totfact> 0.30763348E+03</totfact>
</mgrwt>
</event>
<event>
 4    1  0.3365401E-008  0.5027413E+03  0.7818608E-02  0.1013066E+00
         -2   -1    0    0    0  501 -0.00000000000E+00  0.00000000000E+00  0.29255657079E+03  0.29255657080E+03  0.25500000000E-02 0.  1.
          2   -1    0    0  501    0  0.00000000000E+00 -0.00000000000E+00 -0.13105479761E+04  0.13105479761E+04  0.25500000000E-02 0. -1.
    8880022    1    1    2    0    0 -0.59835607868E+02 -0.47515987689E+03 -0.41074507440E+02  0.50441647154E+03  0.15294330000E+03 0.  0.
    8880022    1    1    2    0    0  0.59835607868E+02  0.47515987689E+03 -0.97691689784E+03  0.10986880753E+04  0.15294330000E+03 0.  0.
<mgrwt>
<rscale>  0 0.50274135E+03</rscale>
<asrwt>0</asrwt>
<pdfrwt beam="1">  1        2 0.20162276E+00 0.50274135E+03</pdfrwt>
<pdfrwt beam="2">  1       -2 0.45008704E-01 0.50274135E+03</pdfrwt>
<totfact> 0.79739617E+01</totfact>
</mgrwt>
</event>
<event>
 4    1  0.3365401E-008  0.8009057E+03  0.7818608E-02  0.9558707E-01
         -2   -1    0    0    0  501 -0.00000000000E+00  0.00000000000E+00  0.14932398868E+04  0.14932398868E+04  0.25500000000E-02 0.  1.
          2   -1    0    0  501    0  0.00000000000E+00 -0.00000000000E+00 -0.76467993855E+03  0.76467993856E+03  0.25500000000E-02 0. -1.
    8880022    1    1    2    0    0 -0.66641988956E+03  0.41706459018E+03 -0.38308508276E+03  0.88780863660E+03  0.15294330000E+03 0.  0.
    8880022    1    1    2    0    0  0.66641988956E+03 -0.41706459018E+03  0.11116450310E+04  0.13701111888E+04  0.15294330000E+03 0.  0.
<mgrwt>
<rscale>  0 0.80090573E+03</rscale>
<asrwt>0</asrwt>
<pdfrwt beam="1">  1        2 0.11764307E+00 0.80090573E+03</pdfrwt>
<pdfrwt beam="2">  1       -2 0.22972921E+00 0.80090573E+03</pdfrwt>
<totfact> 0.32001180E+00</totfact>
</mgrwt>
</event>
<event>
 4    1  0.3365401E-008  0.4428869E+03  0.7818608E-02  0.1029865E+00
         -2   -1    0    0    0  501 -0.00000000000E+00  0.00000000000E+00  0.87167293103E+03  0.87167293103E+03  0.25500000000E-02 0.  1.
          2   -1    0    0  501    0  0.00000000000E+00 -0.00000000000E+00 -0.70609323113E+03  0.70609323113E+03  0.25500000000E-02 0. -1.
    8880022    1    1    2    0    0  0.15829837743E+03 -0.38431598278E+03  0.73394524732E+03  0.85721900935E+03  0.15294330000E+03 0.  1.
    8880022    1    1    2    0    0 -0.15829837743E+03  0.38431598278E+03 -0.56836554741E+03  0.72054715281E+03  0.15294330000E+03 0.  0.
<mgrwt>
<rscale>  0 0.44288690E+03</rscale>
<asrwt>0</asrwt>
<pdfrwt beam="1">  1        2 0.10862973E+00 0.44288690E+03</pdfrwt>
<pdfrwt beam="2">  1       -2 0.13410353E+00 0.44288690E+03</pdfrwt>
<totfact> 0.17149060E+01</totfact>
</mgrwt>
</event>
<event>
 4    1  0.3365401E-008  0.3457540E+03  0.7818608E-02  0.1064371E+00
         -2   -1    0    0    0  501 -0.00000000000E+00  0.00000000000E+00  0.77818153198E+02  0.77818153240E+02  0.25500000000E-02 0.  1.
          2   -1    0    0  501    0  0.00000000000E+00 -0.00000000000E+00 -0.29259854571E+04  0.29259854571E+04  0.25500000000E-02 0. -1.
    8880022    1    1    2    0    0 -0.24461989334E+03 -0.19056576530E+03 -0.38899843000E+03  0.52044753307E+03  0.15294330000E+03 0.  0.
    8880022    1    1    2    0    0  0.24461989334E+03  0.19056576530E+03 -0.24591688739E+04  0.24833560773E+04  0.15294330000E+03 0.  0.
<mgrwt>
<rscale>  0 0.34575404E+03</rscale>
<asrwt>0</asrwt>
<pdfrwt beam="1">  1        2 0.45015152E+00 0.34575404E+03</pdfrwt>
<pdfrwt beam="2">  1       -2 0.11972026E-01 0.34575404E+03</pdfrwt>
<totfact> 0.11204695E+02</totfact>
</mgrwt>
</event>
<event>
 4    1  0.3365401E-008  0.6081325E+03  0.7818608E-02  0.9888676E-01
         -2   -1    0    0    0  501 -0.00000000000E+00  0.00000000000E+00  0.17598209142E+04  0.17598209142E+04  0.25500000000E-02 0.  1.
          2   -1    0    0  501    0  0.00000000000E+00 -0.00000000000E+00 -0.11099222836E+04  0.11099222836E+04  0.25500000000E-02 0. -1.
    8880022    1    1    2    0    0  0.58535980815E+03  0.61541825592E+02 -0.96696355785E+03  0.11422975429E+04  0.15294330000E+03 0.  0.
    8880022    1    1    2    0    0 -0.58535980815E+03 -0.61541825592E+02  0.16168621884E+04  0.17274456549E+04  0.15294330000E+03 0.  1.
<mgrwt>
<rscale>  0 0.60813251E+03</rscale>
<asrwt>0</asrwt>
<pdfrwt beam="1">  1        2 0.17075728E+00 0.60813251E+03</pdfrwt>
<pdfrwt beam="2">  1       -2 0.27074168E+00 0.60813251E+03</pdfrwt>
<totfact> 0.11043779E+00</totfact>
</mgrwt>
</event>
<event>
 4    1  0.3365401E-008  0.3259229E+03  0.7818608E-02  0.1072955E+00
          2   -1    0    0  501    0  0.00000000000E+00  0.00000000000E+00  0.86373698557E+03  0.86373698557E+03  0.25500000000E-02 0. -1.
         -2   -1    0    0    0  501 -0.00000000000E+00 -0.00000000000E+00 -0.40174501188E+03  0.40174501189E+03  0.25500000000E-02 0.  1.
    8880022    1    1    2    0    0 -0.52710826663E+01 -0.28776086527E+03  0.75806418666E+03  0.82515881138E+03  0.15294330000E+03 0.  0.
    8880022    1    1    2    0    0  0.52710826663E+01  0.28776086527E+03 -0.29607221297E+03  0.44032318608E+03  0.15294330000E+03 0.  1.
<mgrwt>
<rscale>  0 0.32592292E+03</rscale>
<asrwt>0</asrwt>
<pdfrwt beam="1">  1        2 0.13288261E+00 0.32592292E+03</pdfrwt>
<pdfrwt beam="2">  1       -2 0.61806925E-01 0.32592292E+03</pdfrwt>
<totfact> 0.80064965E+01</totfact>
</mgrwt>
</event>
<event>
 4    1  0.3365401E-008  0.4914120E+03  0.7818608E-02  0.1016045E+00
          2   -1    0    0  501    0  0.00000000000E+00  0.00000000000E+00  0.38872436393E+03  0.38872436394E+03  0.25500000000E-02 0. -1.
         -2   -1    0    0    0  501 -0.00000000000E+00 -0.00000000000E+00 -0.73297073376E+03  0.73297073376E+03  0.25500000000E-02 0.  1.
    8880022    1    1    2    0    0 -0.45667849172E+03 -0.97666909867E+02 -0.39110842040E+03  0.62805375535E+03  0.15294330000E+03 0.  0.
    8880022    1    1    2    0    0  0.45667849172E+03  0.97666909867E+02  0.46862050575E+02  0.49364134235E+03  0.15294330000E+03 0.  0.
<mgrwt>
<rscale>  0 0.49141197E+03</rscale>
<asrwt>0</asrwt>
<pdfrwt beam="1">  1        2 0.59803748E-01 0.49141197E+03</pdfrwt>
<pdfrwt beam="2">  1       -2 0.11276473E+00 0.49141197E+03</pdfrwt>
<totfact> 0.52365135E+01</totfact>
</mgrwt>
</event>
<event>
 4    1  0.3365401E-008  0.3237757E+03  0.7818608E-02  0.1073925E+00
         -2   -1    0    0    0  501 -0.00000000000E+00  0.00000000000E+00  0.11455554953E+03  0.11455554955E+03  0.25500000000E-02 0.  1.
          2   -1    0    0  501    0  0.00000000000E+00 -0.00000000000E+00 -0.13995626374E+04  0.13995626374E+04  0.25500000000E-02 0. -1.
    8880022    1    1    2    0    0 -0.28528361946E+03  0.72309806249E+01 -0.10879138200E+04  0.11350714354E+04  0.15294330000E+03 0.  0.
    8880022    1    1    2    0    0  0.28528361946E+03 -0.72309806249E+01 -0.19709326781E+03  0.37904675153E+03  0.15294330000E+03 0.  0.
<mgrwt>
<rscale>  0 0.32377567E+03</rscale>
<asrwt>0</asrwt>
<pdfrwt beam="1">  1        2 0.21531732E+00 0.32377567E+03</pdfrwt>
<pdfrwt beam="2">  1       -2 0.17623932E-01 0.32377567E+03</pdfrwt>
<totfact> 0.40309634E+02</totfact>
</mgrwt>
</event>
<event>
 4    1  0.3365401E-008  0.5819943E+03  0.7818608E-02  0.9943483E-01
         -2   -1    0    0    0  501 -0.00000000000E+00  0.00000000000E+00  0.46070755982E+03  0.46070755983E+03  0.25500000000E-02 0.  1.
          2   -1    0    0  501    0  0.00000000000E+00 -0.00000000000E+00 -0.48417337861E+04  0.48417337862E+04  0.25500000000E-02 0. -1.
    8880022    1    1    2    0    0  0.10096958240E+03  0.55238648854E+03  0.25113196158E+03  0.63386481558E+03  0.15294330000E+03 0.  0.
    8880022    1    1    2    0    0 -0.10096958240E+03 -0.55238648854E+03 -0.46321581879E+04  0.46685765304E+04  0.15294330000E+03 0.  0.
<mgrwt>
<rscale>  0 0.58199428E+03</rscale>
<asrwt>0</asrwt>
<pdfrwt beam="1">  1        2 0.74488208E+00 0.58199428E+03</pdfrwt>
<pdfrwt beam="2">  1       -2 0.70878090E-01 0.58199428E+03</pdfrwt>
<totfact> 0.12001737E-01</totfact>
</mgrwt>
</event>
<event>
 4    1  0.3365401E-008  0.3350517E+03  0.7818608E-02  0.1068923E+00
         -2   -1    0    0    0  501 -0.00000000000E+00  0.00000000000E+00  0.89049039304E+03  0.89049039304E+03  0.25500000000E-02 0.  1.
          2   -1    0    0  501    0  0.00000000000E+00 -0.00000000000E+00 -0.36917432764E+03  0.36917432765E+03  0.25500000000E-02 0. -1.
    8880022    1    1    2    0    0  0.26672594048E+03 -0.13313617718E+03  0.77176298022E+03  0.84135469313E+03  0.15294330000E+03 0.  0.
    8880022    1    1    2    0    0 -0.26672594048E+03  0.13313617718E+03 -0.25044691482E+03  0.41831002756E+03  0.15294330000E+03 0.  0.
<mgrwt>
<rscale>  0 0.33505167E+03</rscale>
<asrwt>0</asrwt>
<pdfrwt beam="1">  1        2 0.56796051E-01 0.33505167E+03</pdfrwt>
<pdfrwt beam="2">  1       -2 0.13699852E+00 0.33505167E+03</pdfrwt>
<totfact> 0.34877527E+01</totfact>
</mgrwt>
</event>
<event>
 4    1  0.3365401E-008  0.6504218E+03  0.7818608E-02  0.9805988E-01
          2   -1    0    0  501    0  0.00000000000E+00  0.00000000000E+00  0.11687976599E+04  0.11687976599E+04  0.25500000000E-02 0. -1.
         -2   -1    0    0    0  501 -0.00000000000E+00 -0.00000000000E+00 -0.43681891673E+03  0.43681891674E+03  0.25500000000E-02 0.  1.
    8880022    1    1    2    0    0 -0.27558768690E+02 -0.63158319657E+03  0.33631060349E+02  0.65129065797E+03  0.15294330000E+03 0.  0.
    8880022    1    1    2    0    0  0.27558768690E+02  0.63158319657E+03  0.69834768282E+03  0.95432591866E+03  0.15294330000E+03 0.  0.
<mgrwt>
<rscale>  0 0.65042177E+03</rscale>
<asrwt>0</asrwt>
<pdfrwt beam="1">  1        2 0.17981503E+00 0.65042177E+03</pdfrwt>
<pdfrwt beam="2">  1       -2 0.67202909E-01 0.65042177E+03</pdfrwt>
<totfact> 0.41317348E+01</totfact>
</mgrwt>
</event>
<event>
 4    1  0.3365401E-008  0.2105273E+03  0.7818608E-02  0.1141149E+00
          2   -1    0    0  501    0  0.00000000000E+00  0.00000000000E+00  0.11874999735E+04  0.11874999735E+04  0.25500000000E-02 0. -1.
         -2   -1    0    0    0  501 -0.00000000000E+00 -0.00000000000E+00 -0.18004729728E+03  0.18004729730E+03  0.25500000000E-02 0.  1.
    8880022    1    1    2    0    0  0.32862735256E+00  0.14467196302E+03  0.11125158170E+04  0.11322602090E+04  0.15294330000E+03 0.  0.
    8880022    1    1    2    0    0 -0.32862735256E+00 -0.14467196302E+03 -0.10506314076E+03  0.23528706178E+03  0.15294330000E+03 0.  1.
<mgrwt>
<rscale>  0 0.21052729E+03</rscale>
<asrwt>0</asrwt>
<pdfrwt beam="1">  1        2 0.18269231E+00 0.21052729E+03</pdfrwt>
<pdfrwt beam="2">  1       -2 0.27699584E-01 0.21052729E+03</pdfrwt>
<totfact> 0.24496687E+02</totfact>
</mgrwt>
</event>
<event>
 4    1  0.3365401E-008  0.5317365E+03  0.7818608E-02  0.1005812E+00
         -2   -1    0    0    0  501 -0.00000000000E+00  0.00000000000E+00  0.11345908801E+03  0.11345908804E+03  0.25500000000E-02 0.  1.
          2   -1    0    0  501    0  0.00000000000E+00 -0.00000000000E+00 -0.38168723693E+04  0.38168723693E+04  0.25500000000E-02 0. -1.
    8880022    1    1    2    0    0 -0.38194042870E+03 -0.33685841973E+03 -0.69392395339E+03  0.87422776902E+03  0.15294330000E+03 0.  0.
    8880022    1    1    2    0    0  0.38194042870E+03  0.33685841973E+03 -0.30094893279E+04  0.30561036883E+04  0.15294330000E+03 0.  0.
<mgrwt>
<rscale>  0 0.53173653E+03</rscale>
<asrwt>0</asrwt>
<pdfrwt beam="1">  1        2 0.58721104E+00 0.53173653E+03</pdfrwt>
<pdfrwt beam="2">  1       -2 0.17455247E-01 0.53173653E+03</pdfrwt>
<totfact> 0.14792899E+01</totfact>
</mgrwt>
</event>
<event>
 4    1  0.3365401E-008  0.7463791E+03  0.7818608E-02  0.9641048E-01
          2   -1    0    0  501    0  0.00000000000E+00  0.00000000000E+00  0.57216978154E+03  0.57216978154E+03  0.25500000000E-02 0. -1.
         -2   -1    0    0    0  501 -0.00000000000E+00 -0.00000000000E+00 -0.16058186482E+04  0.16058186482E+04  0.25500000000E-02 0.  1.
    8880022    1    1    2    0    0 -0.11387302595E+03 -0.72161142895E+03 -0.12001074170E+04  0.14132726509E+04  0.15294330000E+03 0.  0.
    8880022    1    1    2    0    0  0.11387302595E+03  0.72161142895E+03  0.16645855032E+03  0.76471577885E+03  0.15294330000E+03 0.  0.
<mgrwt>
<rscale>  0 0.74637911E+03</rscale>
<asrwt>0</asrwt>
<pdfrwt beam="1">  1        2 0.88026121E-01 0.74637911E+03</pdfrwt>
<pdfrwt beam="2">  1       -2 0.24704902E+00 0.74637911E+03</pdfrwt>
<totfact> 0.36232381E+00</totfact>
</mgrwt>
</event>
<event>
 4    1  0.3365401E-008  0.7496258E+03  0.7818608E-02  0.9635938E-01
         -2   -1    0    0    0  501 -0.00000000000E+00  0.00000000000E+00  0.41466244758E+03  0.41466244759E+03  0.25500000000E-02 0.  1.
          2   -1    0    0  501    0  0.00000000000E+00 -0.00000000000E+00 -0.15493818472E+04  0.15493818472E+04  0.25500000000E-02 0. -1.
    8880022    1    1    2    0    0 -0.50641198333E+03  0.53112536407E+03 -0.91503814890E+03  0.11828920983E+04  0.15294330000E+03 0.  0.
    8880022    1    1    2    0    0  0.50641198333E+03 -0.53112536407E+03 -0.21968125075E+03  0.78115219654E+03  0.15294330000E+03 0.  0.
<mgrwt>
<rscale>  0 0.74962584E+03</rscale>
<asrwt>0</asrwt>
<pdfrwt beam="1">  1        2 0.23836644E+00 0.74962584E+03</pdfrwt>
<pdfrwt beam="2">  1       -2 0.63794223E-01 0.74962584E+03</pdfrwt>
<totfact> 0.27716963E+01</totfact>
</mgrwt>
</event>
<event>
 4    1  0.3365401E-008  0.2973842E+03  0.7818608E-02  0.1086556E+00
          2   -1    0    0  501    0  0.00000000000E+00  0.00000000000E+00  0.16927338694E+04  0.16927338694E+04  0.25500000000E-02 0. -1.
         -2   -1    0    0    0  501 -0.00000000000E+00 -0.00000000000E+00 -0.16650062196E+03  0.16650062198E+03  0.25500000000E-02 0.  1.
    8880022    1    1    2    0    0  0.23065637601E+03 -0.10882717609E+03  0.15331942063E+04  0.15617688194E+04  0.15294330000E+03 0. -1.
    8880022    1    1    2    0    0 -0.23065637601E+03  0.10882717609E+03 -0.69609588358E+01  0.29746567199E+03  0.15294330000E+03 0.  0.
<mgrwt>
<rscale>  0 0.29738421E+03</rscale>
<asrwt>0</asrwt>
<pdfrwt beam="1">  1        2 0.26042059E+00 0.29738421E+03</pdfrwt>
<pdfrwt beam="2">  1       -2 0.25615481E-01 0.29738421E+03</pdfrwt>
<totfact> 0.14716070E+02</totfact>
</mgrwt>
</event>
<event>
 4    1  0.3365401E-008  0.1618605E+04  0.7818608E-02  0.8809199E-01
          2   -1    0    0  501    0  0.00000000000E+00  0.00000000000E+00  0.31188692171E+04  0.31188692171E+04  0.25500000000E-02 0. -1.
         -2   -1    0    0    0  501 -0.00000000000E+00 -0.00000000000E+00 -0.11272125137E+04  0.11272125137E+04  0.25500000000E-02 0.  1.
    8880022    1    1    2    0    0  0.15303015035E+04 -0.50464482642E+03 -0.75813616446E+02  0.16203791069E+04  0.15294330000E+03 0.  0.
    8880022    1    1    2    0    0 -0.15303015035E+04  0.50464482642E+03  0.20674703199E+04  0.26257026239E+04  0.15294330000E+03 0.  0.
<mgrwt>
<rscale>  0 0.16186046E+04</rscale>
<asrwt>0</asrwt>
<pdfrwt beam="1">  1        2 0.47982602E+00 0.16186046E+04</pdfrwt>
<pdfrwt beam="2">  1       -2 0.17341731E+00 0.16186046E+04</pdfrwt>
<totfact> 0.27525131E-01</totfact>
</mgrwt>
</event>
<event>
 4    1  0.3365401E-008  0.2094643E+03  0.7818608E-02  0.1141991E+00
          2   -1    0    0  501    0  0.00000000000E+00  0.00000000000E+00  0.12434751266E+04  0.12434751266E+04  0.25500000000E-02 0. -1.
         -2   -1    0    0    0  501 -0.00000000000E+00 -0.00000000000E+00 -0.11087921306E+03  0.11087921309E+03  0.25500000000E-02 0.  1.
    8880022    1    1    2    0    0  0.10050455821E+02  0.14276778134E+03  0.11254413134E+04  0.11447678603E+04  0.15294330000E+03 0. -1.
    8880022    1    1    2    0    0 -0.10050455821E+02 -0.14276778134E+03  0.71546002071E+01  0.20958647946E+03  0.15294330000E+03 0.  0.
<mgrwt>
<rscale>  0 0.20946433E+03</rscale>
<asrwt>0</asrwt>
<pdfrwt beam="1">  1        2 0.19130386E+00 0.20946433E+03</pdfrwt>
<pdfrwt beam="2">  1       -2 0.17058341E-01 0.20946433E+03</pdfrwt>
<totfact> 0.52700376E+02</totfact>
</mgrwt>
</event>
<event>
 4    1  0.3365401E-008  0.8637450E+03  0.7818608E-02  0.9472072E-01
          2   -1    0    0  501    0  0.00000000000E+00  0.00000000000E+00  0.49114762590E+03  0.49114762590E+03  0.25500000000E-02 0. -1.
         -2   -1    0    0    0  501 -0.00000000000E+00 -0.00000000000E+00 -0.22936507039E+04  0.22936507039E+04  0.25500000000E-02 0.  1.
    8880022    1    1    2    0    0 -0.79401933633E+03 -0.30363975089E+03 -0.17104439668E+04  0.19161612722E+04  0.15294330000E+03 0.  0.
    8880022    1    1    2    0    0  0.79401933633E+03  0.30363975089E+03 -0.92059111239E+02  0.86863705756E+03  0.15294330000E+03 0.  0.
<mgrwt>
<rscale>  0 0.86374502E+03</rscale>
<asrwt>0</asrwt>
<pdfrwt beam="1">  1        2 0.75561175E-01 0.86374502E+03</pdfrwt>
<pdfrwt beam="2">  1       -2 0.35286933E+00 0.86374502E+03</pdfrwt>
<totfact> 0.97098710E-01</totfact>
</mgrwt>
</event>
<event>
 4    1  0.3365401E-008  0.8185473E+03  0.7818608E-02  0.9533552E-01
         -2   -1    0    0    0  501 -0.00000000000E+00  0.00000000000E+00  0.27757060890E+03  0.27757060892E+03  0.25500000000E-02 0.  1.
          2   -1    0    0  501    0  0.00000000000E+00 -0.00000000000E+00 -0.26227913556E+04  0.26227913556E+04  0.25500000000E-02 0. -1.
    8880022    1    1    2    0    0  0.55330902527E+03  0.58350421214E+03 -0.15818997895E+04  0.17811307195E+04  0.15294330000E+03 0.  0.
    8880022    1    1    2    0    0 -0.55330902527E+03 -0.58350421214E+03 -0.76332095720E+03  0.11192312450E+04  0.15294330000E+03 0.  0.
<mgrwt>
<rscale>  0 0.81854731E+03</rscale>
<asrwt>0</asrwt>
<pdfrwt beam="1">  1        2 0.40350634E+00 0.81854731E+03</pdfrwt>
<pdfrwt beam="2">  1       -2 0.42703173E-01 0.81854731E+03</pdfrwt>
<totfact> 0.15938879E+01</totfact>
</mgrwt>
</event>
<event>
 4    1  0.3365401E-008  0.6967806E+03  0.7818608E-02  0.9722754E-01
          2   -1    0    0  501    0  0.00000000000E+00  0.00000000000E+00  0.18458310744E+04  0.18458310744E+04  0.25500000000E-02 0. -1.
         -2   -1    0    0    0  501 -0.00000000000E+00 -0.00000000000E+00 -0.33709021472E+03  0.33709021473E+03  0.25500000000E-02 0.  1.
    8880022    1    1    2    0    0 -0.36987152135E+03  0.57035656633E+03  0.24276327675E+03  0.73785988955E+03  0.15294330000E+03 0.  0.
    8880022    1    1    2    0    0  0.36987152135E+03 -0.57035656633E+03  0.12659775829E+04  0.14450613996E+04  0.15294330000E+03 0.  0.
<mgrwt>
<rscale>  0 0.69678060E+03</rscale>
<asrwt>0</asrwt>
<pdfrwt beam="1">  1        2 0.28397401E+00 0.69678060E+03</pdfrwt>
<pdfrwt beam="2">  1       -2 0.51860034E-01 0.69678060E+03</pdfrwt>
<totfact> 0.29623969E+01</totfact>
</mgrwt>
</event>
<event>
 4    1  0.3365401E-008  0.1039849E+04  0.7818608E-02  0.9265888E-01
         -2   -1    0    0    0  501 -0.00000000000E+00  0.00000000000E+00  0.18819639250E+04  0.18819639250E+04  0.25500000000E-02 0.  1.
          2   -1    0    0  501    0  0.00000000000E+00 -0.00000000000E+00 -0.13650086836E+04  0.13650086836E+04  0.25500000000E-02 0. -1.
    8880022    1    1    2    0    0 -0.24043104101E+03  0.10000434870E+04  0.14939129651E+04  0.18201817661E+04  0.15294330000E+03 0.  0.
    8880022    1    1    2    0    0  0.24043104101E+03 -0.10000434870E+04 -0.97695772368E+03  0.14267908425E+04  0.15294330000E+03 0. -1.
<mgrwt>
<rscale>  0 0.10398489E+04</rscale>
<asrwt>0</asrwt>
<pdfrwt beam="1">  1        2 0.21000134E+00 0.10398489E+04</pdfrwt>
<pdfrwt beam="2">  1       -2 0.28953291E+00 0.10398489E+04</pdfrwt>
<totfact> 0.55643972E-01</totfact>
</mgrwt>
</event>
<event>
 4    1  0.3365401E-008  0.1970182E+03  0.7818608E-02  0.1152279E+00
         -2   -1    0    0    0  501 -0.00000000000E+00  0.00000000000E+00  0.26409858578E+03  0.26409858579E+03  0.25500000000E-02 0.  1.
          2   -1    0    0  501    0  0.00000000000E+00 -0.00000000000E+00 -0.55218324118E+03  0.55218324119E+03  0.25500000000E-02 0. -1.
    8880022    1    1    2    0    0  0.87025294524E+02 -0.88606543723E+02 -0.49367102990E+03  0.53153293431E+03  0.15294330000E+03 0.  0.
    8880022    1    1    2    0    0 -0.87025294524E+02  0.88606543723E+02  0.20558637451E+03  0.28474889267E+03  0.15294330000E+03 0.  0.
<mgrwt>
<rscale>  0 0.19701821E+03</rscale>
<asrwt>0</asrwt>
<pdfrwt beam="1">  1        2 0.84951267E-01 0.19701821E+03</pdfrwt>
<pdfrwt beam="2">  1       -2 0.40630552E-01 0.19701821E+03</pdfrwt>
<totfact> 0.32546809E+02</totfact>
</mgrwt>
</event>
<event>
 4    1  0.3365401E-008  0.5629687E+03  0.7818608E-02  0.9985360E-01
         -2   -1    0    0    0  501 -0.00000000000E+00  0.00000000000E+00  0.30752211060E+03  0.30752211061E+03  0.25500000000E-02 0.  1.
          2   -1    0    0  501    0  0.00000000000E+00 -0.00000000000E+00 -0.38942684247E+04  0.38942684247E+04  0.25500000000E-02 0. -1.
    8880022    1    1    2    0    0 -0.54033476492E+03 -0.39754819379E+02 -0.35949486449E+04  0.36387620857E+04  0.15294330000E+03 0.  0.
    8880022    1    1    2    0    0  0.54033476492E+03  0.39754819379E+02  0.82023307847E+01  0.56302844962E+03  0.15294330000E+03 0.  0.
<mgrwt>
<rscale>  0 0.56296870E+03</rscale>
<asrwt>0</asrwt>
<pdfrwt beam="1">  1        2 0.59911818E+00 0.56296870E+03</pdfrwt>
<pdfrwt beam="2">  1       -2 0.47311097E-01 0.56296870E+03</pdfrwt>
<totfact> 0.20452366E+00</totfact>
</mgrwt>
</event>
<event>
 4    1  0.3365401E-008  0.7224469E+03  0.7818608E-02  0.9679597E-01
         -2   -1    0    0    0  501 -0.00000000000E+00  0.00000000000E+00  0.11683660836E+04  0.11683660836E+04  0.25500000000E-02 0.  1.
          2   -1    0    0  501    0  0.00000000000E+00 -0.00000000000E+00 -0.82121023683E+03  0.82121023684E+03  0.25500000000E-02 0. -1.
    8880022    1    1    2    0    0 -0.61454712177E+03  0.34766328433E+03  0.84535492164E+03  0.11120047305E+04  0.15294330000E+03 0.  0.
    8880022    1    1    2    0    0  0.61454712177E+03 -0.34766328433E+03 -0.49819907489E+03  0.87757158989E+03  0.15294330000E+03 0. -1.
<mgrwt>
<rscale>  0 0.72244694E+03</rscale>
<asrwt>0</asrwt>
<pdfrwt beam="1">  1        2 0.12634004E+00 0.72244694E+03</pdfrwt>
<pdfrwt beam="2">  1       -2 0.17974863E+00 0.72244694E+03</pdfrwt>
<totfact> 0.61935589E+00</totfact>
</mgrwt>
</event>
<event>
 4    1  0.3365401E-008  0.3134106E+03  0.7818608E-02  0.1078723E+00
         -2   -1    0    0    0  501 -0.00000000000E+00  0.00000000000E+00  0.17654998320E+03  0.17654998322E+03  0.25500000000E-02 0.  1.
          2   -1    0    0  501    0  0.00000000000E+00 -0.00000000000E+00 -0.11764109773E+04  0.11764109773E+04  0.25500000000E-02 0. -1.
    8880022    1    1    2    0    0 -0.26589513285E+03 -0.64298985694E+02 -0.88104330653E+01  0.31353446059E+03  0.15294330000E+03 0.  0.
    8880022    1    1    2    0    0  0.26589513285E+03  0.64298985694E+02 -0.99105056104E+03  0.10394264999E+04  0.15294330000E+03 0.  0.
<mgrwt>
<rscale>  0 0.31341065E+03</rscale>
<asrwt>0</asrwt>
<pdfrwt beam="1">  1        2 0.18098630E+00 0.31341065E+03</pdfrwt>
<pdfrwt beam="2">  1       -2 0.27161537E-01 0.31341065E+03</pdfrwt>
<totfact> 0.25318220E+02</totfact>
</mgrwt>
</event>
<event>
 4    1  0.3365401E-008  0.5641916E+03  0.7818608E-02  0.9982615E-01
          2   -1    0    0  501    0  0.00000000000E+00  0.00000000000E+00  0.18931889939E+04  0.18931889939E+04  0.25500000000E-02 0. -1.
         -2   -1    0    0    0  501 -0.00000000000E+00 -0.00000000000E+00 -0.38187555674E+03  0.38187555675E+03  0.25500000000E-02 0.  1.
    8880022    1    1    2    0    0 -0.45241103308E+03 -0.30040759669E+03  0.16066886244E+04  0.17028683026E+04  0.15294330000E+03 0.  0.
    8880022    1    1    2    0    0  0.45241103308E+03  0.30040759669E+03 -0.95375187245E+02  0.57219624811E+03  0.15294330000E+03 0.  0.
<mgrwt>
<rscale>  0 0.56419156E+03</rscale>
<asrwt>0</asrwt>
<pdfrwt beam="1">  1        2 0.29125984E+00 0.56419156E+03</pdfrwt>
<pdfrwt beam="2">  1       -2 0.58750086E-01 0.56419156E+03</pdfrwt>
<totfact> 0.22018425E+01</totfact>
</mgrwt>
</event>
<event>
 4    1  0.3365401E-008  0.3104174E+03  0.7818608E-02  0.1080146E+00
         -2   -1    0    0    0  501 -0.00000000000E+00  0.00000000000E+00  0.68015926984E+03  0.68015926984E+03  0.25500000000E-02 0.  1.
          2   -1    0    0  501    0  0.00000000000E+00 -0.00000000000E+00 -0.12901852206E+04  0.12901852206E+04  0.25500000000E-02 0. -1.
    8880022    1    1    2    0    0  0.20130713467E+03  0.18011862498E+03 -0.12345234755E+04  0.12729521382E+04  0.15294330000E+03 0.  0.
    8880022    1    1    2    0    0 -0.20130713467E+03 -0.18011862498E+03  0.62449752475E+03  0.69739235224E+03  0.15294330000E+03 0.  0.
<mgrwt>
<rscale>  0 0.31041736E+03</rscale>
<asrwt>0</asrwt>
<pdfrwt beam="1">  1        2 0.19849003E+00 0.31041736E+03</pdfrwt>
<pdfrwt beam="2">  1       -2 0.10463989E+00 0.31041736E+03</pdfrwt>
<totfact> 0.13774053E+01</totfact>
</mgrwt>
</event>
<event>
 4    1  0.3365401E-008  0.2669447E+03  0.7818608E-02  0.1103041E+00
          2   -1    0    0  501    0  0.00000000000E+00  0.00000000000E+00  0.26145969540E+04  0.26145969540E+04  0.25500000000E-02 0. -1.
         -2   -1    0    0    0  501 -0.00000000000E+00 -0.00000000000E+00 -0.77917161239E+02  0.77917161281E+02  0.25500000000E-02 0.  1.
    8880022    1    1    2    0    0 -0.21056057830E+02 -0.21777158287E+03  0.18277565333E+03  0.32352188850E+03  0.15294330000E+03 0.  0.
    8880022    1    1    2    0    0  0.21056057830E+02  0.21777158287E+03  0.23539041395E+04  0.23689922268E+04  0.15294330000E+03 0.  0.
<mgrwt>
<rscale>  0 0.26694470E+03</rscale>
<asrwt>0</asrwt>
<pdfrwt beam="1">  1        2 0.40224574E+00 0.26694470E+03</pdfrwt>
<pdfrwt beam="2">  1       -2 0.11987254E-01 0.26694470E+03</pdfrwt>
<totfact> 0.17245410E+02</totfact>
</mgrwt>
</event>
<event>
 4    1  0.3365401E-008  0.7785806E+03  0.7818608E-02  0.9591549E-01
          2   -1    0    0  501    0  0.00000000000E+00  0.00000000000E+00  0.41005030122E+04  0.41005030122E+04  0.25500000000E-02 0. -1.
         -2   -1    0    0    0  501 -0.00000000000E+00 -0.00000000000E+00 -0.29696522724E+03  0.29696522725E+03  0.25500000000E-02 0.  1.
    8880022    1    1    2    0    0  0.74388680904E+03 -0.17154721149E+03  0.34599085120E+04  0.35464284280E+04  0.15294330000E+03 0.  0.
    8880022    1    1    2    0    0 -0.74388680904E+03  0.17154721149E+03  0.34362927297E+03  0.85103981146E+03  0.15294330000E+03 0.  0.
<mgrwt>
<rscale>  0 0.77858056E+03</rscale>
<asrwt>0</asrwt>
<pdfrwt beam="1">  1        2 0.63084653E+00 0.77858056E+03</pdfrwt>
<pdfrwt beam="2">  1       -2 0.45686964E-01 0.77858056E+03</pdfrwt>
<totfact> 0.14237855E+00</totfact>
</mgrwt>
</event>
<event>
 4    1  0.3365401E-008  0.1446493E+04  0.7818608E-02  0.8920836E-01
         -2   -1    0    0    0  501 -0.00000000000E+00  0.00000000000E+00  0.33694307795E+04  0.33694307795E+04  0.25500000000E-02 0.  1.
          2   -1    0    0  501    0  0.00000000000E+00 -0.00000000000E+00 -0.18027484589E+04  0.18027484589E+04  0.25500000000E-02 0. -1.
    8880022    1    1    2    0    0 -0.12254533844E+04  0.75313601854E+03 -0.13104946201E+04  0.19518549285E+04  0.15294330000E+03 0. -1.
    8880022    1    1    2    0    0  0.12254533844E+04 -0.75313601854E+03  0.28771769407E+04  0.32203243099E+04  0.15294330000E+03 0.  0.
<mgrwt>
<rscale>  0 0.14464928E+04</rscale>
<asrwt>0</asrwt>
<pdfrwt beam="1">  1        2 0.27734592E+00 0.14464928E+04</pdfrwt>
<pdfrwt beam="2">  1       -2 0.51837397E+00 0.14464928E+04</pdfrwt>
<totfact> 0.10257268E-02</totfact>
</mgrwt>
</event>
<event>
 4    1  0.3365401E-008  0.5686054E+03  0.7818608E-02  0.9972770E-01
         -2   -1    0    0    0  501 -0.00000000000E+00  0.00000000000E+00  0.20422016712E+03  0.20422016713E+03  0.25500000000E-02 0.  1.
          2   -1    0    0  501    0  0.00000000000E+00 -0.00000000000E+00 -0.18321484442E+04  0.18321484442E+04  0.25500000000E-02 0. -1.
    8880022    1    1    2    0    0 -0.45274261924E+03 -0.30813068385E+03 -0.43861054967E+03  0.71811647029E+03  0.15294330000E+03 0.  0.
    8880022    1    1    2    0    0  0.45274261924E+03  0.30813068385E+03 -0.11893177274E+04  0.13182521410E+04  0.15294330000E+03 0.  0.
<mgrwt>
<rscale>  0 0.56860536E+03</rscale>
<asrwt>0</asrwt>
<pdfrwt beam="1">  1        2 0.28186898E+00 0.56860536E+03</pdfrwt>
<pdfrwt beam="2">  1       -2 0.31418489E-01 0.56860536E+03</pdfrwt>
<totfact> 0.81518298E+01</totfact>
</mgrwt>
</event>
<event>
 4    1  0.3365401E-008  0.7359600E+03  0.7818608E-02  0.9657638E-01
          2   -1    0    0  501    0  0.00000000000E+00  0.00000000000E+00  0.14177188814E+04  0.14177188814E+04  0.25500000000E-02 0. -1.
         -2   -1    0    0    0  501 -0.00000000000E+00 -0.00000000000E+00 -0.79246300115E+03  0.79246300116E+03  0.25500000000E-02 0.  1.
    8880022    1    1    2    0    0 -0.63230593783E+03 -0.34414337063E+03 -0.48265188874E+03  0.88010792366E+03  0.15294330000E+03 0.  0.
    8880022    1    1    2    0    0  0.63230593783E+03  0.34414337063E+03  0.11079077690E+04  0.13300739589E+04  0.15294330000E+03 0.  0.
<mgrwt>
<rscale>  0 0.73595999E+03</rscale>
<asrwt>0</asrwt>
<pdfrwt beam="1">  1        2 0.21811060E+00 0.73595999E+03</pdfrwt>
<pdfrwt beam="2">  1       -2 0.12191739E+00 0.73595999E+03</pdfrwt>
<totfact> 0.74004518E+00</totfact>
</mgrwt>
</event>
<event>
 4    1  0.3365401E-008  0.2679811E+03  0.7818608E-02  0.1102441E+00
         -2   -1    0    0    0  501 -0.00000000000E+00  0.00000000000E+00  0.12419479590E+03  0.12419479593E+03  0.25500000000E-02 0.  1.
          2   -1    0    0  501    0  0.00000000000E+00 -0.00000000000E+00 -0.12775527503E+04  0.12775527503E+04  0.25500000000E-02 0. -1.
    8880022    1    1    2    0    0  0.19119397383E+03  0.10893605848E+03 -0.10952251998E+04  0.11275336322E+04  0.15294330000E+03 0.  0.
    8880022    1    1    2    0    0 -0.19119397383E+03 -0.10893605848E+03 -0.58132754578E+02  0.27421391401E+03  0.15294330000E+03 0.  0.
<mgrwt>
<rscale>  0 0.26798107E+03</rscale>
<asrwt>0</asrwt>
<pdfrwt beam="1">  1        2 0.19654657E+00 0.26798107E+03</pdfrwt>
<pdfrwt beam="2">  1       -2 0.19106893E-01 0.26798107E+03</pdfrwt>
<totfact> 0.41325531E+02</totfact>
</mgrwt>
</event>
<event>
 4    1  0.3365401E-008  0.7047184E+03  0.7818608E-02  0.9709197E-01
         -2   -1    0    0    0  501 -0.00000000000E+00  0.00000000000E+00  0.56193388284E+03  0.56193388285E+03  0.25500000000E-02 0.  1.
          2   -1    0    0  501    0  0.00000000000E+00 -0.00000000000E+00 -0.10974672664E+04  0.10974672664E+04  0.25500000000E-02 0. -1.
    8880022    1    1    2    0    0 -0.68792177856E+03 -0.91517959086E-01  0.98342904860E+02  0.71154716059E+03  0.15294330000E+03 0.  0.
    8880022    1    1    2    0    0  0.68792177856E+03  0.91517959086E-01 -0.63387628845E+03  0.94785398869E+03  0.15294330000E+03 0.  0.
<mgrwt>
<rscale>  0 0.70471841E+03</rscale>
<asrwt>0</asrwt>
<pdfrwt beam="1">  1        2 0.16884112E+00 0.70471841E+03</pdfrwt>
<pdfrwt beam="2">  1       -2 0.86451367E-01 0.70471841E+03</pdfrwt>
<totfact> 0.25913199E+01</totfact>
</mgrwt>
</event>
<event>
 4    1  0.3365401E-008  0.5226213E+03  0.7818608E-02  0.1008037E+00
         -2   -1    0    0    0  501 -0.00000000000E+00  0.00000000000E+00  0.19632513554E+04  0.19632513554E+04  0.25500000000E-02 0.  1.
          2   -1    0    0  501    0  0.00000000000E+00 -0.00000000000E+00 -0.21013805431E+03  0.21013805433E+03  0.25500000000E-02 0. -1.
    8880022    1    1    2    0    0  0.46050074157E+03  0.19411446231E+03  0.15082859859E+04  0.15962642719E+04  0.15294330000E+03 0.  1.
    8880022    1    1    2    0    0 -0.46050074157E+03 -0.19411446231E+03  0.24482731522E+03  0.57712513787E+03  0.15294330000E+03 0.  0.
<mgrwt>
<rscale>  0 0.52262129E+03</rscale>
<asrwt>0</asrwt>
<pdfrwt beam="1">  1        2 0.32328932E-01 0.52262129E+03</pdfrwt>
<pdfrwt beam="2">  1       -2 0.30203866E+00 0.52262129E+03</pdfrwt>
<totfact> 0.54301862E+00</totfact>
</mgrwt>
</event>
<event>
 4    1  0.3365401E-008  0.4084491E+03  0.7818608E-02  0.1040893E+00
         -2   -1    0    0    0  501 -0.00000000000E+00  0.00000000000E+00  0.50596585617E+02  0.50596585682E+02  0.25500000000E-02 0.  1.
          2   -1    0    0  501    0  0.00000000000E+00 -0.00000000000E+00 -0.36418423771E+04  0.36418423771E+04  0.25500000000E-02 0. -1.
    8880022    1    1    2    0    0 -0.29318741041E+03  0.23975012740E+03 -0.23635107882E+04  0.23985441167E+04  0.15294330000E+03 0.  0.
    8880022    1    1    2    0    0  0.29318741041E+03 -0.23975012740E+03 -0.12277350034E+04  0.12938948461E+04  0.15294330000E+03 0. -1.
<mgrwt>
<rscale>  0 0.40844906E+03</rscale>
<asrwt>0</asrwt>
<pdfrwt beam="1">  1        2 0.56028324E+00 0.40844906E+03</pdfrwt>
<pdfrwt beam="2">  1       -2 0.77840930E-02 0.40844906E+03</pdfrwt>
<totfact> 0.76733969E+01</totfact>
</mgrwt>
</event>
<event>
 4    1  0.3365401E-008  0.3476945E+03  0.7818608E-02  0.1063565E+00
         -2   -1    0    0    0  501 -0.00000000000E+00  0.00000000000E+00  0.17051577129E+03  0.17051577131E+03  0.25500000000E-02 0.  1.
          2   -1    0    0  501    0  0.00000000000E+00 -0.00000000000E+00 -0.78346638165E+03  0.78346638165E+03  0.25500000000E-02 0. -1.
    8880022    1    1    2    0    0 -0.30521124960E+03 -0.65923310917E+02 -0.15939562448E+03  0.38248974878E+03  0.15294330000E+03 0.  0.
    8880022    1    1    2    0    0  0.30521124960E+03  0.65923310917E+02 -0.45355498588E+03  0.57149240418E+03  0.15294330000E+03 0. -1.
<mgrwt>
<rscale>  0 0.34769447E+03</rscale>
<asrwt>0</asrwt>
<pdfrwt beam="1">  1        2 0.12053329E+00 0.34769447E+03</pdfrwt>
<pdfrwt beam="2">  1       -2 0.26233196E-01 0.34769447E+03</pdfrwt>
<totfact> 0.47566234E+02</totfact>
</mgrwt>
</event>
<event>
 4    1  0.3365401E-008  0.8754357E+03  0.7818608E-02  0.9456820E-01
         -2   -1    0    0    0  501 -0.00000000000E+00  0.00000000000E+00  0.58598731795E+03  0.58598731796E+03  0.25500000000E-02 0.  1.
          2   -1    0    0  501    0  0.00000000000E+00 -0.00000000000E+00 -0.23571690201E+04  0.23571690201E+04  0.25500000000E-02 0. -1.
    8880022    1    1    2    0    0  0.86088275620E+03  0.43323078154E+02 -0.18674298574E+04  0.20624456197E+04  0.15294330000E+03 0.  0.
    8880022    1    1    2    0    0 -0.86088275620E+03 -0.43323078154E+02  0.96248155234E+02  0.88071071835E+03  0.15294330000E+03 0.  0.
<mgrwt>
<rscale>  0 0.87543570E+03</rscale>
<asrwt>0</asrwt>
<pdfrwt beam="1">  1        2 0.36264138E+00 0.87543570E+03</pdfrwt>
<pdfrwt beam="2">  1       -2 0.90151896E-01 0.87543570E+03</pdfrwt>
<totfact> 0.45363539E+00</totfact>
</mgrwt>
</event>
<event>
 4    1  0.3365401E-008  0.5203379E+03  0.7818608E-02  0.1008603E+00
          2   -1    0    0  501    0  0.00000000000E+00  0.00000000000E+00  0.24059989633E+04  0.24059989633E+04  0.25500000000E-02 0. -1.
         -2   -1    0    0    0  501 -0.00000000000E+00 -0.00000000000E+00 -0.61208215202E+03  0.61208215202E+03  0.25500000000E-02 0.  1.
    8880022    1    1    2    0    0  0.50971101676E+02  0.49473409928E+03  0.22602402892E+04  0.23193614854E+04  0.15294330000E+03 0.  0.
    8880022    1    1    2    0    0 -0.50971101676E+02 -0.49473409928E+03 -0.46632347788E+03  0.69871962992E+03  0.15294330000E+03 0.  1.
<mgrwt>
<rscale>  0 0.52033790E+03</rscale>
<asrwt>0</asrwt>
<pdfrwt beam="1">  1        2 0.37015368E+00 0.52033790E+03</pdfrwt>
<pdfrwt beam="2">  1       -2 0.94166486E-01 0.52033790E+03</pdfrwt>
<totfact> 0.41328739E+00</totfact>
</mgrwt>
</event>
<event>
 4    1  0.3365401E-008  0.2100561E+03  0.7818608E-02  0.1141522E+00
          2   -1    0    0  501    0  0.00000000000E+00  0.00000000000E+00  0.14058220916E+04  0.14058220916E+04  0.25500000000E-02 0. -1.
         -2   -1    0    0    0  501 -0.00000000000E+00 -0.00000000000E+00 -0.42389404400E+03  0.42389404401E+03  0.25500000000E-02 0.  1.
    8880022    1    1    2    0    0  0.65743544134E+02  0.12810030878E+03 -0.38937342987E+03  0.44241973691E+03  0.15294330000E+03 0.  0.
    8880022    1    1    2    0    0 -0.65743544134E+02 -0.12810030878E+03  0.13713014774E+04  0.13872963987E+04  0.15294330000E+03 0. -1.
<mgrwt>
<rscale>  0 0.21005608E+03</rscale>
<asrwt>0</asrwt>
<pdfrwt beam="1">  1        2 0.21628032E+00 0.21005608E+03</pdfrwt>
<pdfrwt beam="2">  1       -2 0.65214468E-01 0.21005608E+03</pdfrwt>
<totfact> 0.35371943E+01</totfact>
</mgrwt>
</event>
<event>
 4    1  0.3365401E-008  0.2505133E+03  0.7818608E-02  0.1112981E+00
          2   -1    0    0  501    0  0.00000000000E+00  0.00000000000E+00  0.13012365386E+04  0.13012365386E+04  0.25500000000E-02 0. -1.
         -2   -1    0    0    0  501 -0.00000000000E+00 -0.00000000000E+00 -0.18962634389E+03  0.18962634390E+03  0.25500000000E-02 0.  1.
    8880022    1    1    2    0    0 -0.74013427320E+02 -0.18408499226E+03  0.11994991302E+04  0.12253795690E+04  0.15294330000E+03 0.  0.
    8880022    1    1    2    0    0  0.74013427320E+02  0.18408499226E+03 -0.87888935411E+02  0.26548331356E+03  0.15294330000E+03 0.  0.
<mgrwt>
<rscale>  0 0.25051332E+03</rscale>
<asrwt>0</asrwt>
<pdfrwt beam="1">  1        2 0.20019025E+00 0.25051332E+03</pdfrwt>
<pdfrwt beam="2">  1       -2 0.29173282E-01 0.25051332E+03</pdfrwt>
<totfact> 0.19117098E+02</totfact>
</mgrwt>
</event>
<event>
 4    1  0.3365401E-008  0.8223254E+03  0.7818608E-02  0.9528253E-01
          2   -1    0    0  501    0  0.00000000000E+00  0.00000000000E+00  0.91446658826E+03  0.91446658826E+03  0.25500000000E-02 0. -1.
         -2   -1    0    0    0  501 -0.00000000000E+00 -0.00000000000E+00 -0.13179324217E+04  0.13179324217E+04  0.25500000000E-02 0.  1.
    8880022    1    1    2    0    0 -0.80462225159E+03  0.73555394061E+02  0.53775908915E+03  0.98254967036E+03  0.15294330000E+03 0.  0.
    8880022    1    1    2    0    0  0.80462225159E+03 -0.73555394061E+02 -0.94122492255E+03  0.12498493396E+04  0.15294330000E+03 0.  0.
<mgrwt>
<rscale>  0 0.82232537E+03</rscale>
<asrwt>0</asrwt>
<pdfrwt beam="1">  1        2 0.14068717E+00 0.82232537E+03</pdfrwt>
<pdfrwt beam="2">  1       -2 0.20275884E+00 0.82232537E+03</pdfrwt>
<totfact> 0.37070534E+00</totfact>
</mgrwt>
</event>
<event>
 4    1  0.3365401E-008  0.1976739E+03  0.7818608E-02  0.1151716E+00
         -2   -1    0    0    0  501 -0.00000000000E+00  0.00000000000E+00  0.74347848120E+03  0.74347848121E+03  0.25500000000E-02 0.  1.
          2   -1    0    0  501    0  0.00000000000E+00 -0.00000000000E+00 -0.59359644165E+03  0.59359644165E+03  0.25500000000E-02 0. -1.
    8880022    1    1    2    0    0  0.10593806246E+03 -0.66786588279E+02  0.71319653989E+03  0.74008396752E+03  0.15294330000E+03 0.  1.
    8880022    1    1    2    0    0 -0.10593806246E+03  0.66786588279E+02 -0.56331450034E+03  0.59699095534E+03  0.15294330000E+03 0.  0.
<mgrwt>
<rscale>  0 0.19767391E+03</rscale>
<asrwt>0</asrwt>
<pdfrwt beam="1">  1        2 0.91322529E-01 0.19767391E+03</pdfrwt>
<pdfrwt beam="2">  1       -2 0.11438131E+00 0.19767391E+03</pdfrwt>
<totfact> 0.32910587E+01</totfact>
</mgrwt>
</event>
<event>
 4    1  0.3365401E-008  0.2731891E+03  0.7818608E-02  0.1099468E+00
          2   -1    0    0  501    0  0.00000000000E+00  0.00000000000E+00  0.88492871229E+03  0.88492871229E+03  0.25500000000E-02 0. -1.
         -2   -1    0    0    0  501 -0.00000000000E+00 -0.00000000000E+00 -0.17634615840E+04  0.17634615840E+04  0.25500000000E-02 0.  1.
    8880022    1    1    2    0    0 -0.18752255029E+03 -0.12679087894E+03  0.85287615848E+03  0.89556129247E+03  0.15294330000E+03 0.  0.
    8880022    1    1    2    0    0  0.18752255029E+03  0.12679087894E+03 -0.17314090302E+04  0.17528290039E+04  0.15294330000E+03 0.  0.
<mgrwt>
<rscale>  0 0.27318910E+03</rscale>
<asrwt>0</asrwt>
<pdfrwt beam="1">  1        2 0.13614288E+00 0.27318910E+03</pdfrwt>
<pdfrwt beam="2">  1       -2 0.27130178E+00 0.27318910E+03</pdfrwt>
<totfact> 0.16963030E+00</totfact>
</mgrwt>
</event>
<event>
 4    1  0.3365401E-008  0.1839038E+04  0.7818608E-02  0.8685811E-01
         -2   -1    0    0    0  501 -0.00000000000E+00  0.00000000000E+00  0.16069828767E+04  0.16069828767E+04  0.25500000000E-02 0.  1.
          2   -1    0    0  501    0  0.00000000000E+00 -0.00000000000E+00 -0.38638261517E+04  0.38638261517E+04  0.25500000000E-02 0. -1.
    8880022    1    1    2    0    0 -0.16561918897E+04  0.78466395202E+03 -0.29741732419E+04  0.34968224460E+04  0.15294330000E+03 0.  0.
    8880022    1    1    2    0    0  0.16561918897E+04 -0.78466395202E+03  0.71732996685E+03  0.19739865824E+04  0.15294330000E+03 0.  0.
<mgrwt>
<rscale>  0 0.18390380E+04</rscale>
<asrwt>0</asrwt>
<pdfrwt beam="1">  1        2 0.59443479E+00 0.18390380E+04</pdfrwt>
<pdfrwt beam="2">  1       -2 0.24722814E+00 0.18390380E+04</pdfrwt>
<totfact> 0.26601002E-02</totfact>
</mgrwt>
</event>
<event>
 4    1  0.3365401E-008  0.2785741E+03  0.7818608E-02  0.1096470E+00
         -2   -1    0    0    0  501 -0.00000000000E+00  0.00000000000E+00  0.96513776971E+03  0.96513776971E+03  0.25500000000E-02 0.  1.
          2   -1    0    0  501    0  0.00000000000E+00 -0.00000000000E+00 -0.16712220311E+03  0.16712220313E+03  0.25500000000E-02 0. -1.
    8880022    1    1    2    0    0 -0.19983513101E+03 -0.11948971433E+03  0.80680804994E+03  0.85354715972E+03  0.15294330000E+03 0.  0.
    8880022    1    1    2    0    0  0.19983513101E+03  0.11948971433E+03 -0.87924833368E+01  0.27871281312E+03  0.15294330000E+03 0. -1.
<mgrwt>
<rscale>  0 0.27857409E+03</rscale>
<asrwt>0</asrwt>
<pdfrwt beam="1">  1        2 0.25711108E-01 0.27857409E+03</pdfrwt>
<pdfrwt beam="2">  1       -2 0.14848273E+00 0.27857409E+03</pdfrwt>
<totfact> 0.68193055E+01</totfact>
</mgrwt>
</event>
<event>
 4    1  0.3365401E-008  0.5700599E+03  0.7818608E-02  0.9969546E-01
          2   -1    0    0  501    0  0.00000000000E+00  0.00000000000E+00  0.22000895228E+04  0.22000895228E+04  0.25500000000E-02 0. -1.
         -2   -1    0    0    0  501 -0.00000000000E+00 -0.00000000000E+00 -0.23008649084E+03  0.23008649085E+03  0.25500000000E-02 0.  1.
    8880022    1    1    2    0    0  0.51138993469E+03  0.20014237709E+03  0.17120646524E+04  0.18044760080E+04  0.15294330000E+03 0.  0.
    8880022    1    1    2    0    0 -0.51138993469E+03 -0.20014237709E+03  0.25793837954E+03  0.62570000564E+03  0.15294330000E+03 0.  1.
<mgrwt>
<rscale>  0 0.57005990E+03</rscale>
<asrwt>0</asrwt>
<pdfrwt beam="1">  1        2 0.33847531E+00 0.57005990E+03</pdfrwt>
<pdfrwt beam="2">  1       -2 0.35397922E-01 0.57005990E+03</pdfrwt>
<totfact> 0.41154380E+01</totfact>
</mgrwt>
</event>
<event>
 4    1  0.3365401E-008  0.4444517E+03  0.7818608E-02  0.1029390E+00
          2   -1    0    0  501    0  0.00000000000E+00  0.00000000000E+00  0.36425347586E+04  0.36425347586E+04  0.25500000000E-02 0. -1.
         -2   -1    0    0    0  501 -0.00000000000E+00 -0.00000000000E+00 -0.13486141948E+03  0.13486141950E+03  0.25500000000E-02 0.  1.
    8880022    1    1    2    0    0 -0.22495834543E+03  0.35148170304E+03  0.29344656983E+03  0.53258631893E+03  0.15294330000E+03 0.  1.
    8880022    1    1    2    0    0  0.22495834543E+03 -0.35148170304E+03  0.32142267693E+04  0.32448098592E+04  0.15294330000E+03 0.  0.
<mgrwt>
<rscale>  0 0.44445168E+03</rscale>
<asrwt>0</asrwt>
<pdfrwt beam="1">  1        2 0.56039005E+00 0.44445168E+03</pdfrwt>
<pdfrwt beam="2">  1       -2 0.20747908E-01 0.44445168E+03</pdfrwt>
<totfact> 0.15027696E+01</totfact>
</mgrwt>
</event>
<event>
 4    1  0.3365401E-008  0.5803751E+03  0.7818608E-02  0.9946979E-01
          2   -1    0    0  501    0  0.00000000000E+00  0.00000000000E+00  0.94917088469E+03  0.94917088470E+03  0.25500000000E-02 0. -1.
         -2   -1    0    0    0  501 -0.00000000000E+00 -0.00000000000E+00 -0.48011630611E+03  0.48011630612E+03  0.25500000000E-02 0.  1.
    8880022    1    1    2    0    0 -0.53134047179E+03 -0.17641131413E+03 -0.13047299817E+03  0.59486007176E+03  0.15294330000E+03 0.  0.
    8880022    1    1    2    0    0  0.53134047179E+03  0.17641131413E+03  0.59952757675E+03  0.83442711905E+03  0.15294330000E+03 0.  0.
<mgrwt>
<rscale>  0 0.58037514E+03</rscale>
<asrwt>0</asrwt>
<pdfrwt beam="1">  1        2 0.14602629E+00 0.58037514E+03</pdfrwt>
<pdfrwt beam="2">  1       -2 0.73864047E-01 0.58037514E+03</pdfrwt>
<totfact> 0.46345337E+01</totfact>
</mgrwt>
</event>
<event>
 4    1  0.3365401E-008  0.3485813E+03  0.7818608E-02  0.1063199E+00
         -2   -1    0    0    0  501 -0.00000000000E+00  0.00000000000E+00  0.17366147501E+03  0.17366147503E+03  0.25500000000E-02 0.  1.
          2   -1    0    0  501    0  0.00000000000E+00 -0.00000000000E+00 -0.15138712233E+04  0.15138712233E+04  0.25500000000E-02 0. -1.
    8880022    1    1    2    0    0  0.20818649275E+03 -0.23404198944E+03 -0.51321410632E+02  0.35233905374E+03  0.15294330000E+03 0.  0.
    8880022    1    1    2    0    0 -0.20818649275E+03  0.23404198944E+03 -0.12888883376E+04  0.13351936445E+04  0.15294330000E+03 0.  0.
<mgrwt>
<rscale>  0 0.34858130E+03</rscale>
<asrwt>0</asrwt>
<pdfrwt beam="1">  1        2 0.23290326E+00 0.34858130E+03</pdfrwt>
<pdfrwt beam="2">  1       -2 0.26717151E-01 0.34858130E+03</pdfrwt>
<totfact> 0.16840886E+02</totfact>
</mgrwt>
</event>
<event>
 4    1  0.3365401E-008  0.2593175E+03  0.7818608E-02  0.1107554E+00
          2   -1    0    0  501    0  0.00000000000E+00  0.00000000000E+00  0.37393064148E+03  0.37393064148E+03  0.25500000000E-02 0. -1.
         -2   -1    0    0    0  501 -0.00000000000E+00 -0.00000000000E+00 -0.50721323233E+03  0.50721323233E+03  0.25500000000E-02 0.  1.
    8880022    1    1    2    0    0 -0.10603811609E+03  0.18058188879E+03  0.28731277389E+03  0.38703253568E+03  0.15294330000E+03 0.  0.
    8880022    1    1    2    0    0  0.10603811609E+03 -0.18058188879E+03 -0.42059536474E+03  0.49411133814E+03  0.15294330000E+03 0.  1.
<mgrwt>
<rscale>  0 0.25931748E+03</rscale>
<asrwt>0</asrwt>
<pdfrwt beam="1">  1        2 0.57527792E-01 0.25931748E+03</pdfrwt>
<pdfrwt beam="2">  1       -2 0.78032804E-01 0.25931748E+03</pdfrwt>
<totfact> 0.13073683E+02</totfact>
</mgrwt>
</event>
<event>
 4    1  0.3365401E-008  0.2598148E+03  0.7818608E-02  0.1107255E+00
          2   -1    0    0  501    0  0.00000000000E+00  0.00000000000E+00  0.19153305151E+04  0.19153305151E+04  0.25500000000E-02 0. -1.
         -2   -1    0    0    0  501 -0.00000000000E+00 -0.00000000000E+00 -0.56678976649E+02  0.56678976706E+02  0.25500000000E-02 0.  1.
    8880022    1    1    2    0    0 -0.13965873807E+03  0.15686790127E+03  0.32296607162E+03  0.41450070929E+03  0.15294330000E+03 0.  0.
    8880022    1    1    2    0    0  0.13965873807E+03 -0.15686790127E+03  0.15356854669E+04  0.15575087826E+04  0.15294330000E+03 0. -1.
<mgrwt>
<rscale>  0 0.25981485E+03</rscale>
<asrwt>0</asrwt>
<pdfrwt beam="1">  1        2 0.29466622E+00 0.25981485E+03</pdfrwt>
<pdfrwt beam="2">  1       -2 0.87198429E-02 0.25981485E+03</pdfrwt>
<totfact> 0.68138919E+02</totfact>
</mgrwt>
</event>
<event>
 4    1  0.3365401E-008  0.3895961E+03  0.7818608E-02  0.1047443E+00
          2   -1    0    0  501    0  0.00000000000E+00  0.00000000000E+00  0.88705019458E+03  0.88705019459E+03  0.25500000000E-02 0. -1.
         -2   -1    0    0    0  501 -0.00000000000E+00 -0.00000000000E+00 -0.50496848646E+03  0.50496848647E+03  0.25500000000E-02 0.  1.
    8880022    1    1    2    0    0  0.48431640774E+01 -0.35828759940E+03 -0.37488913357E+03  0.54067270655E+03  0.15294330000E+03 0.  0.
    8880022    1    1    2    0    0 -0.48431640774E+01  0.35828759940E+03  0.75697084170E+03  0.85134597451E+03  0.15294330000E+03 0.  0.
<mgrwt>
<rscale>  0 0.38959609E+03</rscale>
<asrwt>0</asrwt>
<pdfrwt beam="1">  1        2 0.13646926E+00 0.38959609E+03</pdfrwt>
<pdfrwt beam="2">  1       -2 0.77687460E-01 0.38959609E+03</pdfrwt>
<totfact> 0.46714567E+01</totfact>
</mgrwt>
</event>
<event>
 4    1  0.3365401E-008  0.4783122E+03  0.7818608E-02  0.1019600E+00
         -2   -1    0    0    0  501 -0.00000000000E+00  0.00000000000E+00  0.44854680554E+03  0.44854680555E+03  0.25500000000E-02 0.  1.
          2   -1    0    0  501    0  0.00000000000E+00 -0.00000000000E+00 -0.45934687196E+04  0.45934687196E+04  0.25500000000E-02 0. -1.
    8880022    1    1    2    0    0 -0.66444292354E+02 -0.44830355667E+03 -0.44493866631E+04  0.44750222630E+04  0.15294330000E+03 0.  0.
    8880022    1    1    2    0    0  0.66444292354E+02  0.44830355667E+03  0.30446474908E+03  0.56699326218E+03  0.15294330000E+03 0.  1.
<mgrwt>
<rscale>  0 0.47831222E+03</rscale>
<asrwt>0</asrwt>
<pdfrwt beam="1">  1        2 0.70668746E+00 0.47831222E+03</pdfrwt>
<pdfrwt beam="2">  1       -2 0.69007204E-01 0.47831222E+03</pdfrwt>
<totfact> 0.24257702E-01</totfact>
</mgrwt>
</event>
<event>
 4    1  0.3365401E-008  0.6059279E+03  0.7818608E-02  0.9893183E-01
         -2   -1    0    0    0  501 -0.00000000000E+00  0.00000000000E+00  0.69425043772E+03  0.69425043772E+03  0.25500000000E-02 0.  1.
          2   -1    0    0  501    0  0.00000000000E+00 -0.00000000000E+00 -0.98451921291E+03  0.98451921292E+03  0.25500000000E-02 0. -1.
    8880022    1    1    2    0    0 -0.58184570276E+03  0.72197724660E+02 -0.71618922028E+03  0.93812343832E+03  0.15294330000E+03 0.  0.
    8880022    1    1    2    0    0  0.58184570276E+03 -0.72197724660E+02  0.42592044508E+03  0.74064621232E+03  0.15294330000E+03 0.  0.
<mgrwt>
<rscale>  0 0.60592787E+03</rscale>
<asrwt>0</asrwt>
<pdfrwt beam="1">  1        2 0.15146449E+00 0.60592787E+03</pdfrwt>
<pdfrwt beam="2">  1       -2 0.10680776E+00 0.60592787E+03</pdfrwt>
<totfact> 0.18798867E+01</totfact>
</mgrwt>
</event>
<event>
 4    1  0.3365401E-008  0.5050362E+03  0.7818608E-02  0.1012473E+00
          2   -1    0    0  501    0  0.00000000000E+00  0.00000000000E+00  0.14763818259E+04  0.14763818259E+04  0.25500000000E-02 0. -1.
         -2   -1    0    0    0  501 -0.00000000000E+00 -0.00000000000E+00 -0.61883920271E+03  0.61883920271E+03  0.25500000000E-02 0.  1.
    8880022    1    1    2    0    0 -0.30972008718E+03  0.36843374003E+03  0.13182105954E+04  0.14116447074E+04  0.15294330000E+03 0.  0.
    8880022    1    1    2    0    0  0.30972008718E+03 -0.36843374003E+03 -0.46066797222E+03  0.68357632116E+03  0.15294330000E+03 0.  1.
<mgrwt>
<rscale>  0 0.50503624E+03</rscale>
<asrwt>0</asrwt>
<pdfrwt beam="1">  1        2 0.22713566E+00 0.50503624E+03</pdfrwt>
<pdfrwt beam="2">  1       -2 0.95206032E-01 0.50503624E+03</pdfrwt>
<totfact> 0.12925457E+01</totfact>
</mgrwt>
</event>
<event>
 4    1  0.3365401E-008  0.7323542E+03  0.7818608E-02  0.9663448E-01
          2   -1    0    0  501    0  0.00000000000E+00  0.00000000000E+00  0.10259802184E+04  0.10259802184E+04  0.25500000000E-02 0. -1.
         -2   -1    0    0    0  501 -0.00000000000E+00 -0.00000000000E+00 -0.66376665474E+03  0.66376665475E+03  0.25500000000E-02 0.  1.
    8880022    1    1    2    0    0 -0.33278200474E+03  0.63419802156E+03 -0.20829855816E+03  0.76140064064E+03  0.15294330000E+03 0.  0.
    8880022    1    1    2    0    0  0.33278200474E+03 -0.63419802156E+03  0.57051212179E+03  0.92834623247E+03  0.15294330000E+03 0.  0.
<mgrwt>
<rscale>  0 0.73235418E+03</rscale>
<asrwt>0</asrwt>
<pdfrwt beam="1">  1        2 0.15784311E+00 0.73235418E+03</pdfrwt>
<pdfrwt beam="2">  1       -2 0.10211795E+00 0.73235418E+03</pdfrwt>
<totfact> 0.19406743E+01</totfact>
</mgrwt>
</event>
<event>
 4    1  0.3365401E-008  0.3910558E+03  0.7818608E-02  0.1046921E+00
          2   -1    0    0  501    0  0.00000000000E+00  0.00000000000E+00  0.24367024275E+04  0.24367024275E+04  0.25500000000E-02 0. -1.
         -2   -1    0    0    0  501 -0.00000000000E+00 -0.00000000000E+00 -0.26234688459E+03  0.26234688461E+03  0.25500000000E-02 0.  1.
    8880022    1    1    2    0    0 -0.24668768014E+03  0.26206521591E+03  0.22642689875E+04  0.22977899577E+04  0.15294330000E+03 0.  0.
    8880022    1    1    2    0    0  0.24668768014E+03 -0.26206521591E+03 -0.89913444642E+02  0.40125935437E+03  0.15294330000E+03 0.  1.
<mgrwt>
<rscale>  0 0.39105580E+03</rscale>
<asrwt>0</asrwt>
<pdfrwt beam="1">  1        2 0.37487728E+00 0.39105580E+03</pdfrwt>
<pdfrwt beam="2">  1       -2 0.40361061E-01 0.39105580E+03</pdfrwt>
<totfact> 0.24711224E+01</totfact>
</mgrwt>
</event>
<event>
 4    1  0.3365401E-008  0.3302755E+03  0.7818608E-02  0.1071015E+00
          2   -1    0    0  501    0  0.00000000000E+00  0.00000000000E+00  0.17965546865E+04  0.17965546865E+04  0.25500000000E-02 0. -1.
         -2   -1    0    0    0  501 -0.00000000000E+00 -0.00000000000E+00 -0.13559997875E+03  0.13559997877E+03  0.25500000000E-02 0.  1.
    8880022    1    1    2    0    0 -0.32999664978E+01  0.29271035488E+03  0.11256263642E+03  0.34893013880E+03  0.15294330000E+03 0.  0.
    8880022    1    1    2    0    0  0.32999664978E+01 -0.29271035488E+03  0.15483920714E+04  0.15832245265E+04  0.15294330000E+03 0.  0.
<mgrwt>
<rscale>  0 0.33027548E+03</rscale>
<asrwt>0</asrwt>
<pdfrwt beam="1">  1        2 0.27639305E+00 0.33027548E+03</pdfrwt>
<pdfrwt beam="2">  1       -2 0.20861534E-01 0.33027548E+03</pdfrwt>
<totfact> 0.18470924E+02</totfact>
</mgrwt>
</event>
<event>
 4    1  0.3365401E-008  0.4418649E+03  0.7818608E-02  0.1030176E+00
          2   -1    0    0  501    0  0.00000000000E+00  0.00000000000E+00  0.15535290782E+04  0.15535290782E+04  0.25500000000E-02 0. -1.
         -2   -1    0    0    0  501 -0.00000000000E+00 -0.00000000000E+00 -0.54112706139E+03  0.54112706139E+03  0.25500000000E-02 0.  1.
    8880022    1    1    2    0    0 -0.40703789978E+03  0.78568854200E+02 -0.41148045634E+03  0.60378865149E+03  0.15294330000E+03 0.  0.
    8880022    1    1    2    0    0  0.40703789978E+03 -0.78568854200E+02  0.14238824732E+04  0.14908674881E+04  0.15294330000E+03 0. -1.
<mgrwt>
<rscale>  0 0.44186488E+03</rscale>
<asrwt>0</asrwt>
<pdfrwt beam="1">  1        2 0.23900447E+00 0.44186488E+03</pdfrwt>
<pdfrwt beam="2">  1       -2 0.83250317E-01 0.44186488E+03</pdfrwt>
<totfact> 0.16151942E+01</totfact>
</mgrwt>
</event>
<event>
 4    1  0.3365401E-008  0.4203416E+03  0.7818608E-02  0.1036955E+00
          2   -1    0    0  501    0  0.00000000000E+00  0.00000000000E+00  0.72295181812E+03  0.72295181813E+03  0.25500000000E-02 0. -1.
         -2   -1    0    0    0  501 -0.00000000000E+00 -0.00000000000E+00 -0.41120607905E+03  0.41120607906E+03  0.25500000000E-02 0.  1.
    8880022    1    1    2    0    0 -0.70386997261E+02  0.38515067927E+03  0.51705313592E+03  0.66635649131E+03  0.15294330000E+03 0.  0.
    8880022    1    1    2    0    0  0.70386997261E+02 -0.38515067927E+03 -0.20530739685E+03  0.46780140588E+03  0.15294330000E+03 0.  0.
<mgrwt>
<rscale>  0 0.42034156E+03</rscale>
<asrwt>0</asrwt>
<pdfrwt beam="1">  1        2 0.11122336E+00 0.42034156E+03</pdfrwt>
<pdfrwt beam="2">  1       -2 0.63262473E-01 0.42034156E+03</pdfrwt>
<totfact> 0.94661841E+01</totfact>
</mgrwt>
</event>
<event>
 4    1  0.3365401E-008  0.9950631E+03  0.7818608E-02  0.9313976E-01
          2   -1    0    0  501    0  0.00000000000E+00  0.00000000000E+00  0.14771264085E+04  0.14771264085E+04  0.25500000000E-02 0. -1.
         -2   -1    0    0    0  501 -0.00000000000E+00 -0.00000000000E+00 -0.11605959670E+04  0.11605959670E+04  0.25500000000E-02 0.  1.
    8880022    1    1    2    0    0  0.87065014570E+03  0.45686670174E+03  0.10154568487E+04  0.14217254039E+04  0.15294330000E+03 0.  0.
    8880022    1    1    2    0    0 -0.87065014570E+03 -0.45686670174E+03 -0.69892640722E+03  0.12159969717E+04  0.15294330000E+03 0.  0.
<mgrwt>
<rscale>  0 0.99506307E+03</rscale>
<asrwt>0</asrwt>
<pdfrwt beam="1">  1        2 0.22725021E+00 0.99506307E+03</pdfrwt>
<pdfrwt beam="2">  1       -2 0.17855323E+00 0.99506307E+03</pdfrwt>
<totfact> 0.24102798E+00</totfact>
</mgrwt>
</event>
<event>
 4    1  0.3365401E-008  0.4405188E+03  0.7818608E-02  0.1030588E+00
          2   -1    0    0  501    0  0.00000000000E+00  0.00000000000E+00  0.71349309367E+03  0.71349309368E+03  0.25500000000E-02 0. -1.
         -2   -1    0    0    0  501 -0.00000000000E+00 -0.00000000000E+00 -0.15860559298E+04  0.15860559298E+04  0.25500000000E-02 0.  1.
    8880022    1    1    2    0    0  0.10579487165E+03 -0.39934022743E+03  0.61027689717E+03  0.75265843272E+03  0.15294330000E+03 0. -1.
    8880022    1    1    2    0    0 -0.10579487165E+03  0.39934022743E+03 -0.14828397333E+04  0.15468905907E+04  0.15294330000E+03 0.  0.
<mgrwt>
<rscale>  0 0.44051881E+03</rscale>
<asrwt>0</asrwt>
<pdfrwt beam="1">  1        2 0.10976817E+00 0.44051881E+03</pdfrwt>
<pdfrwt beam="2">  1       -2 0.24400860E+00 0.44051881E+03</pdfrwt>
<totfact> 0.30581371E+00</totfact>
</mgrwt>
</event>
<event>
 4    1  0.3365401E-008  0.3898926E+03  0.7818608E-02  0.1047337E+00
          2   -1    0    0  501    0  0.00000000000E+00  0.00000000000E+00  0.72343909277E+03  0.72343909277E+03  0.25500000000E-02 0. -1.
         -2   -1    0    0    0  501 -0.00000000000E+00 -0.00000000000E+00 -0.30807334901E+03  0.30807334902E+03  0.25500000000E-02 0.  1.
    8880022    1    1    2    0    0  0.33589554043E+03  0.12569302010E+03 -0.83124258636E+02  0.39865504483E+03  0.15294330000E+03 0.  0.
    8880022    1    1    2    0    0 -0.33589554043E+03 -0.12569302010E+03  0.49849000240E+03  0.63285739696E+03  0.15294330000E+03 0.  0.
<mgrwt>
<rscale>  0 0.38989255E+03</rscale>
<asrwt>0</asrwt>
<pdfrwt beam="1">  1        2 0.11129832E+00 0.38989255E+03</pdfrwt>
<pdfrwt beam="2">  1       -2 0.47395901E-01 0.38989255E+03</pdfrwt>
<totfact> 0.17170027E+02</totfact>
</mgrwt>
</event>
<event>
 4    1  0.3365401E-008  0.2987412E+03  0.7818608E-02  0.1085872E+00
          2   -1    0    0  501    0  0.00000000000E+00  0.00000000000E+00  0.43094047850E+04  0.43094047850E+04  0.25500000000E-02 0. -1.
         -2   -1    0    0    0  501 -0.00000000000E+00 -0.00000000000E+00 -0.27904834489E+02  0.27904834606E+02  0.25500000000E-02 0.  1.
    8880022    1    1    2    0    0  0.47381597421E+02  0.25220946505E+03  0.32419635209E+04  0.32556986584E+04  0.15294330000E+03 0. -1.
    8880022    1    1    2    0    0 -0.47381597421E+02 -0.25220946505E+03  0.10395364296E+04  0.10816109612E+04  0.15294330000E+03 0.  0.
<mgrwt>
<rscale>  0 0.29874116E+03</rscale>
<asrwt>0</asrwt>
<pdfrwt beam="1">  1        2 0.66298509E+00 0.29874116E+03</pdfrwt>
<pdfrwt beam="2">  1       -2 0.42930532E-02 0.29874116E+03</pdfrwt>
<totfact> 0.61290660E+01</totfact>
</mgrwt>
</event>
<event>
 4    1  0.3365401E-008  0.9997867E+03  0.7818608E-02  0.9308779E-01
          2   -1    0    0  501    0  0.00000000000E+00  0.00000000000E+00  0.18025455300E+04  0.18025455300E+04  0.25500000000E-02 0. -1.
         -2   -1    0    0    0  501 -0.00000000000E+00 -0.00000000000E+00 -0.62922499850E+03  0.62922499851E+03  0.25500000000E-02 0.  1.
    8880022    1    1    2    0    0 -0.97437512929E+03 -0.16363012595E+03  0.16774826026E+03  0.10137617287E+04  0.15294330000E+03 0.  0.
    8880022    1    1    2    0    0  0.97437512929E+03  0.16363012595E+03  0.10055722712E+04  0.14180087998E+04  0.15294330000E+03 0.  0.
<mgrwt>
<rscale>  0 0.99978666E+03</rscale>
<asrwt>0</asrwt>
<pdfrwt beam="1">  1        2 0.27731469E+00 0.99978666E+03</pdfrwt>
<pdfrwt beam="2">  1       -2 0.96803848E-01 0.99978666E+03</pdfrwt>
<totfact> 0.76580079E+00</totfact>
</mgrwt>
</event>
<event>
 4    1  0.3365401E-008  0.7898456E+03  0.7818608E-02  0.9574833E-01
         -2   -1    0    0    0  501 -0.00000000000E+00  0.00000000000E+00  0.52377747096E+03  0.52377747097E+03  0.25500000000E-02 0.  1.
          2   -1    0    0  501    0  0.00000000000E+00 -0.00000000000E+00 -0.18270948519E+04  0.18270948520E+04  0.25500000000E-02 0. -1.
    8880022    1    1    2    0    0 -0.55405141475E+03 -0.54174858185E+03  0.41855267455E+02  0.79095386247E+03  0.15294330000E+03 0.  0.
    8880022    1    1    2    0    0  0.55405141475E+03  0.54174858185E+03 -0.13451726484E+04  0.15599184605E+04  0.15294330000E+03 0.  0.
<mgrwt>
<rscale>  0 0.78984565E+03</rscale>
<asrwt>0</asrwt>
<pdfrwt beam="1">  1        2 0.28109151E+00 0.78984565E+03</pdfrwt>
<pdfrwt beam="2">  1       -2 0.80581150E-01 0.78984565E+03</pdfrwt>
<totfact> 0.11624211E+01</totfact>
</mgrwt>
</event>
<event>
 4    1  0.3365401E-008  0.7566195E+03  0.7818608E-02  0.9625022E-01
          2   -1    0    0  501    0  0.00000000000E+00  0.00000000000E+00  0.17246691621E+04  0.17246691621E+04  0.25500000000E-02 0. -1.
         -2   -1    0    0    0  501 -0.00000000000E+00 -0.00000000000E+00 -0.66603500854E+03  0.66603500854E+03  0.25500000000E-02 0.  1.
    8880022    1    1    2    0    0 -0.42140412912E+03  0.60950799549E+03 -0.31730079230E+03  0.82045894621E+03  0.15294330000E+03 0.  0.
    8880022    1    1    2    0    0  0.42140412912E+03 -0.60950799549E+03  0.13759349458E+04  0.15702452244E+04  0.15294330000E+03 0.  0.
<mgrwt>
<rscale>  0 0.75661951E+03</rscale>
<asrwt>0</asrwt>
<pdfrwt beam="1">  1        2 0.26533372E+00 0.75661951E+03</pdfrwt>
<pdfrwt beam="2">  1       -2 0.10246692E+00 0.75661951E+03</pdfrwt>
<totfact> 0.76158117E+00</totfact>
</mgrwt>
</event>
<event>
 4    1  0.3365401E-008  0.3420247E+03  0.7818608E-02  0.1065937E+00
         -2   -1    0    0    0  501 -0.00000000000E+00  0.00000000000E+00  0.48959653745E+03  0.48959653746E+03  0.25500000000E-02 0.  1.
          2   -1    0    0  501    0  0.00000000000E+00 -0.00000000000E+00 -0.51648459518E+03  0.51648459519E+03  0.25500000000E-02 0. -1.
    8880022    1    1    2    0    0  0.30145122030E+03  0.52119081548E+02 -0.38220588650E+03  0.51289592470E+03  0.15294330000E+03 0.  0.
    8880022    1    1    2    0    0 -0.30145122030E+03 -0.52119081548E+02  0.35531782876E+03  0.49318520795E+03  0.15294330000E+03 0.  0.
<mgrwt>
<rscale>  0 0.34202469E+03</rscale>
<asrwt>0</asrwt>
<pdfrwt beam="1">  1        2 0.79459169E-01 0.34202469E+03</pdfrwt>
<pdfrwt beam="2">  1       -2 0.75322544E-01 0.34202469E+03</pdfrwt>
<totfact> 0.97844648E+01</totfact>
</mgrwt>
</event>
<event>
 4    1  0.3365401E-008  0.2215897E+03  0.7818608E-02  0.1132703E+00
         -2   -1    0    0    0  501 -0.00000000000E+00  0.00000000000E+00  0.96874718082E+02  0.96874718116E+02  0.25500000000E-02 0.  1.
          2   -1    0    0  501    0  0.00000000000E+00 -0.00000000000E+00 -0.71550807971E+03  0.71550807971E+03  0.25500000000E-02 0. -1.
    8880022    1    1    2    0    0  0.12745000175E+03  0.97297782530E+02 -0.52866263541E+03  0.57322438585E+03  0.15294330000E+03 0. -1.
    8880022    1    1    2    0    0 -0.12745000175E+03 -0.97297782530E+02 -0.89970726216E+02  0.23915841198E+03  0.15294330000E+03 0.  0.
<mgrwt>
<rscale>  0 0.22158974E+03</rscale>
<asrwt>0</asrwt>
<pdfrwt beam="1">  1        2 0.11007816E+00 0.22158974E+03</pdfrwt>
<pdfrwt beam="2">  1       -2 0.14903803E-01 0.22158974E+03</pdfrwt>
<totfact> 0.14112157E+03</totfact>
</mgrwt>
</event>
<event>
 4    1  0.3365401E-008  0.7658992E+03  0.7818608E-02  0.9610732E-01
         -2   -1    0    0    0  501 -0.00000000000E+00  0.00000000000E+00  0.20948177038E+03  0.20948177040E+03  0.25500000000E-02 0.  1.
          2   -1    0    0  501    0  0.00000000000E+00 -0.00000000000E+00 -0.33242193208E+04  0.33242193208E+04  0.25500000000E-02 0. -1.
    8880022    1    1    2    0    0  0.72686035257E+03 -0.18677232559E+03 -0.85590133761E+03  0.11485506634E+04  0.15294330000E+03 0.  0.
    8880022    1    1    2    0    0 -0.72686035257E+03  0.18677232559E+03 -0.22588362128E+04  0.23851504278E+04  0.15294330000E+03 0.  0.
<mgrwt>
<rscale>  0 0.76589916E+03</rscale>
<asrwt>0</asrwt>
<pdfrwt beam="1">  1        2 0.51141832E+00 0.76589916E+03</pdfrwt>
<pdfrwt beam="2">  1       -2 0.32227967E-01 0.76589916E+03</pdfrwt>
<totfact> 0.10291970E+01</totfact>
</mgrwt>
</event>
<event>
 4    1  0.3365401E-008  0.7068879E+03  0.7818608E-02  0.9705525E-01
          2   -1    0    0  501    0  0.00000000000E+00  0.00000000000E+00  0.15815184222E+04  0.15815184222E+04  0.25500000000E-02 0. -1.
         -2   -1    0    0    0  501 -0.00000000000E+00 -0.00000000000E+00 -0.16051667335E+04  0.16051667335E+04  0.25500000000E-02 0.  1.
    8880022    1    1    2    0    0  0.53269208572E+03 -0.43879143579E+03  0.14161193359E+04  0.15827458447E+04  0.15294330000E+03 0.  0.
    8880022    1    1    2    0    0 -0.53269208572E+03  0.43879143579E+03 -0.14397676472E+04  0.16039393110E+04  0.15294330000E+03 0.  0.
<mgrwt>
<rscale>  0 0.70688785E+03</rscale>
<asrwt>0</asrwt>
<pdfrwt beam="1">  1        2 0.24331053E+00 0.70688785E+03</pdfrwt>
<pdfrwt beam="2">  1       -2 0.24694873E+00 0.70688785E+03</pdfrwt>
<totfact> 0.80688241E-01</totfact>
</mgrwt>
</event>
<event>
 4    1  0.3365401E-008  0.1090216E+04  0.7818608E-02  0.9214781E-01
         -2   -1    0    0    0  501 -0.00000000000E+00  0.00000000000E+00  0.76916806926E+03  0.76916806927E+03  0.25500000000E-02 0.  1.
          2   -1    0    0  501    0  0.00000000000E+00 -0.00000000000E+00 -0.18723069584E+04  0.18723069585E+04  0.25500000000E-02 0. -1.
    8880022    1    1    2    0    0  0.10438088921E+04 -0.27502990708E+03  0.41690257167E+00  0.10902157033E+04  0.15294330000E+03 0.  0.
    8880022    1    1    2    0    0 -0.10438088921E+04  0.27502990708E+03 -0.11035557918E+04  0.15512593244E+04  0.15294330000E+03 0.  0.
<mgrwt>
<rscale>  0 0.10902156E+04</rscale>
<asrwt>0</asrwt>
<pdfrwt beam="1">  1        2 0.28804722E+00 0.10902156E+04</pdfrwt>
<pdfrwt beam="2">  1       -2 0.11833355E+00 0.10902156E+04</pdfrwt>
<totfact> 0.42696224E+00</totfact>
</mgrwt>
</event>
<event>
 4    1  0.3365401E-008  0.4437729E+03  0.7818608E-02  0.1029595E+00
         -2   -1    0    0    0  501 -0.00000000000E+00  0.00000000000E+00  0.38147025693E+03  0.38147025694E+03  0.25500000000E-02 0.  1.
          2   -1    0    0  501    0  0.00000000000E+00 -0.00000000000E+00 -0.13694537541E+04  0.13694537541E+04  0.25500000000E-02 0. -1.
    8880022    1    1    2    0    0 -0.44819189933E+02 -0.41416657754E+03 -0.11850103924E+04  0.12653789933E+04  0.15294330000E+03 0.  0.
    8880022    1    1    2    0    0  0.44819189933E+02  0.41416657754E+03  0.19702689523E+03  0.48554501768E+03  0.15294330000E+03 0.  0.
<mgrwt>
<rscale>  0 0.44377288E+03</rscale>
<asrwt>0</asrwt>
<pdfrwt beam="1">  1        2 0.21068519E+00 0.44377288E+03</pdfrwt>
<pdfrwt beam="2">  1       -2 0.58687732E-01 0.44377288E+03</pdfrwt>
<totfact> 0.43470564E+01</totfact>
</mgrwt>
</event>
<event>
 4    1  0.3365401E-008  0.4037777E+03  0.7818608E-02  0.1042479E+00
         -2   -1    0    0    0  501 -0.00000000000E+00  0.00000000000E+00  0.13099968816E+03  0.13099968819E+03  0.25500000000E-02 0.  1.
          2   -1    0    0  501    0  0.00000000000E+00 -0.00000000000E+00 -0.21191908761E+04  0.21191908761E+04  0.25500000000E-02 0. -1.
    8880022    1    1    2    0    0  0.44039771723E+02 -0.37108656750E+03 -0.17168949573E+04  0.17637360034E+04  0.15294330000E+03 0.  0.
    8880022    1    1    2    0    0 -0.44039771723E+02  0.37108656750E+03 -0.27129623060E+03  0.48645456090E+03  0.15294330000E+03 0.  0.
<mgrwt>
<rscale>  0 0.40377766E+03</rscale>
<asrwt>0</asrwt>
<pdfrwt beam="1">  1        2 0.32602934E+00 0.40377766E+03</pdfrwt>
<pdfrwt beam="2">  1       -2 0.20153800E-01 0.40377766E+03</pdfrwt>
<totfact> 0.13016780E+02</totfact>
</mgrwt>
</event>
<event>
 4    1  0.3365401E-008  0.3815115E+03  0.7818608E-02  0.1050377E+00
         -2   -1    0    0    0  501 -0.00000000000E+00  0.00000000000E+00  0.33348970504E+03  0.33348970505E+03  0.25500000000E-02 0.  1.
          2   -1    0    0  501    0  0.00000000000E+00 -0.00000000000E+00 -0.10080737746E+04  0.10080737746E+04  0.25500000000E-02 0. -1.
    8880022    1    1    2    0    0  0.22443126885E+03  0.26793650004E+03  0.16782365662E+03  0.41679226868E+03  0.15294330000E+03 0.  0.
    8880022    1    1    2    0    0 -0.22443126885E+03 -0.26793650004E+03 -0.84240772616E+03  0.92477121095E+03  0.15294330000E+03 0.  0.
<mgrwt>
<rscale>  0 0.38151149E+03</rscale>
<asrwt>0</asrwt>
<pdfrwt beam="1">  1        2 0.15508827E+00 0.38151149E+03</pdfrwt>
<pdfrwt beam="2">  1       -2 0.51306109E-01 0.38151149E+03</pdfrwt>
<totfact> 0.94101151E+01</totfact>
</mgrwt>
</event>
<event>
 4    1  0.3365401E-008  0.2723548E+03  0.7818608E-02  0.1099939E+00
          2   -1    0    0  501    0  0.00000000000E+00  0.00000000000E+00  0.33589357463E+04  0.33589357463E+04  0.25500000000E-02 0. -1.
         -2   -1    0    0    0  501 -0.00000000000E+00 -0.00000000000E+00 -0.63709542185E+02  0.63709542236E+02  0.25500000000E-02 0.  1.
    8880022    1    1    2    0    0  0.12312878368E+02  0.22501971388E+03  0.30308994790E+04  0.30431116942E+04  0.15294330000E+03 0.  0.
    8880022    1    1    2    0    0 -0.12312878368E+02 -0.22501971388E+03  0.26432672515E+03  0.37953359436E+03  0.15294330000E+03 0.  0.
<mgrwt>
<rscale>  0 0.27235479E+03</rscale>
<asrwt>0</asrwt>
<pdfrwt beam="1">  1        2 0.51675953E+00 0.27235479E+03</pdfrwt>
<pdfrwt beam="2">  1       -2 0.98014646E-02 0.27235479E+03</pdfrwt>
<totfact> 0.86021606E+01</totfact>
</mgrwt>
</event>
<event>
 4    1  0.3365401E-008  0.7281661E+03  0.7818608E-02  0.9670241E-01
          2   -1    0    0  501    0  0.00000000000E+00  0.00000000000E+00  0.14521596096E+04  0.14521596096E+04  0.25500000000E-02 0. -1.
         -2   -1    0    0    0  501 -0.00000000000E+00 -0.00000000000E+00 -0.48963763138E+03  0.48963763139E+03  0.25500000000E-02 0.  1.
    8880022    1    1    2    0    0 -0.70386967779E+03 -0.10677840559E+03 -0.83328650813E+01  0.72821373296E+03  0.15294330000E+03 0.  0.
    8880022    1    1    2    0    0  0.70386967779E+03  0.10677840559E+03  0.97085484333E+03  0.12135835081E+04  0.15294330000E+03 0.  0.
<mgrwt>
<rscale>  0 0.72816606E+03</rscale>
<asrwt>0</asrwt>
<pdfrwt beam="1">  1        2 0.22340917E+00 0.72816606E+03</pdfrwt>
<pdfrwt beam="2">  1       -2 0.75328867E-01 0.72816606E+03</pdfrwt>
<totfact> 0.21916271E+01</totfact>
</mgrwt>
</event>
<event>
 4    1  0.3365401E-008  0.1105208E+04  0.7818608E-02  0.9200131E-01
          2   -1    0    0  501    0  0.00000000000E+00  0.00000000000E+00  0.82235583518E+03  0.82235583519E+03  0.25500000000E-02 0. -1.
         -2   -1    0    0    0  501 -0.00000000000E+00 -0.00000000000E+00 -0.20305327429E+04  0.20305327429E+04  0.25500000000E-02 0.  1.
    8880022    1    1    2    0    0  0.98918188322E+03  0.46862790563E+03  0.13504298852E+03  0.11134276689E+04  0.15294330000E+03 0.  0.
    8880022    1    1    2    0    0 -0.98918188322E+03 -0.46862790563E+03 -0.13432198962E+04  0.17394609092E+04  0.15294330000E+03 0.  0.
<mgrwt>
<rscale>  0 0.11052079E+04</rscale>
<asrwt>0</asrwt>
<pdfrwt beam="1">  1        2 0.12651628E+00 0.11052079E+04</pdfrwt>
<pdfrwt beam="2">  1       -2 0.31238965E+00 0.11052079E+04</pdfrwt>
<totfact> 0.87899098E-01</totfact>
</mgrwt>
</event>
<event>
 4    1  0.3365401E-008  0.8054864E+03  0.7818608E-02  0.9552110E-01
          2   -1    0    0  501    0  0.00000000000E+00  0.00000000000E+00  0.26311425517E+04  0.26311425517E+04  0.25500000000E-02 0. -1.
         -2   -1    0    0    0  501 -0.00000000000E+00 -0.00000000000E+00 -0.27567824132E+03  0.27567824133E+03  0.25500000000E-02 0.  1.
    8880022    1    1    2    0    0 -0.67413405964E+03  0.41347308641E+03  0.70560376027E+03  0.10708338074E+04  0.15294330000E+03 0.  0.
    8880022    1    1    2    0    0  0.67413405964E+03 -0.41347308641E+03  0.16498605501E+04  0.18359869856E+04  0.15294330000E+03 0.  0.
<mgrwt>
<rscale>  0 0.80548642E+03</rscale>
<asrwt>0</asrwt>
<pdfrwt beam="1">  1        2 0.40479117E+00 0.80548642E+03</pdfrwt>
<pdfrwt beam="2">  1       -2 0.42412036E-01 0.80548642E+03</pdfrwt>
<totfact> 0.16008230E+01</totfact>
</mgrwt>
</event>
<event>
 4    1  0.3365401E-008  0.1824030E+04  0.7818608E-02  0.8693624E-01
         -2   -1    0    0    0  501 -0.00000000000E+00  0.00000000000E+00  0.16732884126E+04  0.16732884126E+04  0.25500000000E-02 0.  1.
          2   -1    0    0  501    0  0.00000000000E+00 -0.00000000000E+00 -0.21419724667E+04  0.21419724667E+04  0.25500000000E-02 0. -1.
    8880022    1    1    2    0    0 -0.15878843914E+04 -0.88448736457E+03  0.27652963938E+03  0.18448726332E+04  0.15294330000E+03 0.  0.
    8880022    1    1    2    0    0  0.15878843914E+04  0.88448736457E+03 -0.74521369341E+03  0.19703882461E+04  0.15294330000E+03 0.  0.
<mgrwt>
<rscale>  0 0.18240303E+04</rscale>
<asrwt>0</asrwt>
<pdfrwt beam="1">  1        2 0.32953423E+00 0.18240303E+04</pdfrwt>
<pdfrwt beam="2">  1       -2 0.25742899E+00 0.18240303E+04</pdfrwt>
<totfact> 0.29187642E-01</totfact>
</mgrwt>
</event>
<event>
 4    1  0.3365401E-008  0.7980643E+03  0.7818608E-02  0.9562823E-01
         -2   -1    0    0    0  501 -0.00000000000E+00  0.00000000000E+00  0.34618380577E+04  0.34618380577E+04  0.25500000000E-02 0.  1.
          2   -1    0    0  501    0  0.00000000000E+00 -0.00000000000E+00 -0.66510672587E+03  0.66510672588E+03  0.25500000000E-02 0. -1.
    8880022    1    1    2    0    0  0.19320069810E+03 -0.75907074428E+03  0.31533896171E+04  0.32528099598E+04  0.15294330000E+03 0.  0.
    8880022    1    1    2    0    0 -0.19320069810E+03  0.75907074428E+03 -0.35665828529E+03  0.87413482373E+03  0.15294330000E+03 0.  0.
<mgrwt>
<rscale>  0 0.79806426E+03</rscale>
<asrwt>0</asrwt>
<pdfrwt beam="1">  1        2 0.10232411E+00 0.79806426E+03</pdfrwt>
<pdfrwt beam="2">  1       -2 0.53259045E+00 0.79806426E+03</pdfrwt>
<totfact> 0.47948241E-02</totfact>
</mgrwt>
</event>
<event>
 4    1  0.3365401E-008  0.3141302E+03  0.7818608E-02  0.1078383E+00
         -2   -1    0    0    0  501 -0.00000000000E+00  0.00000000000E+00  0.15060759764E+03  0.15060759766E+03  0.25500000000E-02 0.  1.
          2   -1    0    0  501    0  0.00000000000E+00 -0.00000000000E+00 -0.74004599824E+03  0.74004599825E+03  0.25500000000E-02 0. -1.
    8880022    1    1    2    0    0 -0.21959957295E+03  0.16450572988E+03 -0.14392977453E+03  0.34553370402E+03  0.15294330000E+03 0.  1.
    8880022    1    1    2    0    0  0.21959957295E+03 -0.16450572988E+03 -0.44550862608E+03  0.54511989188E+03  0.15294330000E+03 0. -1.
<mgrwt>
<rscale>  0 0.31413017E+03</rscale>
<asrwt>0</asrwt>
<pdfrwt beam="1">  1        2 0.11385323E+00 0.31413017E+03</pdfrwt>
<pdfrwt beam="2">  1       -2 0.23170400E-01 0.31413017E+03</pdfrwt>
<totfact> 0.63830391E+02</totfact>
</mgrwt>
</event>
<event>
 4    1  0.3365401E-008  0.5134341E+03  0.7818608E-02  0.1010331E+00
          2   -1    0    0  501    0  0.00000000000E+00  0.00000000000E+00  0.10306298216E+04  0.10306298216E+04  0.25500000000E-02 0. -1.
         -2   -1    0    0    0  501 -0.00000000000E+00 -0.00000000000E+00 -0.45097044777E+03  0.45097044778E+03  0.25500000000E-02 0.  1.
    8880022    1    1    2    0    0 -0.22151895728E+03  0.43720962097E+03 -0.19753743509E+03  0.55012325199E+03  0.15294330000E+03 0.  0.
    8880022    1    1    2    0    0  0.22151895728E+03 -0.43720962097E+03  0.77719680894E+03  0.93147701740E+03  0.15294330000E+03 0.  0.
<mgrwt>
<rscale>  0 0.51343408E+03</rscale>
<asrwt>0</asrwt>
<pdfrwt beam="1">  1        2 0.15855843E+00 0.51343408E+03</pdfrwt>
<pdfrwt beam="2">  1       -2 0.69380069E-01 0.51343408E+03</pdfrwt>
<totfact> 0.47558549E+01</totfact>
</mgrwt>
</event>
<event>
 4    1  0.3365401E-008  0.5387940E+03  0.7818608E-02  0.1004121E+00
          2   -1    0    0  501    0  0.00000000000E+00  0.00000000000E+00  0.19889040290E+04  0.19889040290E+04  0.25500000000E-02 0. -1.
         -2   -1    0    0    0  501 -0.00000000000E+00 -0.00000000000E+00 -0.21735641736E+03  0.21735641738E+03  0.25500000000E-02 0.  1.
    8880022    1    1    2    0    0  0.48775256864E+03  0.17030774882E+03  0.15180124320E+04  0.16107950504E+04  0.15294330000E+03 0.  0.
    8880022    1    1    2    0    0 -0.48775256864E+03 -0.17030774882E+03  0.25353517962E+03  0.59546539601E+03  0.15294330000E+03 0.  0.
<mgrwt>
<rscale>  0 0.53879398E+03</rscale>
<asrwt>0</asrwt>
<pdfrwt beam="1">  1        2 0.30598523E+00 0.53879398E+03</pdfrwt>
<pdfrwt beam="2">  1       -2 0.33439449E-01 0.53879398E+03</pdfrwt>
<totfact> 0.59978670E+01</totfact>
</mgrwt>
</event>
<event>
 4    1  0.3365401E-008  0.3493694E+03  0.7818608E-02  0.1062874E+00
         -2   -1    0    0    0  501 -0.00000000000E+00  0.00000000000E+00  0.53023487826E+03  0.53023487827E+03  0.25500000000E-02 0.  1.
          2   -1    0    0  501    0  0.00000000000E+00 -0.00000000000E+00 -0.76045696570E+03  0.76045696571E+03  0.25500000000E-02 0. -1.
    8880022    1    1    2    0    0  0.28892145483E+03  0.12325481732E+03 -0.65399996821E+03  0.74146811697E+03  0.15294330000E+03 0.  0.
    8880022    1    1    2    0    0 -0.28892145483E+03 -0.12325481732E+03  0.42377788077E+03  0.54922372700E+03  0.15294330000E+03 0.  1.
<mgrwt>
<rscale>  0 0.34936945E+03</rscale>
<asrwt>0</asrwt>
<pdfrwt beam="1">  1        2 0.11699338E+00 0.34936945E+03</pdfrwt>
<pdfrwt beam="2">  1       -2 0.81574596E-01 0.34936945E+03</pdfrwt>
<totfact> 0.51600763E+01</totfact>
</mgrwt>
</event>
<event>
 4    1  0.3365401E-008  0.8022853E+03  0.7818608E-02  0.9556715E-01
          2   -1    0    0  501    0  0.00000000000E+00  0.00000000000E+00  0.28387267993E+04  0.28387267993E+04  0.25500000000E-02 0. -1.
         -2   -1    0    0    0  501 -0.00000000000E+00 -0.00000000000E+00 -0.48899111216E+03  0.48899111216E+03  0.25500000000E-02 0.  1.
    8880022    1    1    2    0    0  0.44814197084E+03 -0.64764091637E+03  0.23933583543E+04  0.25242475805E+04  0.15294330000E+03 0.  0.
    8880022    1    1    2    0    0 -0.44814197084E+03  0.64764091637E+03 -0.43622667178E+02  0.80347033094E+03  0.15294330000E+03 0.  0.
<mgrwt>
<rscale>  0 0.80228526E+03</rscale>
<asrwt>0</asrwt>
<pdfrwt beam="1">  1        2 0.43672720E+00 0.80228526E+03</pdfrwt>
<pdfrwt beam="2">  1       -2 0.75229402E-01 0.80228526E+03</pdfrwt>
<totfact> 0.36504937E+00</totfact>
</mgrwt>
</event>
<event>
 4    1  0.3365401E-008  0.6110508E+03  0.7818608E-02  0.9882741E-01
         -2   -1    0    0    0  501 -0.00000000000E+00  0.00000000000E+00  0.27419872419E+03  0.27419872420E+03  0.25500000000E-02 0.  1.
          2   -1    0    0  501    0  0.00000000000E+00 -0.00000000000E+00 -0.30647041944E+04  0.30647041944E+04  0.25500000000E-02 0. -1.
    8880022    1    1    2    0    0  0.22659142527E+03  0.54648679086E+03 -0.26397221879E+04  0.27095232733E+04  0.15294330000E+03 0.  0.
    8880022    1    1    2    0    0 -0.22659142527E+03 -0.54648679086E+03 -0.15078328231E+03  0.62937964523E+03  0.15294330000E+03 0.  0.
<mgrwt>
<rscale>  0 0.61105085E+03</rscale>
<asrwt>0</asrwt>
<pdfrwt beam="1">  1        2 0.47149293E+00 0.61105085E+03</pdfrwt>
<pdfrwt beam="2">  1       -2 0.42184421E-01 0.61105085E+03</pdfrwt>
<totfact> 0.92549963E+00</totfact>
</mgrwt>
</event>
<event>
 4    1  0.3365401E-008  0.6086674E+03  0.7818608E-02  0.9887585E-01
         -2   -1    0    0    0  501 -0.00000000000E+00  0.00000000000E+00  0.84822402471E+03  0.84822402471E+03  0.25500000000E-02 0.  1.
          2   -1    0    0  501    0  0.00000000000E+00 -0.00000000000E+00 -0.95427725976E+03  0.95427725976E+03  0.25500000000E-02 0. -1.
    8880022    1    1    2    0    0 -0.30860476410E+03  0.50184403145E+03  0.61066742460E+03  0.86220107215E+03  0.15294330000E+03 0.  0.
    8880022    1    1    2    0    0  0.30860476410E+03 -0.50184403145E+03 -0.71672065965E+03  0.94030021233E+03  0.15294330000E+03 0.  0.
<mgrwt>
<rscale>  0 0.60866738E+03</rscale>
<asrwt>0</asrwt>
<pdfrwt beam="1">  1        2 0.14681189E+00 0.60866738E+03</pdfrwt>
<pdfrwt beam="2">  1       -2 0.13049600E+00 0.60866738E+03</pdfrwt>
<totfact> 0.12010355E+01</totfact>
</mgrwt>
</event>
<event>
 4    1  0.3365401E-008  0.4864755E+03  0.7818608E-02  0.1017371E+00
          2   -1    0    0  501    0  0.00000000000E+00  0.00000000000E+00  0.70276031780E+03  0.70276031781E+03  0.25500000000E-02 0. -1.
         -2   -1    0    0    0  501 -0.00000000000E+00 -0.00000000000E+00 -0.94825860941E+03  0.94825860941E+03  0.25500000000E-02 0.  1.
    8880022    1    1    2    0    0  0.25815243210E+03  0.38291530000E+03 -0.78566432845E+03  0.92408164963E+03  0.15294330000E+03 0.  0.
    8880022    1    1    2    0    0 -0.25815243210E+03 -0.38291530000E+03  0.54016603684E+03  0.72693727759E+03  0.15294330000E+03 0.  0.
<mgrwt>
<rscale>  0 0.48647555E+03</rscale>
<asrwt>0</asrwt>
<pdfrwt beam="1">  1        2 0.10811697E+00 0.48647555E+03</pdfrwt>
<pdfrwt beam="2">  1       -2 0.14588594E+00 0.48647555E+03</pdfrwt>
<totfact> 0.13799157E+01</totfact>
</mgrwt>
</event>
<event>
 4    1  0.3365401E-008  0.5032506E+03  0.7818608E-02  0.1012934E+00
         -2   -1    0    0    0  501 -0.00000000000E+00  0.00000000000E+00  0.37355016378E+03  0.37355016379E+03  0.25500000000E-02 0.  1.
          2   -1    0    0  501    0  0.00000000000E+00 -0.00000000000E+00 -0.11508627081E+04  0.11508627081E+04  0.25500000000E-02 0. -1.
    8880022    1    1    2    0    0  0.18931024815E+03  0.44048963003E+03  0.99923638825E+02  0.51307491736E+03  0.15294330000E+03 0.  0.
    8880022    1    1    2    0    0 -0.18931024815E+03 -0.44048963003E+03 -0.87723618312E+03  0.10113379545E+04  0.15294330000E+03 0.  0.
<mgrwt>
<rscale>  0 0.50325057E+03</rscale>
<asrwt>0</asrwt>
<pdfrwt beam="1">  1        2 0.17705580E+00 0.50325057E+03</pdfrwt>
<pdfrwt beam="2">  1       -2 0.57469256E-01 0.50325057E+03</pdfrwt>
<totfact> 0.60060062E+01</totfact>
</mgrwt>
</event>
<event>
 4    1  0.3365401E-008  0.6845762E+03  0.7818608E-02  0.9743979E-01
         -2   -1    0    0    0  501 -0.00000000000E+00  0.00000000000E+00  0.90559509509E+03  0.90559509509E+03  0.25500000000E-02 0.  1.
          2   -1    0    0  501    0  0.00000000000E+00 -0.00000000000E+00 -0.97613537446E+03  0.97613537446E+03  0.25500000000E-02 0. -1.
    8880022    1    1    2    0    0 -0.21906198062E+03  0.63028941877E+03  0.60965104597E+03  0.91668912595E+03  0.15294330000E+03 0.  0.
    8880022    1    1    2    0    0  0.21906198062E+03 -0.63028941877E+03 -0.68019132534E+03  0.96504134360E+03  0.15294330000E+03 0.  0.
<mgrwt>
<rscale>  0 0.68457619E+03</rscale>
<asrwt>0</asrwt>
<pdfrwt beam="1">  1        2 0.15017467E+00 0.68457619E+03</pdfrwt>
<pdfrwt beam="2">  1       -2 0.13932232E+00 0.68457619E+03</pdfrwt>
<totfact> 0.97384367E+00</totfact>
</mgrwt>
</event>
<event>
 4    1  0.3365401E-008  0.3364803E+03  0.7818608E-02  0.1068305E+00
         -2   -1    0    0    0  501 -0.00000000000E+00  0.00000000000E+00  0.37744567714E+03  0.37744567715E+03  0.25500000000E-02 0.  1.
          2   -1    0    0  501    0  0.00000000000E+00 -0.00000000000E+00 -0.10769156100E+04  0.10769156100E+04  0.25500000000E-02 0. -1.
    8880022    1    1    2    0    0  0.29287188217E+03  0.63666108632E+02 -0.96739472961E+03  0.10242419288E+04  0.15294330000E+03 0.  0.
    8880022    1    1    2    0    0 -0.29287188217E+03 -0.63666108632E+02  0.26792479673E+03  0.43011935840E+03  0.15294330000E+03 0.  0.
<mgrwt>
<rscale>  0 0.33648026E+03</rscale>
<asrwt>0</asrwt>
<pdfrwt beam="1">  1        2 0.16567932E+00 0.33648026E+03</pdfrwt>
<pdfrwt beam="2">  1       -2 0.58068566E-01 0.33648026E+03</pdfrwt>
<totfact> 0.66788596E+01</totfact>
</mgrwt>
</event>
<event>
 4    1  0.3365401E-008  0.9960885E+03  0.7818608E-02  0.9312845E-01
         -2   -1    0    0    0  501 -0.00000000000E+00  0.00000000000E+00  0.73565667709E+03  0.73565667709E+03  0.25500000000E-02 0.  1.
          2   -1    0    0  501    0  0.00000000000E+00 -0.00000000000E+00 -0.30013946205E+04  0.30013946205E+04  0.25500000000E-02 0. -1.
    8880022    1    1    2    0    0 -0.92299172370E+03  0.34188723241E+03 -0.25194066010E+04  0.27091699607E+04  0.15294330000E+03 0.  0.
    8880022    1    1    2    0    0  0.92299172370E+03 -0.34188723241E+03  0.25366865767E+03  0.10278813368E+04  0.15294330000E+03 0.  0.
<mgrwt>
<rscale>  0 0.99608848E+03</rscale>
<asrwt>0</asrwt>
<pdfrwt beam="1">  1        2 0.46175301E+00 0.99608848E+03</pdfrwt>
<pdfrwt beam="2">  1       -2 0.11317795E+00 0.99608848E+03</pdfrwt>
<totfact> 0.10858144E+00</totfact>
</mgrwt>
</event>
<event>
 4    1  0.3365401E-008  0.5037177E+03  0.7818608E-02  0.1012813E+00
         -2   -1    0    0    0  501 -0.00000000000E+00  0.00000000000E+00  0.19855977373E+03  0.19855977375E+03  0.25500000000E-02 0.  1.
          2   -1    0    0  501    0  0.00000000000E+00 -0.00000000000E+00 -0.20039506569E+04  0.20039506569E+04  0.25500000000E-02 0. -1.
    8880022    1    1    2    0    0  0.29384866944E+03 -0.37946383608E+03 -0.23980762791E+03  0.55788815621E+03  0.15294330000E+03 0.  0.
    8880022    1    1    2    0    0 -0.29384866944E+03  0.37946383608E+03 -0.15655832552E+04  0.16446222744E+04  0.15294330000E+03 0.  0.
<mgrwt>
<rscale>  0 0.50371768E+03</rscale>
<asrwt>0</asrwt>
<pdfrwt beam="1">  1        2 0.30830009E+00 0.50371768E+03</pdfrwt>
<pdfrwt beam="2">  1       -2 0.30547659E-01 0.50371768E+03</pdfrwt>
<totfact> 0.70088024E+01</totfact>
</mgrwt>
</event>
<event>
 4    1  0.3365401E-008  0.6491720E+03  0.7818608E-02  0.9808334E-01
         -2   -1    0    0    0  501 -0.00000000000E+00  0.00000000000E+00  0.23313831723E+03  0.23313831725E+03  0.25500000000E-02 0.  1.
          2   -1    0    0  501    0  0.00000000000E+00 -0.00000000000E+00 -0.19520697516E+04  0.19520697516E+04  0.25500000000E-02 0. -1.
    8880022    1    1    2    0    0  0.53892344724E+03 -0.32801541349E+03 -0.56224332903E+03  0.85880254281E+03  0.15294330000E+03 0.  0.
    8880022    1    1    2    0    0 -0.53892344724E+03  0.32801541349E+03 -0.11566881053E+04  0.13264055261E+04  0.15294330000E+03 0.  0.
<mgrwt>
<rscale>  0 0.64917197E+03</rscale>
<asrwt>0</asrwt>
<pdfrwt beam="1">  1        2 0.30031841E+00 0.64917197E+03</pdfrwt>
<pdfrwt beam="2">  1       -2 0.35867435E-01 0.64917197E+03</pdfrwt>
<totfact> 0.54094828E+01</totfact>
</mgrwt>
</event>
<event>
 4    1  0.3611866E-008  0.7382098E+03  0.7818608E-02  0.9654031E-01
         -2   -1    0    0    0  501 -0.00000000000E+00  0.00000000000E+00  0.71853603230E+03  0.71853603231E+03  0.25500000000E-02 0.  1.
          2   -1    0    0  501    0  0.00000000000E+00 -0.00000000000E+00 -0.25516529783E+04  0.25516529783E+04  0.25500000000E-02 0. -1.
    8880022    1    1    2    0    0  0.71361169046E+03 -0.11099762707E+03 -0.22872828312E+04  0.24034592822E+04  0.15294330000E+03 0.  0.
    8880022    1    1    2    0    0 -0.71361169046E+03  0.11099762707E+03  0.45416588518E+03  0.86672972849E+03  0.15294330000E+03 0.  0.
<mgrwt>
<rscale>  0 0.73820984E+03</rscale>
<asrwt>0</asrwt>
<pdfrwt beam="1">  1        2 0.39256199E+00 0.73820984E+03</pdfrwt>
<pdfrwt beam="2">  1       -2 0.11054401E+00 0.73820984E+03</pdfrwt>
<totfact> 0.22241978E+00</totfact>
</mgrwt>
</event>
<event>
 4    1  0.3365401E-008  0.5142707E+03  0.7818608E-02  0.1010120E+00
          2   -1    0    0  501    0  0.00000000000E+00  0.00000000000E+00  0.32711561506E+04  0.32711561506E+04  0.25500000000E-02 0. -1.
         -2   -1    0    0    0  501 -0.00000000000E+00 -0.00000000000E+00 -0.14655683177E+03  0.14655683179E+03  0.25500000000E-02 0.  1.
    8880022    1    1    2    0    0 -0.41975836310E+03  0.25472665053E+03  0.41808797283E+03  0.66277594700E+03  0.15294330000E+03 0.  1.
    8880022    1    1    2    0    0  0.41975836310E+03 -0.25472665053E+03  0.27065113460E+04  0.27549370354E+04  0.15294330000E+03 0.  0.
<mgrwt>
<rscale>  0 0.51427075E+03</rscale>
<asrwt>0</asrwt>
<pdfrwt beam="1">  1        2 0.50325477E+00 0.51427075E+03</pdfrwt>
<pdfrwt beam="2">  1       -2 0.22547206E-01 0.51427075E+03</pdfrwt>
<totfact> 0.22522422E+01</totfact>
</mgrwt>
</event>
<event>
 4    1  0.3365401E-008  0.8173053E+03  0.7818608E-02  0.9535301E-01
         -2   -1    0    0    0  501 -0.00000000000E+00  0.00000000000E+00  0.49309882468E+03  0.49309882468E+03  0.25500000000E-02 0.  1.
          2   -1    0    0  501    0  0.00000000000E+00 -0.00000000000E+00 -0.14362018267E+04  0.14362018267E+04  0.25500000000E-02 0. -1.
    8880022    1    1    2    0    0  0.79707862252E+03  0.96238962637E+02 -0.70138661705E+03  0.10770009786E+04  0.15294330000E+03 0.  0.
    8880022    1    1    2    0    0 -0.79707862252E+03 -0.96238962637E+02 -0.24171638500E+03  0.85229967277E+03  0.15294330000E+03 0.  0.
<mgrwt>
<rscale>  0 0.81730528E+03</rscale>
<asrwt>0</asrwt>
<pdfrwt beam="1">  1        2 0.22095413E+00 0.81730528E+03</pdfrwt>
<pdfrwt beam="2">  1       -2 0.75861358E-01 0.81730528E+03</pdfrwt>
<totfact> 0.21801534E+01</totfact>
</mgrwt>
</event>
<event>
 4    1  0.3365401E-008  0.8932907E+03  0.7818608E-02  0.9434007E-01
          2   -1    0    0  501    0  0.00000000000E+00  0.00000000000E+00  0.18802736353E+04  0.18802736353E+04  0.25500000000E-02 0. -1.
         -2   -1    0    0    0  501 -0.00000000000E+00 -0.00000000000E+00 -0.47905688469E+03  0.47905688470E+03  0.25500000000E-02 0.  1.
    8880022    1    1    2    0    0 -0.26424495926E+03 -0.83949462862E+03  0.10991095607E+04  0.14163368630E+04  0.15294330000E+03 0.  0.
    8880022    1    1    2    0    0  0.26424495926E+03  0.83949462862E+03  0.30210718989E+03  0.94299365702E+03  0.15294330000E+03 0.  0.
<mgrwt>
<rscale>  0 0.89329070E+03</rscale>
<asrwt>0</asrwt>
<pdfrwt beam="1">  1        2 0.28927287E+00 0.89329070E+03</pdfrwt>
<pdfrwt beam="2">  1       -2 0.73701059E-01 0.89329070E+03</pdfrwt>
<totfact> 0.13096003E+01</totfact>
</mgrwt>
</event>
<event>
 4    1  0.3365401E-008  0.2950411E+03  0.7818608E-02  0.1087746E+00
          2   -1    0    0  501    0  0.00000000000E+00  0.00000000000E+00  0.85850672055E+03  0.85850672055E+03  0.25500000000E-02 0. -1.
         -2   -1    0    0    0  501 -0.00000000000E+00 -0.00000000000E+00 -0.15034954965E+03  0.15034954968E+03  0.25500000000E-02 0.  1.
    8880022    1    1    2    0    0 -0.22896366288E+03 -0.10598690543E+03  0.66246057223E+02  0.30238679891E+03  0.15294330000E+03 0.  0.
    8880022    1    1    2    0    0  0.22896366288E+03  0.10598690543E+03  0.64191111367E+03  0.70646947132E+03  0.15294330000E+03 0. -1.
<mgrwt>
<rscale>  0 0.29504108E+03</rscale>
<asrwt>0</asrwt>
<pdfrwt beam="1">  1        2 0.13207796E+00 0.29504108E+03</pdfrwt>
<pdfrwt beam="2">  1       -2 0.23130700E-01 0.29504108E+03</pdfrwt>
<totfact> 0.52967866E+02</totfact>
</mgrwt>
</event>
<event>
 4    1  0.3365401E-008  0.3253280E+03  0.7818608E-02  0.1073223E+00
          2   -1    0    0  501    0  0.00000000000E+00  0.00000000000E+00  0.71810210119E+03  0.71810210120E+03  0.25500000000E-02 0. -1.
         -2   -1    0    0    0  501 -0.00000000000E+00 -0.00000000000E+00 -0.35254194095E+03  0.35254194096E+03  0.25500000000E-02 0.  1.
    8880022    1    1    2    0    0 -0.28627466864E+03 -0.22214049477E+02 -0.22558782771E+03  0.39588908917E+03  0.15294330000E+03 0.  0.
    8880022    1    1    2    0    0  0.28627466864E+03  0.22214049477E+02  0.59114798795E+03  0.67475495298E+03  0.15294330000E+03 0.  0.
<mgrwt>
<rscale>  0 0.32532799E+03</rscale>
<asrwt>0</asrwt>
<pdfrwt beam="1">  1        2 0.11047724E+00 0.32532799E+03</pdfrwt>
<pdfrwt beam="2">  1       -2 0.54237223E-01 0.32532799E+03</pdfrwt>
<totfact> 0.13294344E+02</totfact>
</mgrwt>
</event>
<event>
 4    1  0.3365401E-008  0.7660087E+03  0.7818608E-02  0.9610565E-01
          2   -1    0    0  501    0  0.00000000000E+00  0.00000000000E+00  0.25901478193E+04  0.25901478193E+04  0.25500000000E-02 0. -1.
         -2   -1    0    0    0  501 -0.00000000000E+00 -0.00000000000E+00 -0.70784342442E+03  0.70784342442E+03  0.25500000000E-02 0.  1.
    8880022    1    1    2    0    0  0.18278355617E+03  0.72798888557E+03  0.23009078193E+04  0.24250662036E+04  0.15294330000E+03 0.  0.
    8880022    1    1    2    0    0 -0.18278355617E+03 -0.72798888557E+03 -0.41860342434E+03  0.87292504019E+03  0.15294330000E+03 0.  0.
<mgrwt>
<rscale>  0 0.76600868E+03</rscale>
<asrwt>0</asrwt>
<pdfrwt beam="1">  1        2 0.39848428E+00 0.76600868E+03</pdfrwt>
<pdfrwt beam="2">  1       -2 0.10889899E+00 0.76600868E+03</pdfrwt>
<totfact> 0.21804777E+00</totfact>
</mgrwt>
</event>
<event>
 4    1  0.3365401E-008  0.3739774E+03  0.7818608E-02  0.1053182E+00
         -2   -1    0    0    0  501 -0.00000000000E+00  0.00000000000E+00  0.30477610818E+03  0.30477610820E+03  0.25500000000E-02 0.  1.
          2   -1    0    0  501    0  0.00000000000E+00 -0.00000000000E+00 -0.65422797447E+03  0.65422797448E+03  0.25500000000E-02 0. -1.
    8880022    1    1    2    0    0  0.33620971509E+03  0.58570228326E+02  0.87284042503E+02  0.38402812560E+03  0.15294330000E+03 0.  0.
    8880022    1    1    2    0    0 -0.33620971509E+03 -0.58570228326E+02 -0.43673590879E+03  0.57497595707E+03  0.15294330000E+03 0.  0.
<mgrwt>
<rscale>  0 0.37397740E+03</rscale>
<asrwt>0</asrwt>
<pdfrwt beam="1">  1        2 0.10065046E+00 0.37397740E+03</pdfrwt>
<pdfrwt beam="2">  1       -2 0.46888632E-01 0.37397740E+03</pdfrwt>
<totfact> 0.19876737E+02</totfact>
</mgrwt>
</event>
<event>
 4    1  0.3365401E-008  0.8045320E+03  0.7818608E-02  0.9553480E-01
          2   -1    0    0  501    0  0.00000000000E+00  0.00000000000E+00  0.11819641642E+04  0.11819641642E+04  0.25500000000E-02 0. -1.
         -2   -1    0    0    0  501 -0.00000000000E+00 -0.00000000000E+00 -0.65831810508E+03  0.65831810509E+03  0.25500000000E-02 0.  1.
    8880022    1    1    2    0    0 -0.21658938310E+03 -0.75958485393E+03  0.63913370302E+03  0.10275036032E+04  0.15294330000E+03 0.  0.
    8880022    1    1    2    0    0  0.21658938310E+03  0.75958485393E+03 -0.11548764390E+03  0.81277866612E+03  0.15294330000E+03 0.  0.
<mgrwt>
<rscale>  0 0.80453202E+03</rscale>
<asrwt>0</asrwt>
<pdfrwt beam="1">  1        2 0.18184064E+00 0.80453202E+03</pdfrwt>
<pdfrwt beam="2">  1       -2 0.10127971E+00 0.80453202E+03</pdfrwt>
<totfact> 0.15762395E+01</totfact>
</mgrwt>
</event>
<event>
 4    1  0.3365401E-008  0.1535223E+03  0.7818608E-02  0.1196210E+00
          2   -1    0    0  501    0  0.00000000000E+00  0.00000000000E+00  0.14629383454E+04  0.14629383454E+04  0.25500000000E-02 0. -1.
         -2   -1    0    0    0  501 -0.00000000000E+00 -0.00000000000E+00 -0.53166584734E+03  0.53166584734E+03  0.25500000000E-02 0.  1.
    8880022    1    1    2    0    0  0.11346053227E+01 -0.13272432692E+02  0.14477117438E+04  0.14558291077E+04  0.15294330000E+03 0. -1.
    8880022    1    1    2    0    0 -0.11346053227E+01  0.13272432692E+02 -0.51643924568E+03  0.53877508507E+03  0.15294330000E+03 0.  0.
<mgrwt>
<rscale>  0 0.15352230E+03</rscale>
<asrwt>0</asrwt>
<pdfrwt beam="1">  1        2 0.22506744E+00 0.15352230E+03</pdfrwt>
<pdfrwt beam="2">  1       -2 0.81794746E-01 0.15352230E+03</pdfrwt>
<totfact> 0.20822011E+01</totfact>
</mgrwt>
</event>
<event>
 4    1  0.3365401E-008  0.4781885E+03  0.7818608E-02  0.1019634E+00
         -2   -1    0    0    0  501 -0.00000000000E+00  0.00000000000E+00  0.25003598105E+03  0.25003598106E+03  0.25500000000E-02 0.  1.
          2   -1    0    0  501    0  0.00000000000E+00 -0.00000000000E+00 -0.20951982676E+04  0.20951982676E+04  0.25500000000E-02 0. -1.
    8880022    1    1    2    0    0  0.40091156403E+02 -0.45129294369E+03 -0.18028360333E+04  0.18651761412E+04  0.15294330000E+03 0.  0.
    8880022    1    1    2    0    0 -0.40091156403E+02  0.45129294369E+03 -0.42326253331E+02  0.48005810751E+03  0.15294330000E+03 0.  1.
<mgrwt>
<rscale>  0 0.47818853E+03</rscale>
<asrwt>0</asrwt>
<pdfrwt beam="1">  1        2 0.32233818E+00 0.47818853E+03</pdfrwt>
<pdfrwt beam="2">  1       -2 0.38467075E-01 0.47818853E+03</pdfrwt>
<totfact> 0.40721336E+01</totfact>
</mgrwt>
</event>
<event>
 4    1  0.3365401E-008  0.1722564E+03  0.7818608E-02  0.1175515E+00
          2   -1    0    0  501    0  0.00000000000E+00  0.00000000000E+00  0.19945569027E+04  0.19945569027E+04  0.25500000000E-02 0. -1.
         -2   -1    0    0    0  501 -0.00000000000E+00 -0.00000000000E+00 -0.60663940813E+02  0.60663940867E+02  0.25500000000E-02 0.  1.
    8880022    1    1    2    0    0  0.32464111053E+02 -0.72295860259E+02  0.74184243908E+02  0.18755149953E+03  0.15294330000E+03 0.  0.
    8880022    1    1    2    0    0 -0.32464111053E+02  0.72295860259E+02  0.18597087180E+04  0.18676693441E+04  0.15294330000E+03 0. -1.
<mgrwt>
<rscale>  0 0.17225639E+03</rscale>
<asrwt>0</asrwt>
<pdfrwt beam="1">  1        2 0.30685497E+00 0.17225639E+03</pdfrwt>
<pdfrwt beam="2">  1       -2 0.93329120E-02 0.17225639E+03</pdfrwt>
<totfact> 0.56616128E+02</totfact>
</mgrwt>
</event>
<event>
 4    1  0.3365401E-008  0.2973632E+03  0.7818608E-02  0.1086566E+00
         -2   -1    0    0    0  501 -0.00000000000E+00  0.00000000000E+00  0.47111585297E+03  0.47111585298E+03  0.25500000000E-02 0.  1.
          2   -1    0    0  501    0  0.00000000000E+00 -0.00000000000E+00 -0.69369331427E+03  0.69369331427E+03  0.25500000000E-02 0. -1.
    8880022    1    1    2    0    0 -0.17520716940E+03 -0.18529878588E+03 -0.60870123502E+03  0.67745260999E+03  0.15294330000E+03 0.  0.
    8880022    1    1    2    0    0  0.17520716940E+03  0.18529878588E+03  0.38612377372E+03  0.48735655726E+03  0.15294330000E+03 0.  0.
<mgrwt>
<rscale>  0 0.29736315E+03</rscale>
<asrwt>0</asrwt>
<pdfrwt beam="1">  1        2 0.10672205E+00 0.29736315E+03</pdfrwt>
<pdfrwt beam="2">  1       -2 0.72479361E-01 0.29736315E+03</pdfrwt>
<totfact> 0.75671304E+01</totfact>
</mgrwt>
</event>
<event>
 4    1  0.3365401E-008  0.4072799E+03  0.7818608E-02  0.1041288E+00
         -2   -1    0    0    0  501 -0.00000000000E+00  0.00000000000E+00  0.27068419608E+03  0.27068419609E+03  0.25500000000E-02 0.  1.
          2   -1    0    0  501    0  0.00000000000E+00 -0.00000000000E+00 -0.16193216934E+04  0.16193216934E+04  0.25500000000E-02 0. -1.
    8880022    1    1    2    0    0  0.20600137443E+03 -0.31630472889E+03  0.70716583744E+02  0.41337360343E+03  0.15294330000E+03 0.  1.
    8880022    1    1    2    0    0 -0.20600137443E+03  0.31630472889E+03 -0.14193540810E+04  0.14766322860E+04  0.15294330000E+03 0.  0.
<mgrwt>
<rscale>  0 0.40727988E+03</rscale>
<asrwt>0</asrwt>
<pdfrwt beam="1">  1        2 0.24912641E+00 0.40727988E+03</pdfrwt>
<pdfrwt beam="2">  1       -2 0.41643724E-01 0.40727988E+03</pdfrwt>
<totfact> 0.63763028E+01</totfact>
</mgrwt>
</event>
<event>
 4    1  0.3365401E-008  0.3741977E+03  0.7818608E-02  0.1053099E+00
          2   -1    0    0  501    0  0.00000000000E+00  0.00000000000E+00  0.78596196853E+03  0.78596196853E+03  0.25500000000E-02 0. -1.
         -2   -1    0    0    0  501 -0.00000000000E+00 -0.00000000000E+00 -0.11735201340E+04  0.11735201340E+04  0.25500000000E-02 0.  1.
    8880022    1    1    2    0    0  0.33800217896E+03  0.48854598348E+02  0.70853349411E+03  0.80127623829E+03  0.15294330000E+03 0.  0.
    8880022    1    1    2    0    0 -0.33800217896E+03 -0.48854598348E+02 -0.10960916596E+04  0.11582058643E+04  0.15294330000E+03 0.  0.
<mgrwt>
<rscale>  0 0.37419767E+03</rscale>
<asrwt>0</asrwt>
<pdfrwt beam="1">  1        2 0.12091723E+00 0.37419767E+03</pdfrwt>
<pdfrwt beam="2">  1       -2 0.18054156E+00 0.37419767E+03</pdfrwt>
<totfact> 0.68977050E+00</totfact>
</mgrwt>
</event>
<event>
 4    1  0.3365401E-008  0.1010990E+04  0.7818608E-02  0.9296573E-01
          2   -1    0    0  501    0  0.00000000000E+00  0.00000000000E+00  0.10139457253E+04  0.10139457253E+04  0.25500000000E-02 0. -1.
         -2   -1    0    0    0  501 -0.00000000000E+00 -0.00000000000E+00 -0.13072121619E+04  0.13072121619E+04  0.25500000000E-02 0.  1.
    8880022    1    1    2    0    0 -0.68995980886E+03 -0.72295538723E+03  0.40858052575E+03  0.10904305245E+04  0.15294330000E+03 0.  0.
    8880022    1    1    2    0    0  0.68995980886E+03  0.72295538723E+03 -0.70184696227E+03  0.12307273627E+04  0.15294330000E+03 0.  0.
<mgrwt>
<rscale>  0 0.10109900E+04</rscale>
<asrwt>0</asrwt>
<pdfrwt beam="1">  1        2 0.15599165E+00 0.10109900E+04</pdfrwt>
<pdfrwt beam="2">  1       -2 0.20110956E+00 0.10109900E+04</pdfrwt>
<totfact> 0.31982370E+00</totfact>
</mgrwt>
</event>
<event>
 4    1  0.3365401E-008  0.4053475E+03  0.7818608E-02  0.1041944E+00
          2   -1    0    0  501    0  0.00000000000E+00  0.00000000000E+00  0.41226370361E+04  0.41226370361E+04  0.25500000000E-02 0. -1.
         -2   -1    0    0    0  501 -0.00000000000E+00 -0.00000000000E+00 -0.95110830860E+02  0.95110830894E+02  0.25500000000E-02 0.  1.
    8880022    1    1    2    0    0  0.29813982729E+03  0.22809562226E+03  0.36211695799E+04  0.36437859088E+04  0.15294330000E+03 0.  0.
    8880022    1    1    2    0    0 -0.29813982729E+03 -0.22809562226E+03  0.40635662530E+03  0.57396195819E+03  0.15294330000E+03 0.  1.
<mgrwt>
<rscale>  0 0.40534753E+03</rscale>
<asrwt>0</asrwt>
<pdfrwt beam="1">  1        2 0.63425189E+00 0.40534753E+03</pdfrwt>
<pdfrwt beam="2">  1       -2 0.14632435E-01 0.40534753E+03</pdfrwt>
<totfact> 0.12059491E+01</totfact>
</mgrwt>
</event>
<event>
 4    1  0.3365401E-008  0.5655044E+03  0.7818608E-02  0.9979676E-01
          2   -1    0    0  501    0  0.00000000000E+00  0.00000000000E+00  0.30331165095E+04  0.30331165095E+04  0.25500000000E-02 0. -1.
         -2   -1    0    0    0  501 -0.00000000000E+00 -0.00000000000E+00 -0.71580157301E+03  0.71580157302E+03  0.25500000000E-02 0.  1.
    8880022    1    1    2    0    0  0.15413537577E+03  0.52215496543E+03  0.28895702034E+04  0.29443863767E+04  0.15294330000E+03 0.  0.
    8880022    1    1    2    0    0 -0.15413537577E+03 -0.52215496543E+03 -0.57225526696E+03  0.80453170575E+03  0.15294330000E+03 0.  0.
<mgrwt>
<rscale>  0 0.56550435E+03</rscale>
<asrwt>0</asrwt>
<pdfrwt beam="1">  1        2 0.46663332E+00 0.56550435E+03</pdfrwt>
<pdfrwt beam="2">  1       -2 0.11012332E+00 0.56550435E+03</pdfrwt>
<totfact> 0.12195641E+00</totfact>
</mgrwt>
</event>
<event>
 4    1  0.3365401E-008  0.5225395E+03  0.7818608E-02  0.1008058E+00
          2   -1    0    0  501    0  0.00000000000E+00  0.00000000000E+00  0.39711306014E+04  0.39711306014E+04  0.25500000000E-02 0. -1.
         -2   -1    0    0    0  501 -0.00000000000E+00 -0.00000000000E+00 -0.86056577394E+02  0.86056577432E+02  0.25500000000E-02 0.  1.
    8880022    1    1    2    0    0  0.43330982199E+03  0.24879403719E+03  0.28520450333E+04  0.28995186497E+04  0.15294330000E+03 0.  0.
    8880022    1    1    2    0    0 -0.43330982199E+03 -0.24879403719E+03  0.10330289907E+04  0.11576685292E+04  0.15294330000E+03 0.  0.
<mgrwt>
<rscale>  0 0.52253950E+03</rscale>
<asrwt>0</asrwt>
<pdfrwt beam="1">  1        2 0.61094317E+00 0.52253950E+03</pdfrwt>
<pdfrwt beam="2">  1       -2 0.13239473E-01 0.52253950E+03</pdfrwt>
<totfact> 0.18064053E+01</totfact>
</mgrwt>
</event>
<event>
 4    1  0.3365401E-008  0.6737130E+03  0.7818608E-02  0.9763273E-01
         -2   -1    0    0    0  501 -0.00000000000E+00  0.00000000000E+00  0.37574220155E+03  0.37574220156E+03  0.25500000000E-02 0.  1.
          2   -1    0    0  501    0  0.00000000000E+00 -0.00000000000E+00 -0.22345997498E+04  0.22345997498E+04  0.25500000000E-02 0. -1.
    8880022    1    1    2    0    0 -0.41897261121E+03  0.50493509992E+03 -0.18140804201E+04  0.19351426117E+04  0.15294330000E+03 0.  0.
    8880022    1    1    2    0    0  0.41897261121E+03 -0.50493509992E+03 -0.44777128187E+02  0.67519933968E+03  0.15294330000E+03 0.  0.
<mgrwt>
<rscale>  0 0.67371296E+03</rscale>
<asrwt>0</asrwt>
<pdfrwt beam="1">  1        2 0.34378457E+00 0.67371296E+03</pdfrwt>
<pdfrwt beam="2">  1       -2 0.57806494E-01 0.67371296E+03</pdfrwt>
<totfact> 0.14568853E+01</totfact>
</mgrwt>
</event>
<event>
 4    1  0.3365401E-008  0.3266715E+03  0.7818608E-02  0.1072619E+00
         -2   -1    0    0    0  501 -0.00000000000E+00  0.00000000000E+00  0.82219960620E+03  0.82219960621E+03  0.25500000000E-02 0.  1.
          2   -1    0    0  501    0  0.00000000000E+00 -0.00000000000E+00 -0.49649235725E+03  0.49649235726E+03  0.25500000000E-02 0. -1.
    8880022    1    1    2    0    0 -0.10817749619E+03  0.26761959826E+03 -0.40379419333E+03  0.51938812427E+03  0.15294330000E+03 0. -1.
    8880022    1    1    2    0    0  0.10817749619E+03 -0.26761959826E+03  0.72950144228E+03  0.79930383919E+03  0.15294330000E+03 0.  0.
<mgrwt>
<rscale>  0 0.32667151E+03</rscale>
<asrwt>0</asrwt>
<pdfrwt beam="1">  1        2 0.76383441E-01 0.32667151E+03</pdfrwt>
<pdfrwt beam="2">  1       -2 0.12649224E+00 0.32667151E+03</pdfrwt>
<totfact> 0.30688440E+01</totfact>
</mgrwt>
</event>
<event>
 4    1  0.3365401E-008  0.5370444E+03  0.7818608E-02  0.1004538E+00
         -2   -1    0    0    0  501 -0.00000000000E+00  0.00000000000E+00  0.23424893661E+04  0.23424893661E+04  0.25500000000E-02 0.  1.
          2   -1    0    0  501    0  0.00000000000E+00 -0.00000000000E+00 -0.17896091671E+03  0.17896091673E+03  0.25500000000E-02 0. -1.
    8880022    1    1    2    0    0 -0.48583519464E+03  0.17026202713E+03  0.17859740052E+04  0.18649717945E+04  0.15294330000E+03 0.  0.
    8880022    1    1    2    0    0  0.48583519464E+03 -0.17026202713E+03  0.37755444420E+03  0.65647848829E+03  0.15294330000E+03 0.  0.
<mgrwt>
<rscale>  0 0.53704436E+03</rscale>
<asrwt>0</asrwt>
<pdfrwt beam="1">  1        2 0.27532449E-01 0.53704436E+03</pdfrwt>
<pdfrwt beam="2">  1       -2 0.36038298E+00 0.53704436E+03</pdfrwt>
<totfact> 0.28662861E+00</totfact>
</mgrwt>
</event>
<event>
 4    1  0.3365401E-008  0.3531457E+03  0.7818608E-02  0.1061331E+00
         -2   -1    0    0    0  501 -0.00000000000E+00  0.00000000000E+00  0.16446708291E+04  0.16446708291E+04  0.25500000000E-02 0.  1.
          2   -1    0    0  501    0  0.00000000000E+00 -0.00000000000E+00 -0.25928252893E+03  0.25928252894E+03  0.25500000000E-02 0. -1.
    8880022    1    1    2    0    0 -0.21971224381E+03  0.23031880996E+03  0.14934572668E+04  0.15346421359E+04  0.15294330000E+03 0.  0.
    8880022    1    1    2    0    0  0.21971224381E+03 -0.23031880996E+03 -0.10806896661E+03  0.36931122222E+03  0.15294330000E+03 0.  0.
<mgrwt>
<rscale>  0 0.35314569E+03</rscale>
<asrwt>0</asrwt>
<pdfrwt beam="1">  1        2 0.39889620E-01 0.35314569E+03</pdfrwt>
<pdfrwt beam="2">  1       -2 0.25302628E+00 0.35314569E+03</pdfrwt>
<totfact> 0.86961400E+00</totfact>
</mgrwt>
</event>
<event>
 4    1  0.3365401E-008  0.5322795E+03  0.7818608E-02  0.1005681E+00
          2   -1    0    0  501    0  0.00000000000E+00  0.00000000000E+00  0.19753616571E+04  0.19753616571E+04  0.25500000000E-02 0. -1.
         -2   -1    0    0    0  501 -0.00000000000E+00 -0.00000000000E+00 -0.44934788570E+03  0.44934788571E+03  0.25500000000E-02 0.  1.
    8880022    1    1    2    0    0 -0.27984097884E+02  0.50906453254E+03  0.17633350217E+04  0.18419206986E+04  0.15294330000E+03 0.  0.
    8880022    1    1    2    0    0  0.27984097884E+02 -0.50906453254E+03 -0.23732125036E+03  0.58278884419E+03  0.15294330000E+03 0.  0.
<mgrwt>
<rscale>  0 0.53227950E+03</rscale>
<asrwt>0</asrwt>
<pdfrwt beam="1">  1        2 0.30390179E+00 0.53227950E+03</pdfrwt>
<pdfrwt beam="2">  1       -2 0.69130444E-01 0.53227950E+03</pdfrwt>
<totfact> 0.14147455E+01</totfact>
</mgrwt>
</event>
<event>
 4    1  0.3365401E-008  0.7845092E+03  0.7818608E-02  0.9582714E-01
         -2   -1    0    0    0  501 -0.00000000000E+00  0.00000000000E+00  0.36843207158E+03  0.36843207159E+03  0.25500000000E-02 0.  1.
          2   -1    0    0  501    0  0.00000000000E+00 -0.00000000000E+00 -0.17024433878E+04  0.17024433878E+04  0.25500000000E-02 0. -1.
    8880022    1    1    2    0    0 -0.69406873558E+02  0.76631956814E+03 -0.80890597204E+03  0.11268467151E+04  0.15294330000E+03 0.  0.
    8880022    1    1    2    0    0  0.69406873558E+02 -0.76631956814E+03 -0.52510534416E+03  0.94402874431E+03  0.15294330000E+03 0. -1.
<mgrwt>
<rscale>  0 0.78450918E+03</rscale>
<asrwt>0</asrwt>
<pdfrwt beam="1">  1        2 0.26191436E+00 0.78450918E+03</pdfrwt>
<pdfrwt beam="2">  1       -2 0.56681858E-01 0.78450918E+03</pdfrwt>
<totfact> 0.29189120E+01</totfact>
</mgrwt>
</event>
<event>
 4    1  0.3365401E-008  0.7591850E+03  0.7818608E-02  0.9621050E-01
          2   -1    0    0  501    0  0.00000000000E+00  0.00000000000E+00  0.16563787860E+04  0.16563787860E+04  0.25500000000E-02 0. -1.
         -2   -1    0    0    0  501 -0.00000000000E+00 -0.00000000000E+00 -0.76761115066E+03  0.76761115066E+03  0.25500000000E-02 0.  1.
    8880022    1    1    2    0    0  0.37709602437E+03  0.64091249615E+03  0.13405154059E+04  0.15405659498E+04  0.15294330000E+03 0.  0.
    8880022    1    1    2    0    0 -0.37709602437E+03 -0.64091249615E+03 -0.45174777055E+03  0.88342398684E+03  0.15294330000E+03 0.  0.
<mgrwt>
<rscale>  0 0.75918502E+03</rscale>
<asrwt>0</asrwt>
<pdfrwt beam="1">  1        2 0.25482750E+00 0.75918502E+03</pdfrwt>
<pdfrwt beam="2">  1       -2 0.11809402E+00 0.75918502E+03</pdfrwt>
<totfact> 0.58840668E+00</totfact>
</mgrwt>
</event>
<event>
 4    1  0.3365401E-008  0.1912006E+03  0.7818608E-02  0.1157383E+00
          2   -1    0    0  501    0  0.00000000000E+00  0.00000000000E+00  0.20915541597E+04  0.20915541597E+04  0.25500000000E-02 0. -1.
         -2   -1    0    0    0  501 -0.00000000000E+00 -0.00000000000E+00 -0.89583727681E+03  0.89583727681E+03  0.25500000000E-02 0.  1.
    8880022    1    1    2    0    0  0.74165360538E+01 -0.11450326541E+03  0.20769106127E+04  0.20856930140E+04  0.15294330000E+03 0.  0.
    8880022    1    1    2    0    0 -0.74165360538E+01  0.11450326541E+03 -0.88119372975E+03  0.90169842251E+03  0.15294330000E+03 0.  1.
<mgrwt>
<rscale>  0 0.19120056E+03</rscale>
<asrwt>0</asrwt>
<pdfrwt beam="1">  1        2 0.32177756E+00 0.19120056E+03</pdfrwt>
<pdfrwt beam="2">  1       -2 0.13782112E+00 0.19120056E+03</pdfrwt>
<totfact> 0.28116698E+00</totfact>
</mgrwt>
</event>
<event>
 4    1  0.3438949E-008  0.7242212E+03  0.7818608E-02  0.9676684E-01
          2   -1    0    0  501    0  0.00000000000E+00  0.00000000000E+00  0.25392635537E+04  0.25392635537E+04  0.25500000000E-02 0. -1.
         -2   -1    0    0    0  501 -0.00000000000E+00 -0.00000000000E+00 -0.59505329171E+03  0.59505329172E+03  0.25500000000E-02 0.  1.
    8880022    1    1    2    0    0 -0.67036728803E+03 -0.22740372121E+03  0.22383852430E+04  0.23526293594E+04  0.15294330000E+03 0.  0.
    8880022    1    1    2    0    0  0.67036728803E+03  0.22740372121E+03 -0.29417498109E+03  0.78168748602E+03  0.15294330000E+03 0.  0.
<mgrwt>
<rscale>  0 0.72422124E+03</rscale>
<asrwt>0</asrwt>
<pdfrwt beam="1">  1        2 0.39065593E+00 0.72422124E+03</pdfrwt>
<pdfrwt beam="2">  1       -2 0.91546662E-01 0.72422124E+03</pdfrwt>
<totfact> 0.35452408E+00</totfact>
</mgrwt>
</event>
<event>
 4    1  0.3365401E-008  0.6083519E+03  0.7818608E-02  0.9888228E-01
         -2   -1    0    0    0  501 -0.00000000000E+00  0.00000000000E+00  0.23284534740E+03  0.23284534742E+03  0.25500000000E-02 0.  1.
          2   -1    0    0  501    0  0.00000000000E+00 -0.00000000000E+00 -0.23922898447E+04  0.23922898447E+04  0.25500000000E-02 0. -1.
    8880022    1    1    2    0    0  0.53284091197E+03  0.25056133942E+03 -0.18401077749E+04  0.19380631307E+04  0.15294330000E+03 0.  0.
    8880022    1    1    2    0    0 -0.53284091197E+03 -0.25056133942E+03 -0.31933672236E+03  0.68707206139E+03  0.15294330000E+03 0.  0.
<mgrwt>
<rscale>  0 0.60835193E+03</rscale>
<asrwt>0</asrwt>
<pdfrwt beam="1">  1        2 0.36804457E+00 0.60835193E+03</pdfrwt>
<pdfrwt beam="2">  1       -2 0.35822363E-01 0.60835193E+03</pdfrwt>
<totfact> 0.31312916E+01</totfact>
</mgrwt>
</event>
<event>
 4    1  0.3365401E-008  0.5148340E+03  0.7818608E-02  0.1009978E+00
         -2   -1    0    0    0  501 -0.00000000000E+00  0.00000000000E+00  0.20427036810E+03  0.20427036812E+03  0.25500000000E-02 0.  1.
          2   -1    0    0  501    0  0.00000000000E+00 -0.00000000000E+00 -0.20497773711E+04  0.20497773711E+04  0.25500000000E-02 0. -1.
    8880022    1    1    2    0    0  0.57875499501E+02 -0.48817298296E+03 -0.24002192081E+03  0.56803574730E+03  0.15294330000E+03 0.  0.
    8880022    1    1    2    0    0 -0.57875499501E+02  0.48817298296E+03 -0.16054850822E+04  0.16860119919E+04  0.15294330000E+03 0.  0.
<mgrwt>
<rscale>  0 0.51483404E+03</rscale>
<asrwt>0</asrwt>
<pdfrwt beam="1">  1        2 0.31535035E+00 0.51483404E+03</pdfrwt>
<pdfrwt beam="2">  1       -2 0.31426212E-01 0.51483404E+03</pdfrwt>
<totfact> 0.62701825E+01</totfact>
</mgrwt>
</event>
<event>
 4    1  0.3365401E-008  0.4896239E+03  0.7818608E-02  0.1016523E+00
         -2   -1    0    0    0  501 -0.00000000000E+00  0.00000000000E+00  0.58539464265E+03  0.58539464266E+03  0.25500000000E-02 0.  1.
          2   -1    0    0  501    0  0.00000000000E+00 -0.00000000000E+00 -0.65185776668E+03  0.65185776668E+03  0.25500000000E-02 0. -1.
    8880022    1    1    2    0    0  0.29032597425E+03  0.36338788888E+03 -0.41042251306E+03  0.63888826985E+03  0.15294330000E+03 0.  0.
    8880022    1    1    2    0    0 -0.29032597425E+03 -0.36338788888E+03  0.34395938904E+03  0.59836413949E+03  0.15294330000E+03 0.  0.
<mgrwt>
<rscale>  0 0.48962392E+03</rscale>
<asrwt>0</asrwt>
<pdfrwt beam="1">  1        2 0.10028581E+00 0.48962392E+03</pdfrwt>
<pdfrwt beam="2">  1       -2 0.90060714E-01 0.48962392E+03</pdfrwt>
<totfact> 0.49012745E+01</totfact>
</mgrwt>
</event>
<event>
 4    1  0.3365401E-008  0.3208201E+03  0.7818608E-02  0.1075273E+00
          2   -1    0    0  501    0  0.00000000000E+00  0.00000000000E+00  0.12702309080E+04  0.12702309080E+04  0.25500000000E-02 0. -1.
         -2   -1    0    0    0  501 -0.00000000000E+00 -0.00000000000E+00 -0.23135508151E+03  0.23135508152E+03  0.25500000000E-02 0.  1.
    8880022    1    1    2    0    0 -0.28056482054E+03  0.28587435998E+02  0.11246364786E+04  0.11695010569E+04  0.15294330000E+03 0.  0.
    8880022    1    1    2    0    0  0.28056482054E+03 -0.28587435998E+02 -0.85760652115E+02  0.33208493264E+03  0.15294330000E+03 0.  0.
<mgrwt>
<rscale>  0 0.32082006E+03</rscale>
<asrwt>0</asrwt>
<pdfrwt beam="1">  1        2 0.19542014E+00 0.32082006E+03</pdfrwt>
<pdfrwt beam="2">  1       -2 0.35593089E-01 0.32082006E+03</pdfrwt>
<totfact> 0.13595991E+02</totfact>
</mgrwt>
</event>
<event>
 4    1  0.3365401E-008  0.3778576E+03  0.7818608E-02  0.1051728E+00
          2   -1    0    0  501    0  0.00000000000E+00  0.00000000000E+00  0.14372704991E+04  0.14372704991E+04  0.25500000000E-02 0. -1.
         -2   -1    0    0    0  501 -0.00000000000E+00 -0.00000000000E+00 -0.23428194692E+03  0.23428194693E+03  0.25500000000E-02 0.  1.
    8880022    1    1    2    0    0 -0.12169752009E+03  0.32337965031E+03 -0.32808266105E+02  0.37927921110E+03  0.15294330000E+03 0.  0.
    8880022    1    1    2    0    0  0.12169752009E+03 -0.32337965031E+03  0.12357968183E+04  0.12922732349E+04  0.15294330000E+03 0.  0.
<mgrwt>
<rscale>  0 0.37785756E+03</rscale>
<asrwt>0</asrwt>
<pdfrwt beam="1">  1        2 0.22111854E+00 0.37785756E+03</pdfrwt>
<pdfrwt beam="2">  1       -2 0.36043377E-01 0.37785756E+03</pdfrwt>
<totfact> 0.10618811E+02</totfact>
</mgrwt>
</event>
<event>
 4    1  0.3365401E-008  0.3121747E+03  0.7818608E-02  0.1079308E+00
         -2   -1    0    0    0  501 -0.00000000000E+00  0.00000000000E+00  0.41569024417E+03  0.41569024417E+03  0.25500000000E-02 0.  1.
          2   -1    0    0  501    0  0.00000000000E+00 -0.00000000000E+00 -0.69268677760E+03  0.69268677760E+03  0.25500000000E-02 0. -1.
    8880022    1    1    2    0    0  0.99544319816E+02  0.25328312355E+03  0.31225649605E+03  0.44153956178E+03  0.15294330000E+03 0.  0.
    8880022    1    1    2    0    0 -0.99544319816E+02 -0.25328312355E+03 -0.58925302948E+03  0.66683745999E+03  0.15294330000E+03 0.  0.
<mgrwt>
<rscale>  0 0.31217474E+03</rscale>
<asrwt>0</asrwt>
<pdfrwt beam="1">  1        2 0.10656720E+00 0.31217474E+03</pdfrwt>
<pdfrwt beam="2">  1       -2 0.63952345E-01 0.31217474E+03</pdfrwt>
<totfact> 0.98870960E+01</totfact>
</mgrwt>
</event>
<event>
 4    1  0.3365401E-008  0.7201989E+03  0.7818608E-02  0.9683300E-01
         -2   -1    0    0    0  501 -0.00000000000E+00  0.00000000000E+00  0.67714108275E+03  0.67714108275E+03  0.25500000000E-02 0.  1.
          2   -1    0    0  501    0  0.00000000000E+00 -0.00000000000E+00 -0.99275056353E+03  0.99275056353E+03  0.25500000000E-02 0. -1.
    8880022    1    1    2    0    0 -0.70178539126E+03 -0.52839622075E+02  0.24123631677E+03  0.75952707298E+03  0.15294330000E+03 0.  0.
    8880022    1    1    2    0    0  0.70178539126E+03  0.52839622075E+02 -0.55684579756E+03  0.91036457330E+03  0.15294330000E+03 0.  0.
<mgrwt>
<rscale>  0 0.72019887E+03</rscale>
<asrwt>0</asrwt>
<pdfrwt beam="1">  1        2 0.15273086E+00 0.72019887E+03</pdfrwt>
<pdfrwt beam="2">  1       -2 0.10417555E+00 0.72019887E+03</pdfrwt>
<totfact> 0.19449569E+01</totfact>
</mgrwt>
</event>
<event>
 4    1  0.3365401E-008  0.6370980E+03  0.7818608E-02  0.9831295E-01
         -2   -1    0    0    0  501 -0.00000000000E+00  0.00000000000E+00  0.31046745626E+03  0.31046745627E+03  0.25500000000E-02 0.  1.
          2   -1    0    0  501    0  0.00000000000E+00 -0.00000000000E+00 -0.17259429235E+04  0.17259429235E+04  0.25500000000E-02 0. -1.
    8880022    1    1    2    0    0 -0.59985808563E+03 -0.15057379260E+03 -0.12091685161E+04  0.13667415056E+04  0.15294330000E+03 0.  0.
    8880022    1    1    2    0    0  0.59985808563E+03  0.15057379260E+03 -0.20630695119E+03  0.66966887417E+03  0.15294330000E+03 0.  0.
<mgrwt>
<rscale>  0 0.63709799E+03</rscale>
<asrwt>0</asrwt>
<pdfrwt beam="1">  1        2 0.26552968E+00 0.63709799E+03</pdfrwt>
<pdfrwt beam="2">  1       -2 0.47764225E-01 0.63709799E+03</pdfrwt>
<totfact> 0.41009477E+01</totfact>
</mgrwt>
</event>
<event>
 4    1  0.3365401E-008  0.4692450E+03  0.7818608E-02  0.1022134E+00
          2   -1    0    0  501    0  0.00000000000E+00  0.00000000000E+00  0.10946408429E+04  0.10946408429E+04  0.25500000000E-02 0. -1.
         -2   -1    0    0    0  501 -0.00000000000E+00 -0.00000000000E+00 -0.29398060471E+03  0.29398060472E+03  0.25500000000E-02 0.  1.
    8880022    1    1    2    0    0 -0.31030851071E+03 -0.31702970485E+03  0.10179869073E+02  0.46935539661E+03  0.15294330000E+03 0.  0.
    8880022    1    1    2    0    0  0.31030851071E+03  0.31702970485E+03  0.79048036916E+03  0.91926605105E+03  0.15294330000E+03 0.  0.
<mgrwt>
<rscale>  0 0.46924499E+03</rscale>
<asrwt>0</asrwt>
<pdfrwt beam="1">  1        2 0.16840629E+00 0.46924499E+03</pdfrwt>
<pdfrwt beam="2">  1       -2 0.45227784E-01 0.46924499E+03</pdfrwt>
<totfact> 0.10599742E+02</totfact>
</mgrwt>
</event>
<event>
 4    1  0.3365401E-008  0.2645356E+03  0.7818608E-02  0.1104448E+00
          2   -1    0    0  501    0  0.00000000000E+00  0.00000000000E+00  0.40954334453E+03  0.40954334453E+03  0.25500000000E-02 0. -1.
         -2   -1    0    0    0  501 -0.00000000000E+00 -0.00000000000E+00 -0.59131994272E+03  0.59131994273E+03  0.25500000000E-02 0.  1.
    8880022    1    1    2    0    0 -0.18678113327E+03 -0.10816761824E+03 -0.51286661624E+03  0.57707126463E+03  0.15294330000E+03 0.  1.
    8880022    1    1    2    0    0  0.18678113327E+03  0.10816761824E+03  0.33109001805E+03  0.42379202264E+03  0.15294330000E+03 0.  0.
<mgrwt>
<rscale>  0 0.26453559E+03</rscale>
<asrwt>0</asrwt>
<pdfrwt beam="1">  1        2 0.63006669E-01 0.26453559E+03</pdfrwt>
<pdfrwt beam="2">  1       -2 0.90972298E-01 0.26453559E+03</pdfrwt>
<totfact> 0.83937813E+01</totfact>
</mgrwt>
</event>
<event>
 4    1  0.3365401E-008  0.5055941E+03  0.7818608E-02  0.1012329E+00
          2   -1    0    0  501    0  0.00000000000E+00  0.00000000000E+00  0.13254940027E+04  0.13254940027E+04  0.25500000000E-02 0. -1.
         -2   -1    0    0    0  501 -0.00000000000E+00 -0.00000000000E+00 -0.74945224106E+03  0.74945224107E+03  0.25500000000E-02 0.  1.
    8880022    1    1    2    0    0 -0.37494196053E+03  0.30274125236E+03  0.11821005262E+04  0.12856854385E+04  0.15294330000E+03 0. -1.
    8880022    1    1    2    0    0  0.37494196053E+03 -0.30274125236E+03 -0.60605876456E+03  0.78926080529E+03  0.15294330000E+03 0.  0.
<mgrwt>
<rscale>  0 0.50559410E+03</rscale>
<asrwt>0</asrwt>
<pdfrwt beam="1">  1        2 0.20392215E+00 0.50559410E+03</pdfrwt>
<pdfrwt beam="2">  1       -2 0.11530035E+00 0.50559410E+03</pdfrwt>
<totfact> 0.99442184E+00</totfact>
</mgrwt>
</event>
<event>
 4    1  0.3365401E-008  0.8998555E+03  0.7818608E-02  0.9425762E-01
          2   -1    0    0  501    0  0.00000000000E+00  0.00000000000E+00  0.25896787779E+04  0.25896787779E+04  0.25500000000E-02 0. -1.
         -2   -1    0    0    0  501 -0.00000000000E+00 -0.00000000000E+00 -0.61081407647E+03  0.61081407647E+03  0.25500000000E-02 0.  1.
    8880022    1    1    2    0    0 -0.83254395721E+03  0.30531751185E+03 -0.12855890151E+03  0.90899244656E+03  0.15294330000E+03 0.  0.
    8880022    1    1    2    0    0  0.83254395721E+03 -0.30531751185E+03  0.21074236029E+04  0.22915004078E+04  0.15294330000E+03 0.  0.
<mgrwt>
<rscale>  0 0.89985548E+03</rscale>
<asrwt>0</asrwt>
<pdfrwt beam="1">  1        2 0.39841213E+00 0.89985548E+03</pdfrwt>
<pdfrwt beam="2">  1       -2 0.93971394E-01 0.89985548E+03</pdfrwt>
<totfact> 0.30271507E+00</totfact>
</mgrwt>
</event>
<event>
 4    1  0.3365401E-008  0.6198981E+03  0.7818608E-02  0.9864963E-01
          2   -1    0    0  501    0  0.00000000000E+00  0.00000000000E+00  0.10754097370E+04  0.10754097370E+04  0.25500000000E-02 0. -1.
         -2   -1    0    0    0  501 -0.00000000000E+00 -0.00000000000E+00 -0.58112135737E+03  0.58112135738E+03  0.25500000000E-02 0.  1.
    8880022    1    1    2    0    0 -0.43117488181E+02 -0.59918516474E+03  0.76114063469E+03  0.98163572583E+03  0.15294330000E+03 0.  0.
    8880022    1    1    2    0    0  0.43117488181E+02  0.59918516474E+03 -0.26685225507E+03  0.67489536855E+03  0.15294330000E+03 0.  1.
<mgrwt>
<rscale>  0 0.61989808E+03</rscale>
<asrwt>0</asrwt>
<pdfrwt beam="1">  1        2 0.16544765E+00 0.61989808E+03</pdfrwt>
<pdfrwt beam="2">  1       -2 0.89403286E-01 0.61989808E+03</pdfrwt>
<totfact> 0.25000668E+01</totfact>
</mgrwt>
</event>
<event>
 4    1  0.3365401E-008  0.9268596E+03  0.7818608E-02  0.9392615E-01
          2   -1    0    0  501    0  0.00000000000E+00  0.00000000000E+00  0.34505809131E+04  0.34505809131E+04  0.25500000000E-02 0. -1.
         -2   -1    0    0    0  501 -0.00000000000E+00 -0.00000000000E+00 -0.32524246277E+03  0.32524246278E+03  0.25500000000E-02 0.  1.
    8880022    1    1    2    0    0 -0.78628363208E+03 -0.46629947892E+03  0.64838683128E+03  0.11311384929E+04  0.15294330000E+03 0.  0.
    8880022    1    1    2    0    0  0.78628363208E+03  0.46629947892E+03  0.24769516191E+04  0.26446848830E+04  0.15294330000E+03 0.  0.
<mgrwt>
<rscale>  0 0.92685965E+03</rscale>
<asrwt>0</asrwt>
<pdfrwt beam="1">  1        2 0.53085861E+00 0.92685965E+03</pdfrwt>
<pdfrwt beam="2">  1       -2 0.50037301E-01 0.92685965E+03</pdfrwt>
<totfact> 0.34847185E+00</totfact>
</mgrwt>
</event>
<event>
 4    1  0.3365401E-008  0.2656323E+03  0.7818608E-02  0.1103806E+00
         -2   -1    0    0    0  501 -0.00000000000E+00  0.00000000000E+00  0.13761811529E+03  0.13761811531E+03  0.25500000000E-02 0.  1.
          2   -1    0    0  501    0  0.00000000000E+00 -0.00000000000E+00 -0.21466029892E+04  0.21466029892E+04  0.25500000000E-02 0. -1.
    8880022    1    1    2    0    0 -0.19191439974E+03  0.10167454064E+03 -0.80737927151E+01  0.26575494009E+03  0.15294330000E+03 0.  0.
    8880022    1    1    2    0    0  0.19191439974E+03 -0.10167454064E+03 -0.20009110812E+04  0.20184661645E+04  0.15294330000E+03 0.  0.
<mgrwt>
<rscale>  0 0.26563227E+03</rscale>
<asrwt>0</asrwt>
<pdfrwt beam="1">  1        2 0.33024659E+00 0.26563227E+03</pdfrwt>
<pdfrwt beam="2">  1       -2 0.21172019E-01 0.26563227E+03</pdfrwt>
<totfact> 0.11945885E+02</totfact>
</mgrwt>
</event>
<event>
 4    1  0.3365401E-008  0.5035802E+03  0.7818608E-02  0.1012849E+00
          2   -1    0    0  501    0  0.00000000000E+00  0.00000000000E+00  0.83838261142E+03  0.83838261142E+03  0.25500000000E-02 0. -1.
         -2   -1    0    0    0  501 -0.00000000000E+00 -0.00000000000E+00 -0.36951074379E+03  0.36951074379E+03  0.25500000000E-02 0.  1.
    8880022    1    1    2    0    0 -0.42897372177E+03 -0.21490213505E+03 -0.22796486290E+02  0.50409593771E+03  0.15294330000E+03 0.  0.
    8880022    1    1    2    0    0  0.42897372177E+03  0.21490213505E+03  0.49166835392E+03  0.70379741750E+03  0.15294330000E+03 0.  1.
<mgrwt>
<rscale>  0 0.50358022E+03</rscale>
<asrwt>0</asrwt>
<pdfrwt beam="1">  1        2 0.12898194E+00 0.50358022E+03</pdfrwt>
<pdfrwt beam="2">  1       -2 0.56847807E-01 0.50358022E+03</pdfrwt>
<totfact> 0.96974018E+01</totfact>
</mgrwt>
</event>
<event>
 4    1  0.3365401E-008  0.3686857E+03  0.7818608E-02  0.1055197E+00
         -2   -1    0    0    0  501 -0.00000000000E+00  0.00000000000E+00  0.13991311740E+03  0.13991311742E+03  0.25500000000E-02 0.  1.
          2   -1    0    0  501    0  0.00000000000E+00 -0.00000000000E+00 -0.15791017879E+04  0.15791017879E+04  0.25500000000E-02 0. -1.
    8880022    1    1    2    0    0 -0.50947017374E+02 -0.33157486598E+03 -0.12527389640E+04  0.13058652516E+04  0.15294330000E+03 0.  0.
    8880022    1    1    2    0    0  0.50947017374E+02  0.33157486598E+03 -0.18644970651E+03  0.41314965376E+03  0.15294330000E+03 0.  0.
<mgrwt>
<rscale>  0 0.36868570E+03</rscale>
<asrwt>0</asrwt>
<pdfrwt beam="1">  1        2 0.24293872E+00 0.36868570E+03</pdfrwt>
<pdfrwt beam="2">  1       -2 0.21525096E-01 0.36868570E+03</pdfrwt>
<totfact> 0.22696009E+02</totfact>
</mgrwt>
</event>
<event>
 4    1  0.3365401E-008  0.3557456E+03  0.7818608E-02  0.1060281E+00
          2   -1    0    0  501    0  0.00000000000E+00  0.00000000000E+00  0.21037280152E+04  0.21037280152E+04  0.25500000000E-02 0. -1.
         -2   -1    0    0    0  501 -0.00000000000E+00 -0.00000000000E+00 -0.20771476049E+03  0.20771476051E+03  0.25500000000E-02 0.  1.
    8880022    1    1    2    0    0 -0.59788754637E+02 -0.31557657853E+03  0.19220982934E+04  0.19547421248E+04  0.15294330000E+03 0.  0.
    8880022    1    1    2    0    0  0.59788754637E+02  0.31557657853E+03 -0.26085038664E+02  0.35670065090E+03  0.15294330000E+03 0.  1.
<mgrwt>
<rscale>  0 0.35574559E+03</rscale>
<asrwt>0</asrwt>
<pdfrwt beam="1">  1        2 0.32365046E+00 0.35574559E+03</pdfrwt>
<pdfrwt beam="2">  1       -2 0.31956117E-01 0.35574559E+03</pdfrwt>
<totfact> 0.58797393E+01</totfact>
</mgrwt>
</event>
<event>
 4    1  0.3365401E-008  0.1301190E+04  0.7818608E-02  0.9028622E-01
          2   -1    0    0  501    0  0.00000000000E+00  0.00000000000E+00  0.12581634997E+04  0.12581634997E+04  0.25500000000E-02 0. -1.
         -2   -1    0    0    0  501 -0.00000000000E+00 -0.00000000000E+00 -0.13696430401E+04  0.13696430401E+04  0.25500000000E-02 0.  1.
    8880022    1    1    2    0    0 -0.39906697283E+03 -0.12290039094E+04  0.11802014323E+03  0.13065318463E+04  0.15294330000E+03 0.  0.
    8880022    1    1    2    0    0  0.39906697283E+03  0.12290039094E+04 -0.22949968361E+03  0.13212746936E+04  0.15294330000E+03 0.  0.
<mgrwt>
<rscale>  0 0.13011905E+04</rscale>
<asrwt>0</asrwt>
<pdfrwt beam="1">  1        2 0.19356362E+00 0.13011905E+04</pdfrwt>
<pdfrwt beam="2">  1       -2 0.21071431E+00 0.13011905E+04</pdfrwt>
<totfact> 0.19049474E+00</totfact>
</mgrwt>
</event>
<event>
 4    1  0.3365401E-008  0.5201496E+03  0.7818608E-02  0.1008649E+00
         -2   -1    0    0    0  501 -0.00000000000E+00  0.00000000000E+00  0.15845977322E+04  0.15845977322E+04  0.25500000000E-02 0.  1.
          2   -1    0    0  501    0  0.00000000000E+00 -0.00000000000E+00 -0.54025652742E+03  0.54025652742E+03  0.25500000000E-02 0. -1.
    8880022    1    1    2    0    0 -0.49478611875E+03  0.48483803572E+02 -0.35647865965E+03  0.63058121627E+03  0.15294330000E+03 0.  0.
    8880022    1    1    2    0    0  0.49478611875E+03 -0.48483803572E+02  0.14008198644E+04  0.14942730434E+04  0.15294330000E+03 0.  0.
<mgrwt>
<rscale>  0 0.52014963E+03</rscale>
<asrwt>0</asrwt>
<pdfrwt beam="1">  1        2 0.83116389E-01 0.52014963E+03</pdfrwt>
<pdfrwt beam="2">  1       -2 0.24378427E+00 0.52014963E+03</pdfrwt>
<totfact> 0.42109013E+00</totfact>
</mgrwt>
</event>
<event>
 4    1  0.3365401E-008  0.7318657E+03  0.7818608E-02  0.9664238E-01
          2   -1    0    0  501    0  0.00000000000E+00  0.00000000000E+00  0.61049751349E+03  0.61049751350E+03  0.25500000000E-02 0. -1.
         -2   -1    0    0    0  501 -0.00000000000E+00 -0.00000000000E+00 -0.12499069300E+04  0.12499069300E+04  0.25500000000E-02 0.  1.
    8880022    1    1    2    0    0  0.57628636300E+03 -0.42441692391E+03  0.18813637746E+03  0.75566040456E+03  0.15294330000E+03 0.  0.
    8880022    1    1    2    0    0 -0.57628636300E+03  0.42441692391E+03 -0.82754579401E+03  0.11047440390E+04  0.15294330000E+03 0.  0.
<mgrwt>
<rscale>  0 0.73186566E+03</rscale>
<asrwt>0</asrwt>
<pdfrwt beam="1">  1        2 0.93922694E-01 0.73186566E+03</pdfrwt>
<pdfrwt beam="2">  1       -2 0.19229337E+00 0.73186566E+03</pdfrwt>
<totfact> 0.74197526E+00</totfact>
</mgrwt>
</event>
<event>
 4    1  0.3365401E-008  0.1106267E+04  0.7818608E-02  0.9199105E-01
         -2   -1    0    0    0  501 -0.00000000000E+00  0.00000000000E+00  0.35735873653E+03  0.35735873654E+03  0.25500000000E-02 0.  1.
          2   -1    0    0  501    0  0.00000000000E+00 -0.00000000000E+00 -0.47274211980E+04  0.47274211980E+04  0.25500000000E-02 0. -1.
    8880022    1    1    2    0    0 -0.10361398955E+04  0.35615949708E+03 -0.85038925846E+03  0.13953454820E+04  0.15294330000E+03 0.  0.
    8880022    1    1    2    0    0  0.10361398955E+04 -0.35615949708E+03 -0.35196732030E+04  0.36894344525E+04  0.15294330000E+03 0.  0.
<mgrwt>
<rscale>  0 0.11062672E+04</rscale>
<asrwt>0</asrwt>
<pdfrwt beam="1">  1        2 0.72729552E+00 0.11062672E+04</pdfrwt>
<pdfrwt beam="2">  1       -2 0.54978271E-01 0.11062672E+04</pdfrwt>
<totfact> 0.23739336E-01</totfact>
</mgrwt>
</event>
<event>
 4    1  0.3365401E-008  0.8845241E+03  0.7818608E-02  0.9445137E-01
          2   -1    0    0  501    0  0.00000000000E+00  0.00000000000E+00  0.46867795438E+03  0.46867795439E+03  0.25500000000E-02 0. -1.
         -2   -1    0    0    0  501 -0.00000000000E+00 -0.00000000000E+00 -0.21924599098E+04  0.21924599098E+04  0.25500000000E-02 0.  1.
    8880022    1    1    2    0    0  0.61620621252E+03  0.61585805797E+03 -0.21195266721E+03  0.90956408794E+03  0.15294330000E+03 0.  0.
    8880022    1    1    2    0    0 -0.61620621252E+03 -0.61585805797E+03 -0.15118292882E+04  0.17515737762E+04  0.15294330000E+03 0.  0.
<mgrwt>
<rscale>  0 0.88452411E+03</rscale>
<asrwt>0</asrwt>
<pdfrwt beam="1">  1        2 0.72104302E-01 0.88452411E+03</pdfrwt>
<pdfrwt beam="2">  1       -2 0.33730152E+00 0.88452411E+03</pdfrwt>
<totfact> 0.12766311E+00</totfact>
</mgrwt>
</event>
<event>
 4    1  0.3365401E-008  0.4780693E+03  0.7818608E-02  0.1019667E+00
         -2   -1    0    0    0  501 -0.00000000000E+00  0.00000000000E+00  0.24438309129E+03  0.24438309130E+03  0.25500000000E-02 0.  1.
          2   -1    0    0  501    0  0.00000000000E+00 -0.00000000000E+00 -0.26795033084E+04  0.26795033084E+04  0.25500000000E-02 0. -1.
    8880022    1    1    2    0    0 -0.44880700736E+03  0.61080527032E+02 -0.38019899453E+02  0.47957869678E+03  0.15294330000E+03 0.  0.
    8880022    1    1    2    0    0  0.44880700736E+03 -0.61080527032E+02 -0.23971003176E+04  0.24443077029E+04  0.15294330000E+03 0.  0.
<mgrwt>
<rscale>  0 0.47806926E+03</rscale>
<asrwt>0</asrwt>
<pdfrwt beam="1">  1        2 0.41223126E+00 0.47806926E+03</pdfrwt>
<pdfrwt beam="2">  1       -2 0.37597401E-01 0.47806926E+03</pdfrwt>
<totfact> 0.20210272E+01</totfact>
</mgrwt>
</event>
<event>
 4    1  0.3365401E-008  0.2030463E+03  0.7818608E-02  0.1147194E+00
         -2   -1    0    0    0  501 -0.00000000000E+00  0.00000000000E+00  0.21742928610E+04  0.21742928610E+04  0.25500000000E-02 0.  1.
          2   -1    0    0  501    0  0.00000000000E+00 -0.00000000000E+00 -0.13091184157E+03  0.13091184160E+03  0.25500000000E-02 0. -1.
    8880022    1    1    2    0    0  0.13245367814E+03  0.17093075662E+02  0.20875569593E+04  0.20974083678E+04  0.15294330000E+03 0.  0.
    8880022    1    1    2    0    0 -0.13245367814E+03 -0.17093075662E+02 -0.44175939832E+02  0.20779633481E+03  0.15294330000E+03 0.  0.
<mgrwt>
<rscale>  0 0.20304631E+03</rscale>
<asrwt>0</asrwt>
<pdfrwt beam="1">  1        2 0.20140284E-01 0.20304631E+03</pdfrwt>
<pdfrwt beam="2">  1       -2 0.33450658E+00 0.20304631E+03</pdfrwt>
<totfact> 0.64932441E+00</totfact>
</mgrwt>
</event>
<event>
 4    1  0.3365401E-008  0.2577659E+03  0.7818608E-02  0.1108493E+00
         -2   -1    0    0    0  501 -0.00000000000E+00  0.00000000000E+00  0.82202367388E+03  0.82202367388E+03  0.25500000000E-02 0.  1.
          2   -1    0    0  501    0  0.00000000000E+00 -0.00000000000E+00 -0.75960418954E+03  0.75960418955E+03  0.25500000000E-02 0. -1.
    8880022    1    1    2    0    0  0.72649933131E+01 -0.20736154936E+03 -0.71634612975E+03  0.76131138366E+03  0.15294330000E+03 0.  0.
    8880022    1    1    2    0    0 -0.72649933131E+01  0.20736154936E+03  0.77876561408E+03  0.82031647976E+03  0.15294330000E+03 0.  1.
<mgrwt>
<rscale>  0 0.25776587E+03</rscale>
<asrwt>0</asrwt>
<pdfrwt beam="1">  1        2 0.11686218E+00 0.25776587E+03</pdfrwt>
<pdfrwt beam="2">  1       -2 0.12646518E+00 0.25776587E+03</pdfrwt>
<totfact> 0.18860819E+01</totfact>
</mgrwt>
</event>
<event>
 4    1  0.3365401E-008  0.6398829E+03  0.7818608E-02  0.9825951E-01
         -2   -1    0    0    0  501 -0.00000000000E+00  0.00000000000E+00  0.31834437561E+03  0.31834437562E+03  0.25500000000E-02 0.  1.
          2   -1    0    0  501    0  0.00000000000E+00 -0.00000000000E+00 -0.23964643056E+04  0.23964643056E+04  0.25500000000E-02 0. -1.
    8880022    1    1    2    0    0 -0.56570225238E+03 -0.25698129958E+03 -0.19629912605E+04  0.20646512462E+04  0.15294330000E+03 0.  0.
    8880022    1    1    2    0    0  0.56570225238E+03  0.25698129958E+03 -0.11512866943E+03  0.65015743495E+03  0.15294330000E+03 0.  1.
<mgrwt>
<rscale>  0 0.63988286E+03</rscale>
<asrwt>0</asrwt>
<pdfrwt beam="1">  1        2 0.36868681E+00 0.63988286E+03</pdfrwt>
<pdfrwt beam="2">  1       -2 0.48976059E-01 0.63988286E+03</pdfrwt>
<totfact> 0.16766383E+01</totfact>
</mgrwt>
</event>
<event>
 4    1  0.3365401E-008  0.1709448E+03  0.7818608E-02  0.1176866E+00
          2   -1    0    0  501    0  0.00000000000E+00  0.00000000000E+00  0.15429576931E+04  0.15429576931E+04  0.25500000000E-02 0. -1.
         -2   -1    0    0    0  501 -0.00000000000E+00 -0.00000000000E+00 -0.44564571085E+02  0.44564571158E+02  0.25500000000E-02 0.  1.
    8880022    1    1    2    0    0 -0.62474841231E+02  0.43901586751E+02  0.14728655587E+03  0.22564449398E+03  0.15294330000E+03 0.  1.
    8880022    1    1    2    0    0  0.62474841231E+02 -0.43901586751E+02  0.13511065661E+04  0.13618777702E+04  0.15294330000E+03 0.  0.
<mgrwt>
<rscale>  0 0.17094475E+03</rscale>
<asrwt>0</asrwt>
<pdfrwt beam="1">  1        2 0.23737807E+00 0.17094475E+03</pdfrwt>
<pdfrwt beam="2">  1       -2 0.68560890E-02 0.17094475E+03</pdfrwt>
<totfact> 0.15662235E+03</totfact>
</mgrwt>
</event>
<event>
 4    1  0.3365401E-008  0.2262267E+03  0.7818608E-02  0.1129324E+00
         -2   -1    0    0    0  501 -0.00000000000E+00  0.00000000000E+00  0.99060262383E+02  0.99060262416E+02  0.25500000000E-02 0.  1.
          2   -1    0    0  501    0  0.00000000000E+00 -0.00000000000E+00 -0.11924163299E+04  0.11924163299E+04  0.25500000000E-02 0. -1.
    8880022    1    1    2    0    0 -0.15453817882E+03 -0.62488610612E+02 -0.60557503563E+02  0.23419167240E+03  0.15294330000E+03 0.  0.
    8880022    1    1    2    0    0  0.15453817882E+03  0.62488610612E+02 -0.10327985639E+04  0.10572849199E+04  0.15294330000E+03 0. -1.
<mgrwt>
<rscale>  0 0.22622672E+03</rscale>
<asrwt>0</asrwt>
<pdfrwt beam="1">  1        2 0.18344866E+00 0.22622672E+03</pdfrwt>
<pdfrwt beam="2">  1       -2 0.15240041E-01 0.22622672E+03</pdfrwt>
<totfact> 0.67793893E+02</totfact>
</mgrwt>
</event>
<event>
 4    1  0.3365401E-008  0.5471899E+03  0.7818608E-02  0.1002146E+00
         -2   -1    0    0    0  501 -0.00000000000E+00  0.00000000000E+00  0.10301237150E+04  0.10301237150E+04  0.25500000000E-02 0.  1.
          2   -1    0    0  501    0  0.00000000000E+00 -0.00000000000E+00 -0.33832713114E+04  0.33832713114E+04  0.25500000000E-02 0. -1.
    8880022    1    1    2    0    0  0.32783539784E+03 -0.41054728068E+03 -0.32863529360E+04  0.33315960725E+04  0.15294330000E+03 0.  0.
    8880022    1    1    2    0    0 -0.32783539784E+03  0.41054728068E+03  0.93320533957E+03  0.10817989539E+04  0.15294330000E+03 0.  0.
<mgrwt>
<rscale>  0 0.54718989E+03</rscale>
<asrwt>0</asrwt>
<pdfrwt beam="1">  1        2 0.52050327E+00 0.54718989E+03</pdfrwt>
<pdfrwt beam="2">  1       -2 0.15848057E+00 0.54718989E+03</pdfrwt>
<totfact> 0.29276861E-01</totfact>
</mgrwt>
</event>
<event>
 4    1  0.3365401E-008  0.3253042E+03  0.7818608E-02  0.1073234E+00
          2   -1    0    0  501    0  0.00000000000E+00  0.00000000000E+00  0.40041149289E+04  0.40041149289E+04  0.25500000000E-02 0. -1.
         -2   -1    0    0    0  501 -0.00000000000E+00 -0.00000000000E+00 -0.10050370794E+03  0.10050370797E+03  0.25500000000E-02 0.  1.
    8880022    1    1    2    0    0  0.27593280653E+03  0.79323733941E+02  0.37137336337E+04  0.37279539058E+04  0.15294330000E+03 0.  0.
    8880022    1    1    2    0    0 -0.27593280653E+03 -0.79323733941E+02  0.18987758725E+03  0.37666473108E+03  0.15294330000E+03 0.  1.
<mgrwt>
<rscale>  0 0.32530420E+03</rscale>
<asrwt>0</asrwt>
<pdfrwt beam="1">  1        2 0.61601771E+00 0.32530420E+03</pdfrwt>
<pdfrwt beam="2">  1       -2 0.15462108E-01 0.32530420E+03</pdfrwt>
<totfact> 0.14124224E+01</totfact>
</mgrwt>
</event>
<event>
 4    1  0.3365401E-008  0.3017736E+03  0.7818608E-02  0.1084357E+00
         -2   -1    0    0    0  501 -0.00000000000E+00  0.00000000000E+00  0.13908778564E+03  0.13908778566E+03  0.25500000000E-02 0.  1.
          2   -1    0    0  501    0  0.00000000000E+00 -0.00000000000E+00 -0.13937306006E+04  0.13937306006E+04  0.25500000000E-02 0. -1.
    8880022    1    1    2    0    0  0.25955514438E+03 -0.17515130433E+02 -0.69251380563E+02  0.30961760204E+03  0.15294330000E+03 0.  0.
    8880022    1    1    2    0    0 -0.25955514438E+03  0.17515130433E+02 -0.11853914344E+04  0.12232007842E+04  0.15294330000E+03 0.  0.
<mgrwt>
<rscale>  0 0.30177360E+03</rscale>
<asrwt>0</asrwt>
<pdfrwt beam="1">  1        2 0.21442008E+00 0.30177360E+03</pdfrwt>
<pdfrwt beam="2">  1       -2 0.21398122E-01 0.30177360E+03</pdfrwt>
<totfact> 0.29193977E+02</totfact>
</mgrwt>
</event>
<event>
 4    1  0.3365401E-008  0.5581434E+03  0.7818608E-02  0.9996264E-01
         -2   -1    0    0    0  501 -0.00000000000E+00  0.00000000000E+00  0.20426583896E+03  0.20426583898E+03  0.25500000000E-02 0.  1.
          2   -1    0    0  501    0  0.00000000000E+00 -0.00000000000E+00 -0.18443761274E+04  0.18443761274E+04  0.25500000000E-02 0. -1.
    8880022    1    1    2    0    0  0.53017688755E+03 -0.83933503352E+02 -0.39386776673E+03  0.68312212361E+03  0.15294330000E+03 0.  0.
    8880022    1    1    2    0    0 -0.53017688755E+03  0.83933503352E+02 -0.12462425217E+04  0.13655198427E+04  0.15294330000E+03 0.  0.
<mgrwt>
<rscale>  0 0.55814337E+03</rscale>
<asrwt>0</asrwt>
<pdfrwt beam="1">  1        2 0.28375016E+00 0.55814337E+03</pdfrwt>
<pdfrwt beam="2">  1       -2 0.31425515E-01 0.55814337E+03</pdfrwt>
<totfact> 0.80374311E+01</totfact>
</mgrwt>
</event>
<event>
 4    1  0.3365401E-008  0.2701834E+03  0.7818608E-02  0.1101175E+00
         -2   -1    0    0    0  501 -0.00000000000E+00  0.00000000000E+00  0.66993963682E+03  0.66993963682E+03  0.25500000000E-02 0.  1.
          2   -1    0    0  501    0  0.00000000000E+00 -0.00000000000E+00 -0.32476430414E+03  0.32476430415E+03  0.25500000000E-02 0. -1.
    8880022    1    1    2    0    0  0.15193552650E+03  0.16285895554E+03 -0.23283314109E+03  0.35666562522E+03  0.15294330000E+03 0.  0.
    8880022    1    1    2    0    0 -0.15193552650E+03 -0.16285895554E+03  0.57800847376E+03  0.63803831575E+03  0.15294330000E+03 0.  0.
<mgrwt>
<rscale>  0 0.27018345E+03</rscale>
<asrwt>0</asrwt>
<pdfrwt beam="1">  1        2 0.49963739E-01 0.27018345E+03</pdfrwt>
<pdfrwt beam="2">  1       -2 0.10306764E+00 0.27018345E+03</pdfrwt>
<totfact> 0.80893142E+01</totfact>
</mgrwt>
</event>
<event>
 4    1  0.3365401E-008  0.1321200E+04  0.7818608E-02  0.9012920E-01
         -2   -1    0    0    0  501 -0.00000000000E+00  0.00000000000E+00  0.70383575572E+03  0.70383575572E+03  0.25500000000E-02 0.  1.
          2   -1    0    0  501    0  0.00000000000E+00 -0.00000000000E+00 -0.39099062702E+04  0.39099062702E+04  0.25500000000E-02 0. -1.
    8880022    1    1    2    0    0 -0.82122923659E+03 -0.10236020505E+04 -0.20801184382E+03  0.13374749332E+04  0.15294330000E+03 0.  0.
    8880022    1    1    2    0    0  0.82122923659E+03  0.10236020505E+04 -0.29980586707E+04  0.32762670927E+04  0.15294330000E+03 0.  0.
<mgrwt>
<rscale>  0 0.13212003E+04</rscale>
<asrwt>0</asrwt>
<pdfrwt beam="1">  1        2 0.60152403E+00 0.13212003E+04</pdfrwt>
<pdfrwt beam="2">  1       -2 0.10828243E+00 0.13212003E+04</pdfrwt>
<totfact> 0.27308012E-01</totfact>
</mgrwt>
</event>
<event>
 4    1  0.3365401E-008  0.1051513E+04  0.7818608E-02  0.9253783E-01
         -2   -1    0    0    0  501 -0.00000000000E+00  0.00000000000E+00  0.12063674009E+04  0.12063674009E+04  0.25500000000E-02 0.  1.
          2   -1    0    0  501    0  0.00000000000E+00 -0.00000000000E+00 -0.12018121231E+04  0.12018121231E+04  0.25500000000E-02 0. -1.
    8880022    1    1    2    0    0 -0.10304431629E+04  0.14309335353E+03 -0.58436341476E+03  0.12029800802E+04  0.15294330000E+03 0.  0.
    8880022    1    1    2    0    0  0.10304431629E+04 -0.14309335353E+03  0.58891869249E+03  0.12051994438E+04  0.15294330000E+03 0.  0.
<mgrwt>
<rscale>  0 0.10515134E+04</rscale>
<asrwt>0</asrwt>
<pdfrwt beam="1">  1        2 0.18489417E+00 0.10515134E+04</pdfrwt>
<pdfrwt beam="2">  1       -2 0.18559498E+00 0.10515134E+04</pdfrwt>
<totfact> 0.30920832E+00</totfact>
</mgrwt>
</event>
<event>
 4    1  0.3365401E-008  0.3800981E+03  0.7818608E-02  0.1050897E+00
         -2   -1    0    0    0  501 -0.00000000000E+00  0.00000000000E+00  0.27087531321E+03  0.27087531323E+03  0.25500000000E-02 0.  1.
          2   -1    0    0  501    0  0.00000000000E+00 -0.00000000000E+00 -0.20932703236E+04  0.20932703236E+04  0.25500000000E-02 0. -1.
    8880022    1    1    2    0    0  0.41748365833E+02  0.34545625004E+03 -0.19316225517E+04  0.19686645936E+04  0.15294330000E+03 0.  0.
    8880022    1    1    2    0    0 -0.41748365833E+02 -0.34545625004E+03  0.10922754135E+03  0.39548104322E+03  0.15294330000E+03 0.  0.
<mgrwt>
<rscale>  0 0.38009814E+03</rscale>
<asrwt>0</asrwt>
<pdfrwt beam="1">  1        2 0.32204158E+00 0.38009814E+03</pdfrwt>
<pdfrwt beam="2">  1       -2 0.41673126E-01 0.38009814E+03</pdfrwt>
<totfact> 0.35769979E+01</totfact>
</mgrwt>
</event>
<event>
 4    1  0.3365401E-008  0.4778619E+03  0.7818608E-02  0.1019724E+00
          2   -1    0    0  501    0  0.00000000000E+00  0.00000000000E+00  0.13233598372E+04  0.13233598372E+04  0.25500000000E-02 0. -1.
         -2   -1    0    0    0  501 -0.00000000000E+00 -0.00000000000E+00 -0.35181508691E+03  0.35181508692E+03  0.25500000000E-02 0.  1.
    8880022    1    1    2    0    0  0.53566712548E+02  0.44954529391E+03 -0.11210903521E+03  0.49083648271E+03  0.15294330000E+03 0.  0.
    8880022    1    1    2    0    0 -0.53566712548E+02 -0.44954529391E+03  0.10836537855E+04  0.11843384414E+04  0.15294330000E+03 0.  0.
<mgrwt>
<rscale>  0 0.47786192E+03</rscale>
<asrwt>0</asrwt>
<pdfrwt beam="1">  1        2 0.20359382E+00 0.47786192E+03</pdfrwt>
<pdfrwt beam="2">  1       -2 0.54125398E-01 0.47786192E+03</pdfrwt>
<totfact> 0.54246786E+01</totfact>
</mgrwt>
</event>
<event>
 4    1  0.3365401E-008  0.3129727E+03  0.7818608E-02  0.1078930E+00
         -2   -1    0    0    0  501 -0.00000000000E+00  0.00000000000E+00  0.78301210673E+02  0.78301210714E+02  0.25500000000E-02 0.  1.
          2   -1    0    0  501    0  0.00000000000E+00 -0.00000000000E+00 -0.26252801047E+04  0.26252801047E+04  0.25500000000E-02 0. -1.
    8880022    1    1    2    0    0  0.20846298907E+03 -0.17636171925E+03 -0.29543040166E+03  0.43038476863E+03  0.15294330000E+03 0.  0.
    8880022    1    1    2    0    0 -0.20846298907E+03  0.17636171925E+03 -0.22515484923E+04  0.22731965468E+04  0.15294330000E+03 0.  0.
<mgrwt>
<rscale>  0 0.31297273E+03</rscale>
<asrwt>0</asrwt>
<pdfrwt beam="1">  1        2 0.40388918E+00 0.31297273E+03</pdfrwt>
<pdfrwt beam="2">  1       -2 0.12046342E-01 0.31297273E+03</pdfrwt>
<totfact> 0.16655047E+02</totfact>
</mgrwt>
</event>
<event>
 4    1  0.3365401E-008  0.1689809E+03  0.7818608E-02  0.1178915E+00
         -2   -1    0    0    0  501 -0.00000000000E+00  0.00000000000E+00  0.11566193392E+03  0.11566193395E+03  0.25500000000E-02 0.  1.
          2   -1    0    0  501    0  0.00000000000E+00 -0.00000000000E+00 -0.76014905395E+03  0.76014905395E+03  0.25500000000E-02 0. -1.
    8880022    1    1    2    0    0 -0.16454133235E+02  0.69943826125E+02 -0.68207895157E+03  0.70269924328E+03  0.15294330000E+03 0. -1.
    8880022    1    1    2    0    0  0.16454133235E+02 -0.69943826125E+02  0.37591831537E+02  0.17311174462E+03  0.15294330000E+03 0.  0.
<mgrwt>
<rscale>  0 0.16898086E+03</rscale>
<asrwt>0</asrwt>
<pdfrwt beam="1">  1        2 0.11694600E+00 0.16898086E+03</pdfrwt>
<pdfrwt beam="2">  1       -2 0.17794144E-01 0.16898086E+03</pdfrwt>
<totfact> 0.97467096E+02</totfact>
</mgrwt>
</event>
<event>
 4    1  0.3365401E-008  0.6350182E+03  0.7818608E-02  0.9835305E-01
         -2   -1    0    0    0  501 -0.00000000000E+00  0.00000000000E+00  0.94614939874E+03  0.94614939875E+03  0.25500000000E-02 0.  1.
          2   -1    0    0  501    0  0.00000000000E+00 -0.00000000000E+00 -0.14146113384E+04  0.14146113384E+04  0.25500000000E-02 0. -1.
    8880022    1    1    2    0    0  0.39371839822E+03  0.47417534656E+03 -0.12209021706E+04  0.13761723001E+04  0.15294330000E+03 0.  0.
    8880022    1    1    2    0    0 -0.39371839822E+03 -0.47417534656E+03  0.75244023089E+03  0.98458843709E+03  0.15294330000E+03 0.  1.
<mgrwt>
<rscale>  0 0.63501818E+03</rscale>
<asrwt>0</asrwt>
<pdfrwt beam="1">  1        2 0.21763251E+00 0.63501818E+03</pdfrwt>
<pdfrwt beam="2">  1       -2 0.14556145E+00 0.63501818E+03</pdfrwt>
<totfact> 0.48071622E+00</totfact>
</mgrwt>
</event>
<event>
 4    1  0.3365401E-008  0.6071756E+03  0.7818608E-02  0.9890630E-01
          2   -1    0    0  501    0  0.00000000000E+00  0.00000000000E+00  0.84756345823E+03  0.84756345824E+03  0.25500000000E-02 0. -1.
         -2   -1    0    0    0  501 -0.00000000000E+00 -0.00000000000E+00 -0.66602365677E+03  0.66602365678E+03  0.25500000000E-02 0.  1.
    8880022    1    1    2    0    0 -0.57853873315E+03  0.10277900811E+03 -0.35498047801E+03  0.70333020911E+03  0.15294330000E+03 0.  0.
    8880022    1    1    2    0    0  0.57853873315E+03 -0.10277900811E+03  0.53652027947E+03  0.81025690590E+03  0.15294330000E+03 0.  0.
<mgrwt>
<rscale>  0 0.60717563E+03</rscale>
<asrwt>0</asrwt>
<pdfrwt beam="1">  1        2 0.13039438E+00 0.60717563E+03</pdfrwt>
<pdfrwt beam="2">  1       -2 0.10246518E+00 0.60717563E+03</pdfrwt>
<totfact> 0.25581136E+01</totfact>
</mgrwt>
</event>
<event>
 4    1  0.3365401E-008  0.1009717E+04  0.7818608E-02  0.9297951E-01
          2   -1    0    0  501    0  0.00000000000E+00  0.00000000000E+00  0.30659560730E+04  0.30659560730E+04  0.25500000000E-02 0. -1.
         -2   -1    0    0    0  501 -0.00000000000E+00 -0.00000000000E+00 -0.55425498026E+03  0.55425498026E+03  0.25500000000E-02 0.  1.
    8880022    1    1    2    0    0 -0.99254460590E+03  0.10484598914E+03  0.24007154620E+04  0.26044123826E+04  0.15294330000E+03 0.  0.
    8880022    1    1    2    0    0  0.99254460590E+03 -0.10484598914E+03  0.11098563079E+03  0.10157986707E+04  0.15294330000E+03 0.  0.
<mgrwt>
<rscale>  0 0.10097174E+04</rscale>
<asrwt>0</asrwt>
<pdfrwt beam="1">  1        2 0.47168555E+00 0.10097174E+04</pdfrwt>
<pdfrwt beam="2">  1       -2 0.85269996E-01 0.10097174E+04</pdfrwt>
<totfact> 0.19319178E+00</totfact>
</mgrwt>
</event>
<event>
 4    1  0.3365401E-008  0.7438050E+03  0.7818608E-02  0.9645120E-01
          2   -1    0    0  501    0  0.00000000000E+00  0.00000000000E+00  0.88438016830E+03  0.88438016830E+03  0.25500000000E-02 0. -1.
         -2   -1    0    0    0  501 -0.00000000000E+00 -0.00000000000E+00 -0.13946684097E+04  0.13946684097E+04  0.25500000000E-02 0.  1.
    8880022    1    1    2    0    0 -0.18645617456E+02  0.72767204569E+03 -0.11013532673E+04  0.13289939569E+04  0.15294330000E+03 0.  0.
    8880022    1    1    2    0    0  0.18645617456E+02 -0.72767204569E+03  0.59106502591E+03  0.95005462106E+03  0.15294330000E+03 0.  0.
<mgrwt>
<rscale>  0 0.74380503E+03</rscale>
<asrwt>0</asrwt>
<pdfrwt beam="1">  1        2 0.13605849E+00 0.74380503E+03</pdfrwt>
<pdfrwt beam="2">  1       -2 0.21456437E+00 0.74380503E+03</pdfrwt>
<totfact> 0.33005288E+00</totfact>
</mgrwt>
</event>
<event>
 4    1  0.3365401E-008  0.2862408E+03  0.7818608E-02  0.1092328E+00
          2   -1    0    0  501    0  0.00000000000E+00  0.00000000000E+00  0.21819141595E+04  0.21819141595E+04  0.25500000000E-02 0. -1.
         -2   -1    0    0    0  501 -0.00000000000E+00 -0.00000000000E+00 -0.71363684821E+02  0.71363684866E+02  0.25500000000E-02 0.  1.
    8880022    1    1    2    0    0 -0.20681258206E+03  0.12558148772E+03  0.18307787022E+04  0.18530203624E+04  0.15294330000E+03 0.  0.
    8880022    1    1    2    0    0  0.20681258206E+03 -0.12558148772E+03  0.27977177250E+03  0.40025748195E+03  0.15294330000E+03 0.  1.
<mgrwt>
<rscale>  0 0.28624082E+03</rscale>
<asrwt>0</asrwt>
<pdfrwt beam="1">  1        2 0.33567910E+00 0.28624082E+03</pdfrwt>
<pdfrwt beam="2">  1       -2 0.10979028E-01 0.28624082E+03</pdfrwt>
<totfact> 0.33968675E+02</totfact>
</mgrwt>
</event>
<event>
 4    1  0.3365401E-008  0.8324536E+03  0.7818608E-02  0.9514195E-01
         -2   -1    0    0    0  501 -0.00000000000E+00  0.00000000000E+00  0.30369063762E+03  0.30369063763E+03  0.25500000000E-02 0.  1.
          2   -1    0    0  501    0  0.00000000000E+00 -0.00000000000E+00 -0.28812985223E+04  0.28812985223E+04  0.25500000000E-02 0. -1.
    8880022    1    1    2    0    0  0.46049705693E+03  0.67640944037E+03 -0.56243566542E+03  0.10046456098E+04  0.15294330000E+03 0.  0.
    8880022    1    1    2    0    0 -0.46049705693E+03 -0.67640944037E+03 -0.20151722193E+04  0.21803435502E+04  0.15294330000E+03 0.  0.
<mgrwt>
<rscale>  0 0.83245356E+03</rscale>
<asrwt>0</asrwt>
<pdfrwt beam="1">  1        2 0.44327668E+00 0.83245356E+03</pdfrwt>
<pdfrwt beam="2">  1       -2 0.46721639E-01 0.83245356E+03</pdfrwt>
<totfact> 0.93646182E+00</totfact>
</mgrwt>
</event>
<event>
 4    1  0.3365401E-008  0.1683702E+03  0.7818608E-02  0.1179558E+00
         -2   -1    0    0    0  501 -0.00000000000E+00  0.00000000000E+00  0.43310768012E+03  0.43310768013E+03  0.25500000000E-02 0.  1.
          2   -1    0    0  501    0  0.00000000000E+00 -0.00000000000E+00 -0.83172713108E+03  0.83172713108E+03  0.25500000000E-02 0. -1.
    8880022    1    1    2    0    0 -0.64682753951E+02 -0.27802888421E+02 -0.80633287798E+03  0.82372399649E+03  0.15294330000E+03 0. -1.
    8880022    1    1    2    0    0  0.64682753951E+02  0.27802888421E+02  0.40771342703E+03  0.44111081471E+03  0.15294330000E+03 0.  0.
<mgrwt>
<rscale>  0 0.16837016E+03</rscale>
<asrwt>0</asrwt>
<pdfrwt beam="1">  1        2 0.12795802E+00 0.16837016E+03</pdfrwt>
<pdfrwt beam="2">  1       -2 0.66631951E-01 0.16837016E+03</pdfrwt>
<totfact> 0.74347193E+01</totfact>
</mgrwt>
</event>
<event>
 4    1  0.3365401E-008  0.9458906E+03  0.7818608E-02  0.9369967E-01
          2   -1    0    0  501    0  0.00000000000E+00  0.00000000000E+00  0.53871329152E+03  0.53871329153E+03  0.25500000000E-02 0. -1.
         -2   -1    0    0    0  501 -0.00000000000E+00 -0.00000000000E+00 -0.19077640706E+04  0.19077640706E+04  0.25500000000E-02 0.  1.
    8880022    1    1    2    0    0  0.76062284673E+03  0.54108240450E+03 -0.24443379968E+03  0.97696305912E+03  0.15294330000E+03 0. -1.
    8880022    1    1    2    0    0 -0.76062284673E+03 -0.54108240450E+03 -0.11246169794E+04  0.14695143031E+04  0.15294330000E+03 0.  0.
<mgrwt>
<rscale>  0 0.94589055E+03</rscale>
<asrwt>0</asrwt>
<pdfrwt beam="1">  1        2 0.82878969E-01 0.94589055E+03</pdfrwt>
<pdfrwt beam="2">  1       -2 0.29350216E+00 0.94589055E+03</pdfrwt>
<totfact> 0.19891938E+00</totfact>
</mgrwt>
</event>
<event>
 4    1  0.3365401E-008  0.1871987E+03  0.7818608E-02  0.1161012E+00
         -2   -1    0    0    0  501 -0.00000000000E+00  0.00000000000E+00  0.41065798760E+02  0.41065798839E+02  0.25500000000E-02 0.  1.
          2   -1    0    0  501    0  0.00000000000E+00 -0.00000000000E+00 -0.21783023986E+04  0.21783023986E+04  0.25500000000E-02 0. -1.
    8880022    1    1    2    0    0 -0.32501778031E+01  0.10789410368E+03 -0.19340663326E+04  0.19431047149E+04  0.15294330000E+03 0.  1.
    8880022    1    1    2    0    0  0.32501778031E+01 -0.10789410368E+03 -0.20317026725E+03  0.27626348252E+03  0.15294330000E+03 0.  0.
<mgrwt>
<rscale>  0 0.18719870E+03</rscale>
<asrwt>0</asrwt>
<pdfrwt beam="1">  1        2 0.33512336E+00 0.18719870E+03</pdfrwt>
<pdfrwt beam="2">  1       -2 0.63178169E-02 0.18719870E+03</pdfrwt>
<totfact> 0.82932716E+02</totfact>
</mgrwt>
</event>
<event>
 4    1  0.3365401E-008  0.8930098E+03  0.7818608E-02  0.9434362E-01
          2   -1    0    0  501    0  0.00000000000E+00  0.00000000000E+00  0.98176073037E+03  0.98176073037E+03  0.25500000000E-02 0. -1.
         -2   -1    0    0    0  501 -0.00000000000E+00 -0.00000000000E+00 -0.12261896187E+04  0.12261896187E+04  0.25500000000E-02 0.  1.
    8880022    1    1    2    0    0 -0.71661322117E+03  0.51043147338E+03 -0.76361932966E+03  0.11749812473E+04  0.15294330000E+03 0.  0.
    8880022    1    1    2    0    0  0.71661322117E+03 -0.51043147338E+03  0.51919044138E+03  0.10329691018E+04  0.15294330000E+03 0.  0.
<mgrwt>
<rscale>  0 0.89300977E+03</rscale>
<asrwt>0</asrwt>
<pdfrwt beam="1">  1        2 0.15104011E+00 0.89300977E+03</pdfrwt>
<pdfrwt beam="2">  1       -2 0.18864456E+00 0.89300977E+03</pdfrwt>
<totfact> 0.41113097E+00</totfact>
</mgrwt>
</event>
<event>
 4    1  0.3365401E-008  0.8819289E+03  0.7818608E-02  0.9448457E-01
          2   -1    0    0  501    0  0.00000000000E+00  0.00000000000E+00  0.20703805369E+04  0.20703805369E+04  0.25500000000E-02 0. -1.
         -2   -1    0    0    0  501 -0.00000000000E+00 -0.00000000000E+00 -0.58447628722E+03  0.58447628722E+03  0.25500000000E-02 0.  1.
    8880022    1    1    2    0    0 -0.76459466461E+03 -0.41207026479E+03 -0.50443959754E+02  0.88337033591E+03  0.15294330000E+03 0.  0.
    8880022    1    1    2    0    0  0.76459466461E+03  0.41207026479E+03  0.15363482094E+04  0.17714864882E+04  0.15294330000E+03 0.  0.
<mgrwt>
<rscale>  0 0.88192888E+03</rscale>
<asrwt>0</asrwt>
<pdfrwt beam="1">  1        2 0.31852008E+00 0.88192888E+03</pdfrwt>
<pdfrwt beam="2">  1       -2 0.89919431E-01 0.88192888E+03</pdfrwt>
<totfact> 0.65770850E+00</totfact>
</mgrwt>
</event>
<event>
 4    1  0.3365401E-008  0.1464483E+04  0.7818608E-02  0.8908421E-01
          2   -1    0    0  501    0  0.00000000000E+00  0.00000000000E+00  0.34084635846E+04  0.34084635846E+04  0.25500000000E-02 0. -1.
         -2   -1    0    0    0  501 -0.00000000000E+00 -0.00000000000E+00 -0.69057793938E+03  0.69057793939E+03  0.25500000000E-02 0.  1.
    8880022    1    1    2    0    0  0.66809136319E+03 -0.12942078422E+04  0.74808282909E+03  0.16444876346E+04  0.15294330000E+03 0.  0.
    8880022    1    1    2    0    0 -0.66809136319E+03  0.12942078422E+04  0.19698028161E+04  0.24545538893E+04  0.15294330000E+03 0.  0.
<mgrwt>
<rscale>  0 0.14644834E+04</rscale>
<asrwt>0</asrwt>
<pdfrwt beam="1">  1        2 0.52437901E+00 0.14644834E+04</pdfrwt>
<pdfrwt beam="2">  1       -2 0.10624276E+00 0.14644834E+04</pdfrwt>
<totfact> 0.64774138E-01</totfact>
</mgrwt>
</event>
<event>
 4    1  0.3365401E-008  0.2952665E+03  0.7818608E-02  0.1087631E+00
          2   -1    0    0  501    0  0.00000000000E+00  0.00000000000E+00  0.16107935081E+04  0.16107935081E+04  0.25500000000E-02 0. -1.
         -2   -1    0    0    0  501 -0.00000000000E+00 -0.00000000000E+00 -0.55511185205E+02  0.55511185263E+02  0.25500000000E-02 0.  1.
    8880022    1    1    2    0    0  0.17181471224E+03  0.18512251087E+03  0.64592771603E+03  0.71021469059E+03  0.15294330000E+03 0. -1.
    8880022    1    1    2    0    0 -0.17181471224E+03 -0.18512251087E+03  0.90935460684E+03  0.95609000276E+03  0.15294330000E+03 0.  1.
<mgrwt>
<rscale>  0 0.29526648E+03</rscale>
<asrwt>0</asrwt>
<pdfrwt beam="1">  1        2 0.24781439E+00 0.29526648E+03</pdfrwt>
<pdfrwt beam="2">  1       -2 0.85401824E-02 0.29526648E+03</pdfrwt>
<totfact> 0.10149414E+03</totfact>
</mgrwt>
</event>
<event>
 4    1  0.3365401E-008  0.4545412E+03  0.7818608E-02  0.1026376E+00
         -2   -1    0    0    0  501 -0.00000000000E+00  0.00000000000E+00  0.30312528409E+04  0.30312528409E+04  0.25500000000E-02 0.  1.
          2   -1    0    0  501    0  0.00000000000E+00 -0.00000000000E+00 -0.85469686635E+03  0.85469686635E+03  0.25500000000E-02 0. -1.
    8880022    1    1    2    0    0  0.72568256544E+02  0.42184109954E+03  0.29521706182E+04  0.29869581646E+04  0.15294330000E+03 0.  1.
    8880022    1    1    2    0    0 -0.72568256544E+02 -0.42184109954E+03 -0.77561464370E+03  0.89899154260E+03  0.15294330000E+03 0.  0.
<mgrwt>
<rscale>  0 0.45454122E+03</rscale>
<asrwt>0</asrwt>
<pdfrwt beam="1">  1        2 0.13149183E+00 0.45454122E+03</pdfrwt>
<pdfrwt beam="2">  1       -2 0.46634659E+00 0.45454122E+03</pdfrwt>
<totfact> 0.99804055E-02</totfact>
</mgrwt>
</event>
<event>
 4    1  0.3365401E-008  0.2660637E+03  0.7818608E-02  0.1103554E+00
         -2   -1    0    0    0  501 -0.00000000000E+00  0.00000000000E+00  0.14329689510E+03  0.14329689512E+03  0.25500000000E-02 0.  1.
          2   -1    0    0  501    0  0.00000000000E+00 -0.00000000000E+00 -0.10362314894E+04  0.10362314894E+04  0.25500000000E-02 0. -1.
    8880022    1    1    2    0    0  0.43879921759E+02  0.21324344777E+03 -0.19849454626E+02  0.26680305361E+03  0.15294330000E+03 0.  1.
    8880022    1    1    2    0    0 -0.43879921759E+02 -0.21324344777E+03 -0.87308513964E+03  0.91272533088E+03  0.15294330000E+03 0. -1.
<mgrwt>
<rscale>  0 0.26606366E+03</rscale>
<asrwt>0</asrwt>
<pdfrwt beam="1">  1        2 0.15942022E+00 0.26606366E+03</pdfrwt>
<pdfrwt beam="2">  1       -2 0.22045677E-01 0.26606366E+03</pdfrwt>
<totfact> 0.44554573E+02</totfact>
</mgrwt>
</event>
<event>
 4    1  0.3365401E-008  0.5913439E+03  0.7818608E-02  0.9923529E-01
         -2   -1    0    0    0  501 -0.00000000000E+00  0.00000000000E+00  0.33053914547E+03  0.33053914548E+03  0.25500000000E-02 0.  1.
          2   -1    0    0  501    0  0.00000000000E+00 -0.00000000000E+00 -0.21170214355E+04  0.21170214355E+04  0.25500000000E-02 0. -1.
    8880022    1    1    2    0    0 -0.26641238656E+03 -0.50529237267E+03 -0.17588214347E+04  0.18555701101E+04  0.15294330000E+03 0.  0.
    8880022    1    1    2    0    0  0.26641238656E+03  0.50529237267E+03 -0.27660855330E+02  0.59199047081E+03  0.15294330000E+03 0.  0.
<mgrwt>
<rscale>  0 0.59134389E+03</rscale>
<asrwt>0</asrwt>
<pdfrwt beam="1">  1        2 0.32569560E+00 0.59134389E+03</pdfrwt>
<pdfrwt beam="2">  1       -2 0.50852178E-01 0.59134389E+03</pdfrwt>
<totfact> 0.22330373E+01</totfact>
</mgrwt>
</event>
<event>
 4    1  0.3365401E-008  0.3674219E+03  0.7818608E-02  0.1055683E+00
          2   -1    0    0  501    0  0.00000000000E+00  0.00000000000E+00  0.40940274695E+03  0.40940274696E+03  0.25500000000E-02 0. -1.
         -2   -1    0    0    0  501 -0.00000000000E+00 -0.00000000000E+00 -0.90193140858E+03  0.90193140859E+03  0.25500000000E-02 0.  1.
    8880022    1    1    2    0    0 -0.70512984716E+02 -0.32655030843E+03 -0.76849826179E+03  0.85181477818E+03  0.15294330000E+03 0.  0.
    8880022    1    1    2    0    0  0.70512984716E+02  0.32655030843E+03  0.27596960016E+03  0.45951937736E+03  0.15294330000E+03 0. -1.
<mgrwt>
<rscale>  0 0.36742188E+03</rscale>
<asrwt>0</asrwt>
<pdfrwt beam="1">  1        2 0.62985038E-01 0.36742188E+03</pdfrwt>
<pdfrwt beam="2">  1       -2 0.13875868E+00 0.36742188E+03</pdfrwt>
<totfact> 0.29984693E+01</totfact>
</mgrwt>
</event>
<event>
 4    1  0.3365401E-008  0.4439935E+03  0.7818608E-02  0.1029529E+00
         -2   -1    0    0    0  501 -0.00000000000E+00  0.00000000000E+00  0.40861987040E+03  0.40861987041E+03  0.25500000000E-02 0.  1.
          2   -1    0    0  501    0  0.00000000000E+00 -0.00000000000E+00 -0.69693586298E+03  0.69693586298E+03  0.25500000000E-02 0. -1.
    8880022    1    1    2    0    0 -0.31713274358E+03 -0.27049110710E+03 -0.45083015842E+03  0.63275437638E+03  0.15294330000E+03 0.  0.
    8880022    1    1    2    0    0  0.31713274358E+03  0.27049110710E+03  0.16251416585E+03  0.47280135701E+03  0.15294330000E+03 0.  0.
<mgrwt>
<rscale>  0 0.44399355E+03</rscale>
<asrwt>0</asrwt>
<pdfrwt beam="1">  1        2 0.10722090E+00 0.44399355E+03</pdfrwt>
<pdfrwt beam="2">  1       -2 0.62864596E-01 0.44399355E+03</pdfrwt>
<totfact> 0.10016289E+02</totfact>
</mgrwt>
</event>
<event>
 4    1  0.3365401E-008  0.7407009E+03  0.7818608E-02  0.9650053E-01
         -2   -1    0    0    0  501 -0.00000000000E+00  0.00000000000E+00  0.10002655203E+04  0.10002655203E+04  0.25500000000E-02 0.  1.
          2   -1    0    0  501    0  0.00000000000E+00 -0.00000000000E+00 -0.69872296485E+03  0.69872296485E+03  0.25500000000E-02 0. -1.
    8880022    1    1    2    0    0 -0.56636729680E+03 -0.45218837156E+03 -0.24312990981E+03  0.77958325041E+03  0.15294330000E+03 0.  0.
    8880022    1    1    2    0    0  0.56636729680E+03  0.45218837156E+03  0.54467246528E+03  0.91940523477E+03  0.15294330000E+03 0.  0.
<mgrwt>
<rscale>  0 0.74070095E+03</rscale>
<asrwt>0</asrwt>
<pdfrwt beam="1">  1        2 0.10749584E+00 0.74070095E+03</pdfrwt>
<pdfrwt beam="2">  1       -2 0.15388700E+00 0.74070095E+03</pdfrwt>
<totfact> 0.11683968E+01</totfact>
</mgrwt>
</event>
<event>
 4    1  0.3365401E-008  0.5513342E+03  0.7818608E-02  0.1001186E+00
          2   -1    0    0  501    0  0.00000000000E+00  0.00000000000E+00  0.11530642689E+04  0.11530642689E+04  0.25500000000E-02 0. -1.
         -2   -1    0    0    0  501 -0.00000000000E+00 -0.00000000000E+00 -0.37408173866E+03  0.37408173867E+03  0.25500000000E-02 0.  1.
    8880022    1    1    2    0    0  0.11850295408E+03 -0.51627006159E+03  0.80442206638E+03  0.97522522553E+03  0.15294330000E+03 0.  0.
    8880022    1    1    2    0    0 -0.11850295408E+03  0.51627006159E+03 -0.25439536148E+02  0.55192078203E+03  0.15294330000E+03 0.  0.
<mgrwt>
<rscale>  0 0.55133418E+03</rscale>
<asrwt>0</asrwt>
<pdfrwt beam="1">  1        2 0.17739450E+00 0.55133418E+03</pdfrwt>
<pdfrwt beam="2">  1       -2 0.57551038E-01 0.55133418E+03</pdfrwt>
<totfact> 0.59338458E+01</totfact>
</mgrwt>
</event>
<event>
 4    1  0.3365401E-008  0.5098998E+03  0.7818608E-02  0.1011227E+00
          2   -1    0    0  501    0  0.00000000000E+00  0.00000000000E+00  0.44031265303E+03  0.44031265304E+03  0.25500000000E-02 0. -1.
         -2   -1    0    0    0  501 -0.00000000000E+00 -0.00000000000E+00 -0.63858105057E+03  0.63858105057E+03  0.25500000000E-02 0.  1.
    8880022    1    1    2    0    0  0.20771371256E+03 -0.43984218213E+03 -0.24718056073E+03  0.56665334569E+03  0.15294330000E+03 0.  0.
    8880022    1    1    2    0    0 -0.20771371256E+03  0.43984218213E+03  0.48912163194E+02  0.51224035792E+03  0.15294330000E+03 0.  0.
<mgrwt>
<rscale>  0 0.50989978E+03</rscale>
<asrwt>0</asrwt>
<pdfrwt beam="1">  1        2 0.67740408E-01 0.50989978E+03</pdfrwt>
<pdfrwt beam="2">  1       -2 0.98243238E-01 0.50989978E+03</pdfrwt>
<totfact> 0.63176539E+01</totfact>
</mgrwt>
</event>
<event>
 4    1  0.3365401E-008  0.2573151E+03  0.7818608E-02  0.1108767E+00
          2   -1    0    0  501    0  0.00000000000E+00  0.00000000000E+00  0.18233850161E+04  0.18233850161E+04  0.25500000000E-02 0. -1.
         -2   -1    0    0    0  501 -0.00000000000E+00 -0.00000000000E+00 -0.71996080091E+02  0.71996080136E+02  0.25500000000E-02 0.  1.
    8880022    1    1    2    0    0 -0.17911412173E+03  0.10362202131E+03  0.15428827567E+04  0.15641925220E+04  0.15294330000E+03 0. -1.
    8880022    1    1    2    0    0  0.17911412173E+03 -0.10362202131E+03  0.20850617936E+03  0.33118857431E+03  0.15294330000E+03 0.  0.
<mgrwt>
<rscale>  0 0.25731507E+03</rscale>
<asrwt>0</asrwt>
<pdfrwt beam="1">  1        2 0.28052076E+00 0.25731507E+03</pdfrwt>
<pdfrwt beam="2">  1       -2 0.11076321E-01 0.25731507E+03</pdfrwt>
<totfact> 0.52038643E+02</totfact>
</mgrwt>
</event>
<event>
 4    1  0.3365401E-008  0.2271626E+03  0.7818608E-02  0.1128653E+00
         -2   -1    0    0    0  501 -0.00000000000E+00  0.00000000000E+00  0.65647678483E+02  0.65647678532E+02  0.25500000000E-02 0.  1.
          2   -1    0    0  501    0  0.00000000000E+00 -0.00000000000E+00 -0.10138955822E+04  0.10138955822E+04  0.25500000000E-02 0. -1.
    8880022    1    1    2    0    0  0.32637881114E+02  0.16476027467E+03 -0.72999836167E+03  0.76452628500E+03  0.15294330000E+03 0. -1.
    8880022    1    1    2    0    0 -0.32637881114E+02 -0.16476027467E+03 -0.21824954209E+03  0.31501697578E+03  0.15294330000E+03 0.  0.
<mgrwt>
<rscale>  0 0.22716257E+03</rscale>
<asrwt>0</asrwt>
<pdfrwt beam="1">  1        2 0.15598392E+00 0.22716257E+03</pdfrwt>
<pdfrwt beam="2">  1       -2 0.10099644E-01 0.22716257E+03</pdfrwt>
<totfact> 0.16804963E+03</totfact>
</mgrwt>
</event>
<event>
 4    1  0.3365401E-008  0.4061720E+03  0.7818608E-02  0.1041663E+00
         -2   -1    0    0    0  501 -0.00000000000E+00  0.00000000000E+00  0.12151104694E+04  0.12151104694E+04  0.25500000000E-02 0.  1.
          2   -1    0    0  501    0  0.00000000000E+00 -0.00000000000E+00 -0.18173867389E+03  0.18173867391E+03  0.25500000000E-02 0. -1.
    8880022    1    1    2    0    0 -0.28695690837E+03 -0.24339215779E+03  0.86794402059E+03  0.95828100557E+03  0.15294330000E+03 0.  0.
    8880022    1    1    2    0    0  0.28695690837E+03  0.24339215779E+03  0.16542777494E+03  0.43856813777E+03  0.15294330000E+03 0.  0.
<mgrwt>
<rscale>  0 0.40617196E+03</rscale>
<asrwt>0</asrwt>
<pdfrwt beam="1">  1        2 0.27959796E-01 0.40617196E+03</pdfrwt>
<pdfrwt beam="2">  1       -2 0.18694007E+00 0.40617196E+03</pdfrwt>
<totfact> 0.32769555E+01</totfact>
</mgrwt>
</event>
<event>
 4    1  0.3365401E-008  0.3620363E+03  0.7818608E-02  0.1057780E+00
         -2   -1    0    0    0  501 -0.00000000000E+00  0.00000000000E+00  0.17216212850E+03  0.17216212852E+03  0.25500000000E-02 0.  1.
          2   -1    0    0  501    0  0.00000000000E+00 -0.00000000000E+00 -0.11452093854E+04  0.11452093854E+04  0.25500000000E-02 0. -1.
    8880022    1    1    2    0    0  0.23148894345E+02  0.32732665414E+03 -0.86788751196E+03  0.94037173302E+03  0.15294330000E+03 0. -1.
    8880022    1    1    2    0    0 -0.23148894345E+02 -0.32732665414E+03 -0.10515974491E+03  0.37699978088E+03  0.15294330000E+03 0.  0.
<mgrwt>
<rscale>  0 0.36203627E+03</rscale>
<asrwt>0</asrwt>
<pdfrwt beam="1">  1        2 0.17618605E+00 0.36203627E+03</pdfrwt>
<pdfrwt beam="2">  1       -2 0.26486482E-01 0.36203627E+03</pdfrwt>
<totfact> 0.27455312E+02</totfact>
</mgrwt>
</event>
<event>
 4    1  0.3365401E-008  0.5438933E+03  0.7818608E-02  0.1002917E+00
          2   -1    0    0  501    0  0.00000000000E+00  0.00000000000E+00  0.16659425626E+04  0.16659425626E+04  0.25500000000E-02 0. -1.
         -2   -1    0    0    0  501 -0.00000000000E+00 -0.00000000000E+00 -0.53633310675E+03  0.53633310676E+03  0.25500000000E-02 0.  1.
    8880022    1    1    2    0    0 -0.51028530843E+03 -0.10971422490E+03 -0.33578875712E+03  0.63919797369E+03  0.15294330000E+03 0.  0.
    8880022    1    1    2    0    0  0.51028530843E+03  0.10971422490E+03  0.14653982130E+04  0.15630776957E+04  0.15294330000E+03 0.  0.
<mgrwt>
<rscale>  0 0.54389334E+03</rscale>
<asrwt>0</asrwt>
<pdfrwt beam="1">  1        2 0.25629886E+00 0.54389334E+03</pdfrwt>
<pdfrwt beam="2">  1       -2 0.82512785E-01 0.54389334E+03</pdfrwt>
<totfact> 0.14023076E+01</totfact>
</mgrwt>
</event>
<event>
 4    1  0.3365401E-008  0.7739350E+03  0.7818608E-02  0.9598531E-01
         -2   -1    0    0    0  501 -0.00000000000E+00  0.00000000000E+00  0.20538192054E+03  0.20538192055E+03  0.25500000000E-02 0.  1.
          2   -1    0    0  501    0  0.00000000000E+00 -0.00000000000E+00 -0.33960751749E+04  0.33960751749E+04  0.25500000000E-02 0. -1.
    8880022    1    1    2    0    0  0.28960664462E+03  0.70122155704E+03 -0.91858718444E+03  0.12011568378E+04  0.15294330000E+03 0.  0.
    8880022    1    1    2    0    0 -0.28960664462E+03 -0.70122155704E+03 -0.22721060699E+04  0.24003002576E+04  0.15294330000E+03 0.  0.
<mgrwt>
<rscale>  0 0.77393497E+03</rscale>
<asrwt>0</asrwt>
<pdfrwt beam="1">  1        2 0.52247306E+00 0.77393497E+03</pdfrwt>
<pdfrwt beam="2">  1       -2 0.31597221E-01 0.77393497E+03</pdfrwt>
<totfact> 0.95616816E+00</totfact>
</mgrwt>
</event>
<event>
 4    1  0.3365401E-008  0.5035914E+03  0.7818608E-02  0.1012846E+00
         -2   -1    0    0    0  501 -0.00000000000E+00  0.00000000000E+00  0.19664067135E+03  0.19664067137E+03  0.25500000000E-02 0.  1.
          2   -1    0    0  501    0  0.00000000000E+00 -0.00000000000E+00 -0.23508248862E+04  0.23508248862E+04  0.25500000000E-02 0. -1.
    8880022    1    1    2    0    0 -0.41017925022E+03  0.24892892666E+03 -0.19328575766E+04  0.19973839621E+04  0.15294330000E+03 0.  0.
    8880022    1    1    2    0    0  0.41017925022E+03 -0.24892892666E+03 -0.22132663832E+03  0.55008159548E+03  0.15294330000E+03 0.  0.
<mgrwt>
<rscale>  0 0.50359138E+03</rscale>
<asrwt>0</asrwt>
<pdfrwt beam="1">  1        2 0.36166535E+00 0.50359138E+03</pdfrwt>
<pdfrwt beam="2">  1       -2 0.30252413E-01 0.50359138E+03</pdfrwt>
<totfact> 0.46220575E+01</totfact>
</mgrwt>
</event>
<event>
 4    1  0.3365401E-008  0.7167938E+03  0.7818608E-02  0.9688936E-01
          2   -1    0    0  501    0  0.00000000000E+00  0.00000000000E+00  0.11054986858E+04  0.11054986858E+04  0.25500000000E-02 0. -1.
         -2   -1    0    0    0  501 -0.00000000000E+00 -0.00000000000E+00 -0.53810544235E+03  0.53810544235E+03  0.25500000000E-02 0.  1.
    8880022    1    1    2    0    0  0.70028549213E+03  0.13702613164E+01  0.58709654277E+03  0.92653961149E+03  0.15294330000E+03 0.  0.
    8880022    1    1    2    0    0 -0.70028549213E+03 -0.13702613164E+01 -0.19703299273E+02  0.71706451671E+03  0.15294330000E+03 0.  0.
<mgrwt>
<rscale>  0 0.71679376E+03</rscale>
<asrwt>0</asrwt>
<pdfrwt beam="1">  1        2 0.17007672E+00 0.71679376E+03</pdfrwt>
<pdfrwt beam="2">  1       -2 0.82785452E-01 0.71679376E+03</pdfrwt>
<totfact> 0.28237279E+01</totfact>
</mgrwt>
</event>
<event>
 4    1  0.3365401E-008  0.4724354E+03  0.7818608E-02  0.1021235E+00
          2   -1    0    0  501    0  0.00000000000E+00  0.00000000000E+00  0.92497370921E+03  0.92497370922E+03  0.25500000000E-02 0. -1.
         -2   -1    0    0    0  501 -0.00000000000E+00 -0.00000000000E+00 -0.29678648790E+03  0.29678648791E+03  0.25500000000E-02 0.  1.
    8880022    1    1    2    0    0 -0.35389014028E+03  0.27306659495E+03  0.57823190402E+03  0.74669095649E+03  0.15294330000E+03 0. -1.
    8880022    1    1    2    0    0  0.35389014028E+03 -0.27306659495E+03  0.49955317294E+02  0.47506924064E+03  0.15294330000E+03 0.  0.
<mgrwt>
<rscale>  0 0.47243544E+03</rscale>
<asrwt>0</asrwt>
<pdfrwt beam="1">  1        2 0.14230365E+00 0.47243544E+03</pdfrwt>
<pdfrwt beam="2">  1       -2 0.45659460E-01 0.47243544E+03</pdfrwt>
<totfact> 0.13279052E+02</totfact>
</mgrwt>
</event>
<event>
 4    1  0.3365401E-008  0.3035520E+03  0.7818608E-02  0.1083478E+00
         -2   -1    0    0    0  501 -0.00000000000E+00  0.00000000000E+00  0.24300428672E+03  0.24300428674E+03  0.25500000000E-02 0.  1.
          2   -1    0    0  501    0  0.00000000000E+00 -0.00000000000E+00 -0.14666824154E+04  0.14666824154E+04  0.25500000000E-02 0. -1.
    8880022    1    1    2    0    0 -0.22919718840E+03  0.12736096270E+03  0.12425347556E+03  0.32799808718E+03  0.15294330000E+03 0.  0.
    8880022    1    1    2    0    0  0.22919718840E+03 -0.12736096270E+03 -0.13479316042E+04  0.13816886149E+04  0.15294330000E+03 0.  0.
<mgrwt>
<rscale>  0 0.30355200E+03</rscale>
<asrwt>0</asrwt>
<pdfrwt beam="1">  1        2 0.22564344E+00 0.30355200E+03</pdfrwt>
<pdfrwt beam="2">  1       -2 0.37385276E-01 0.30355200E+03</pdfrwt>
<totfact> 0.96901138E+01</totfact>
</mgrwt>
</event>
<event>
 4    1  0.3365401E-008  0.1380478E+04  0.7818608E-02  0.8968072E-01
         -2   -1    0    0    0  501 -0.00000000000E+00  0.00000000000E+00  0.70584618100E+03  0.70584618100E+03  0.25500000000E-02 0.  1.
          2   -1    0    0  501    0  0.00000000000E+00 -0.00000000000E+00 -0.27220736449E+04  0.27220736449E+04  0.25500000000E-02 0. -1.
    8880022    1    1    2    0    0 -0.43573308058E+02 -0.13712870391E+04 -0.85344260686E+03  0.16229857402E+04  0.15294330000E+03 0.  0.
    8880022    1    1    2    0    0  0.43573308058E+02  0.13712870391E+04 -0.11627848570E+04  0.18049340857E+04  0.15294330000E+03 0.  0.
<mgrwt>
<rscale>  0 0.13804776E+04</rscale>
<asrwt>0</asrwt>
<pdfrwt beam="1">  1        2 0.41878056E+00 0.13804776E+04</pdfrwt>
<pdfrwt beam="2">  1       -2 0.10859172E+00 0.13804776E+04</pdfrwt>
<totfact> 0.16846305E+00</totfact>
</mgrwt>
</event>
<event>
 4    1  0.3365401E-008  0.8525840E+03  0.7818608E-02  0.9486875E-01
          2   -1    0    0  501    0  0.00000000000E+00  0.00000000000E+00  0.15753039990E+04  0.15753039990E+04  0.25500000000E-02 0. -1.
         -2   -1    0    0    0  501 -0.00000000000E+00 -0.00000000000E+00 -0.84038291034E+03  0.84038291034E+03  0.25500000000E-02 0.  1.
    8880022    1    1    2    0    0 -0.15599445446E+03  0.82411984900E+03  0.11785376614E+04  0.14545963246E+04  0.15294330000E+03 0.  0.
    8880022    1    1    2    0    0  0.15599445446E+03 -0.82411984900E+03 -0.44361657275E+03  0.96109058468E+03  0.15294330000E+03 0.  0.
<mgrwt>
<rscale>  0 0.85258398E+03</rscale>
<asrwt>0</asrwt>
<pdfrwt beam="1">  1        2 0.24235446E+00 0.85258398E+03</pdfrwt>
<pdfrwt beam="2">  1       -2 0.12928968E+00 0.85258398E+03</pdfrwt>
<totfact> 0.51312554E+00</totfact>
</mgrwt>
</event>
<event>
 4    1  0.3365401E-008  0.9652949E+03  0.7818608E-02  0.9347450E-01
          2   -1    0    0  501    0  0.00000000000E+00  0.00000000000E+00  0.65419026562E+03  0.65419026562E+03  0.25500000000E-02 0. -1.
         -2   -1    0    0    0  501 -0.00000000000E+00 -0.00000000000E+00 -0.15968343288E+04  0.15968343288E+04  0.25500000000E-02 0.  1.
    8880022    1    1    2    0    0 -0.86054019596E+03  0.40972318176E+03 -0.10140998151E+03  0.97060710481E+03  0.15294330000E+03 0.  0.
    8880022    1    1    2    0    0  0.86054019596E+03 -0.40972318176E+03 -0.84123408166E+03  0.12804174896E+04  0.15294330000E+03 0.  0.
<mgrwt>
<rscale>  0 0.96529486E+03</rscale>
<asrwt>0</asrwt>
<pdfrwt beam="1">  1        2 0.10064466E+00 0.96529486E+03</pdfrwt>
<pdfrwt beam="2">  1       -2 0.24566682E+00 0.96529486E+03</pdfrwt>
<totfact> 0.30536543E+00</totfact>
</mgrwt>
</event>
<event>
 4    1  0.3365401E-008  0.6627682E+03  0.7818608E-02  0.9783111E-01
         -2   -1    0    0    0  501 -0.00000000000E+00  0.00000000000E+00  0.71012631249E+03  0.71012631249E+03  0.25500000000E-02 0.  1.
          2   -1    0    0  501    0  0.00000000000E+00 -0.00000000000E+00 -0.77629603464E+03  0.77629603465E+03  0.25500000000E-02 0. -1.
    8880022    1    1    2    0    0  0.56521704866E+02  0.64239812221E+03  0.30192101812E+03  0.72829801918E+03  0.15294330000E+03 0.  0.
    8880022    1    1    2    0    0 -0.56521704866E+02 -0.64239812221E+03 -0.36809074028E+03  0.75812432796E+03  0.15294330000E+03 0.  0.
<mgrwt>
<rscale>  0 0.66276821E+03</rscale>
<asrwt>0</asrwt>
<pdfrwt beam="1">  1        2 0.11943016E+00 0.66276821E+03</pdfrwt>
<pdfrwt beam="2">  1       -2 0.10925020E+00 0.66276821E+03</pdfrwt>
<totfact> 0.24494560E+01</totfact>
</mgrwt>
</event>
<event>
 4    1  0.3365401E-008  0.4102720E+03  0.7818608E-02  0.1040280E+00
          2   -1    0    0  501    0  0.00000000000E+00  0.00000000000E+00  0.43322567765E+03  0.43322567766E+03  0.25500000000E-02 0. -1.
         -2   -1    0    0    0  501 -0.00000000000E+00 -0.00000000000E+00 -0.99974120027E+03  0.99974120027E+03  0.25500000000E-02 0.  1.
    8880022    1    1    2    0    0 -0.26207481919E+03  0.27613084879E+03  0.27695942102E+03  0.49500467717E+03  0.15294330000E+03 0.  0.
    8880022    1    1    2    0    0  0.26207481919E+03 -0.27613084879E+03 -0.84347494364E+03  0.93796220077E+03  0.15294330000E+03 0.  1.
<mgrwt>
<rscale>  0 0.41027199E+03</rscale>
<asrwt>0</asrwt>
<pdfrwt beam="1">  1        2 0.66650105E-01 0.41027199E+03</pdfrwt>
<pdfrwt beam="2">  1       -2 0.15380634E+00 0.41027199E+03</pdfrwt>
<totfact> 0.21424606E+01</totfact>
</mgrwt>
</event>
<event>
 4    1  0.3365401E-008  0.3866933E+03  0.7818608E-02  0.1048487E+00
         -2   -1    0    0    0  501 -0.00000000000E+00  0.00000000000E+00  0.27370016378E+03  0.27370016379E+03  0.25500000000E-02 0.  1.
          2   -1    0    0  501    0  0.00000000000E+00 -0.00000000000E+00 -0.29314819915E+04  0.29314819915E+04  0.25500000000E-02 0. -1.
    8880022    1    1    2    0    0 -0.34704748408E+03  0.75485823983E+02  0.11667122893E+03  0.40391075067E+03  0.15294330000E+03 0.  0.
    8880022    1    1    2    0    0  0.34704748408E+03 -0.75485823983E+02 -0.27744530567E+04  0.28012714046E+04  0.15294330000E+03 0.  0.
<mgrwt>
<rscale>  0 0.38669331E+03</rscale>
<asrwt>0</asrwt>
<pdfrwt beam="1">  1        2 0.45099721E+00 0.38669331E+03</pdfrwt>
<pdfrwt beam="2">  1       -2 0.42107719E-01 0.38669331E+03</pdfrwt>
<totfact> 0.11908719E+01</totfact>
</mgrwt>
</event>
<event>
 4    1  0.3365401E-008  0.6069598E+03  0.7818608E-02  0.9891071E-01
         -2   -1    0    0    0  501 -0.00000000000E+00  0.00000000000E+00  0.32254198976E+03  0.32254198977E+03  0.25500000000E-02 0.  1.
          2   -1    0    0  501    0  0.00000000000E+00 -0.00000000000E+00 -0.13592526669E+04  0.13592526669E+04  0.25500000000E-02 0. -1.
    8880022    1    1    2    0    0 -0.50406885959E+03 -0.30153457197E+03 -0.85440082218E+03  0.10480462448E+04  0.15294330000E+03 0.  0.
    8880022    1    1    2    0    0  0.50406885959E+03  0.30153457197E+03 -0.18230985495E+03  0.63374841186E+03  0.15294330000E+03 0.  0.
<mgrwt>
<rscale>  0 0.60695977E+03</rscale>
<asrwt>0</asrwt>
<pdfrwt beam="1">  1        2 0.20911579E+00 0.60695977E+03</pdfrwt>
<pdfrwt beam="2">  1       -2 0.49621845E-01 0.60695977E+03</pdfrwt>
<totfact> 0.60741589E+01</totfact>
</mgrwt>
</event>
<event>
 4    1  0.3365401E-008  0.6043021E+03  0.7818608E-02  0.9896521E-01
         -2   -1    0    0    0  501 -0.00000000000E+00  0.00000000000E+00  0.31745450447E+03  0.31745450448E+03  0.25500000000E-02 0.  1.
          2   -1    0    0  501    0  0.00000000000E+00 -0.00000000000E+00 -0.14649272746E+04  0.14649272746E+04  0.25500000000E-02 0. -1.
    8880022    1    1    2    0    0  0.21459044975E+03  0.54382009028E+03 -0.16075313944E+03  0.62531798037E+03  0.15294330000E+03 0.  1.
    8880022    1    1    2    0    0 -0.21459044975E+03 -0.54382009028E+03 -0.98671963071E+03  0.11570637987E+04  0.15294330000E+03 0.  0.
<mgrwt>
<rscale>  0 0.60430208E+03</rscale>
<asrwt>0</asrwt>
<pdfrwt beam="1">  1        2 0.22537342E+00 0.60430208E+03</pdfrwt>
<pdfrwt beam="2">  1       -2 0.48839155E-01 0.60430208E+03</pdfrwt>
<totfact> 0.54752452E+01</totfact>
</mgrwt>
</event>
<event>
 4    1  0.3365401E-008  0.4263286E+03  0.7818608E-02  0.1035026E+00
         -2   -1    0    0    0  501 -0.00000000000E+00  0.00000000000E+00  0.65733157649E+03  0.65733157650E+03  0.25500000000E-02 0.  1.
          2   -1    0    0  501    0  0.00000000000E+00 -0.00000000000E+00 -0.12959335513E+04  0.12959335513E+04  0.25500000000E-02 0. -1.
    8880022    1    1    2    0    0 -0.23909836056E+03 -0.31811378402E+03  0.54689873231E+03  0.69343657390E+03  0.15294330000E+03 0.  0.
    8880022    1    1    2    0    0  0.23909836056E+03  0.31811378402E+03 -0.11855007071E+04  0.12598285539E+04  0.15294330000E+03 0.  0.
<mgrwt>
<rscale>  0 0.42632858E+03</rscale>
<asrwt>0</asrwt>
<pdfrwt beam="1">  1        2 0.19937439E+00 0.42632858E+03</pdfrwt>
<pdfrwt beam="2">  1       -2 0.10112793E+00 0.42632858E+03</pdfrwt>
<totfact> 0.14382638E+01</totfact>
</mgrwt>
</event>
<event>
 4    1  0.3365401E-008  0.6068606E+03  0.7818608E-02  0.9891274E-01
         -2   -1    0    0    0  501 -0.00000000000E+00  0.00000000000E+00  0.20250242704E+03  0.20250242705E+03  0.25500000000E-02 0.  1.
          2   -1    0    0  501    0  0.00000000000E+00 -0.00000000000E+00 -0.19717753365E+04  0.19717753365E+04  0.25500000000E-02 0. -1.
    8880022    1    1    2    0    0  0.45150897645E+03  0.37553663265E+03 -0.58167406434E+03  0.84060959335E+03  0.15294330000E+03 0.  0.
    8880022    1    1    2    0    0 -0.45150897645E+03 -0.37553663265E+03 -0.11875988451E+04  0.13336681702E+04  0.15294330000E+03 0.  0.
<mgrwt>
<rscale>  0 0.60686059E+03</rscale>
<asrwt>0</asrwt>
<pdfrwt beam="1">  1        2 0.30335004E+00 0.60686059E+03</pdfrwt>
<pdfrwt beam="2">  1       -2 0.31154221E-01 0.60686059E+03</pdfrwt>
<totfact> 0.69227415E+01</totfact>
</mgrwt>
</event>
<event>
 4    1  0.3365401E-008  0.2541023E+03  0.7818608E-02  0.1110739E+00
          2   -1    0    0  501    0  0.00000000000E+00  0.00000000000E+00  0.12194242679E+03  0.12194242682E+03  0.25500000000E-02 0. -1.
         -2   -1    0    0    0  501 -0.00000000000E+00 -0.00000000000E+00 -0.13706281847E+04  0.13706281847E+04  0.25500000000E-02 0.  1.
    8880022    1    1    2    0    0 -0.15082708915E+03 -0.13574799926E+03 -0.39718017151E+02  0.25718768250E+03  0.15294330000E+03 0.  0.
    8880022    1    1    2    0    0  0.15082708915E+03  0.13574799926E+03 -0.12089677407E+04  0.12353829290E+04  0.15294330000E+03 0.  1.
<mgrwt>
<rscale>  0 0.25410231E+03</rscale>
<asrwt>0</asrwt>
<pdfrwt beam="1">  1        2 0.18760374E-01 0.25410231E+03</pdfrwt>
<pdfrwt beam="2">  1       -2 0.21086586E+00 0.25410231E+03</pdfrwt>
<totfact> 0.37100790E+01</totfact>
</mgrwt>
</event>
<event>
 4    1  0.3365401E-008  0.1963619E+04  0.7818608E-02  0.8623821E-01
         -2   -1    0    0    0  501 -0.00000000000E+00  0.00000000000E+00  0.22413859595E+04  0.22413859595E+04  0.25500000000E-02 0.  1.
          2   -1    0    0  501    0  0.00000000000E+00 -0.00000000000E+00 -0.23346549815E+04  0.23346549815E+04  0.25500000000E-02 0. -1.
    8880022    1    1    2    0    0  0.19329850109E+04 -0.30980032872E+03 -0.12203620153E+04  0.23119434244E+04  0.15294330000E+03 0.  0.
    8880022    1    1    2    0    0 -0.19329850109E+04  0.30980032872E+03  0.11270929933E+04  0.22640975166E+04  0.15294330000E+03 0.  0.
<mgrwt>
<rscale>  0 0.19636188E+04</rscale>
<asrwt>0</asrwt>
<pdfrwt beam="1">  1        2 0.35917769E+00 0.19636188E+04</pdfrwt>
<pdfrwt beam="2">  1       -2 0.34482861E+00 0.19636188E+04</pdfrwt>
<totfact> 0.64577723E-02</totfact>
</mgrwt>
</event>
<event>
 4    1  0.3365401E-008  0.4668539E+03  0.7818608E-02  0.1022812E+00
         -2   -1    0    0    0  501 -0.00000000000E+00  0.00000000000E+00  0.15549022945E+03  0.15549022947E+03  0.25500000000E-02 0.  1.
          2   -1    0    0  501    0  0.00000000000E+00 -0.00000000000E+00 -0.16294267740E+04  0.16294267740E+04  0.25500000000E-02 0. -1.
    8880022    1    1    2    0    0  0.69975374589E+02  0.43550468642E+03 -0.40333749736E+03  0.61695516428E+03  0.15294330000E+03 0.  0.
    8880022    1    1    2    0    0 -0.69975374589E+02 -0.43550468642E+03 -0.10705990472E+04  0.11679618392E+04  0.15294330000E+03 0.  0.
<mgrwt>
<rscale>  0 0.46685387E+03</rscale>
<asrwt>0</asrwt>
<pdfrwt beam="1">  1        2 0.25068103E+00 0.46685387E+03</pdfrwt>
<pdfrwt beam="2">  1       -2 0.23921575E-01 0.46685387E+03</pdfrwt>
<totfact> 0.17460407E+02</totfact>
</mgrwt>
</event>
<event>
 4    1  0.3365401E-008  0.5020569E+03  0.7818608E-02  0.1013243E+00
          2   -1    0    0  501    0  0.00000000000E+00  0.00000000000E+00  0.19878295104E+04  0.19878295104E+04  0.25500000000E-02 0. -1.
         -2   -1    0    0    0  501 -0.00000000000E+00 -0.00000000000E+00 -0.20678999093E+03  0.20678999094E+03  0.25500000000E-02 0.  1.
    8880022    1    1    2    0    0  0.47019230510E+03  0.87112885244E+02  0.15729784874E+04  0.16511579069E+04  0.15294330000E+03 0.  0.
    8880022    1    1    2    0    0 -0.47019230510E+03 -0.87112885244E+02  0.20806103199E+03  0.54346159441E+03  0.15294330000E+03 0.  0.
<mgrwt>
<rscale>  0 0.50205688E+03</rscale>
<asrwt>0</asrwt>
<pdfrwt beam="1">  1        2 0.30581994E+00 0.50205688E+03</pdfrwt>
<pdfrwt beam="2">  1       -2 0.31813844E-01 0.50205688E+03</pdfrwt>
<totfact> 0.66331498E+01</totfact>
</mgrwt>
</event>
<event>
 4    1  0.3365401E-008  0.6943642E+03  0.7818608E-02  0.9726919E-01
         -2   -1    0    0    0  501 -0.00000000000E+00  0.00000000000E+00  0.35270252085E+03  0.35270252086E+03  0.25500000000E-02 0.  1.
          2   -1    0    0  501    0  0.00000000000E+00 -0.00000000000E+00 -0.27411464338E+04  0.27411464338E+04  0.25500000000E-02 0. -1.
    8880022    1    1    2    0    0  0.67218301123E+03  0.83186293270E+02 -0.98953134260E+02  0.70137959464E+03  0.15294330000E+03 0.  0.
    8880022    1    1    2    0    0 -0.67218301123E+03 -0.83186293270E+02 -0.22894907787E+04  0.23924693601E+04  0.15294330000E+03 0.  0.
<mgrwt>
<rscale>  0 0.69436418E+03</rscale>
<asrwt>0</asrwt>
<pdfrwt beam="1">  1        2 0.42171482E+00 0.69436418E+03</pdfrwt>
<pdfrwt beam="2">  1       -2 0.54261928E-01 0.69436418E+03</pdfrwt>
<totfact> 0.85601310E+00</totfact>
</mgrwt>
</event>
<event>
 4    1  0.3365401E-008  0.7103410E+03  0.7818608E-02  0.9699709E-01
         -2   -1    0    0    0  501 -0.00000000000E+00  0.00000000000E+00  0.52021198472E+03  0.52021198472E+03  0.25500000000E-02 0.  1.
          2   -1    0    0  501    0  0.00000000000E+00 -0.00000000000E+00 -0.19707109313E+04  0.19707109313E+04  0.25500000000E-02 0. -1.
    8880022    1    1    2    0    0  0.13160134147E+03  0.68108278151E+03 -0.16127774213E+04  0.17622812863E+04  0.15294330000E+03 0.  0.
    8880022    1    1    2    0    0 -0.13160134147E+03 -0.68108278151E+03  0.16227847464E+03  0.72864162981E+03  0.15294330000E+03 0.  0.
<mgrwt>
<rscale>  0 0.71034099E+03</rscale>
<asrwt>0</asrwt>
<pdfrwt beam="1">  1        2 0.30318629E+00 0.71034099E+03</pdfrwt>
<pdfrwt beam="2">  1       -2 0.80032614E-01 0.71034099E+03</pdfrwt>
<totfact> 0.99731383E+00</totfact>
</mgrwt>
</event>
<event>
 4    1  0.3365401E-008  0.1965908E+03  0.7818608E-02  0.1152648E+00
         -2   -1    0    0    0  501 -0.00000000000E+00  0.00000000000E+00  0.52989488679E+03  0.52989488679E+03  0.25500000000E-02 0.  1.
          2   -1    0    0  501    0  0.00000000000E+00 -0.00000000000E+00 -0.30120408898E+04  0.30120408898E+04  0.25500000000E-02 0. -1.
    8880022    1    1    2    0    0 -0.65258772481E+02  0.10486937213E+03  0.50832192525E+03  0.54501295884E+03  0.15294330000E+03 0.  0.
    8880022    1    1    2    0    0  0.65258772481E+02 -0.10486937213E+03 -0.29904679282E+04  0.29969228177E+04  0.15294330000E+03 0. -1.
<mgrwt>
<rscale>  0 0.19659081E+03</rscale>
<asrwt>0</asrwt>
<pdfrwt beam="1">  1        2 0.46339090E+00 0.19659081E+03</pdfrwt>
<pdfrwt beam="2">  1       -2 0.81522292E-01 0.19659081E+03</pdfrwt>
<totfact> 0.30103300E+00</totfact>
</mgrwt>
</event>
<event>
 4    1  0.3365401E-008  0.8548283E+03  0.7818608E-02  0.9483879E-01
          2   -1    0    0  501    0  0.00000000000E+00  0.00000000000E+00  0.21958857493E+04  0.21958857493E+04  0.25500000000E-02 0. -1.
         -2   -1    0    0    0  501 -0.00000000000E+00 -0.00000000000E+00 -0.15549718337E+04  0.15549718337E+04  0.25500000000E-02 0.  1.
    8880022    1    1    2    0    0 -0.81891662194E+03  0.19161226506E+03  0.19831430327E+04  0.21595341245E+04  0.15294330000E+03 0.  0.
    8880022    1    1    2    0    0  0.81891662194E+03 -0.19161226506E+03 -0.13422291171E+04  0.15913234585E+04  0.15294330000E+03 0.  0.
<mgrwt>
<rscale>  0 0.85482826E+03</rscale>
<asrwt>0</asrwt>
<pdfrwt beam="1">  1        2 0.33782858E+00 0.85482826E+03</pdfrwt>
<pdfrwt beam="2">  1       -2 0.23922643E+00 0.85482826E+03</pdfrwt>
<totfact> 0.40152375E-01</totfact>
</mgrwt>
</event>
<event>
 4    1  0.3365401E-008  0.1916310E+03  0.7818608E-02  0.1156998E+00
         -2   -1    0    0    0  501 -0.00000000000E+00  0.00000000000E+00  0.16846079545E+03  0.16846079547E+03  0.25500000000E-02 0.  1.
          2   -1    0    0  501    0  0.00000000000E+00 -0.00000000000E+00 -0.90626884965E+03  0.90626884966E+03  0.25500000000E-02 0. -1.
    8880022    1    1    2    0    0  0.93472764689E+02 -0.67776351762E+02 -0.83720334561E+03  0.85885498573E+03  0.15294330000E+03 0.  0.
    8880022    1    1    2    0    0 -0.93472764689E+02  0.67776351762E+02  0.99395291413E+02  0.21587465939E+03  0.15294330000E+03 0.  1.
<mgrwt>
<rscale>  0 0.19163101E+03</rscale>
<asrwt>0</asrwt>
<pdfrwt beam="1">  1        2 0.13942597E+00 0.19163101E+03</pdfrwt>
<pdfrwt beam="2">  1       -2 0.25917046E-01 0.19163101E+03</pdfrwt>
<totfact> 0.40717197E+02</totfact>
</mgrwt>
</event>
<event>
 4    1  0.3365401E-008  0.6417980E+03  0.7818608E-02  0.9822293E-01
          2   -1    0    0  501    0  0.00000000000E+00  0.00000000000E+00  0.13490208141E+04  0.13490208141E+04  0.25500000000E-02 0. -1.
         -2   -1    0    0    0  501 -0.00000000000E+00 -0.00000000000E+00 -0.90432690699E+03  0.90432690699E+03  0.25500000000E-02 0.  1.
    8880022    1    1    2    0    0 -0.51301499857E+03 -0.35401780699E+03 -0.69460292819E+03  0.94571553719E+03  0.15294330000E+03 0.  0.
    8880022    1    1    2    0    0  0.51301499857E+03  0.35401780699E+03  0.11392968353E+04  0.13076321839E+04  0.15294330000E+03 0.  0.
<mgrwt>
<rscale>  0 0.64179798E+03</rscale>
<asrwt>0</asrwt>
<pdfrwt beam="1">  1        2 0.20754166E+00 0.64179798E+03</pdfrwt>
<pdfrwt beam="2">  1       -2 0.13912722E+00 0.64179798E+03</pdfrwt>
<totfact> 0.58798876E+00</totfact>
</mgrwt>
</event>
<event>
 4    1  0.3365401E-008  0.1620941E+03  0.7818608E-02  0.1186353E+00
          2   -1    0    0  501    0  0.00000000000E+00  0.00000000000E+00  0.25283627914E+04  0.25283627914E+04  0.25500000000E-02 0. -1.
         -2   -1    0    0    0  501 -0.00000000000E+00 -0.00000000000E+00 -0.18789393805E+03  0.18789393807E+03  0.25500000000E-02 0.  1.
    8880022    1    1    2    0    0 -0.41260743548E+02  0.34356836635E+02  0.24902714336E+04  0.24955412854E+04  0.15294330000E+03 0. -1.
    8880022    1    1    2    0    0  0.41260743548E+02 -0.34356836635E+02 -0.14980258025E+03  0.22071544406E+03  0.15294330000E+03 0.  0.
<mgrwt>
<rscale>  0 0.16209409E+03</rscale>
<asrwt>0</asrwt>
<pdfrwt beam="1">  1        2 0.38897886E+00 0.16209409E+03</pdfrwt>
<pdfrwt beam="2">  1       -2 0.28906762E-01 0.16209409E+03</pdfrwt>
<totfact> 0.45275911E+01</totfact>
</mgrwt>
</event>
<event>
 4    1  0.3365401E-008  0.3666716E+03  0.7818608E-02  0.1055973E+00
         -2   -1    0    0    0  501 -0.00000000000E+00  0.00000000000E+00  0.25483938409E+03  0.25483938410E+03  0.25500000000E-02 0.  1.
          2   -1    0    0  501    0  0.00000000000E+00 -0.00000000000E+00 -0.14897036861E+04  0.14897036861E+04  0.25500000000E-02 0. -1.
    8880022    1    1    2    0    0 -0.33309832835E+03 -0.10096906660E+02 -0.13184309361E+04  0.13684693019E+04  0.15294330000E+03 0.  0.
    8880022    1    1    2    0    0  0.33309832835E+03  0.10096906660E+02  0.83566634100E+02  0.37607376833E+03  0.15294330000E+03 0.  1.
<mgrwt>
<rscale>  0 0.36667165E+03</rscale>
<asrwt>0</asrwt>
<pdfrwt beam="1">  1        2 0.22918518E+00 0.36667165E+03</pdfrwt>
<pdfrwt beam="2">  1       -2 0.39206060E-01 0.36667165E+03</pdfrwt>
<totfact> 0.84862870E+01</totfact>
</mgrwt>
</event>
<event>
 4    1  0.3365401E-008  0.1198376E+04  0.7818608E-02  0.9114279E-01
          2   -1    0    0  501    0  0.00000000000E+00  0.00000000000E+00  0.22989169737E+04  0.22989169737E+04  0.25500000000E-02 0. -1.
         -2   -1    0    0    0  501 -0.00000000000E+00 -0.00000000000E+00 -0.68312169405E+03  0.68312169406E+03  0.25500000000E-02 0.  1.
    8880022    1    1    2    0    0  0.65924762276E+03 -0.98899253299E+03  0.12439782454E+04  0.17273063384E+04  0.15294330000E+03 0.  0.
    8880022    1    1    2    0    0 -0.65924762276E+03  0.98899253299E+03  0.37181703419E+03  0.12547323294E+04  0.15294330000E+03 0.  0.
<mgrwt>
<rscale>  0 0.11983761E+04</rscale>
<asrwt>0</asrwt>
<pdfrwt beam="1">  1        2 0.35367953E+00 0.11983761E+04</pdfrwt>
<pdfrwt beam="2">  1       -2 0.10509565E+00 0.11983761E+04</pdfrwt>
<totfact> 0.32657943E+00</totfact>
</mgrwt>
</event>
<event>
 4    1  0.3365401E-008  0.1100279E+04  0.7818608E-02  0.9204920E-01
         -2   -1    0    0    0  501 -0.00000000000E+00  0.00000000000E+00  0.16217993888E+04  0.16217993888E+04  0.25500000000E-02 0.  1.
          2   -1    0    0  501    0  0.00000000000E+00 -0.00000000000E+00 -0.82939096914E+03  0.82939096914E+03  0.25500000000E-02 0. -1.
    8880022    1    1    2    0    0  0.10893767951E+04 -0.21939116588E+02  0.78374321256E+03  0.13508768274E+04  0.15294330000E+03 0.  0.
    8880022    1    1    2    0    0 -0.10893767951E+04  0.21939116588E+02  0.86652070812E+01  0.11003135305E+04  0.15294330000E+03 0.  0.
<mgrwt>
<rscale>  0 0.11002794E+04</rscale>
<asrwt>0</asrwt>
<pdfrwt beam="1">  1        2 0.12759861E+00 0.11002794E+04</pdfrwt>
<pdfrwt beam="2">  1       -2 0.24950759E+00 0.11002794E+04</pdfrwt>
<totfact> 0.20942375E+00</totfact>
</mgrwt>
</event>
<event>
 4    1  0.3365401E-008  0.3022593E+03  0.7818608E-02  0.1084117E+00
          2   -1    0    0  501    0  0.00000000000E+00  0.00000000000E+00  0.12756838718E+04  0.12756838718E+04  0.25500000000E-02 0. -1.
         -2   -1    0    0    0  501 -0.00000000000E+00 -0.00000000000E+00 -0.15303118677E+03  0.15303118679E+03  0.25500000000E-02 0.  1.
    8880022    1    1    2    0    0 -0.21813317243E+03 -0.14278293407E+03  0.40280905567E+02  0.30493155222E+03  0.15294330000E+03 0.  0.
    8880022    1    1    2    0    0  0.21813317243E+03  0.14278293407E+03  0.10823717794E+04  0.11237835063E+04  0.15294330000E+03 0.  0.
<mgrwt>
<rscale>  0 0.30225933E+03</rscale>
<asrwt>0</asrwt>
<pdfrwt beam="1">  1        2 0.19625906E+00 0.30225933E+03</pdfrwt>
<pdfrwt beam="2">  1       -2 0.23543259E-01 0.30225933E+03</pdfrwt>
<totfact> 0.28713944E+02</totfact>
</mgrwt>
</event>
<event>
 4    1  0.3365401E-008  0.3118787E+03  0.7818608E-02  0.1079449E+00
          2   -1    0    0  501    0  0.00000000000E+00  0.00000000000E+00  0.58776159505E+03  0.58776159506E+03  0.25500000000E-02 0. -1.
         -2   -1    0    0    0  501 -0.00000000000E+00 -0.00000000000E+00 -0.25690429896E+03  0.25690429898E+03  0.25500000000E-02 0.  1.
    8880022    1    1    2    0    0  0.10174982351E+03  0.25203892417E+03  0.41735745427E+03  0.52101395713E+03  0.15294330000E+03 0.  0.
    8880022    1    1    2    0    0 -0.10174982351E+03 -0.25203892417E+03 -0.86500158176E+02  0.32365193690E+03  0.15294330000E+03 0.  0.
<mgrwt>
<rscale>  0 0.31187866E+03</rscale>
<asrwt>0</asrwt>
<pdfrwt beam="1">  1        2 0.90424861E-01 0.31187866E+03</pdfrwt>
<pdfrwt beam="2">  1       -2 0.39523738E-01 0.31187866E+03</pdfrwt>
<totfact> 0.31666207E+02</totfact>
</mgrwt>
</event>
<event>
 4    1  0.3365401E-008  0.1520377E+04  0.7818608E-02  0.8871014E-01
          2   -1    0    0  501    0  0.00000000000E+00  0.00000000000E+00  0.20950959361E+04  0.20950959361E+04  0.25500000000E-02 0. -1.
         -2   -1    0    0    0  501 -0.00000000000E+00 -0.00000000000E+00 -0.13594326089E+04  0.13594326089E+04  0.25500000000E-02 0.  1.
    8880022    1    1    2    0    0 -0.82410829960E+03 -0.12684639632E+04 -0.38189198011E+03  0.15676059623E+04  0.15294330000E+03 0.  0.
    8880022    1    1    2    0    0  0.82410829960E+03  0.12684639632E+04  0.11175553073E+04  0.18869225827E+04  0.15294330000E+03 0.  0.
<mgrwt>
<rscale>  0 0.15203772E+04</rscale>
<asrwt>0</asrwt>
<pdfrwt beam="1">  1        2 0.32232245E+00 0.15203772E+04</pdfrwt>
<pdfrwt beam="2">  1       -2 0.20914348E+00 0.15203772E+04</pdfrwt>
<totfact> 0.64232844E-01</totfact>
</mgrwt>
</event>
<event>
 4    1  0.3365401E-008  0.9525104E+03  0.7818608E-02  0.9362221E-01
         -2   -1    0    0    0  501 -0.00000000000E+00  0.00000000000E+00  0.49851966971E+03  0.49851966971E+03  0.25500000000E-02 0.  1.
          2   -1    0    0  501    0  0.00000000000E+00 -0.00000000000E+00 -0.31780173129E+04  0.31780173129E+04  0.25500000000E-02 0. -1.
    8880022    1    1    2    0    0  0.30582661412E+03 -0.88901879031E+03 -0.13805720540E+03  0.96246338757E+03  0.15294330000E+03 0.  0.
    8880022    1    1    2    0    0 -0.30582661412E+03  0.88901879031E+03 -0.25414404378E+04  0.27140735950E+04  0.15294330000E+03 0.  0.
<mgrwt>
<rscale>  0 0.95251036E+03</rscale>
<asrwt>0</asrwt>
<pdfrwt beam="1">  1        2 0.48892573E+00 0.95251036E+03</pdfrwt>
<pdfrwt beam="2">  1       -2 0.76695336E-01 0.95251036E+03</pdfrwt>
<totfact> 0.21056567E+00</totfact>
</mgrwt>
</event>
<event>
 4    1  0.3365401E-008  0.1982890E+03  0.7818608E-02  0.1151191E+00
         -2   -1    0    0    0  501 -0.00000000000E+00  0.00000000000E+00  0.29065715559E+03  0.29065715560E+03  0.25500000000E-02 0.  1.
          2   -1    0    0  501    0  0.00000000000E+00 -0.00000000000E+00 -0.25623711384E+03  0.25623711386E+03  0.25500000000E-02 0. -1.
    8880022    1    1    2    0    0  0.11283839603E+03 -0.56518735895E+02 -0.17066878923E+03  0.26162255208E+03  0.15294330000E+03 0.  0.
    8880022    1    1    2    0    0 -0.11283839603E+03  0.56518735895E+02  0.20508883098E+03  0.28527171738E+03  0.15294330000E+03 0.  0.
<mgrwt>
<rscale>  0 0.19828899E+03</rscale>
<asrwt>0</asrwt>
<pdfrwt beam="1">  1        2 0.39421094E-01 0.19828899E+03</pdfrwt>
<pdfrwt beam="2">  1       -2 0.44716485E-01 0.19828899E+03</pdfrwt>
<totfact> 0.62339907E+02</totfact>
</mgrwt>
</event>
<event>
 4    1  0.3365401E-008  0.4364070E+03  0.7818608E-02  0.1031855E+00
          2   -1    0    0  501    0  0.00000000000E+00  0.00000000000E+00  0.35055308317E+04  0.35055308317E+04  0.25500000000E-02 0. -1.
         -2   -1    0    0    0  501 -0.00000000000E+00 -0.00000000000E+00 -0.86641229481E+02  0.86641229518E+02  0.25500000000E-02 0.  1.
    8880022    1    1    2    0    0  0.30872947047E+03 -0.26785354604E+03  0.28063019357E+04  0.28400319744E+04  0.15294330000E+03 0.  0.
    8880022    1    1    2    0    0 -0.30872947047E+03  0.26785354604E+03  0.61258766648E+03  0.75214008682E+03  0.15294330000E+03 0.  0.
<mgrwt>
<rscale>  0 0.43640699E+03</rscale>
<asrwt>0</asrwt>
<pdfrwt beam="1">  1        2 0.53931240E+00 0.43640699E+03</pdfrwt>
<pdfrwt beam="2">  1       -2 0.13329421E-01 0.43640699E+03</pdfrwt>
<totfact> 0.39602708E+01</totfact>
</mgrwt>
</event>
<event>
 4    1  0.3365401E-008  0.3858854E+03  0.7818608E-02  0.1048780E+00
         -2   -1    0    0    0  501 -0.00000000000E+00  0.00000000000E+00  0.45564773561E+03  0.45564773562E+03  0.25500000000E-02 0.  1.
          2   -1    0    0  501    0  0.00000000000E+00 -0.00000000000E+00 -0.87322997287E+03  0.87322997288E+03  0.25500000000E-02 0. -1.
    8880022    1    1    2    0    0  0.30912861964E+03 -0.17307622084E+03  0.31681007484E+03  0.49927563353E+03  0.15294330000E+03 0.  0.
    8880022    1    1    2    0    0 -0.30912861964E+03  0.17307622084E+03 -0.73439231210E+03  0.82960207497E+03  0.15294330000E+03 0.  0.
<mgrwt>
<rscale>  0 0.38588539E+03</rscale>
<asrwt>0</asrwt>
<pdfrwt beam="1">  1        2 0.13434307E+00 0.38588539E+03</pdfrwt>
<pdfrwt beam="2">  1       -2 0.70099652E-01 0.38588539E+03</pdfrwt>
<totfact> 0.59775510E+01</totfact>
</mgrwt>
</event>
<event>
 4    1  0.3365401E-008  0.1827439E+03  0.7818608E-02  0.1165174E+00
         -2   -1    0    0    0  501 -0.00000000000E+00  0.00000000000E+00  0.88818745500E+02  0.88818745536E+02  0.25500000000E-02 0.  1.
          2   -1    0    0  501    0  0.00000000000E+00 -0.00000000000E+00 -0.54943068614E+03  0.54943068614E+03  0.25500000000E-02 0. -1.
    8880022    1    1    2    0    0  0.13910677058E+02  0.99046396427E+02 -0.51008566589E+02  0.18972934001E+03  0.15294330000E+03 0.  0.
    8880022    1    1    2    0    0 -0.13910677058E+02 -0.99046396427E+02 -0.40960337405E+03  0.44852009167E+03  0.15294330000E+03 0.  0.
<mgrwt>
<rscale>  0 0.18274394E+03</rscale>
<asrwt>0</asrwt>
<pdfrwt beam="1">  1        2 0.84527796E-01 0.18274394E+03</pdfrwt>
<pdfrwt beam="2">  1       -2 0.13664423E-01 0.18274394E+03</pdfrwt>
<totfact> 0.22093803E+03</totfact>
</mgrwt>
</event>
<event>
 4    1  0.3365401E-008  0.2280480E+03  0.7818608E-02  0.1128021E+00
          2   -1    0    0  501    0  0.00000000000E+00  0.00000000000E+00  0.19971154341E+03  0.19971154342E+03  0.25500000000E-02 0. -1.
         -2   -1    0    0    0  501 -0.00000000000E+00 -0.00000000000E+00 -0.48508838801E+03  0.48508838802E+03  0.25500000000E-02 0.  1.
    8880022    1    1    2    0    0  0.55729899159E+02  0.15971354129E+03  0.90339910846E+02  0.24529001088E+03  0.15294330000E+03 0. -1.
    8880022    1    1    2    0    0 -0.55729899159E+02 -0.15971354129E+03 -0.37571675545E+03  0.43950992056E+03  0.15294330000E+03 0.  0.
<mgrwt>
<rscale>  0 0.22804800E+03</rscale>
<asrwt>0</asrwt>
<pdfrwt beam="1">  1        2 0.30724853E-01 0.22804800E+03</pdfrwt>
<pdfrwt beam="2">  1       -2 0.74628983E-01 0.22804800E+03</pdfrwt>
<totfact> 0.28515820E+02</totfact>
</mgrwt>
</event>
<event>
 4    1  0.3365401E-008  0.3518667E+03  0.7818608E-02  0.1061851E+00
         -2   -1    0    0    0  501 -0.00000000000E+00  0.00000000000E+00  0.74192553316E+03  0.74192553316E+03  0.25500000000E-02 0.  1.
          2   -1    0    0  501    0  0.00000000000E+00 -0.00000000000E+00 -0.63706876960E+03  0.63706876961E+03  0.25500000000E-02 0. -1.
    8880022    1    1    2    0    0 -0.60162243689E+02 -0.31112542702E+03 -0.53991959454E+03  0.64445585457E+03  0.15294330000E+03 0.  0.
    8880022    1    1    2    0    0  0.60162243689E+02  0.31112542702E+03  0.64477635810E+03  0.73453844820E+03  0.15294330000E+03 0.  0.
<mgrwt>
<rscale>  0 0.35186671E+03</rscale>
<asrwt>0</asrwt>
<pdfrwt beam="1">  1        2 0.98010579E-01 0.35186671E+03</pdfrwt>
<pdfrwt beam="2">  1       -2 0.11414239E+00 0.35186671E+03</pdfrwt>
<totfact> 0.29406078E+01</totfact>
</mgrwt>
</event>
<event>
 4    1  0.3365401E-008  0.7362867E+03  0.7818608E-02  0.9657113E-01
          2   -1    0    0  501    0  0.00000000000E+00  0.00000000000E+00  0.11493282448E+04  0.11493282448E+04  0.25500000000E-02 0. -1.
         -2   -1    0    0    0  501 -0.00000000000E+00 -0.00000000000E+00 -0.53772744323E+03  0.53772744324E+03  0.25500000000E-02 0.  1.
    8880022    1    1    2    0    0  0.45300795556E+03 -0.55991987595E+03  0.60142311307E+03  0.95069863219E+03  0.15294330000E+03 0.  0.
    8880022    1    1    2    0    0 -0.45300795556E+03  0.55991987595E+03  0.10177688456E+02  0.73635705582E+03  0.15294330000E+03 0.  0.
<mgrwt>
<rscale>  0 0.73628672E+03</rscale>
<asrwt>0</asrwt>
<pdfrwt beam="1">  1        2 0.17681973E+00 0.73628672E+03</pdfrwt>
<pdfrwt beam="2">  1       -2 0.82727299E-01 0.73628672E+03</pdfrwt>
<totfact> 0.26551363E+01</totfact>
</mgrwt>
</event>
<event>
 4    1  0.3365401E-008  0.4938823E+03  0.7818608E-02  0.1015388E+00
         -2   -1    0    0    0  501 -0.00000000000E+00  0.00000000000E+00  0.13531842660E+03  0.13531842662E+03  0.25500000000E-02 0.  1.
          2   -1    0    0  501    0  0.00000000000E+00 -0.00000000000E+00 -0.23286221388E+04  0.23286221388E+04  0.25500000000E-02 0. -1.
    8880022    1    1    2    0    0 -0.34460331190E+03 -0.31902451475E+03 -0.16822083150E+04  0.17532097854E+04  0.15294330000E+03 0. -1.
    8880022    1    1    2    0    0  0.34460331190E+03  0.31902451475E+03 -0.51109539716E+03  0.71073077997E+03  0.15294330000E+03 0.  0.
<mgrwt>
<rscale>  0 0.49388231E+03</rscale>
<asrwt>0</asrwt>
<pdfrwt beam="1">  1        2 0.35824953E+00 0.49388231E+03</pdfrwt>
<pdfrwt beam="2">  1       -2 0.20818221E-01 0.49388231E+03</pdfrwt>
<totfact> 0.93120787E+01</totfact>
</mgrwt>
</event>
<event>
 4    1  0.3365401E-008  0.5248105E+03  0.7818608E-02  0.1007498E+00
          2   -1    0    0  501    0  0.00000000000E+00  0.00000000000E+00  0.19787429731E+04  0.19787429731E+04  0.25500000000E-02 0. -1.
         -2   -1    0    0    0  501 -0.00000000000E+00 -0.00000000000E+00 -0.32569241749E+03  0.32569241750E+03  0.25500000000E-02 0.  1.
    8880022    1    1    2    0    0 -0.66377919137E+02  0.49762276858E+03 -0.45381564952E+02  0.52676900764E+03  0.15294330000E+03 0.  0.
    8880022    1    1    2    0    0  0.66377919137E+02 -0.49762276858E+03  0.16984321206E+04  0.17776663830E+04  0.15294330000E+03 0. -1.
<mgrwt>
<rscale>  0 0.52481054E+03</rscale>
<asrwt>0</asrwt>
<pdfrwt beam="1">  1        2 0.30442199E+00 0.52481054E+03</pdfrwt>
<pdfrwt beam="2">  1       -2 0.50106527E-01 0.52481054E+03</pdfrwt>
<totfact> 0.27679542E+01</totfact>
</mgrwt>
</event>
<event>
 4    1  0.3365401E-008  0.2224854E+03  0.7818608E-02  0.1132044E+00
         -2   -1    0    0    0  501 -0.00000000000E+00  0.00000000000E+00  0.78526623218E+03  0.78526623218E+03  0.25500000000E-02 0.  1.
          2   -1    0    0  501    0  0.00000000000E+00 -0.00000000000E+00 -0.45162522588E+03  0.45162522589E+03  0.25500000000E-02 0. -1.
    8880022    1    1    2    0    0  0.15455425604E+03  0.47128214237E+02 -0.40684415043E+03  0.46370454213E+03  0.15294330000E+03 0.  0.
    8880022    1    1    2    0    0 -0.15455425604E+03 -0.47128214237E+02  0.74048515673E+03  0.77318691594E+03  0.15294330000E+03 0.  0.
<mgrwt>
<rscale>  0 0.22248537E+03</rscale>
<asrwt>0</asrwt>
<pdfrwt beam="1">  1        2 0.69480804E-01 0.22248537E+03</pdfrwt>
<pdfrwt beam="2">  1       -2 0.12081019E+00 0.22248537E+03</pdfrwt>
<totfact> 0.38975875E+01</totfact>
</mgrwt>
</event>
<event>
 4    1  0.3365401E-008  0.7608751E+03  0.7818608E-02  0.9618442E-01
          2   -1    0    0  501    0  0.00000000000E+00  0.00000000000E+00  0.11569056969E+04  0.11569056969E+04  0.25500000000E-02 0. -1.
         -2   -1    0    0    0  501 -0.00000000000E+00 -0.00000000000E+00 -0.11802998628E+04  0.11802998628E+04  0.25500000000E-02 0.  1.
    8880022    1    1    2    0    0 -0.50664992389E+03 -0.54666729973E+03  0.87523217786E+03  0.11597250968E+04  0.15294330000E+03 0.  0.
    8880022    1    1    2    0    0  0.50664992389E+03  0.54666729973E+03 -0.89862634375E+03  0.11774804630E+04  0.15294330000E+03 0.  1.
<mgrwt>
<rscale>  0 0.76087511E+03</rscale>
<asrwt>0</asrwt>
<pdfrwt beam="1">  1        2 0.17798549E+00 0.76087511E+03</pdfrwt>
<pdfrwt beam="2">  1       -2 0.18158459E+00 0.76087511E+03</pdfrwt>
<totfact> 0.36340675E+00</totfact>
</mgrwt>
</event>
<event>
 4    1  0.3365401E-008  0.8033102E+03  0.7818608E-02  0.9555238E-01
          2   -1    0    0  501    0  0.00000000000E+00  0.00000000000E+00  0.44502249067E+03  0.44502249068E+03  0.25500000000E-02 0. -1.
         -2   -1    0    0    0  501 -0.00000000000E+00 -0.00000000000E+00 -0.18777681033E+04  0.18777681033E+04  0.25500000000E-02 0.  1.
    8880022    1    1    2    0    0 -0.77224709360E+03 -0.15984386154E+03 -0.16208524220E+03  0.81949918389E+03  0.15294330000E+03 0.  0.
    8880022    1    1    2    0    0  0.77224709360E+03  0.15984386154E+03 -0.12706603704E+04  0.15032914101E+04  0.15294330000E+03 0.  0.
<mgrwt>
<rscale>  0 0.80331021E+03</rscale>
<asrwt>0</asrwt>
<pdfrwt beam="1">  1        2 0.68464999E-01 0.80331021E+03</pdfrwt>
<pdfrwt beam="2">  1       -2 0.28888740E+00 0.80331021E+03</pdfrwt>
<totfact> 0.26977212E+00</totfact>
</mgrwt>
</event>
<event>
 4    1  0.3365401E-008  0.3780711E+03  0.7818608E-02  0.1051649E+00
          2   -1    0    0  501    0  0.00000000000E+00  0.00000000000E+00  0.50517998056E+03  0.50517998057E+03  0.25500000000E-02 0. -1.
         -2   -1    0    0    0  501 -0.00000000000E+00 -0.00000000000E+00 -0.14204294059E+04  0.14204294059E+04  0.25500000000E-02 0.  1.
    8880022    1    1    2    0    0 -0.31195230806E+03 -0.14910342245E+03 -0.13192159177E+04  0.13723222521E+04  0.15294330000E+03 0.  0.
    8880022    1    1    2    0    0  0.31195230806E+03  0.14910342245E+03  0.40396649236E+03  0.55328713437E+03  0.15294330000E+03 0. -1.
<mgrwt>
<rscale>  0 0.37807106E+03</rscale>
<asrwt>0</asrwt>
<pdfrwt beam="1">  1        2 0.77719997E-01 0.37807106E+03</pdfrwt>
<pdfrwt beam="2">  1       -2 0.21852760E+00 0.37807106E+03</pdfrwt>
<totfact> 0.66843242E+00</totfact>
</mgrwt>
</event>
<event>
 4    1  0.3365401E-008  0.4139290E+03  0.7818608E-02  0.1039060E+00
         -2   -1    0    0    0  501 -0.00000000000E+00  0.00000000000E+00  0.42725140793E+03  0.42725140794E+03  0.25500000000E-02 0.  1.
          2   -1    0    0  501    0  0.00000000000E+00 -0.00000000000E+00 -0.65793479602E+03  0.65793479602E+03  0.25500000000E-02 0. -1.
    8880022    1    1    2    0    0 -0.32962909970E+03 -0.19821768525E+03  0.22371759189E+03  0.47051759590E+03  0.15294330000E+03 0.  0.
    8880022    1    1    2    0    0  0.32962909970E+03  0.19821768525E+03 -0.45440097998E+03  0.61466860806E+03  0.15294330000E+03 0.  0.
<mgrwt>
<rscale>  0 0.41392904E+03</rscale>
<asrwt>0</asrwt>
<pdfrwt beam="1">  1        2 0.10122074E+00 0.41392904E+03</pdfrwt>
<pdfrwt beam="2">  1       -2 0.65730986E-01 0.41392904E+03</pdfrwt>
<totfact> 0.98085785E+01</totfact>
</mgrwt>
</event>
<event>
 4    1  0.3365401E-008  0.1611775E+04  0.7818608E-02  0.8813347E-01
         -2   -1    0    0    0  501 -0.00000000000E+00  0.00000000000E+00  0.20038144411E+04  0.20038144411E+04  0.25500000000E-02 0.  1.
          2   -1    0    0  501    0  0.00000000000E+00 -0.00000000000E+00 -0.19358409493E+04  0.19358409493E+04  0.25500000000E-02 0. -1.
    8880022    1    1    2    0    0 -0.29132929647E+03 -0.15778323074E+04  0.11660770135E+04  0.19893604007E+04  0.15294330000E+03 0.  0.
    8880022    1    1    2    0    0  0.29132929647E+03  0.15778323074E+04 -0.10981035217E+04  0.19502949897E+04  0.15294330000E+03 0.  0.
<mgrwt>
<rscale>  0 0.16117752E+04</rscale>
<asrwt>0</asrwt>
<pdfrwt beam="1">  1        2 0.29782169E+00 0.16117752E+04</pdfrwt>
<pdfrwt beam="2">  1       -2 0.30827914E+00 0.16117752E+04</pdfrwt>
<totfact> 0.18998654E-01</totfact>
</mgrwt>
</event>
<event>
 4    1  0.3365401E-008  0.4006934E+03  0.7818608E-02  0.1043540E+00
         -2   -1    0    0    0  501 -0.00000000000E+00  0.00000000000E+00  0.33319950478E+03  0.33319950479E+03  0.25500000000E-02 0.  1.
          2   -1    0    0  501    0  0.00000000000E+00 -0.00000000000E+00 -0.18807743734E+04  0.18807743734E+04  0.25500000000E-02 0. -1.
    8880022    1    1    2    0    0 -0.35915525327E+03  0.90394053049E+02 -0.17284938565E+04  0.17743298018E+04  0.15294330000E+03 0.  0.
    8880022    1    1    2    0    0  0.35915525327E+03 -0.90394053049E+02  0.18091898779E+03  0.43964407642E+03  0.15294330000E+03 0.  0.
<mgrwt>
<rscale>  0 0.40069344E+03</rscale>
<asrwt>0</asrwt>
<pdfrwt beam="1">  1        2 0.28934990E+00 0.40069344E+03</pdfrwt>
<pdfrwt beam="2">  1       -2 0.51261464E-01 0.40069344E+03</pdfrwt>
<totfact> 0.30635128E+01</totfact>
</mgrwt>
</event>
<event>
 4    1  0.4051256E-008  0.6128763E+03  0.7818608E-02  0.9879046E-01
         -2   -1    0    0    0  501 -0.00000000000E+00  0.00000000000E+00  0.47737048106E+03  0.47737048107E+03  0.25500000000E-02 0.  1.
          2   -1    0    0  501    0  0.00000000000E+00 -0.00000000000E+00 -0.36887437851E+04  0.36887437851E+04  0.25500000000E-02 0. -1.
    8880022    1    1    2    0    0 -0.42529742905E+03  0.41394179419E+03 -0.34532653359E+04  0.35072295113E+04  0.15294330000E+03 0.  0.
    8880022    1    1    2    0    0  0.42529742905E+03 -0.41394179419E+03  0.24189203181E+03  0.65888475487E+03  0.15294330000E+03 0.  0.
<mgrwt>
<rscale>  0 0.61287630E+03</rscale>
<asrwt>0</asrwt>
<pdfrwt beam="1">  1        2 0.56749903E+00 0.61287630E+03</pdfrwt>
<pdfrwt beam="2">  1       -2 0.73441615E-01 0.61287630E+03</pdfrwt>
<totfact> 0.11326916E+00</totfact>
</mgrwt>
</event>
<event>
 4    1  0.3365401E-008  0.4830313E+03  0.7818608E-02  0.1018305E+00
          2   -1    0    0  501    0  0.00000000000E+00  0.00000000000E+00  0.21230876978E+04  0.21230876978E+04  0.25500000000E-02 0. -1.
         -2   -1    0    0    0  501 -0.00000000000E+00 -0.00000000000E+00 -0.16326557039E+03  0.16326557041E+03  0.25500000000E-02 0.  1.
    8880022    1    1    2    0    0 -0.40931236094E+03 -0.20589073743E+03  0.16335111459E+04  0.17034312200E+04  0.15294330000E+03 0.  0.
    8880022    1    1    2    0    0  0.40931236094E+03  0.20589073743E+03  0.32631098150E+03  0.58292204817E+03  0.15294330000E+03 0.  0.
<mgrwt>
<rscale>  0 0.48303132E+03</rscale>
<asrwt>0</asrwt>
<pdfrwt beam="1">  1        2 0.32662887E+00 0.48303132E+03</pdfrwt>
<pdfrwt beam="2">  1       -2 0.25117780E-01 0.48303132E+03</pdfrwt>
<totfact> 0.86621305E+01</totfact>
</mgrwt>
</event>
<event>
 4    1  0.3365401E-008  0.1906536E+03  0.7818608E-02  0.1157873E+00
          2   -1    0    0  501    0  0.00000000000E+00  0.00000000000E+00  0.17918620076E+04  0.17918620076E+04  0.25500000000E-02 0. -1.
         -2   -1    0    0    0  501 -0.00000000000E+00 -0.00000000000E+00 -0.32773314566E+03  0.32773314567E+03  0.25500000000E-02 0.  1.
    8880022    1    1    2    0    0 -0.28375928701E+01  0.11379406573E+03  0.17585393295E+04  0.17688440767E+04  0.15294330000E+03 0. -1.
    8880022    1    1    2    0    0  0.28375928701E+01 -0.11379406573E+03 -0.29441046752E+03  0.35075107659E+03  0.15294330000E+03 0.  0.
<mgrwt>
<rscale>  0 0.19065360E+03</rscale>
<asrwt>0</asrwt>
<pdfrwt beam="1">  1        2 0.27567108E+00 0.19065360E+03</pdfrwt>
<pdfrwt beam="2">  1       -2 0.50420483E-01 0.19065360E+03</pdfrwt>
<totfact> 0.37885242E+01</totfact>
</mgrwt>
</event>
<event>
 4    1  0.3365401E-008  0.3663115E+03  0.7818608E-02  0.1056112E+00
         -2   -1    0    0    0  501 -0.00000000000E+00  0.00000000000E+00  0.12109508904E+03  0.12109508907E+03  0.25500000000E-02 0.  1.
          2   -1    0    0  501    0  0.00000000000E+00 -0.00000000000E+00 -0.25831446740E+04  0.25831446741E+04  0.25500000000E-02 0. -1.
    8880022    1    1    2    0    0  0.29608532661E+03  0.15207225292E+03 -0.20927388879E+03  0.42187640878E+03  0.15294330000E+03 0.  1.
    8880022    1    1    2    0    0 -0.29608532661E+03 -0.15207225292E+03 -0.22527756962E+04  0.22823633543E+04  0.15294330000E+03 0.  0.
<mgrwt>
<rscale>  0 0.36631154E+03</rscale>
<asrwt>0</asrwt>
<pdfrwt beam="1">  1        2 0.39740683E+00 0.36631154E+03</pdfrwt>
<pdfrwt beam="2">  1       -2 0.18630016E-01 0.36631154E+03</pdfrwt>
<totfact> 0.83810811E+01</totfact>
</mgrwt>
</event>
<event>
 4    1  0.3365401E-008  0.8867342E+03  0.7818608E-02  0.9442318E-01
          2   -1    0    0  501    0  0.00000000000E+00  0.00000000000E+00  0.58784100809E+03  0.58784100809E+03  0.25500000000E-02 0. -1.
         -2   -1    0    0    0  501 -0.00000000000E+00 -0.00000000000E+00 -0.15629272361E+04  0.15629272361E+04  0.25500000000E-02 0.  1.
    8880022    1    1    2    0    0  0.86795961016E+03 -0.97734055591E+02 -0.89586143799E+03  0.12605019633E+04  0.15294330000E+03 0.  0.
    8880022    1    1    2    0    0 -0.86795961016E+03  0.97734055591E+02 -0.79224790037E+02  0.89026628087E+03  0.15294330000E+03 0.  0.
<mgrwt>
<rscale>  0 0.88673417E+03</rscale>
<asrwt>0</asrwt>
<pdfrwt beam="1">  1        2 0.90437079E-01 0.88673417E+03</pdfrwt>
<pdfrwt beam="2">  1       -2 0.24045034E+00 0.88673417E+03</pdfrwt>
<totfact> 0.37802095E+00</totfact>
</mgrwt>
</event>
<event>
 4    1  0.3365401E-008  0.3606562E+03  0.7818608E-02  0.1058324E+00
          2   -1    0    0  501    0  0.00000000000E+00  0.00000000000E+00  0.15298199932E+04  0.15298199932E+04  0.25500000000E-02 0. -1.
         -2   -1    0    0    0  501 -0.00000000000E+00 -0.00000000000E+00 -0.46410101609E+03  0.46410101610E+03  0.25500000000E-02 0.  1.
    8880022    1    1    2    0    0 -0.19059501162E+03 -0.26524476241E+03 -0.36816141469E+03  0.51537920284E+03  0.15294330000E+03 0.  1.
    8880022    1    1    2    0    0  0.19059501162E+03  0.26524476241E+03  0.14338803918E+04  0.14785418065E+04  0.15294330000E+03 0.  0.
<mgrwt>
<rscale>  0 0.36065620E+03</rscale>
<asrwt>0</asrwt>
<pdfrwt beam="1">  1        2 0.23535692E+00 0.36065620E+03</pdfrwt>
<pdfrwt beam="2">  1       -2 0.71400156E-01 0.36065620E+03</pdfrwt>
<totfact> 0.23815370E+01</totfact>
</mgrwt>
</event>
<event>
 4    1  0.3365401E-008  0.2159349E+03  0.7818608E-02  0.1136951E+00
         -2   -1    0    0    0  501 -0.00000000000E+00  0.00000000000E+00  0.65859199484E+02  0.65859199533E+02  0.25500000000E-02 0.  1.
          2   -1    0    0  501    0  0.00000000000E+00 -0.00000000000E+00 -0.21030462217E+04  0.21030462217E+04  0.25500000000E-02 0. -1.
    8880022    1    1    2    0    0 -0.12237549610E+03  0.90887047051E+02 -0.13534776394E+03  0.25484679238E+03  0.15294330000E+03 0.  1.
    8880022    1    1    2    0    0  0.12237549610E+03 -0.90887047051E+02 -0.19018392583E+04  0.19140586289E+04  0.15294330000E+03 0.  0.
<mgrwt>
<rscale>  0 0.21593488E+03</rscale>
<asrwt>0</asrwt>
<pdfrwt beam="1">  1        2 0.32354552E+00 0.21593488E+03</pdfrwt>
<pdfrwt beam="2">  1       -2 0.10132186E-01 0.21593488E+03</pdfrwt>
<totfact> 0.43192350E+02</totfact>
</mgrwt>
</event>
<event>
 4    1  0.3365401E-008  0.5342792E+03  0.7818608E-02  0.1005200E+00
          2   -1    0    0  501    0  0.00000000000E+00  0.00000000000E+00  0.40089186110E+03  0.40089186111E+03  0.25500000000E-02 0. -1.
         -2   -1    0    0    0  501 -0.00000000000E+00 -0.00000000000E+00 -0.88136246142E+03  0.88136246142E+03  0.25500000000E-02 0.  1.
    8880022    1    1    2    0    0 -0.13876822981E+03  0.49275344153E+03  0.40769662322E+02  0.53583243101E+03  0.15294330000E+03 0.  0.
    8880022    1    1    2    0    0  0.13876822981E+03 -0.49275344153E+03 -0.52124026263E+03  0.74642189152E+03  0.15294330000E+03 0.  0.
<mgrwt>
<rscale>  0 0.53427917E+03</rscale>
<asrwt>0</asrwt>
<pdfrwt beam="1">  1        2 0.61675671E-01 0.53427917E+03</pdfrwt>
<pdfrwt beam="2">  1       -2 0.13559422E+00 0.53427917E+03</pdfrwt>
<totfact> 0.31896091E+01</totfact>
</mgrwt>
</event>
<event>
 4    1  0.3365401E-008  0.3707172E+03  0.7818608E-02  0.1054419E+00
         -2   -1    0    0    0  501 -0.00000000000E+00  0.00000000000E+00  0.13936050287E+03  0.13936050289E+03  0.25500000000E-02 0.  1.
          2   -1    0    0  501    0  0.00000000000E+00 -0.00000000000E+00 -0.27535689202E+04  0.27535689202E+04  0.25500000000E-02 0. -1.
    8880022    1    1    2    0    0 -0.22416160628E+03 -0.25256918898E+03 -0.14824997576E+03  0.39926097891E+03  0.15294330000E+03 0.  0.
    8880022    1    1    2    0    0  0.22416160628E+03  0.25256918898E+03 -0.24659584416E+04  0.24936684442E+04  0.15294330000E+03 0.  0.
<mgrwt>
<rscale>  0 0.37071724E+03</rscale>
<asrwt>0</asrwt>
<pdfrwt beam="1">  1        2 0.42362595E+00 0.37071724E+03</pdfrwt>
<pdfrwt beam="2">  1       -2 0.21440079E-01 0.37071724E+03</pdfrwt>
<totfact> 0.52573687E+01</totfact>
</mgrwt>
</event>
<event>
 4    1  0.3365401E-008  0.6070388E+03  0.7818608E-02  0.9890909E-01
          2   -1    0    0  501    0  0.00000000000E+00  0.00000000000E+00  0.10418282589E+04  0.10418282589E+04  0.25500000000E-02 0. -1.
         -2   -1    0    0    0  501 -0.00000000000E+00 -0.00000000000E+00 -0.12330524536E+04  0.12330524536E+04  0.25500000000E-02 0.  1.
    8880022    1    1    2    0    0  0.28793948770E+03  0.51205012047E+03  0.86493573861E+03  0.10566976670E+04  0.15294330000E+03 0.  0.
    8880022    1    1    2    0    0 -0.28793948770E+03 -0.51205012047E+03 -0.10561599334E+04  0.12181830455E+04  0.15294330000E+03 0.  0.
<mgrwt>
<rscale>  0 0.60703882E+03</rscale>
<asrwt>0</asrwt>
<pdfrwt beam="1">  1        2 0.16028127E+00 0.60703882E+03</pdfrwt>
<pdfrwt beam="2">  1       -2 0.18970038E+00 0.60703882E+03</pdfrwt>
<totfact> 0.38630569E+00</totfact>
</mgrwt>
</event>
<event>
 4    1  0.3365401E-008  0.5596746E+03  0.7818608E-02  0.9992791E-01
         -2   -1    0    0    0  501 -0.00000000000E+00  0.00000000000E+00  0.19631969255E+03  0.19631969257E+03  0.25500000000E-02 0.  1.
          2   -1    0    0  501    0  0.00000000000E+00 -0.00000000000E+00 -0.21204474537E+04  0.21204474537E+04  0.25500000000E-02 0. -1.
    8880022    1    1    2    0    0 -0.53755083106E+03 -0.29717186880E+02 -0.38572150133E+03  0.67971813038E+03  0.15294330000E+03 0.  0.
    8880022    1    1    2    0    0  0.53755083106E+03  0.29717186880E+02 -0.15384062598E+04  0.16370490159E+04  0.15294330000E+03 0.  0.
<mgrwt>
<rscale>  0 0.55967460E+03</rscale>
<asrwt>0</asrwt>
<pdfrwt beam="1">  1        2 0.32622267E+00 0.55967460E+03</pdfrwt>
<pdfrwt beam="2">  1       -2 0.30203031E-01 0.55967460E+03</pdfrwt>
<totfact> 0.61338522E+01</totfact>
</mgrwt>
</event>
<event>
 4    1  0.3365401E-008  0.2178332E+03  0.7818608E-02  0.1135509E+00
          2   -1    0    0  501    0  0.00000000000E+00  0.00000000000E+00  0.42980915321E+03  0.42980915322E+03  0.25500000000E-02 0. -1.
         -2   -1    0    0    0  501 -0.00000000000E+00 -0.00000000000E+00 -0.77365603045E+03  0.77365603045E+03  0.25500000000E-02 0.  1.
    8880022    1    1    2    0    0 -0.15437152719E+03 -0.15135272639E+02  0.38522369592E+03  0.44254784352E+03  0.15294330000E+03 0. -1.
    8880022    1    1    2    0    0  0.15437152719E+03  0.15135272639E+02 -0.72907057316E+03  0.76091734015E+03  0.15294330000E+03 0.  0.
<mgrwt>
<rscale>  0 0.21783319E+03</rscale>
<asrwt>0</asrwt>
<pdfrwt beam="1">  1        2 0.66124485E-01 0.21783319E+03</pdfrwt>
<pdfrwt beam="2">  1       -2 0.11902400E+00 0.21783319E+03</pdfrwt>
<totfact> 0.42713362E+01</totfact>
</mgrwt>
</event>
<event>
 4    1  0.3365401E-008  0.6330536E+03  0.7818608E-02  0.9839108E-01
         -2   -1    0    0    0  501 -0.00000000000E+00  0.00000000000E+00  0.82032062089E+03  0.82032062089E+03  0.25500000000E-02 0.  1.
          2   -1    0    0  501    0  0.00000000000E+00 -0.00000000000E+00 -0.66918759569E+03  0.66918759569E+03  0.25500000000E-02 0. -1.
    8880022    1    1    2    0    0  0.23420249079E+03 -0.56790354706E+03 -0.31138698624E+03  0.70549185231E+03  0.15294330000E+03 0.  0.
    8880022    1    1    2    0    0 -0.23420249079E+03  0.56790354706E+03  0.46252001144E+03  0.78401636428E+03  0.15294330000E+03 0.  0.
<mgrwt>
<rscale>  0 0.63305363E+03</rscale>
<asrwt>0</asrwt>
<pdfrwt beam="1">  1        2 0.10295194E+00 0.63305363E+03</pdfrwt>
<pdfrwt beam="2">  1       -2 0.12620317E+00 0.63305363E+03</pdfrwt>
<totfact> 0.20817351E+01</totfact>
</mgrwt>
</event>
<event>
 4    1  0.3365401E-008  0.4360604E+03  0.7818608E-02  0.1031962E+00
         -2   -1    0    0    0  501 -0.00000000000E+00  0.00000000000E+00  0.11562410698E+03  0.11562410701E+03  0.25500000000E-02 0.  1.
          2   -1    0    0  501    0  0.00000000000E+00 -0.00000000000E+00 -0.30589326662E+04  0.30589326662E+04  0.25500000000E-02 0. -1.
    8880022    1    1    2    0    0 -0.17073528027E+03  0.37095342423E+03 -0.39232756747E+03  0.58657442161E+03  0.15294330000E+03 0.  0.
    8880022    1    1    2    0    0  0.17073528027E+03 -0.37095342423E+03 -0.25509809917E+04  0.25879823516E+04  0.15294330000E+03 0.  0.
<mgrwt>
<rscale>  0 0.43606035E+03</rscale>
<asrwt>0</asrwt>
<pdfrwt beam="1">  1        2 0.47060496E+00 0.43606035E+03</pdfrwt>
<pdfrwt beam="2">  1       -2 0.17788326E-01 0.43606035E+03</pdfrwt>
<totfact> 0.47045847E+01</totfact>
</mgrwt>
</event>
<event>
 4    1  0.3365401E-008  0.1045453E+04  0.7818608E-02  0.9260051E-01
          2   -1    0    0  501    0  0.00000000000E+00  0.00000000000E+00  0.76098453044E+03  0.76098453045E+03  0.25500000000E-02 0. -1.
         -2   -1    0    0    0  501 -0.00000000000E+00 -0.00000000000E+00 -0.15631660816E+04  0.15631660816E+04  0.25500000000E-02 0.  1.
    8880022    1    1    2    0    0 -0.59057997486E+03 -0.84899718538E+03 -0.69981903695E+02  0.10477929411E+04  0.15294330000E+03 0.  0.
    8880022    1    1    2    0    0  0.59057997486E+03  0.84899718538E+03 -0.73219964744E+03  0.12763576710E+04  0.15294330000E+03 0.  0.
<mgrwt>
<rscale>  0 0.10454533E+04</rscale>
<asrwt>0</asrwt>
<pdfrwt beam="1">  1        2 0.11707454E+00 0.10454533E+04</pdfrwt>
<pdfrwt beam="2">  1       -2 0.24048709E+00 0.10454533E+04</pdfrwt>
<totfact> 0.26842693E+00</totfact>
</mgrwt>
</event>
<event>
 4    1  0.3365401E-008  0.1356487E+04  0.7818608E-02  0.8985932E-01
         -2   -1    0    0    0  501 -0.00000000000E+00  0.00000000000E+00  0.15950904671E+04  0.15950904671E+04  0.25500000000E-02 0.  1.
          2   -1    0    0  501    0  0.00000000000E+00 -0.00000000000E+00 -0.16679591644E+04  0.16679591644E+04  0.25500000000E-02 0. -1.
    8880022    1    1    2    0    0  0.62142580397E+02  0.13464037277E+04 -0.94246899978E+03  0.16517579020E+04  0.15294330000E+03 0.  0.
    8880022    1    1    2    0    0 -0.62142580397E+02 -0.13464037277E+04  0.86960030251E+03  0.16112917295E+04  0.15294330000E+03 0.  0.
<mgrwt>
<rscale>  0 0.13564868E+04</rscale>
<asrwt>0</asrwt>
<pdfrwt beam="1">  1        2 0.25660910E+00 0.13564868E+04</pdfrwt>
<pdfrwt beam="2">  1       -2 0.24539853E+00 0.13564868E+04</pdfrwt>
<totfact> 0.66840010E-01</totfact>
</mgrwt>
</event>
<event>
 4    1  0.3365401E-008  0.4765322E+03  0.7818608E-02  0.1020093E+00
          2   -1    0    0  501    0  0.00000000000E+00  0.00000000000E+00  0.71339798538E+03  0.71339798539E+03  0.25500000000E-02 0. -1.
         -2   -1    0    0    0  501 -0.00000000000E+00 -0.00000000000E+00 -0.51125721642E+03  0.51125721642E+03  0.25500000000E-02 0.  1.
    8880022    1    1    2    0    0  0.24915573836E+03  0.37631465006E+03 -0.27509724120E+03  0.55023762407E+03  0.15294330000E+03 0.  0.
    8880022    1    1    2    0    0 -0.24915573836E+03 -0.37631465006E+03  0.47723801017E+03  0.67441757774E+03  0.15294330000E+03 0.  0.
<mgrwt>
<rscale>  0 0.47653221E+03</rscale>
<asrwt>0</asrwt>
<pdfrwt beam="1">  1        2 0.10975354E+00 0.47653221E+03</pdfrwt>
<pdfrwt beam="2">  1       -2 0.78654957E-01 0.47653221E+03</pdfrwt>
<totfact> 0.59619256E+01</totfact>
</mgrwt>
</event>
<event>
 4    1  0.3365401E-008  0.2955993E+03  0.7818608E-02  0.1087461E+00
          2   -1    0    0  501    0  0.00000000000E+00  0.00000000000E+00  0.15641504986E+04  0.15641504986E+04  0.25500000000E-02 0. -1.
         -2   -1    0    0    0  501 -0.00000000000E+00 -0.00000000000E+00 -0.32636586284E+03  0.32636586285E+03  0.25500000000E-02 0.  1.
    8880022    1    1    2    0    0  0.11314021086E+03  0.22624448605E+03 -0.24167254507E+03  0.38181742605E+03  0.15294330000E+03 0.  0.
    8880022    1    1    2    0    0 -0.11314021086E+03 -0.22624448605E+03  0.14794571809E+04  0.15086989354E+04  0.15294330000E+03 0. -1.
<mgrwt>
<rscale>  0 0.29559927E+03</rscale>
<asrwt>0</asrwt>
<pdfrwt beam="1">  1        2 0.24063854E+00 0.29559927E+03</pdfrwt>
<pdfrwt beam="2">  1       -2 0.50210133E-01 0.29559927E+03</pdfrwt>
<totfact> 0.48406571E+01</totfact>
</mgrwt>
</event>
<event>
 4    1  0.3365401E-008  0.4007973E+03  0.7818608E-02  0.1043504E+00
          2   -1    0    0  501    0  0.00000000000E+00  0.00000000000E+00  0.10122211101E+04  0.10122211101E+04  0.25500000000E-02 0. -1.
         -2   -1    0    0    0  501 -0.00000000000E+00 -0.00000000000E+00 -0.95766141306E+03  0.95766141306E+03  0.25500000000E-02 0.  1.
    8880022    1    1    2    0    0 -0.25144501411E+03  0.27207028508E+03 -0.87235756568E+03  0.96002406770E+03  0.15294330000E+03 0.  0.
    8880022    1    1    2    0    0  0.25144501411E+03 -0.27207028508E+03  0.92691726271E+03  0.10098584555E+04  0.15294330000E+03 0.  0.
<mgrwt>
<rscale>  0 0.40079732E+03</rscale>
<asrwt>0</asrwt>
<pdfrwt beam="1">  1        2 0.15572632E+00 0.40079732E+03</pdfrwt>
<pdfrwt beam="2">  1       -2 0.14733253E+00 0.40079732E+03</pdfrwt>
<totfact> 0.84003084E+00</totfact>
</mgrwt>
</event>
<event>
 4    1  0.3365401E-008  0.8780969E+03  0.7818608E-02  0.9453383E-01
          2   -1    0    0  501    0  0.00000000000E+00  0.00000000000E+00  0.10289615791E+04  0.10289615791E+04  0.25500000000E-02 0. -1.
         -2   -1    0    0    0  501 -0.00000000000E+00 -0.00000000000E+00 -0.14121518514E+04  0.14121518514E+04  0.25500000000E-02 0.  1.
    8880022    1    1    2    0    0  0.84386666709E+03  0.18855130518E+03  0.64460172903E+03  0.10892959142E+04  0.15294330000E+03 0.  0.
    8880022    1    1    2    0    0 -0.84386666709E+03 -0.18855130518E+03 -0.10277920013E+04  0.13518175163E+04  0.15294330000E+03 0.  0.
<mgrwt>
<rscale>  0 0.87809692E+03</rscale>
<asrwt>0</asrwt>
<pdfrwt beam="1">  1        2 0.15830178E+00 0.87809692E+03</pdfrwt>
<pdfrwt beam="2">  1       -2 0.21725413E+00 0.87809692E+03</pdfrwt>
<totfact> 0.25047093E+00</totfact>
</mgrwt>
</event>
<event>
 4    1  0.3365401E-008  0.5718726E+03  0.7818608E-02  0.9965543E-01
          2   -1    0    0  501    0  0.00000000000E+00  0.00000000000E+00  0.11183113032E+04  0.11183113032E+04  0.25500000000E-02 0. -1.
         -2   -1    0    0    0  501 -0.00000000000E+00 -0.00000000000E+00 -0.49674524169E+03  0.49674524170E+03  0.25500000000E-02 0.  1.
    8880022    1    1    2    0    0  0.46195507547E+03 -0.30040653758E+03  0.82866563361E+03  0.10068390958E+04  0.15294330000E+03 0.  0.
    8880022    1    1    2    0    0 -0.46195507547E+03  0.30040653758E+03 -0.20709957210E+03  0.60821744906E+03  0.15294330000E+03 0.  0.
<mgrwt>
<rscale>  0 0.57187257E+03</rscale>
<asrwt>0</asrwt>
<pdfrwt beam="1">  1        2 0.17204789E+00 0.57187257E+03</pdfrwt>
<pdfrwt beam="2">  1       -2 0.76422345E-01 0.57187257E+03</pdfrwt>
<totfact> 0.33752034E+01</totfact>
</mgrwt>
</event>
<event>
 4    1  0.3365401E-008  0.4981390E+03  0.7818608E-02  0.1014266E+00
         -2   -1    0    0    0  501 -0.00000000000E+00  0.00000000000E+00  0.50817746352E+03  0.50817746352E+03  0.25500000000E-02 0.  1.
          2   -1    0    0  501    0  0.00000000000E+00 -0.00000000000E+00 -0.55657423205E+03  0.55657423205E+03  0.25500000000E-02 0. -1.
    8880022    1    1    2    0    0  0.37843576560E+03 -0.28554710676E+03  0.16226308900E+03  0.52390050767E+03  0.15294330000E+03 0.  0.
    8880022    1    1    2    0    0 -0.37843576560E+03  0.28554710676E+03 -0.21065985753E+03  0.54085118791E+03  0.15294330000E+03 0.  0.
<mgrwt>
<rscale>  0 0.49813897E+03</rscale>
<asrwt>0</asrwt>
<pdfrwt beam="1">  1        2 0.85626805E-01 0.49813897E+03</pdfrwt>
<pdfrwt beam="2">  1       -2 0.78181148E-01 0.49813897E+03</pdfrwt>
<totfact> 0.81388788E+01</totfact>
</mgrwt>
</event>
<event>
 4    1  0.3365401E-008  0.1053621E+04  0.7818608E-02  0.9251614E-01
         -2   -1    0    0    0  501 -0.00000000000E+00  0.00000000000E+00  0.75931298337E+03  0.75931298337E+03  0.25500000000E-02 0.  1.
          2   -1    0    0  501    0  0.00000000000E+00 -0.00000000000E+00 -0.26145274056E+04  0.26145274056E+04  0.25500000000E-02 0. -1.
    8880022    1    1    2    0    0  0.98983416172E+03  0.32703689025E+03  0.19240653684E+03  0.10710446880E+04  0.15294330000E+03 0.  0.
    8880022    1    1    2    0    0 -0.98983416172E+03 -0.32703689025E+03 -0.20476209590E+04  0.23027957009E+04  0.15294330000E+03 0.  0.
<mgrwt>
<rscale>  0 0.10536206E+04</rscale>
<asrwt>0</asrwt>
<pdfrwt beam="1">  1        2 0.40223498E+00 0.10536206E+04</pdfrwt>
<pdfrwt beam="2">  1       -2 0.11681738E+00 0.10536206E+04</pdfrwt>
<totfact> 0.16960620E+00</totfact>
</mgrwt>
</event>
<event>
 4    1  0.3365401E-008  0.2127528E+03  0.7818608E-02  0.1139404E+00
          2   -1    0    0  501    0  0.00000000000E+00  0.00000000000E+00  0.56476368215E+03  0.56476368215E+03  0.25500000000E-02 0. -1.
         -2   -1    0    0    0  501 -0.00000000000E+00 -0.00000000000E+00 -0.14125474250E+03  0.14125474253E+03  0.25500000000E-02 0.  1.
    8880022    1    1    2    0    0 -0.20147101585E+02  0.14651350728E+03  0.44393982934E+03  0.49228684586E+03  0.15294330000E+03 0. -1.
    8880022    1    1    2    0    0  0.20147101585E+02 -0.14651350728E+03 -0.20430889696E+02  0.21373157882E+03  0.15294330000E+03 0. -1.
<mgrwt>
<rscale>  0 0.21275283E+03</rscale>
<asrwt>0</asrwt>
<pdfrwt beam="1">  1        2 0.86886721E-01 0.21275283E+03</pdfrwt>
<pdfrwt beam="2">  1       -2 0.21731499E-01 0.21275283E+03</pdfrwt>
<totfact> 0.98638430E+02</totfact>
</mgrwt>
</event>
<event>
 4    1  0.3365401E-008  0.3714005E+03  0.7818608E-02  0.1054159E+00
         -2   -1    0    0    0  501 -0.00000000000E+00  0.00000000000E+00  0.17120179677E+03  0.17120179679E+03  0.25500000000E-02 0.  1.
          2   -1    0    0  501    0  0.00000000000E+00 -0.00000000000E+00 -0.19711954988E+04  0.19711954988E+04  0.25500000000E-02 0. -1.
    8880022    1    1    2    0    0  0.63009049915E+02 -0.33253045818E+03 -0.17236784540E+04  0.17632372818E+04  0.15294330000E+03 0.  0.
    8880022    1    1    2    0    0 -0.63009049915E+02  0.33253045818E+03 -0.76315248028E+02  0.37916001383E+03  0.15294330000E+03 0.  0.
<mgrwt>
<rscale>  0 0.37140046E+03</rscale>
<asrwt>0</asrwt>
<pdfrwt beam="1">  1        2 0.30326083E+00 0.37140046E+03</pdfrwt>
<pdfrwt beam="2">  1       -2 0.26338739E-01 0.37140046E+03</pdfrwt>
<totfact> 0.98066373E+01</totfact>
</mgrwt>
</event>
<event>
 4    1  0.3365401E-008  0.1139836E+04  0.7818608E-02  0.9167212E-01
         -2   -1    0    0    0  501 -0.00000000000E+00  0.00000000000E+00  0.12984197517E+04  0.12984197517E+04  0.25500000000E-02 0.  1.
          2   -1    0    0  501    0  0.00000000000E+00 -0.00000000000E+00 -0.17301385956E+04  0.17301385956E+04  0.25500000000E-02 0. -1.
    8880022    1    1    2    0    0 -0.59806230713E+03 -0.95820428974E+03 -0.11991536440E+04  0.16544470675E+04  0.15294330000E+03 0.  0.
    8880022    1    1    2    0    0  0.59806230713E+03  0.95820428974E+03  0.76743480008E+03  0.13741112799E+04  0.15294330000E+03 0.  0.
<mgrwt>
<rscale>  0 0.11398358E+04</rscale>
<asrwt>0</asrwt>
<pdfrwt beam="1">  1        2 0.26617517E+00 0.11398358E+04</pdfrwt>
<pdfrwt beam="2">  1       -2 0.19975688E+00 0.11398358E+04</pdfrwt>
<totfact> 0.12309603E+00</totfact>
</mgrwt>
</event>
<event>
 4    1  0.3365401E-008  0.4555649E+03  0.7818608E-02  0.1026075E+00
          2   -1    0    0  501    0  0.00000000000E+00  0.00000000000E+00  0.97312094459E+03  0.97312094460E+03  0.25500000000E-02 0. -1.
         -2   -1    0    0    0  501 -0.00000000000E+00 -0.00000000000E+00 -0.39366581669E+03  0.39366581670E+03  0.25500000000E-02 0.  1.
    8880022    1    1    2    0    0 -0.32468073603E+03 -0.28058897099E+03  0.75234052469E+03  0.87952013569E+03  0.15294330000E+03 0.  0.
    8880022    1    1    2    0    0  0.32468073603E+03  0.28058897099E+03 -0.17288539679E+03  0.48726662560E+03  0.15294330000E+03 0.  0.
<mgrwt>
<rscale>  0 0.45556493E+03</rscale>
<asrwt>0</asrwt>
<pdfrwt beam="1">  1        2 0.14971092E+00 0.45556493E+03</pdfrwt>
<pdfrwt beam="2">  1       -2 0.60563971E-01 0.45556493E+03</pdfrwt>
<totfact> 0.69587753E+01</totfact>
</mgrwt>
</event>
<event>
 4    1  0.3365401E-008  0.4005942E+03  0.7818608E-02  0.1043574E+00
          2   -1    0    0  501    0  0.00000000000E+00  0.00000000000E+00  0.66883084520E+03  0.66883084521E+03  0.25500000000E-02 0. -1.
         -2   -1    0    0    0  501 -0.00000000000E+00 -0.00000000000E+00 -0.59377847517E+03  0.59377847517E+03  0.25500000000E-02 0.  1.
    8880022    1    1    2    0    0  0.67662941592E+02 -0.36401339782E+03  0.52486678531E+03  0.66027329402E+03  0.15294330000E+03 0.  0.
    8880022    1    1    2    0    0 -0.67662941592E+02  0.36401339782E+03 -0.44981441527E+03  0.60233602637E+03  0.15294330000E+03 0.  0.
<mgrwt>
<rscale>  0 0.40059416E+03</rscale>
<asrwt>0</asrwt>
<pdfrwt beam="1">  1        2 0.10289705E+00 0.40059416E+03</pdfrwt>
<pdfrwt beam="2">  1       -2 0.91350535E-01 0.40059416E+03</pdfrwt>
<totfact> 0.46490239E+01</totfact>
</mgrwt>
</event>
<event>
 4    1  0.3365401E-008  0.5278255E+03  0.7818608E-02  0.1006761E+00
         -2   -1    0    0    0  501 -0.00000000000E+00  0.00000000000E+00  0.10057148181E+03  0.10057148184E+03  0.25500000000E-02 0.  1.
          2   -1    0    0  501    0  0.00000000000E+00 -0.00000000000E+00 -0.31104991229E+04  0.31104991229E+04  0.25500000000E-02 0. -1.
    8880022    1    1    2    0    0  0.12105700452E+03  0.49046233789E+03 -0.20360396881E+04  0.21033443293E+04  0.15294330000E+03 0.  0.
    8880022    1    1    2    0    0 -0.12105700452E+03 -0.49046233789E+03 -0.97388795304E+03  0.11077262755E+04  0.15294330000E+03 0.  0.
<mgrwt>
<rscale>  0 0.52782550E+03</rscale>
<asrwt>0</asrwt>
<pdfrwt beam="1">  1        2 0.47853825E+00 0.52782550E+03</pdfrwt>
<pdfrwt beam="2">  1       -2 0.15472538E-01 0.52782550E+03</pdfrwt>
<totfact> 0.54242330E+01</totfact>
</mgrwt>
</event>
<event>
 4    1  0.3365401E-008  0.2729179E+03  0.7818608E-02  0.1099621E+00
          2   -1    0    0  501    0  0.00000000000E+00  0.00000000000E+00  0.14670985978E+04  0.14670985978E+04  0.25500000000E-02 0. -1.
         -2   -1    0    0    0  501 -0.00000000000E+00 -0.00000000000E+00 -0.90566196447E+02  0.90566196483E+02  0.25500000000E-02 0.  1.
    8880022    1    1    2    0    0  0.17287244236E+03 -0.14562844185E+03  0.17198859969E+03  0.32258991900E+03  0.15294330000E+03 0.  1.
    8880022    1    1    2    0    0 -0.17287244236E+03  0.14562844185E+03  0.12045438017E+04  0.12350748753E+04  0.15294330000E+03 0.  0.
<mgrwt>
<rscale>  0 0.27291790E+03</rscale>
<asrwt>0</asrwt>
<pdfrwt beam="1">  1        2 0.22570748E+00 0.27291790E+03</pdfrwt>
<pdfrwt beam="2">  1       -2 0.13933261E-01 0.27291790E+03</pdfrwt>
<totfact> 0.55196384E+02</totfact>
</mgrwt>
</event>
<event>
 4    1  0.3365401E-008  0.1687896E+04  0.7818608E-02  0.8768298E-01
         -2   -1    0    0    0  501 -0.00000000000E+00  0.00000000000E+00  0.26068358273E+04  0.26068358273E+04  0.25500000000E-02 0.  1.
          2   -1    0    0  501    0  0.00000000000E+00 -0.00000000000E+00 -0.23570629805E+04  0.23570629805E+04  0.25500000000E-02 0. -1.
    8880022    1    1    2    0    0 -0.16668888839E+04 -0.21698648544E+03  0.19425354161E+04  0.25734096413E+04  0.15294330000E+03 0.  0.
    8880022    1    1    2    0    0  0.16668888839E+04  0.21698648544E+03 -0.16927625693E+04  0.23904891665E+04  0.15294330000E+03 0.  0.
<mgrwt>
<rscale>  0 0.16878961E+04</rscale>
<asrwt>0</asrwt>
<pdfrwt beam="1">  1        2 0.36262507E+00 0.16878961E+04</pdfrwt>
<pdfrwt beam="2">  1       -2 0.40105167E+00 0.16878961E+04</pdfrwt>
<totfact> 0.28145541E-02</totfact>
</mgrwt>
</event>
<event>
 4    1  0.3365401E-008  0.8336404E+03  0.7818608E-02  0.9512561E-01
         -2   -1    0    0    0  501 -0.00000000000E+00  0.00000000000E+00  0.12817177453E+04  0.12817177453E+04  0.25500000000E-02 0.  1.
          2   -1    0    0  501    0  0.00000000000E+00 -0.00000000000E+00 -0.20038609443E+04  0.20038609443E+04  0.25500000000E-02 0. -1.
    8880022    1    1    2    0    0 -0.80869427451E+03  0.13258271547E+03  0.10419694480E+04  0.13344124511E+04  0.15294330000E+03 0.  0.
    8880022    1    1    2    0    0  0.80869427451E+03 -0.13258271547E+03 -0.17641126470E+04  0.19511662385E+04  0.15294330000E+03 0.  0.
<mgrwt>
<rscale>  0 0.83364037E+03</rscale>
<asrwt>0</asrwt>
<pdfrwt beam="1">  1        2 0.30828630E+00 0.83364037E+03</pdfrwt>
<pdfrwt beam="2">  1       -2 0.19718735E+00 0.83364037E+03</pdfrwt>
<totfact> 0.94736985E-01</totfact>
</mgrwt>
</event>
<event>
 4    1  0.3365401E-008  0.4944124E+03  0.7818608E-02  0.1015248E+00
         -2   -1    0    0    0  501 -0.00000000000E+00  0.00000000000E+00  0.31725127986E+03  0.31725127987E+03  0.25500000000E-02 0.  1.
          2   -1    0    0  501    0  0.00000000000E+00 -0.00000000000E+00 -0.15733555465E+04  0.15733555465E+04  0.25500000000E-02 0. -1.
    8880022    1    1    2    0    0 -0.31347274310E+03 -0.35040952721E+03 -0.13033185977E+04  0.13939451272E+04  0.15294330000E+03 0.  0.
    8880022    1    1    2    0    0  0.31347274310E+03  0.35040952721E+03  0.47214331023E+02  0.49666169924E+03  0.15294330000E+03 0.  0.
<mgrwt>
<rscale>  0 0.49441243E+03</rscale>
<asrwt>0</asrwt>
<pdfrwt beam="1">  1        2 0.24205470E+00 0.49441243E+03</pdfrwt>
<pdfrwt beam="2">  1       -2 0.48807890E-01 0.49441243E+03</pdfrwt>
<totfact> 0.48558275E+01</totfact>
</mgrwt>
</event>
<event>
 4    1  0.3365401E-008  0.1996338E+03  0.7818608E-02  0.1150048E+00
          2   -1    0    0  501    0  0.00000000000E+00  0.00000000000E+00  0.84432316665E+03  0.84432316665E+03  0.25500000000E-02 0. -1.
         -2   -1    0    0    0  501 -0.00000000000E+00 -0.00000000000E+00 -0.11298895408E+03  0.11298895410E+03  0.25500000000E-02 0.  1.
    8880022    1    1    2    0    0  0.11647776820E+03  0.53804513446E+02  0.42922005053E+00  0.19963424906E+03  0.15294330000E+03 0.  0.
    8880022    1    1    2    0    0 -0.11647776820E+03 -0.53804513446E+02  0.73090499252E+03  0.75767787170E+03  0.15294330000E+03 0. -1.
<mgrwt>
<rscale>  0 0.19963379E+03</rscale>
<asrwt>0</asrwt>
<pdfrwt beam="1">  1        2 0.12989587E+00 0.19963379E+03</pdfrwt>
<pdfrwt beam="2">  1       -2 0.17382916E-01 0.19963379E+03</pdfrwt>
<totfact> 0.88769267E+02</totfact>
</mgrwt>
</event>
<event>
 4    1  0.3365401E-008  0.3475447E+03  0.7818608E-02  0.1063627E+00
          2   -1    0    0  501    0  0.00000000000E+00  0.00000000000E+00  0.33475133681E+04  0.33475133681E+04  0.25500000000E-02 0. -1.
         -2   -1    0    0    0  501 -0.00000000000E+00 -0.00000000000E+00 -0.70406292949E+02  0.70406292995E+02  0.25500000000E-02 0.  1.
    8880022    1    1    2    0    0 -0.30884099627E+03 -0.44865602490E+02  0.28317788493E+04  0.28530262508E+04  0.15294330000E+03 0.  0.
    8880022    1    1    2    0    0  0.30884099627E+03  0.44865602490E+02  0.44532822584E+03  0.56489341031E+03  0.15294330000E+03 0.  0.
<mgrwt>
<rscale>  0 0.34754473E+03</rscale>
<asrwt>0</asrwt>
<pdfrwt beam="1">  1        2 0.51500212E+00 0.34754473E+03</pdfrwt>
<pdfrwt beam="2">  1       -2 0.10831736E-01 0.34754473E+03</pdfrwt>
<totfact> 0.72540158E+01</totfact>
</mgrwt>
</event>
<event>
 4    1  0.3365401E-008  0.2639320E+03  0.7818608E-02  0.1104804E+00
          2   -1    0    0  501    0  0.00000000000E+00  0.00000000000E+00  0.78016761476E+03  0.78016761477E+03  0.25500000000E-02 0. -1.
         -2   -1    0    0    0  501 -0.00000000000E+00 -0.00000000000E+00 -0.15479980598E+03  0.15479980600E+03  0.25500000000E-02 0.  1.
    8880022    1    1    2    0    0  0.21426713995E+03 -0.18922076075E+02  0.61679967439E+03  0.67089637319E+03  0.15294330000E+03 0.  0.
    8880022    1    1    2    0    0 -0.21426713995E+03  0.18922076075E+02  0.85681343960E+01  0.26407104757E+03  0.15294330000E+03 0.  1.
<mgrwt>
<rscale>  0 0.26393201E+03</rscale>
<asrwt>0</asrwt>
<pdfrwt beam="1">  1        2 0.12002579E+00 0.26393201E+03</pdfrwt>
<pdfrwt beam="2">  1       -2 0.23815354E-01 0.26393201E+03</pdfrwt>
<totfact> 0.57054237E+02</totfact>
</mgrwt>
</event>
<event>
 4    1  0.3365401E-008  0.4088422E+03  0.7818608E-02  0.1040760E+00
          2   -1    0    0  501    0  0.00000000000E+00  0.00000000000E+00  0.91709789075E+03  0.91709789075E+03  0.25500000000E-02 0. -1.
         -2   -1    0    0    0  501 -0.00000000000E+00 -0.00000000000E+00 -0.66351692550E+03  0.66351692551E+03  0.25500000000E-02 0.  1.
    8880022    1    1    2    0    0 -0.27967989428E+03 -0.25600671352E+03  0.79985659247E+03  0.89828865192E+03  0.15294330000E+03 0. -1.
    8880022    1    1    2    0    0  0.27967989428E+03  0.25600671352E+03 -0.54627562723E+03  0.68232616434E+03  0.15294330000E+03 0.  0.
<mgrwt>
<rscale>  0 0.40884219E+03</rscale>
<asrwt>0</asrwt>
<pdfrwt beam="1">  1        2 0.14109198E+00 0.40884219E+03</pdfrwt>
<pdfrwt beam="2">  1       -2 0.10207953E+00 0.40884219E+03</pdfrwt>
<totfact> 0.23857698E+01</totfact>
</mgrwt>
</event>
<event>
 4    1  0.3365401E-008  0.6525322E+03  0.7818608E-02  0.9802039E-01
          2   -1    0    0  501    0  0.00000000000E+00  0.00000000000E+00  0.12819439065E+04  0.12819439065E+04  0.25500000000E-02 0. -1.
         -2   -1    0    0    0  501 -0.00000000000E+00 -0.00000000000E+00 -0.34161285013E+03  0.34161285014E+03  0.25500000000E-02 0.  1.
    8880022    1    1    2    0    0 -0.52913584980E+03  0.34988840940E+03  0.33506095024E+03  0.73352855430E+03  0.15294330000E+03 0.  0.
    8880022    1    1    2    0    0  0.52913584980E+03 -0.34988840940E+03  0.60527010609E+03  0.89002820231E+03  0.15294330000E+03 0.  0.
<mgrwt>
<rscale>  0 0.65253222E+03</rscale>
<asrwt>0</asrwt>
<pdfrwt beam="1">  1        2 0.19722214E+00 0.65253222E+03</pdfrwt>
<pdfrwt beam="2">  1       -2 0.52555823E-01 0.65253222E+03</pdfrwt>
<totfact> 0.59497886E+01</totfact>
</mgrwt>
</event>
<event>
 4    1  0.3365401E-008  0.4285095E+03  0.7818608E-02  0.1034332E+00
          2   -1    0    0  501    0  0.00000000000E+00  0.00000000000E+00  0.10603243600E+04  0.10603243600E+04  0.25500000000E-02 0. -1.
         -2   -1    0    0    0  501 -0.00000000000E+00 -0.00000000000E+00 -0.22778469803E+03  0.22778469804E+03  0.25500000000E-02 0.  1.
    8880022    1    1    2    0    0 -0.25130714850E+03 -0.31156608077E+03  0.73162516051E+03  0.84787719281E+03  0.15294330000E+03 0.  0.
    8880022    1    1    2    0    0  0.25130714850E+03  0.31156608077E+03  0.10091450150E+03  0.44023186528E+03  0.15294330000E+03 0.  0.
<mgrwt>
<rscale>  0 0.42850946E+03</rscale>
<asrwt>0</asrwt>
<pdfrwt beam="1">  1        2 0.16312683E+00 0.42850946E+03</pdfrwt>
<pdfrwt beam="2">  1       -2 0.35043799E-01 0.42850946E+03</pdfrwt>
<totfact> 0.18293644E+02</totfact>
</mgrwt>
</event>
<event>
 4    1  0.3365401E-008  0.2053814E+03  0.7818608E-02  0.1145277E+00
         -2   -1    0    0    0  501 -0.00000000000E+00  0.00000000000E+00  0.61257587663E+02  0.61257587716E+02  0.25500000000E-02 0.  1.
          2   -1    0    0  501    0  0.00000000000E+00 -0.00000000000E+00 -0.25651978394E+04  0.25651978394E+04  0.25500000000E-02 0. -1.
    8880022    1    1    2    0    0  0.13804948511E+02 -0.13637920436E+03 -0.12874689416E+03  0.24239900940E+03  0.15294330000E+03 0.  0.
    8880022    1    1    2    0    0 -0.13804948511E+02  0.13637920436E+03 -0.23751933576E+04  0.23840564177E+04  0.15294330000E+03 0. -1.
<mgrwt>
<rscale>  0 0.20538139E+03</rscale>
<asrwt>0</asrwt>
<pdfrwt beam="1">  1        2 0.39464574E+00 0.20538139E+03</pdfrwt>
<pdfrwt beam="2">  1       -2 0.94242462E-02 0.20538139E+03</pdfrwt>
<totfact> 0.27528263E+02</totfact>
</mgrwt>
</event>
<event>
 4    1  0.3365401E-008  0.5126926E+03  0.7818608E-02  0.1010518E+00
          2   -1    0    0  501    0  0.00000000000E+00  0.00000000000E+00  0.17710583395E+04  0.17710583395E+04  0.25500000000E-02 0. -1.
         -2   -1    0    0    0  501 -0.00000000000E+00 -0.00000000000E+00 -0.39954801084E+03  0.39954801084E+03  0.25500000000E-02 0.  1.
    8880022    1    1    2    0    0 -0.27277427039E+03 -0.40627111619E+03  0.15461890135E+04  0.16289733396E+04  0.15294330000E+03 0.  0.
    8880022    1    1    2    0    0  0.27277427039E+03  0.40627111619E+03 -0.17467868485E+03  0.54163301080E+03  0.15294330000E+03 0.  1.
<mgrwt>
<rscale>  0 0.51269257E+03</rscale>
<asrwt>0</asrwt>
<pdfrwt beam="1">  1        2 0.27247051E+00 0.51269257E+03</pdfrwt>
<pdfrwt beam="2">  1       -2 0.61468926E-01 0.51269257E+03</pdfrwt>
<totfact> 0.23520923E+01</totfact>
</mgrwt>
</event>
<event>
 4    1  0.3365401E-008  0.3377958E+03  0.7818608E-02  0.1067739E+00
         -2   -1    0    0    0  501 -0.00000000000E+00  0.00000000000E+00  0.18291889531E+03  0.18291889532E+03  0.25500000000E-02 0.  1.
          2   -1    0    0  501    0  0.00000000000E+00 -0.00000000000E+00 -0.21632956697E+04  0.21632956697E+04  0.25500000000E-02 0. -1.
    8880022    1    1    2    0    0 -0.15350181763E+03 -0.25913615957E+03 -0.56921984262E+00  0.33779629104E+03  0.15294330000E+03 0.  0.
    8880022    1    1    2    0    0  0.15350181763E+03  0.25913615957E+03 -0.19798075546E+04  0.20084182740E+04  0.15294330000E+03 0.  0.
<mgrwt>
<rscale>  0 0.33779581E+03</rscale>
<asrwt>0</asrwt>
<pdfrwt beam="1">  1        2 0.33281470E+00 0.33779581E+03</pdfrwt>
<pdfrwt beam="2">  1       -2 0.28141370E-01 0.33779581E+03</pdfrwt>
<totfact> 0.69291930E+01</totfact>
</mgrwt>
</event>
<event>
 4    1  0.3365401E-008  0.3120150E+03  0.7818608E-02  0.1079384E+00
          2   -1    0    0  501    0  0.00000000000E+00  0.00000000000E+00  0.17789334514E+04  0.17789334514E+04  0.25500000000E-02 0. -1.
         -2   -1    0    0    0  501 -0.00000000000E+00 -0.00000000000E+00 -0.12743868566E+03  0.12743868568E+03  0.25500000000E-02 0.  1.
    8880022    1    1    2    0    0  0.11572368188E+03  0.24610925683E+03  0.10574652504E+03  0.32944759434E+03  0.15294330000E+03 0.  1.
    8880022    1    1    2    0    0 -0.11572368188E+03 -0.24610925683E+03  0.15457482407E+04  0.15769245428E+04  0.15294330000E+03 0. -1.
<mgrwt>
<rscale>  0 0.31201505E+03</rscale>
<asrwt>0</asrwt>
<pdfrwt beam="1">  1        2 0.27368207E+00 0.31201505E+03</pdfrwt>
<pdfrwt beam="2">  1       -2 0.19605952E-01 0.31201505E+03</pdfrwt>
<totfact> 0.21081179E+02</totfact>
</mgrwt>
</event>
<event>
 4    1  0.3365401E-008  0.5500112E+03  0.7818608E-02  0.1001491E+00
          2   -1    0    0  501    0  0.00000000000E+00  0.00000000000E+00  0.11524683666E+04  0.11524683666E+04  0.25500000000E-02 0. -1.
         -2   -1    0    0    0  501 -0.00000000000E+00 -0.00000000000E+00 -0.32162424897E+03  0.32162424898E+03  0.25500000000E-02 0.  1.
    8880022    1    1    2    0    0 -0.42577420882E+03  0.31278896646E+03  0.99385568717E+02  0.55891838288E+03  0.15294330000E+03 0.  0.
    8880022    1    1    2    0    0  0.42577420882E+03 -0.31278896646E+03  0.73145854894E+03  0.91517423274E+03  0.15294330000E+03 0.  0.
<mgrwt>
<rscale>  0 0.55001115E+03</rscale>
<asrwt>0</asrwt>
<pdfrwt beam="1">  1        2 0.17730282E+00 0.55001115E+03</pdfrwt>
<pdfrwt beam="2">  1       -2 0.49480654E-01 0.55001115E+03</pdfrwt>
<totfact> 0.80997408E+01</totfact>
</mgrwt>
</event>
<event>
 4    1  0.3365401E-008  0.5071034E+03  0.7818608E-02  0.1011941E+00
          2   -1    0    0  501    0  0.00000000000E+00  0.00000000000E+00  0.14505997277E+04  0.14505997277E+04  0.25500000000E-02 0. -1.
         -2   -1    0    0    0  501 -0.00000000000E+00 -0.00000000000E+00 -0.29595961562E+03  0.29595961563E+03  0.25500000000E-02 0.  1.
    8880022    1    1    2    0    0  0.45547848871E+03  0.16217758531E+03  0.11303336909E+04  0.12388737339E+04  0.15294330000E+03 0. -1.
    8880022    1    1    2    0    0 -0.45547848871E+03 -0.16217758531E+03  0.24306421180E+02  0.50768560939E+03  0.15294330000E+03 0.  0.
<mgrwt>
<rscale>  0 0.50710342E+03</rscale>
<asrwt>0</asrwt>
<pdfrwt beam="1">  1        2 0.22316919E+00 0.50710342E+03</pdfrwt>
<pdfrwt beam="2">  1       -2 0.45532249E-01 0.50710342E+03</pdfrwt>
<totfact> 0.65022685E+01</totfact>
</mgrwt>
</event>
<event>
 4    1  0.3365401E-008  0.8379755E+03  0.7818608E-02  0.9506619E-01
         -2   -1    0    0    0  501 -0.00000000000E+00  0.00000000000E+00  0.74854167587E+03  0.74854167588E+03  0.25500000000E-02 0.  1.
          2   -1    0    0  501    0  0.00000000000E+00 -0.00000000000E+00 -0.13950752902E+04  0.13950752902E+04  0.25500000000E-02 0. -1.
    8880022    1    1    2    0    0  0.35712266924E+03 -0.74247872608E+03  0.29016640550E+03  0.88679166407E+03  0.15294330000E+03 0.  0.
    8880022    1    1    2    0    0 -0.35712266924E+03  0.74247872608E+03 -0.93670001978E+03  0.12568253020E+04  0.15294330000E+03 0.  0.
<mgrwt>
<rscale>  0 0.83797548E+03</rscale>
<asrwt>0</asrwt>
<pdfrwt beam="1">  1        2 0.21462697E+00 0.83797548E+03</pdfrwt>
<pdfrwt beam="2">  1       -2 0.11516026E+00 0.83797548E+03</pdfrwt>
<totfact> 0.86579584E+00</totfact>
</mgrwt>
</event>
<event>
 4    1  0.4120086E-008  0.5729783E+03  0.7818608E-02  0.9963110E-01
         -2   -1    0    0    0  501 -0.00000000000E+00  0.00000000000E+00  0.19140184512E+04  0.19140184512E+04  0.25500000000E-02 0.  1.
          2   -1    0    0  501    0  0.00000000000E+00 -0.00000000000E+00 -0.85562672834E+03  0.85562672834E+03  0.25500000000E-02 0. -1.
    8880022    1    1    2    0    0 -0.54495532251E+03 -0.89085440506E+02 -0.70906445223E+03  0.91163401082E+03  0.15294330000E+03 0.  0.
    8880022    1    1    2    0    0  0.54495532251E+03  0.89085440506E+02  0.17674561751E+04  0.18580111687E+04  0.15294330000E+03 0.  0.
<mgrwt>
<rscale>  0 0.57297833E+03</rscale>
<asrwt>0</asrwt>
<pdfrwt beam="1">  1        2 0.13163488E+00 0.57297833E+03</pdfrwt>
<pdfrwt beam="2">  1       -2 0.29446437E+00 0.57297833E+03</pdfrwt>
<totfact> 0.11700165E+00</totfact>
</mgrwt>
</event>
<event>
 4    1  0.3365401E-008  0.5939429E+03  0.7818608E-02  0.9918053E-01
         -2   -1    0    0    0  501 -0.00000000000E+00  0.00000000000E+00  0.18247899999E+04  0.18247899999E+04  0.25500000000E-02 0.  1.
          2   -1    0    0  501    0  0.00000000000E+00 -0.00000000000E+00 -0.50126395784E+03  0.50126395785E+03  0.25500000000E-02 0. -1.
    8880022    1    1    2    0    0 -0.37938673775E+03  0.43063001152E+03 -0.24981215197E+03  0.64434018025E+03  0.15294330000E+03 0.  0.
    8880022    1    1    2    0    0  0.37938673775E+03 -0.43063001152E+03  0.15733381940E+04  0.16817137775E+04  0.15294330000E+03 0.  0.
<mgrwt>
<rscale>  0 0.59394289E+03</rscale>
<asrwt>0</asrwt>
<pdfrwt beam="1">  1        2 0.77117531E-01 0.59394289E+03</pdfrwt>
<pdfrwt beam="2">  1       -2 0.28073693E+00 0.59394289E+03</pdfrwt>
<totfact> 0.27225895E+00</totfact>
</mgrwt>
</event>
<event>
 4    1  0.3365401E-008  0.3873077E+03  0.7818608E-02  0.1048265E+00
          2   -1    0    0  501    0  0.00000000000E+00  0.00000000000E+00  0.13499735749E+04  0.13499735749E+04  0.25500000000E-02 0. -1.
         -2   -1    0    0    0  501 -0.00000000000E+00 -0.00000000000E+00 -0.12284240290E+03  0.12284240293E+03  0.25500000000E-02 0.  1.
    8880022    1    1    2    0    0  0.42671463470E+02 -0.35326299328E+03  0.84106357270E+03  0.92595636105E+03  0.15294330000E+03 0.  0.
    8880022    1    1    2    0    0 -0.42671463470E+02  0.35326299328E+03  0.38606759925E+03  0.54685961674E+03  0.15294330000E+03 0.  0.
<mgrwt>
<rscale>  0 0.38730769E+03</rscale>
<asrwt>0</asrwt>
<pdfrwt beam="1">  1        2 0.20768824E+00 0.38730769E+03</pdfrwt>
<pdfrwt beam="2">  1       -2 0.18898832E-01 0.38730769E+03</pdfrwt>
<totfact> 0.37840863E+02</totfact>
</mgrwt>
</event>
<event>
 4    1  0.3365401E-008  0.4213774E+03  0.7818608E-02  0.1036619E+00
         -2   -1    0    0    0  501 -0.00000000000E+00  0.00000000000E+00  0.30205038944E+03  0.30205038945E+03  0.25500000000E-02 0.  1.
          2   -1    0    0  501    0  0.00000000000E+00 -0.00000000000E+00 -0.73488900440E+03  0.73488900441E+03  0.25500000000E-02 0. -1.
    8880022    1    1    2    0    0 -0.22092496139E+03  0.32459121521E+03  0.15499245384E+02  0.42166239478E+03  0.15294330000E+03 0. -1.
    8880022    1    1    2    0    0  0.22092496139E+03 -0.32459121521E+03 -0.44833786035E+03  0.61527699907E+03  0.15294330000E+03 0.  0.
<mgrwt>
<rscale>  0 0.42137744E+03</rscale>
<asrwt>0</asrwt>
<pdfrwt beam="1">  1        2 0.11305985E+00 0.42137744E+03</pdfrwt>
<pdfrwt beam="2">  1       -2 0.46469291E-01 0.42137744E+03</pdfrwt>
<totfact> 0.17459626E+02</totfact>
</mgrwt>
</event>
<event>
 4    1  0.3365401E-008  0.2680949E+03  0.7818608E-02  0.1102375E+00
          2   -1    0    0  501    0  0.00000000000E+00  0.00000000000E+00  0.22295151624E+04  0.22295151624E+04  0.25500000000E-02 0. -1.
         -2   -1    0    0    0  501 -0.00000000000E+00 -0.00000000000E+00 -0.10290252938E+03  0.10290252941E+03  0.25500000000E-02 0.  1.
    8880022    1    1    2    0    0  0.83131313163E+02 -0.20389317023E+03  0.96889807095E+02  0.28506583070E+03  0.15294330000E+03 0.  0.
    8880022    1    1    2    0    0 -0.83131313163E+02  0.20389317023E+03  0.20297228259E+04  0.20473518611E+04  0.15294330000E+03 0. -1.
<mgrwt>
<rscale>  0 0.26809493E+03</rscale>
<asrwt>0</asrwt>
<pdfrwt beam="1">  1        2 0.34300231E+00 0.26809493E+03</pdfrwt>
<pdfrwt beam="2">  1       -2 0.15831159E-01 0.26809493E+03</pdfrwt>
<totfact> 0.17669164E+02</totfact>
</mgrwt>
</event>
<event>
 4    1  0.3365401E-008  0.4430998E+03  0.7818608E-02  0.1029800E+00
         -2   -1    0    0    0  501 -0.00000000000E+00  0.00000000000E+00  0.56810122986E+03  0.56810122987E+03  0.25500000000E-02 0.  1.
          2   -1    0    0  501    0  0.00000000000E+00 -0.00000000000E+00 -0.40106664748E+03  0.40106664749E+03  0.25500000000E-02 0. -1.
    8880022    1    1    2    0    0 -0.18295680079E+03 -0.37346026752E+03  0.26372172190E+03  0.51564189317E+03  0.15294330000E+03 0.  0.
    8880022    1    1    2    0    0  0.18295680079E+03  0.37346026752E+03 -0.96687139516E+02  0.45352598419E+03  0.15294330000E+03 0.  0.
<mgrwt>
<rscale>  0 0.44309978E+03</rscale>
<asrwt>0</asrwt>
<pdfrwt beam="1">  1        2 0.61702561E-01 0.44309978E+03</pdfrwt>
<pdfrwt beam="2">  1       -2 0.87400189E-01 0.44309978E+03</pdfrwt>
<totfact> 0.92369795E+01</totfact>
</mgrwt>
</event>
<event>
 4    1  0.3365401E-008  0.4170183E+03  0.7818608E-02  0.1038041E+00
         -2   -1    0    0    0  501 -0.00000000000E+00  0.00000000000E+00  0.27539637075E+03  0.27539637076E+03  0.25500000000E-02 0.  1.
          2   -1    0    0  501    0  0.00000000000E+00 -0.00000000000E+00 -0.34273150097E+04  0.34273150097E+04  0.25500000000E-02 0. -1.
    8880022    1    1    2    0    0  0.36162088700E+03 -0.14050951115E+03 -0.32480871906E+04  0.32747480269E+04  0.15294330000E+03 0.  0.
    8880022    1    1    2    0    0 -0.36162088700E+03  0.14050951115E+03  0.96168551699E+02  0.42796335355E+03  0.15294330000E+03 0.  0.
<mgrwt>
<rscale>  0 0.41701827E+03</rscale>
<asrwt>0</asrwt>
<pdfrwt beam="1">  1        2 0.52727920E+00 0.41701827E+03</pdfrwt>
<pdfrwt beam="2">  1       -2 0.42368675E-01 0.41701827E+03</pdfrwt>
<totfact> 0.57103412E+00</totfact>
</mgrwt>
</event>
<event>
 4    1  0.3365401E-008  0.4456913E+03  0.7818608E-02  0.1029015E+00
          2   -1    0    0  501    0  0.00000000000E+00  0.00000000000E+00  0.21280438025E+04  0.21280438025E+04  0.25500000000E-02 0. -1.
         -2   -1    0    0    0  501 -0.00000000000E+00 -0.00000000000E+00 -0.13464032027E+03  0.13464032029E+03  0.25500000000E-02 0.  1.
    8880022    1    1    2    0    0  0.18531332479E+03  0.37537722861E+03  0.16232586174E+04  0.16833327906E+04  0.15294330000E+03 0.  0.
    8880022    1    1    2    0    0 -0.18531332479E+03 -0.37537722861E+03  0.37014486492E+03  0.57935133222E+03  0.15294330000E+03 0.  0.
<mgrwt>
<rscale>  0 0.44569131E+03</rscale>
<asrwt>0</asrwt>
<pdfrwt beam="1">  1        2 0.32739134E+00 0.44569131E+03</pdfrwt>
<pdfrwt beam="2">  1       -2 0.20713896E-01 0.44569131E+03</pdfrwt>
<totfact> 0.12181780E+02</totfact>
</mgrwt>
</event>
<event>
 4    1  0.3365401E-008  0.1155562E+04  0.7818608E-02  0.9152668E-01
          2   -1    0    0  501    0  0.00000000000E+00  0.00000000000E+00  0.18426440346E+04  0.18426440346E+04  0.25500000000E-02 0. -1.
         -2   -1    0    0    0  501 -0.00000000000E+00 -0.00000000000E+00 -0.94860477643E+03  0.94860477643E+03  0.25500000000E-02 0.  1.
    8880022    1    1    2    0    0 -0.35929617707E+03 -0.10875835794E+04  0.11250966046E+04  0.16128130107E+04  0.15294330000E+03 0.  0.
    8880022    1    1    2    0    0  0.35929617707E+03  0.10875835794E+04 -0.23105734645E+03  0.11784358003E+04  0.15294330000E+03 0.  0.
<mgrwt>
<rscale>  0 0.11555620E+04</rscale>
<asrwt>0</asrwt>
<pdfrwt beam="1">  1        2 0.28348369E+00 0.11555620E+04</pdfrwt>
<pdfrwt beam="2">  1       -2 0.14593920E+00 0.11555620E+04</pdfrwt>
<totfact> 0.25734639E+00</totfact>
</mgrwt>
</event>
<event>
 4    1  0.3365401E-008  0.2994306E+03  0.7818608E-02  0.1085526E+00
          2   -1    0    0  501    0  0.00000000000E+00  0.00000000000E+00  0.16356458439E+04  0.16356458439E+04  0.25500000000E-02 0. -1.
         -2   -1    0    0    0  501 -0.00000000000E+00 -0.00000000000E+00 -0.30455846171E+03  0.30455846172E+03  0.25500000000E-02 0.  1.
    8880022    1    1    2    0    0  0.23995966913E+03 -0.93200686880E+02  0.15440174742E+04  0.15727837183E+04  0.15294330000E+03 0.  0.
    8880022    1    1    2    0    0 -0.23995966913E+03  0.93200686880E+02 -0.21293009207E+03  0.36742058729E+03  0.15294330000E+03 0.  0.
<mgrwt>
<rscale>  0 0.29943057E+03</rscale>
<asrwt>0</asrwt>
<pdfrwt beam="1">  1        2 0.25163782E+00 0.29943057E+03</pdfrwt>
<pdfrwt beam="2">  1       -2 0.46855148E-01 0.29943057E+03</pdfrwt>
<totfact> 0.50841312E+01</totfact>
</mgrwt>
</event>
<event>
 4    1  0.3365401E-008  0.2483561E+03  0.7818608E-02  0.1114348E+00
          2   -1    0    0  501    0  0.00000000000E+00  0.00000000000E+00  0.11334706426E+04  0.11334706426E+04  0.25500000000E-02 0. -1.
         -2   -1    0    0    0  501 -0.00000000000E+00 -0.00000000000E+00 -0.72466886909E+02  0.72466886954E+02  0.25500000000E-02 0.  1.
    8880022    1    1    2    0    0 -0.19541864353E+03 -0.10033134787E+02  0.22957919824E+03  0.33821202124E+03  0.15294330000E+03 0. -1.
    8880022    1    1    2    0    0  0.19541864353E+03  0.10033134787E+02  0.83142455742E+03  0.86772550828E+03  0.15294330000E+03 0. -1.
<mgrwt>
<rscale>  0 0.24835612E+03</rscale>
<asrwt>0</asrwt>
<pdfrwt beam="1">  1        2 0.17438009E+00 0.24835612E+03</pdfrwt>
<pdfrwt beam="2">  1       -2 0.11148752E-01 0.24835612E+03</pdfrwt>
<totfact> 0.12184489E+03</totfact>
</mgrwt>
</event>
<event>
 4    1  0.3365401E-008  0.4844374E+03  0.7818608E-02  0.1017923E+00
          2   -1    0    0  501    0  0.00000000000E+00  0.00000000000E+00  0.64130836999E+03  0.64130836999E+03  0.25500000000E-02 0. -1.
         -2   -1    0    0    0  501 -0.00000000000E+00 -0.00000000000E+00 -0.58895210654E+03  0.58895210655E+03  0.25500000000E-02 0.  1.
    8880022    1    1    2    0    0 -0.14218238211E+03 -0.43711792571E+03  0.40470137571E+03  0.63123907299E+03  0.15294330000E+03 0.  0.
    8880022    1    1    2    0    0  0.14218238211E+03  0.43711792571E+03 -0.35234511226E+03  0.59902140355E+03  0.15294330000E+03 0.  0.
<mgrwt>
<rscale>  0 0.48443737E+03</rscale>
<asrwt>0</asrwt>
<pdfrwt beam="1">  1        2 0.98662826E-01 0.48443737E+03</pdfrwt>
<pdfrwt beam="2">  1       -2 0.90608017E-01 0.48443737E+03</pdfrwt>
<totfact> 0.49332899E+01</totfact>
</mgrwt>
</event>
<event>
 4    1  0.3365401E-008  0.1184194E+04  0.7818608E-02  0.9126805E-01
         -2   -1    0    0    0  501 -0.00000000000E+00  0.00000000000E+00  0.46065312822E+04  0.46065312822E+04  0.25500000000E-02 0.  1.
          2   -1    0    0  501    0  0.00000000000E+00 -0.00000000000E+00 -0.32452204669E+03  0.32452204670E+03  0.25500000000E-02 0. -1.
    8880022    1    1    2    0    0 -0.93859745359E+03 -0.70566209155E+03  0.15273582987E+04  0.19326508203E+04  0.15294330000E+03 0.  0.
    8880022    1    1    2    0    0  0.93859745359E+03  0.70566209155E+03  0.27546509368E+04  0.29984025086E+04  0.15294330000E+03 0.  0.
<mgrwt>
<rscale>  0 0.11841942E+04</rscale>
<asrwt>0</asrwt>
<pdfrwt beam="1">  1        2 0.49926469E-01 0.11841942E+04</pdfrwt>
<pdfrwt beam="2">  1       -2 0.70869711E+00 0.11841942E+04</pdfrwt>
<totfact> 0.21124185E-02</totfact>
</mgrwt>
</event>
<event>
 4    1  0.3913164E-008  0.7496330E+03  0.7818608E-02  0.9635926E-01
          2   -1    0    0  501    0  0.00000000000E+00  0.00000000000E+00  0.91747652567E+03  0.91747652567E+03  0.25500000000E-02 0. -1.
         -2   -1    0    0    0  501 -0.00000000000E+00 -0.00000000000E+00 -0.17371670494E+04  0.17371670494E+04  0.25500000000E-02 0.  1.
    8880022    1    1    2    0    0 -0.67805780612E+03 -0.28070558148E+03 -0.14778382662E+04  0.16570925158E+04  0.15294330000E+03 0.  0.
    8880022    1    1    2    0    0  0.67805780612E+03  0.28070558148E+03  0.65814774246E+03  0.99755105926E+03  0.15294330000E+03 0. -1.
<mgrwt>
<rscale>  0 0.74963302E+03</rscale>
<asrwt>0</asrwt>
<pdfrwt beam="1">  1        2 0.14115023E+00 0.74963302E+03</pdfrwt>
<pdfrwt beam="2">  1       -2 0.26725647E+00 0.74963302E+03</pdfrwt>
<totfact> 0.14909334E+00</totfact>
</mgrwt>
</event>
<event>
 4    1  0.3365401E-008  0.2649982E+03  0.7818608E-02  0.1104177E+00
         -2   -1    0    0    0  501 -0.00000000000E+00  0.00000000000E+00  0.35298502739E+03  0.35298502740E+03  0.25500000000E-02 0.  1.
          2   -1    0    0  501    0  0.00000000000E+00 -0.00000000000E+00 -0.11536932996E+04  0.11536932996E+04  0.25500000000E-02 0. -1.
    8880022    1    1    2    0    0  0.87501370350E+02 -0.19792904726E+03 -0.10856690217E+04  0.11175425161E+04  0.15294330000E+03 0. -1.
    8880022    1    1    2    0    0 -0.87501370350E+02  0.19792904726E+03  0.28496074950E+03  0.38913581091E+03  0.15294330000E+03 0.  0.
<mgrwt>
<rscale>  0 0.26499821E+03</rscale>
<asrwt>0</asrwt>
<pdfrwt beam="1">  1        2 0.17749127E+00 0.26499821E+03</pdfrwt>
<pdfrwt beam="2">  1       -2 0.54305389E-01 0.26499821E+03</pdfrwt>
<totfact> 0.70133929E+01</totfact>
</mgrwt>
</event>
<event>
 4    1  0.3365401E-008  0.4246538E+03  0.7818608E-02  0.1035562E+00
         -2   -1    0    0    0  501 -0.00000000000E+00  0.00000000000E+00  0.90992608839E+03  0.90992608840E+03  0.25500000000E-02 0.  1.
          2   -1    0    0  501    0  0.00000000000E+00 -0.00000000000E+00 -0.12610030571E+04  0.12610030571E+04  0.25500000000E-02 0. -1.
    8880022    1    1    2    0    0  0.34216941252E+03 -0.19964797593E+03  0.82098532835E+03  0.92430935489E+03  0.15294330000E+03 0.  0.
    8880022    1    1    2    0    0 -0.34216941252E+03  0.19964797593E+03 -0.11720622970E+04  0.12466197906E+04  0.15294330000E+03 0. -1.
<mgrwt>
<rscale>  0 0.42465383E+03</rscale>
<asrwt>0</asrwt>
<pdfrwt beam="1">  1        2 0.19400047E+00 0.42465383E+03</pdfrwt>
<pdfrwt beam="2">  1       -2 0.13998863E+00 0.42465383E+03</pdfrwt>
<totfact> 0.67870417E+00</totfact>
</mgrwt>
</event>
<event>
 4    1  0.3365401E-008  0.2835469E+03  0.7818608E-02  0.1093767E+00
          2   -1    0    0  501    0  0.00000000000E+00  0.00000000000E+00  0.23625079746E+04  0.23625079746E+04  0.25500000000E-02 0. -1.
         -2   -1    0    0    0  501 -0.00000000000E+00 -0.00000000000E+00 -0.23179009891E+03  0.23179009893E+03  0.25500000000E-02 0.  1.
    8880022    1    1    2    0    0  0.16136767914E+02  0.23821587076E+03 -0.13278919725E+03  0.31310033580E+03  0.15294330000E+03 0.  1.
    8880022    1    1    2    0    0 -0.16136767914E+02 -0.23821587076E+03  0.22635070729E+04  0.22811977377E+04  0.15294330000E+03 0.  0.
<mgrwt>
<rscale>  0 0.28354691E+03</rscale>
<asrwt>0</asrwt>
<pdfrwt beam="1">  1        2 0.36346275E+00 0.28354691E+03</pdfrwt>
<pdfrwt beam="2">  1       -2 0.35660017E-01 0.28354691E+03</pdfrwt>
<totfact> 0.35598172E+01</totfact>
</mgrwt>
</event>
<event>
 4    1  0.3365401E-008  0.9463077E+03  0.7818608E-02  0.9369477E-01
          2   -1    0    0  501    0  0.00000000000E+00  0.00000000000E+00  0.90263851260E+03  0.90263851260E+03  0.25500000000E-02 0. -1.
         -2   -1    0    0    0  501 -0.00000000000E+00 -0.00000000000E+00 -0.15943541116E+04  0.15943541116E+04  0.25500000000E-02 0.  1.
    8880022    1    1    2    0    0 -0.35232686032E+03 -0.86485394656E+03 -0.11131990267E+04  0.14610647801E+04  0.15294330000E+03 0.  0.
    8880022    1    1    2    0    0  0.35232686032E+03  0.86485394656E+03  0.42148342775E+03  0.10359278441E+04  0.15294330000E+03 0.  0.
<mgrwt>
<rscale>  0 0.94630768E+03</rscale>
<asrwt>0</asrwt>
<pdfrwt beam="1">  1        2 0.13886746E+00 0.94630768E+03</pdfrwt>
<pdfrwt beam="2">  1       -2 0.24528525E+00 0.94630768E+03</pdfrwt>
<totfact> 0.20126597E+00</totfact>
</mgrwt>
</event>
<event>
 4    1  0.3407411E-008  0.7308093E+03  0.7818608E-02  0.9665948E-01
         -2   -1    0    0    0  501 -0.00000000000E+00  0.00000000000E+00  0.55965837124E+03  0.55965837125E+03  0.25500000000E-02 0.  1.
          2   -1    0    0  501    0  0.00000000000E+00 -0.00000000000E+00 -0.29684844997E+04  0.29684844997E+04  0.25500000000E-02 0. -1.
    8880022    1    1    2    0    0 -0.13822121022E+03  0.70113156872E+03  0.24869646827E+03  0.77196642799E+03  0.15294330000E+03 0.  0.
    8880022    1    1    2    0    0  0.13822121022E+03 -0.70113156872E+03 -0.26575225967E+04  0.27561764430E+04  0.15294330000E+03 0.  0.
<mgrwt>
<rscale>  0 0.73080930E+03</rscale>
<asrwt>0</asrwt>
<pdfrwt beam="1">  1        2 0.45668991E+00 0.73080930E+03</pdfrwt>
<pdfrwt beam="2">  1       -2 0.86101289E-01 0.73080930E+03</pdfrwt>
<totfact> 0.22821251E+00</totfact>
</mgrwt>
</event>
<event>
 4    1  0.3365401E-008  0.1868677E+03  0.7818608E-02  0.1161317E+00
          2   -1    0    0  501    0  0.00000000000E+00  0.00000000000E+00  0.76038631939E+03  0.76038631939E+03  0.25500000000E-02 0. -1.
         -2   -1    0    0    0  501 -0.00000000000E+00 -0.00000000000E+00 -0.19034927250E+03  0.19034927251E+03  0.25500000000E-02 0.  1.
    8880022    1    1    2    0    0 -0.30019935114E+02  0.10308586149E+03  0.69909123284E+03  0.72363533371E+03  0.15294330000E+03 0.  0.
    8880022    1    1    2    0    0  0.30019935114E+02 -0.10308586149E+03 -0.12905418595E+03  0.22710025819E+03  0.15294330000E+03 0.  1.
<mgrwt>
<rscale>  0 0.18686772E+03</rscale>
<asrwt>0</asrwt>
<pdfrwt beam="1">  1        2 0.11698251E+00 0.18686772E+03</pdfrwt>
<pdfrwt beam="2">  1       -2 0.29284503E-01 0.18686772E+03</pdfrwt>
<totfact> 0.41010628E+02</totfact>
</mgrwt>
</event>
<event>
 4    1  0.3365401E-008  0.2227061E+03  0.7818608E-02  0.1131882E+00
         -2   -1    0    0    0  501 -0.00000000000E+00  0.00000000000E+00  0.20857774899E+03  0.20857774901E+03  0.25500000000E-02 0.  1.
          2   -1    0    0  501    0  0.00000000000E+00 -0.00000000000E+00 -0.10832160847E+04  0.10832160847E+04  0.25500000000E-02 0. -1.
    8880022    1    1    2    0    0  0.67864550518E+02  0.14697188777E+03 -0.10079341028E+04  0.10322447102E+04  0.15294330000E+03 0. -1.
    8880022    1    1    2    0    0 -0.67864550518E+02 -0.14697188777E+03  0.13329576709E+03  0.25954912358E+03  0.15294330000E+03 0.  0.
<mgrwt>
<rscale>  0 0.22270605E+03</rscale>
<asrwt>0</asrwt>
<pdfrwt beam="1">  1        2 0.16664863E+00 0.22270605E+03</pdfrwt>
<pdfrwt beam="2">  1       -2 0.32088885E-01 0.22270605E+03</pdfrwt>
<totfact> 0.21496770E+02</totfact>
</mgrwt>
</event>
<event>
 4    1  0.3365401E-008  0.9354947E+03  0.7818608E-02  0.9382268E-01
          2   -1    0    0  501    0  0.00000000000E+00  0.00000000000E+00  0.19279720692E+04  0.19279720692E+04  0.25500000000E-02 0. -1.
         -2   -1    0    0    0  501 -0.00000000000E+00 -0.00000000000E+00 -0.70960879361E+03  0.70960879362E+03  0.25500000000E-02 0.  1.
    8880022    1    1    2    0    0 -0.84730322525E+03  0.36583603719E+03 -0.18244389063E+03  0.95311918870E+03  0.15294330000E+03 0.  0.
    8880022    1    1    2    0    0  0.84730322525E+03 -0.36583603719E+03  0.14008071662E+04  0.16844616741E+04  0.15294330000E+03 0.  0.
<mgrwt>
<rscale>  0 0.93549474E+03</rscale>
<asrwt>0</asrwt>
<pdfrwt beam="1">  1        2 0.29661109E+00 0.93549474E+03</pdfrwt>
<pdfrwt beam="2">  1       -2 0.10917058E+00 0.93549474E+03</pdfrwt>
<totfact> 0.49369860E+00</totfact>
</mgrwt>
</event>
<event>
 4    1  0.3365401E-008  0.1533783E+03  0.7818608E-02  0.1196382E+00
          2   -1    0    0  501    0  0.00000000000E+00  0.00000000000E+00  0.10283283439E+04  0.10283283439E+04  0.25500000000E-02 0. -1.
         -2   -1    0    0    0  501 -0.00000000000E+00 -0.00000000000E+00 -0.66495822833E+03  0.66495822833E+03  0.25500000000E-02 0.  1.
    8880022    1    1    2    0    0 -0.11529949362E+02 -0.55092156855E+00  0.10136371716E+04  0.10251756980E+04  0.15294330000E+03 0. -1.
    8880022    1    1    2    0    0  0.11529949362E+02  0.55092156855E+00 -0.65026705594E+03  0.66811087426E+03  0.15294330000E+03 0.  0.
<mgrwt>
<rscale>  0 0.15337828E+03</rscale>
<asrwt>0</asrwt>
<pdfrwt beam="1">  1        2 0.15820436E+00 0.15337828E+03</pdfrwt>
<pdfrwt beam="2">  1       -2 0.10230127E+00 0.15337828E+03</pdfrwt>
<totfact> 0.21841052E+01</totfact>
</mgrwt>
</event>
<event>
 4    1  0.3365401E-008  0.3093475E+03  0.7818608E-02  0.1080659E+00
         -2   -1    0    0    0  501 -0.00000000000E+00  0.00000000000E+00  0.21989287788E+04  0.21989287788E+04  0.25500000000E-02 0.  1.
          2   -1    0    0  501    0  0.00000000000E+00 -0.00000000000E+00 -0.79559729539E+02  0.79559729579E+02  0.25500000000E-02 0. -1.
    8880022    1    1    2    0    0  0.24933669561E+03  0.10067484600E+03  0.29291452804E+03  0.42602204890E+03  0.15294330000E+03 0.  0.
    8880022    1    1    2    0    0 -0.24933669561E+03 -0.10067484600E+03  0.18264545212E+04  0.18524664595E+04  0.15294330000E+03 0.  1.
<mgrwt>
<rscale>  0 0.30934748E+03</rscale>
<asrwt>0</asrwt>
<pdfrwt beam="1">  1        2 0.12239959E-01 0.30934748E+03</pdfrwt>
<pdfrwt beam="2">  1       -2 0.33829672E+00 0.30934748E+03</pdfrwt>
<totfact> 0.10712973E+01</totfact>
</mgrwt>
</event>
<event>
 4    1  0.3365401E-008  0.7879170E+03  0.7818608E-02  0.9577673E-01
          2   -1    0    0  501    0  0.00000000000E+00  0.00000000000E+00  0.30424594959E+04  0.30424594959E+04  0.25500000000E-02 0. -1.
         -2   -1    0    0    0  501 -0.00000000000E+00 -0.00000000000E+00 -0.63934004307E+03  0.63934004307E+03  0.25500000000E-02 0.  1.
    8880022    1    1    2    0    0  0.73392176724E+02  0.76943818090E+03  0.27205453679E+04  0.28323453670E+04  0.15294330000E+03 0.  0.
    8880022    1    1    2    0    0 -0.73392176724E+02 -0.76943818090E+03 -0.31742591506E+03  0.84945417204E+03  0.15294330000E+03 0.  0.
<mgrwt>
<rscale>  0 0.78791699E+03</rscale>
<asrwt>0</asrwt>
<pdfrwt beam="1">  1        2 0.46807070E+00 0.78791699E+03</pdfrwt>
<pdfrwt beam="2">  1       -2 0.98360004E-01 0.78791699E+03</pdfrwt>
<totfact> 0.14918126E+00</totfact>
</mgrwt>
</event>
<event>
 4    1  0.3365401E-008  0.1938669E+03  0.7818608E-02  0.1155019E+00
         -2   -1    0    0    0  501 -0.00000000000E+00  0.00000000000E+00  0.15861905490E+03  0.15861905492E+03  0.25500000000E-02 0.  1.
          2   -1    0    0  501    0  0.00000000000E+00 -0.00000000000E+00 -0.53648563885E+03  0.53648563886E+03  0.25500000000E-02 0. -1.
    8880022    1    1    2    0    0  0.11788820635E+03 -0.17177996455E+02 -0.44863053701E+03  0.48872663577E+03  0.15294330000E+03 0.  0.
    8880022    1    1    2    0    0 -0.11788820635E+03  0.17177996455E+02  0.70763953055E+02  0.20637805801E+03  0.15294330000E+03 0.  1.
<mgrwt>
<rscale>  0 0.19386688E+03</rscale>
<asrwt>0</asrwt>
<pdfrwt beam="1">  1        2 0.82536251E-01 0.19386688E+03</pdfrwt>
<pdfrwt beam="2">  1       -2 0.24402932E-01 0.19386688E+03</pdfrwt>
<totfact> 0.85414289E+02</totfact>
</mgrwt>
</event>
<event>
 4    1  0.3365401E-008  0.4634491E+03  0.7818608E-02  0.1023786E+00
         -2   -1    0    0    0  501 -0.00000000000E+00  0.00000000000E+00  0.13883848314E+03  0.13883848316E+03  0.25500000000E-02 0.  1.
          2   -1    0    0  501    0  0.00000000000E+00 -0.00000000000E+00 -0.24914462750E+04  0.24914462750E+04  0.25500000000E-02 0. -1.
    8880022    1    1    2    0    0 -0.42802825975E+03  0.90472325160E+02 -0.19860193072E+04  0.20393768103E+04  0.15294330000E+03 0.  0.
    8880022    1    1    2    0    0  0.42802825975E+03 -0.90472325160E+02 -0.36658848469E+03  0.59090794790E+03  0.15294330000E+03 0.  0.
<mgrwt>
<rscale>  0 0.46344912E+03</rscale>
<asrwt>0</asrwt>
<pdfrwt beam="1">  1        2 0.38329939E+00 0.46344912E+03</pdfrwt>
<pdfrwt beam="2">  1       -2 0.21359769E-01 0.46344912E+03</pdfrwt>
<totfact> 0.72775887E+01</totfact>
</mgrwt>
</event>
<event>
 4    1  0.3365401E-008  0.6712063E+03  0.7818608E-02  0.9767781E-01
          2   -1    0    0  501    0  0.00000000000E+00  0.00000000000E+00  0.30538254035E+03  0.30538254037E+03  0.25500000000E-02 0. -1.
         -2   -1    0    0    0  501 -0.00000000000E+00 -0.00000000000E+00 -0.30084609932E+04  0.30084609932E+04  0.25500000000E-02 0.  1.
    8880022    1    1    2    0    0 -0.30803107234E+02  0.65282268852E+03 -0.16868920760E+03  0.69207947219E+03  0.15294330000E+03 0.  0.
    8880022    1    1    2    0    0  0.30803107234E+02 -0.65282268852E+03 -0.25343892453E+04  0.26217640614E+04  0.15294330000E+03 0.  0.
<mgrwt>
<rscale>  0 0.67120634E+03</rscale>
<asrwt>0</asrwt>
<pdfrwt beam="1">  1        2 0.46981931E-01 0.67120634E+03</pdfrwt>
<pdfrwt beam="2">  1       -2 0.46284013E+00 0.67120634E+03</pdfrwt>
<totfact> 0.33224543E-01</totfact>
</mgrwt>
</event>
<event>
 4    1  0.3365401E-008  0.8056820E+03  0.7818608E-02  0.9551829E-01
          2   -1    0    0  501    0  0.00000000000E+00  0.00000000000E+00  0.72356878581E+03  0.72356878581E+03  0.25500000000E-02 0. -1.
         -2   -1    0    0    0  501 -0.00000000000E+00 -0.00000000000E+00 -0.15065851959E+04  0.15065851959E+04  0.25500000000E-02 0.  1.
    8880022    1    1    2    0    0  0.31517849623E+03  0.72553040208E+03 -0.11007342744E+04  0.13640892364E+04  0.15294330000E+03 0.  0.
    8880022    1    1    2    0    0 -0.31517849623E+03 -0.72553040208E+03  0.31771786434E+03  0.86606474536E+03  0.15294330000E+03 0.  0.
<mgrwt>
<rscale>  0 0.80568201E+03</rscale>
<asrwt>0</asrwt>
<pdfrwt beam="1">  1        2 0.11131827E+00 0.80568201E+03</pdfrwt>
<pdfrwt beam="2">  1       -2 0.23178234E+00 0.80568201E+03</pdfrwt>
<totfact> 0.33358253E+00</totfact>
</mgrwt>
</event>
<event>
 4    1  0.3365401E-008  0.4616713E+03  0.7818608E-02  0.1024298E+00
         -2   -1    0    0    0  501 -0.00000000000E+00  0.00000000000E+00  0.17594672902E+03  0.17594672904E+03  0.25500000000E-02 0.  1.
          2   -1    0    0  501    0  0.00000000000E+00 -0.00000000000E+00 -0.13959071420E+04  0.13959071420E+04  0.25500000000E-02 0. -1.
    8880022    1    1    2    0    0 -0.42979265518E+03  0.70901138287E+02 -0.89571994586E+03  0.10076976592E+04  0.15294330000E+03 0.  0.
    8880022    1    1    2    0    0  0.42979265518E+03 -0.70901138287E+02 -0.32424046709E+03  0.56415621185E+03  0.15294330000E+03 0.  0.
<mgrwt>
<rscale>  0 0.46167126E+03</rscale>
<asrwt>0</asrwt>
<pdfrwt beam="1">  1        2 0.21475494E+00 0.46167126E+03</pdfrwt>
<pdfrwt beam="2">  1       -2 0.27068728E-01 0.46167126E+03</pdfrwt>
<totfact> 0.18785779E+02</totfact>
</mgrwt>
</event>
<event>
 4    1  0.3365401E-008  0.3304434E+03  0.7818608E-02  0.1070941E+00
         -2   -1    0    0    0  501 -0.00000000000E+00  0.00000000000E+00  0.23435065205E+03  0.23435065207E+03  0.25500000000E-02 0.  1.
          2   -1    0    0  501    0  0.00000000000E+00 -0.00000000000E+00 -0.11050491545E+04  0.11050491545E+04  0.25500000000E-02 0. -1.
    8880022    1    1    2    0    0  0.83213781261E+02  0.28084984759E+03  0.73955479650E+02  0.33861812749E+03  0.15294330000E+03 0.  1.
    8880022    1    1    2    0    0 -0.83213781261E+02 -0.28084984759E+03 -0.94465398214E+03  0.10007816791E+04  0.15294330000E+03 0.  0.
<mgrwt>
<rscale>  0 0.33044337E+03</rscale>
<asrwt>0</asrwt>
<pdfrwt beam="1">  1        2 0.17000756E+00 0.33044337E+03</pdfrwt>
<pdfrwt beam="2">  1       -2 0.36053947E-01 0.33044337E+03</pdfrwt>
<totfact> 0.16499895E+02</totfact>
</mgrwt>
</event>
<event>
 4    1  0.3365401E-008  0.7195305E+03  0.7818608E-02  0.9684403E-01
          2   -1    0    0  501    0  0.00000000000E+00  0.00000000000E+00  0.81650772972E+03  0.81650772973E+03  0.25500000000E-02 0. -1.
         -2   -1    0    0    0  501 -0.00000000000E+00 -0.00000000000E+00 -0.13339173345E+04  0.13339173345E+04  0.25500000000E-02 0.  1.
    8880022    1    1    2    0    0 -0.53294608940E+03  0.45858580107E+03  0.52010446381E+03  0.88782474478E+03  0.15294330000E+03 0.  0.
    8880022    1    1    2    0    0  0.53294608940E+03 -0.45858580107E+03 -0.10375140686E+04  0.12626003194E+04  0.15294330000E+03 0.  0.
<mgrwt>
<rscale>  0 0.71953049E+03</rscale>
<asrwt>0</asrwt>
<pdfrwt beam="1">  1        2 0.12561657E+00 0.71953049E+03</pdfrwt>
<pdfrwt beam="2">  1       -2 0.20521805E+00 0.71953049E+03</pdfrwt>
<totfact> 0.42336397E+00</totfact>
</mgrwt>
</event>
<event>
 4    1  0.3365401E-008  0.5250672E+03  0.7818608E-02  0.1007435E+00
         -2   -1    0    0    0  501 -0.00000000000E+00  0.00000000000E+00  0.18073693465E+03  0.18073693466E+03  0.25500000000E-02 0.  1.
          2   -1    0    0  501    0  0.00000000000E+00 -0.00000000000E+00 -0.28757751821E+04  0.28757751821E+04  0.25500000000E-02 0. -1.
    8880022    1    1    2    0    0 -0.33423109315E+03 -0.37495802412E+03 -0.30027881483E+03  0.60486607041E+03  0.15294330000E+03 0.  1.
    8880022    1    1    2    0    0  0.33423109315E+03  0.37495802412E+03 -0.23947594326E+04  0.24516460464E+04  0.15294330000E+03 0.  0.
<mgrwt>
<rscale>  0 0.52506723E+03</rscale>
<asrwt>0</asrwt>
<pdfrwt beam="1">  1        2 0.44242692E+00 0.52506723E+03</pdfrwt>
<pdfrwt beam="2">  1       -2 0.27805684E-01 0.52506723E+03</pdfrwt>
<totfact> 0.26985371E+01</totfact>
</mgrwt>
</event>
<event>
 4    1  0.3365401E-008  0.1685432E+03  0.7818608E-02  0.1179376E+00
         -2   -1    0    0    0  501 -0.00000000000E+00  0.00000000000E+00  0.16629187313E+04  0.16629187313E+04  0.25500000000E-02 0.  1.
          2   -1    0    0  501    0  0.00000000000E+00 -0.00000000000E+00 -0.21217426076E+03  0.21217426077E+03  0.25500000000E-02 0. -1.
    8880022    1    1    2    0    0  0.80725617960E+00 -0.70813166269E+02 -0.17364067899E+03  0.24198738520E+03  0.15294330000E+03 0. -1.
    8880022    1    1    2    0    0 -0.80725617960E+00  0.70813166269E+02  0.16243851495E+04  0.16331056069E+04  0.15294330000E+03 0.  0.
<mgrwt>
<rscale>  0 0.16854320E+03</rscale>
<asrwt>0</asrwt>
<pdfrwt beam="1">  1        2 0.32642194E-01 0.16854320E+03</pdfrwt>
<pdfrwt beam="2">  1       -2 0.25583365E+00 0.16854320E+03</pdfrwt>
<totfact> 0.11045787E+01</totfact>
</mgrwt>
</event>
<event>
 4    1  0.3365401E-008  0.6737389E+03  0.7818608E-02  0.9763227E-01
          2   -1    0    0  501    0  0.00000000000E+00  0.00000000000E+00  0.19832689197E+04  0.19832689197E+04  0.25500000000E-02 0. -1.
         -2   -1    0    0    0  501 -0.00000000000E+00 -0.00000000000E+00 -0.27762426610E+03  0.27762426611E+03  0.25500000000E-02 0.  1.
    8880022    1    1    2    0    0 -0.64718474381E+03  0.10809426796E+03  0.13265160683E+04  0.14878067737E+04  0.15294330000E+03 0.  1.
    8880022    1    1    2    0    0  0.64718474381E+03 -0.10809426796E+03  0.37912858530E+03  0.77308641211E+03  0.15294330000E+03 0.  0.
<mgrwt>
<rscale>  0 0.67373891E+03</rscale>
<asrwt>0</asrwt>
<pdfrwt beam="1">  1        2 0.30511829E+00 0.67373891E+03</pdfrwt>
<pdfrwt beam="2">  1       -2 0.42711426E-01 0.67373891E+03</pdfrwt>
<totfact> 0.36955150E+01</totfact>
</mgrwt>
</event>
<event>
 4    1  0.3365401E-008  0.5138826E+03  0.7818608E-02  0.1010218E+00
         -2   -1    0    0    0  501 -0.00000000000E+00  0.00000000000E+00  0.11419231203E+04  0.11419231203E+04  0.25500000000E-02 0.  1.
          2   -1    0    0  501    0  0.00000000000E+00 -0.00000000000E+00 -0.90264467452E+03  0.90264467452E+03  0.25500000000E-02 0. -1.
    8880022    1    1    2    0    0 -0.25011678873E+03 -0.42204887394E+03 -0.76201942213E+03  0.91910223192E+03  0.15294330000E+03 0.  0.
    8880022    1    1    2    0    0  0.25011678873E+03  0.42204887394E+03  0.10012978680E+04  0.11254655630E+04  0.15294330000E+03 0.  1.
<mgrwt>
<rscale>  0 0.51388259E+03</rscale>
<asrwt>0</asrwt>
<pdfrwt beam="1">  1        2 0.13886841E+00 0.51388259E+03</pdfrwt>
<pdfrwt beam="2">  1       -2 0.17568048E+00 0.51388259E+03</pdfrwt>
<totfact> 0.60056770E+00</totfact>
</mgrwt>
</event>
<event>
 4    1  0.3365401E-008  0.6759566E+03  0.7818608E-02  0.9759257E-01
         -2   -1    0    0    0  501 -0.00000000000E+00  0.00000000000E+00  0.20357203857E+03  0.20357203859E+03  0.25500000000E-02 0.  1.
          2   -1    0    0  501    0  0.00000000000E+00 -0.00000000000E+00 -0.24776960359E+04  0.24776960359E+04  0.25500000000E-02 0. -1.
    8880022    1    1    2    0    0  0.36122999329E+03  0.55048943072E+03 -0.72577298097E+03  0.99179826291E+03  0.15294330000E+03 0.  0.
    8880022    1    1    2    0    0 -0.36122999329E+03 -0.55048943072E+03 -0.15483510164E+04  0.16894698116E+04  0.15294330000E+03 0.  0.
<mgrwt>
<rscale>  0 0.67595664E+03</rscale>
<asrwt>0</asrwt>
<pdfrwt beam="1">  1        2 0.38118398E+00 0.67595664E+03</pdfrwt>
<pdfrwt beam="2">  1       -2 0.31318777E-01 0.67595664E+03</pdfrwt>
<totfact> 0.35733225E+01</totfact>
</mgrwt>
</event>
<event>
 4    1  0.3560191E-008  0.8822570E+03  0.7818608E-02  0.9448037E-01
          2   -1    0    0  501    0  0.00000000000E+00  0.00000000000E+00  0.17411638932E+04  0.17411638932E+04  0.25500000000E-02 0. -1.
         -2   -1    0    0    0  501 -0.00000000000E+00 -0.00000000000E+00 -0.13427680138E+04  0.13427680138E+04  0.25500000000E-02 0.  1.
    8880022    1    1    2    0    0  0.72113299227E+03 -0.48471940049E+03  0.14585911109E+04  0.17046598991E+04  0.15294330000E+03 0.  0.
    8880022    1    1    2    0    0 -0.72113299227E+03  0.48471940049E+03 -0.10601952315E+04  0.13792720078E+04  0.15294330000E+03 0.  0.
<mgrwt>
<rscale>  0 0.88225696E+03</rscale>
<asrwt>0</asrwt>
<pdfrwt beam="1">  1        2 0.26787137E+00 0.88225696E+03</pdfrwt>
<pdfrwt beam="2">  1       -2 0.20657969E+00 0.88225696E+03</pdfrwt>
<totfact> 0.11368304E+00</totfact>
</mgrwt>
</event>
<event>
 4    1  0.3365401E-008  0.2613214E+03  0.7818608E-02  0.1106352E+00
          2   -1    0    0  501    0  0.00000000000E+00  0.00000000000E+00  0.35252043540E+04  0.35252043540E+04  0.25500000000E-02 0. -1.
         -2   -1    0    0    0  501 -0.00000000000E+00 -0.00000000000E+00 -0.15251628962E+03  0.15251628964E+03  0.25500000000E-02 0.  1.
    8880022    1    1    2    0    0 -0.20831429270E+03 -0.38760470533E+02 -0.31772197891E+02  0.26324578666E+03  0.15294330000E+03 0.  0.
    8880022    1    1    2    0    0  0.20831429270E+03  0.38760470533E+02  0.34044602622E+04  0.34144748569E+04  0.15294330000E+03 0. -1.
<mgrwt>
<rscale>  0 0.26132140E+03</rscale>
<asrwt>0</asrwt>
<pdfrwt beam="1">  1        2 0.54233906E+00 0.26132140E+03</pdfrwt>
<pdfrwt beam="2">  1       -2 0.23464047E-01 0.26132140E+03</pdfrwt>
<totfact> 0.15747670E+01</totfact>
</mgrwt>
</event>
<event>
 4    1  0.3365401E-008  0.6319335E+03  0.7818608E-02  0.9841283E-01
         -2   -1    0    0    0  501 -0.00000000000E+00  0.00000000000E+00  0.40195874859E+03  0.40195874860E+03  0.25500000000E-02 0.  1.
          2   -1    0    0  501    0  0.00000000000E+00 -0.00000000000E+00 -0.11575295117E+04  0.11575295117E+04  0.25500000000E-02 0. -1.
    8880022    1    1    2    0    0 -0.52951074023E+03  0.30913859311E+03 -0.67132522889E+03  0.92196394166E+03  0.15294330000E+03 0.  0.
    8880022    1    1    2    0    0  0.52951074023E+03 -0.30913859311E+03 -0.84245534178E+02  0.63752431860E+03  0.15294330000E+03 0.  0.
<mgrwt>
<rscale>  0 0.63193350E+03</rscale>
<asrwt>0</asrwt>
<pdfrwt beam="1">  1        2 0.17808146E+00 0.63193350E+03</pdfrwt>
<pdfrwt beam="2">  1       -2 0.61839808E-01 0.63193350E+03</pdfrwt>
<totfact> 0.50235482E+01</totfact>
</mgrwt>
</event>
<event>
 4    1  0.3365401E-008  0.2186807E+03  0.7818608E-02  0.1134870E+00
         -2   -1    0    0    0  501 -0.00000000000E+00  0.00000000000E+00  0.93012930225E+03  0.93012930226E+03  0.25500000000E-02 0.  1.
          2   -1    0    0  501    0  0.00000000000E+00 -0.00000000000E+00 -0.82075462825E+03  0.82075462825E+03  0.25500000000E-02 0. -1.
    8880022    1    1    2    0    0 -0.15318143908E+03 -0.31065053143E+02 -0.79289159595E+03  0.82249518342E+03  0.15294330000E+03 0. -1.
    8880022    1    1    2    0    0  0.15318143908E+03  0.31065053143E+02  0.90226626996E+03  0.92838874709E+03  0.15294330000E+03 0.  0.
<mgrwt>
<rscale>  0 0.21868069E+03</rscale>
<asrwt>0</asrwt>
<pdfrwt beam="1">  1        2 0.12626994E+00 0.21868069E+03</pdfrwt>
<pdfrwt beam="2">  1       -2 0.14309682E+00 0.21868069E+03</pdfrwt>
<totfact> 0.12713966E+01</totfact>
</mgrwt>
</event>
<event>
 4    1  0.3365401E-008  0.2988921E+03  0.7818608E-02  0.1085796E+00
          2   -1    0    0  501    0  0.00000000000E+00  0.00000000000E+00  0.21137399938E+03  0.21137399940E+03  0.25500000000E-02 0. -1.
         -2   -1    0    0    0  501 -0.00000000000E+00 -0.00000000000E+00 -0.13873140166E+04  0.13873140166E+04  0.25500000000E-02 0.  1.
    8880022    1    1    2    0    0 -0.85403253418E+02  0.24217990416E+03  0.78583733282E+02  0.30904996008E+03  0.15294330000E+03 0. -1.
    8880022    1    1    2    0    0  0.85403253418E+02 -0.24217990416E+03 -0.12545237505E+04  0.12896380559E+04  0.15294330000E+03 0.  0.
<mgrwt>
<rscale>  0 0.29889208E+03</rscale>
<asrwt>0</asrwt>
<pdfrwt beam="1">  1        2 0.32519078E-01 0.29889208E+03</pdfrwt>
<pdfrwt beam="2">  1       -2 0.21343292E+00 0.29889208E+03</pdfrwt>
<totfact> 0.19077088E+01</totfact>
</mgrwt>
</event>
<event>
 4    1  0.3365401E-008  0.3205944E+03  0.7818608E-02  0.1075376E+00
          2   -1    0    0  501    0  0.00000000000E+00  0.00000000000E+00  0.22256314804E+04  0.22256314804E+04  0.25500000000E-02 0. -1.
         -2   -1    0    0    0  501 -0.00000000000E+00 -0.00000000000E+00 -0.83445982291E+02  0.83445982330E+02  0.25500000000E-02 0.  1.
    8880022    1    1    2    0    0  0.14026770983E+03 -0.24436463673E+03  0.29955140229E+03  0.43876166849E+03  0.15294330000E+03 0.  0.
    8880022    1    1    2    0    0 -0.14026770983E+03  0.24436463673E+03  0.18426340958E+04  0.18703157943E+04  0.15294330000E+03 0.  0.
<mgrwt>
<rscale>  0 0.32059438E+03</rscale>
<asrwt>0</asrwt>
<pdfrwt beam="1">  1        2 0.34240484E+00 0.32059438E+03</pdfrwt>
<pdfrwt beam="2">  1       -2 0.12837844E-01 0.32059438E+03</pdfrwt>
<totfact> 0.24789649E+02</totfact>
</mgrwt>
</event>
<event>
 4    1  0.3365401E-008  0.3034958E+03  0.7818608E-02  0.1083506E+00
          2   -1    0    0  501    0  0.00000000000E+00  0.00000000000E+00  0.23394428763E+04  0.23394428763E+04  0.25500000000E-02 0. -1.
         -2   -1    0    0    0  501 -0.00000000000E+00 -0.00000000000E+00 -0.81869654456E+02  0.81869654496E+02  0.25500000000E-02 0.  1.
    8880022    1    1    2    0    0 -0.95110164486E+02 -0.24427868358E+03  0.20010334310E+04  0.20239180971E+04  0.15294330000E+03 0.  0.
    8880022    1    1    2    0    0  0.95110164486E+02  0.24427868358E+03  0.25653979077E+03  0.39739443366E+03  0.15294330000E+03 0.  0.
<mgrwt>
<rscale>  0 0.30349575E+03</rscale>
<asrwt>0</asrwt>
<pdfrwt beam="1">  1        2 0.35991434E+00 0.30349575E+03</pdfrwt>
<pdfrwt beam="2">  1       -2 0.12595330E-01 0.30349575E+03</pdfrwt>
<totfact> 0.22293519E+02</totfact>
</mgrwt>
</event>
<event>
 4    1  0.3365401E-008  0.2385895E+03  0.7818608E-02  0.1120736E+00
          2   -1    0    0  501    0  0.00000000000E+00  0.00000000000E+00  0.37457048459E+03  0.37457048460E+03  0.25500000000E-02 0. -1.
         -2   -1    0    0    0  501 -0.00000000000E+00 -0.00000000000E+00 -0.43831730945E+03  0.43831730945E+03  0.25500000000E-02 0.  1.
    8880022    1    1    2    0    0  0.12668526626E+03 -0.13222758840E+03  0.29663755769E+03  0.38068200045E+03  0.15294330000E+03 0.  0.
    8880022    1    1    2    0    0 -0.12668526626E+03  0.13222758840E+03 -0.36038438255E+03  0.43220579360E+03  0.15294330000E+03 0.  1.
<mgrwt>
<rscale>  0 0.23858949E+03</rscale>
<asrwt>0</asrwt>
<pdfrwt beam="1">  1        2 0.57626229E-01 0.23858949E+03</pdfrwt>
<pdfrwt beam="2">  1       -2 0.67433432E-01 0.23858949E+03</pdfrwt>
<totfact> 0.17931702E+02</totfact>
</mgrwt>
</event>
<event>
 4    1  0.3365401E-008  0.3977855E+03  0.7818608E-02  0.1044549E+00
          2   -1    0    0  501    0  0.00000000000E+00  0.00000000000E+00  0.30967207743E+04  0.30967207743E+04  0.25500000000E-02 0. -1.
         -2   -1    0    0    0  501 -0.00000000000E+00 -0.00000000000E+00 -0.18639233519E+03  0.18639233521E+03  0.25500000000E-02 0.  1.
    8880022    1    1    2    0    0 -0.32714199019E+02 -0.36574774070E+03  0.28537308560E+04  0.28813214122E+04  0.15294330000E+03 0. -1.
    8880022    1    1    2    0    0  0.32714199019E+02  0.36574774070E+03  0.56597583127E+02  0.40179169737E+03  0.15294330000E+03 0.  0.
<mgrwt>
<rscale>  0 0.39778547E+03</rscale>
<asrwt>0</asrwt>
<pdfrwt beam="1">  1        2 0.47641855E+00 0.39778547E+03</pdfrwt>
<pdfrwt beam="2">  1       -2 0.28675746E-01 0.39778547E+03</pdfrwt>
<totfact> 0.19451245E+01</totfact>
</mgrwt>
</event>
<event>
 4    1  0.3365401E-008  0.4771578E+03  0.7818608E-02  0.1019919E+00
         -2   -1    0    0    0  501 -0.00000000000E+00  0.00000000000E+00  0.26989982878E+03  0.26989982879E+03  0.25500000000E-02 0.  1.
          2   -1    0    0  501    0  0.00000000000E+00 -0.00000000000E+00 -0.16316678718E+04  0.16316678718E+04  0.25500000000E-02 0. -1.
    8880022    1    1    2    0    0  0.21182862645E+03  0.39927006349E+03 -0.13416623383E+04  0.14239864583E+04  0.15294330000E+03 0.  0.
    8880022    1    1    2    0    0 -0.21182862645E+03 -0.39927006349E+03 -0.20105704758E+02  0.47758124226E+03  0.15294330000E+03 0.  0.
<mgrwt>
<rscale>  0 0.47715784E+03</rscale>
<asrwt>0</asrwt>
<pdfrwt beam="1">  1        2 0.25102582E+00 0.47715784E+03</pdfrwt>
<pdfrwt beam="2">  1       -2 0.41523052E-01 0.47715784E+03</pdfrwt>
<totfact> 0.62362583E+01</totfact>
</mgrwt>
</event>
<event>
 4    1  0.3365401E-008  0.8613379E+03  0.7818608E-02  0.9475245E-01
         -2   -1    0    0    0  501 -0.00000000000E+00  0.00000000000E+00  0.44667215898E+03  0.44667215898E+03  0.25500000000E-02 0.  1.
          2   -1    0    0  501    0  0.00000000000E+00 -0.00000000000E+00 -0.32279634031E+04  0.32279634031E+04  0.25500000000E-02 0. -1.
    8880022    1    1    2    0    0 -0.47527210324E+03  0.70187447319E+03 -0.11051160178E+03  0.86839841972E+03  0.15294330000E+03 0.  0.
    8880022    1    1    2    0    0  0.47527210324E+03 -0.70187447319E+03 -0.26707796423E+04  0.28062371424E+04  0.15294330000E+03 0.  0.
<mgrwt>
<rscale>  0 0.86133791E+03</rscale>
<asrwt>0</asrwt>
<pdfrwt beam="1">  1        2 0.49660974E+00 0.86133791E+03</pdfrwt>
<pdfrwt beam="2">  1       -2 0.68718796E-01 0.86133791E+03</pdfrwt>
<totfact> 0.25322300E+00</totfact>
</mgrwt>
</event>
<event>
 4    1  0.3365401E-008  0.6181495E+03  0.7818608E-02  0.9868451E-01
         -2   -1    0    0    0  501 -0.00000000000E+00  0.00000000000E+00  0.54799476134E+03  0.54799476135E+03  0.25500000000E-02 0.  1.
          2   -1    0    0  501    0  0.00000000000E+00 -0.00000000000E+00 -0.23184040878E+04  0.23184040878E+04  0.25500000000E-02 0. -1.
    8880022    1    1    2    0    0  0.34270512338E+03 -0.49119276628E+03 -0.20836533781E+04  0.21734121074E+04  0.15294330000E+03 0.  0.
    8880022    1    1    2    0    0 -0.34270512338E+03  0.49119276628E+03  0.31324405173E+03  0.69298674172E+03  0.15294330000E+03 0.  0.
<mgrwt>
<rscale>  0 0.61814949E+03</rscale>
<asrwt>0</asrwt>
<pdfrwt beam="1">  1        2 0.35667755E+00 0.61814949E+03</pdfrwt>
<pdfrwt beam="2">  1       -2 0.84306888E-01 0.61814949E+03</pdfrwt>
<totfact> 0.58182210E+00</totfact>
</mgrwt>
</event>
<event>
 4    1  0.3365401E-008  0.3325873E+03  0.7818608E-02  0.1069998E+00
          2   -1    0    0  501    0  0.00000000000E+00  0.00000000000E+00  0.30156295570E+04  0.30156295570E+04  0.25500000000E-02 0. -1.
         -2   -1    0    0    0  501 -0.00000000000E+00 -0.00000000000E+00 -0.29663709779E+03  0.29663709780E+03  0.25500000000E-02 0.  1.
    8880022    1    1    2    0    0  0.83076518300E+02 -0.28340951454E+03  0.29098582541E+04  0.29288034029E+04  0.15294330000E+03 0.  0.
    8880022    1    1    2    0    0 -0.83076518300E+02  0.28340951454E+03 -0.19086579495E+03  0.38346325185E+03  0.15294330000E+03 0.  1.
<mgrwt>
<rscale>  0 0.33258730E+03</rscale>
<asrwt>0</asrwt>
<pdfrwt beam="1">  1        2 0.46394303E+00 0.33258730E+03</pdfrwt>
<pdfrwt beam="2">  1       -2 0.45636474E-01 0.33258730E+03</pdfrwt>
<totfact> 0.92565324E+00</totfact>
</mgrwt>
</event>
<event>
 4    1  0.3365401E-008  0.5376243E+03  0.7818608E-02  0.1004400E+00
          2   -1    0    0  501    0  0.00000000000E+00  0.00000000000E+00  0.13575207951E+04  0.13575207951E+04  0.25500000000E-02 0. -1.
         -2   -1    0    0    0  501 -0.00000000000E+00 -0.00000000000E+00 -0.51847578709E+03  0.51847578710E+03  0.25500000000E-02 0.  1.
    8880022    1    1    2    0    0 -0.20222701147E+03 -0.47408069586E+03  0.11396092980E+04  0.12600592349E+04  0.15294330000E+03 0.  0.
    8880022    1    1    2    0    0  0.20222701147E+03  0.47408069586E+03 -0.30056429000E+03  0.61593734730E+03  0.15294330000E+03 0.  0.
<mgrwt>
<rscale>  0 0.53762433E+03</rscale>
<asrwt>0</asrwt>
<pdfrwt beam="1">  1        2 0.20884935E+00 0.53762433E+03</pdfrwt>
<pdfrwt beam="2">  1       -2 0.79765507E-01 0.53762433E+03</pdfrwt>
<totfact> 0.22398152E+01</totfact>
</mgrwt>
</event>
<event>
 4    1  0.3769027E-008  0.5484013E+03  0.7818608E-02  0.1001865E+00
         -2   -1    0    0    0  501 -0.00000000000E+00  0.00000000000E+00  0.65668091027E+03  0.65668091028E+03  0.25500000000E-02 0.  1.
          2   -1    0    0  501    0  0.00000000000E+00 -0.00000000000E+00 -0.24923901422E+04  0.24923901422E+04  0.25500000000E-02 0. -1.
    8880022    1    1    2    0    0  0.32797197233E+03 -0.41205188060E+03  0.50468427076E+03  0.74528533670E+03  0.15294330000E+03 0.  0.
    8880022    1    1    2    0    0 -0.32797197233E+03  0.41205188060E+03 -0.23403935027E+04  0.24037857158E+04  0.15294330000E+03 0.  0.
<mgrwt>
<rscale>  0 0.54840133E+03</rscale>
<asrwt>0</asrwt>
<pdfrwt beam="1">  1        2 0.38344463E+00 0.54840133E+03</pdfrwt>
<pdfrwt beam="2">  1       -2 0.10102783E+00 0.54840133E+03</pdfrwt>
<totfact> 0.31140605E+00</totfact>
</mgrwt>
</event>
<event>
 4    1  0.3496208E-008  0.5616639E+03  0.7818608E-02  0.9988297E-01
         -2   -1    0    0    0  501 -0.00000000000E+00  0.00000000000E+00  0.60646918368E+03  0.60646918369E+03  0.25500000000E-02 0.  1.
          2   -1    0    0  501    0  0.00000000000E+00 -0.00000000000E+00 -0.27264444008E+04  0.27264444008E+04  0.25500000000E-02 0. -1.
    8880022    1    1    2    0    0  0.34632183275E+03 -0.41489260599E+03 -0.25590703950E+04  0.26199823713E+04  0.15294330000E+03 0.  0.
    8880022    1    1    2    0    0 -0.34632183275E+03  0.41489260599E+03  0.43909517794E+03  0.71293121313E+03  0.15294330000E+03 0.  0.
<mgrwt>
<rscale>  0 0.56166390E+03</rscale>
<asrwt>0</asrwt>
<pdfrwt beam="1">  1        2 0.41945298E+00 0.56166390E+03</pdfrwt>
<pdfrwt beam="2">  1       -2 0.93302952E-01 0.56166390E+03</pdfrwt>
<totfact> 0.27496519E+00</totfact>
</mgrwt>
</event>
<event>
 4    1  0.3365401E-008  0.8675706E+03  0.7818608E-02  0.9467053E-01
          2   -1    0    0  501    0  0.00000000000E+00  0.00000000000E+00  0.23805502826E+04  0.23805502826E+04  0.25500000000E-02 0. -1.
         -2   -1    0    0    0  501 -0.00000000000E+00 -0.00000000000E+00 -0.35738502518E+03  0.35738502519E+03  0.25500000000E-02 0.  1.
    8880022    1    1    2    0    0  0.84626586674E+03  0.11454773372E+03  0.14764276133E+04  0.17124594158E+04  0.15294330000E+03 0.  0.
    8880022    1    1    2    0    0 -0.84626586674E+03 -0.11454773372E+03  0.54673764413E+03  0.10254758920E+04  0.15294330000E+03 0.  0.
<mgrwt>
<rscale>  0 0.86757060E+03</rscale>
<asrwt>0</asrwt>
<pdfrwt beam="1">  1        2 0.36623850E+00 0.86757060E+03</pdfrwt>
<pdfrwt beam="2">  1       -2 0.54982313E-01 0.86757060E+03</pdfrwt>
<totfact> 0.13027575E+01</totfact>
</mgrwt>
</event>
<event>
 4    1  0.3365401E-008  0.3930780E+03  0.7818608E-02  0.1046203E+00
         -2   -1    0    0    0  501 -0.00000000000E+00  0.00000000000E+00  0.80479127780E+03  0.80479127780E+03  0.25500000000E-02 0.  1.
          2   -1    0    0  501    0  0.00000000000E+00 -0.00000000000E+00 -0.32962772937E+03  0.32962772938E+03  0.25500000000E-02 0. -1.
    8880022    1    1    2    0    0 -0.30420108658E+03  0.19641883148E+03  0.60410664470E+03  0.72073237031E+03  0.15294330000E+03 0.  1.
    8880022    1    1    2    0    0  0.30420108658E+03 -0.19641883148E+03 -0.12894309627E+03  0.41368663687E+03  0.15294330000E+03 0.  0.
<mgrwt>
<rscale>  0 0.39307800E+03</rscale>
<asrwt>0</asrwt>
<pdfrwt beam="1">  1        2 0.50711958E-01 0.39307800E+03</pdfrwt>
<pdfrwt beam="2">  1       -2 0.12381404E+00 0.39307800E+03</pdfrwt>
<totfact> 0.50473009E+01</totfact>
</mgrwt>
</event>
<event>
 4    1  0.3365401E-008  0.1984214E+03  0.7818608E-02  0.1151078E+00
          2   -1    0    0  501    0  0.00000000000E+00  0.00000000000E+00  0.36012994208E+03  0.36012994209E+03  0.25500000000E-02 0. -1.
         -2   -1    0    0    0  501 -0.00000000000E+00 -0.00000000000E+00 -0.15828032618E+03  0.15828032620E+03  0.25500000000E-02 0.  1.
    8880022    1    1    2    0    0 -0.51159056370E+02  0.11559479626E+03  0.24508053978E+03  0.31533399748E+03  0.15294330000E+03 0.  0.
    8880022    1    1    2    0    0  0.51159056370E+02 -0.11559479626E+03 -0.43230923884E+02  0.20307627081E+03  0.15294330000E+03 0.  1.
<mgrwt>
<rscale>  0 0.19842142E+03</rscale>
<asrwt>0</asrwt>
<pdfrwt beam="1">  1        2 0.55404606E-01 0.19842142E+03</pdfrwt>
<pdfrwt beam="2">  1       -2 0.24350820E-01 0.19842142E+03</pdfrwt>
<totfact> 0.13272110E+03</totfact>
</mgrwt>
</event>
<event>
 4    1  0.3365401E-008  0.2898890E+03  0.7818608E-02  0.1090407E+00
          2   -1    0    0  501    0  0.00000000000E+00  0.00000000000E+00  0.57656087112E+03  0.57656087112E+03  0.25500000000E-02 0. -1.
         -2   -1    0    0    0  501 -0.00000000000E+00 -0.00000000000E+00 -0.57703249460E+03  0.57703249461E+03  0.25500000000E-02 0.  1.
    8880022    1    1    2    0    0 -0.15524522034E+03  0.19116202024E+03 -0.49889275783E+03  0.57700054875E+03  0.15294330000E+03 0.  0.
    8880022    1    1    2    0    0  0.15524522034E+03 -0.19116202024E+03  0.49842113435E+03  0.57659281699E+03  0.15294330000E+03 0.  0.
<mgrwt>
<rscale>  0 0.28988903E+03</rscale>
<asrwt>0</asrwt>
<pdfrwt beam="1">  1        2 0.88701672E-01 0.28988903E+03</pdfrwt>
<pdfrwt beam="2">  1       -2 0.88774230E-01 0.28988903E+03</pdfrwt>
<totfact> 0.60199890E+01</totfact>
</mgrwt>
</event>
<event>
 4    1  0.3365401E-008  0.5674216E+03  0.7818608E-02  0.9975401E-01
          2   -1    0    0  501    0  0.00000000000E+00  0.00000000000E+00  0.23748241394E+04  0.23748241394E+04  0.25500000000E-02 0. -1.
         -2   -1    0    0    0  501 -0.00000000000E+00 -0.00000000000E+00 -0.33451208619E+03  0.33451208620E+03  0.25500000000E-02 0.  1.
    8880022    1    1    2    0    0 -0.43730947272E+03  0.32762178694E+03  0.20648393374E+04  0.21413847745E+04  0.15294330000E+03 0.  0.
    8880022    1    1    2    0    0  0.43730947272E+03 -0.32762178694E+03 -0.24527284120E+02  0.56795145117E+03  0.15294330000E+03 0.  0.
<mgrwt>
<rscale>  0 0.56742159E+03</rscale>
<asrwt>0</asrwt>
<pdfrwt beam="1">  1        2 0.36535757E+00 0.56742159E+03</pdfrwt>
<pdfrwt beam="2">  1       -2 0.51463397E-01 0.56742159E+03</pdfrwt>
<totfact> 0.15808164E+01</totfact>
</mgrwt>
</event>
<event>
 4    1  0.3365401E-008  0.2570182E+03  0.7818608E-02  0.1108948E+00
          2   -1    0    0  501    0  0.00000000000E+00  0.00000000000E+00  0.14312196580E+04  0.14312196580E+04  0.25500000000E-02 0. -1.
         -2   -1    0    0    0  501 -0.00000000000E+00 -0.00000000000E+00 -0.31318673266E+03  0.31318673267E+03  0.25500000000E-02 0.  1.
    8880022    1    1    2    0    0 -0.17225909062E+03 -0.11398898101E+03 -0.24635680394E+03  0.35601967636E+03  0.15294330000E+03 0.  0.
    8880022    1    1    2    0    0  0.17225909062E+03  0.11398898101E+03  0.13643897293E+04  0.13883867143E+04  0.15294330000E+03 0. -1.
<mgrwt>
<rscale>  0 0.25701816E+03</rscale>
<asrwt>0</asrwt>
<pdfrwt beam="1">  1        2 0.22018764E+00 0.25701816E+03</pdfrwt>
<pdfrwt beam="2">  1       -2 0.48182574E-01 0.25701816E+03</pdfrwt>
<totfact> 0.62637367E+01</totfact>
</mgrwt>
</event>
<event>
 4    1  0.3365401E-008  0.5453675E+03  0.7818608E-02  0.1002572E+00
          2   -1    0    0  501    0  0.00000000000E+00  0.00000000000E+00  0.40075737814E+04  0.40075737814E+04  0.25500000000E-02 0. -1.
         -2   -1    0    0    0  501 -0.00000000000E+00 -0.00000000000E+00 -0.15379935763E+03  0.15379935765E+03  0.25500000000E-02 0.  1.
    8880022    1    1    2    0    0  0.32877863446E+03  0.40735576258E+03  0.34236078951E+04  0.34667732520E+04  0.15294330000E+03 0.  0.
    8880022    1    1    2    0    0 -0.32877863446E+03 -0.40735576258E+03  0.43016652864E+03  0.69459988710E+03  0.15294330000E+03 0.  0.
<mgrwt>
<rscale>  0 0.54536755E+03</rscale>
<asrwt>0</asrwt>
<pdfrwt beam="1">  1        2 0.61654984E+00 0.54536755E+03</pdfrwt>
<pdfrwt beam="2">  1       -2 0.23661439E-01 0.54536755E+03</pdfrwt>
<totfact> 0.62085124E+00</totfact>
</mgrwt>
</event>
<event>
 4    1  0.3365401E-008  0.9068190E+03  0.7818608E-02  0.9417097E-01
         -2   -1    0    0    0  501 -0.00000000000E+00  0.00000000000E+00  0.92709309427E+03  0.92709309428E+03  0.25500000000E-02 0.  1.
          2   -1    0    0  501    0  0.00000000000E+00 -0.00000000000E+00 -0.23252503742E+04  0.23252503742E+04  0.25500000000E-02 0. -1.
    8880022    1    1    2    0    0 -0.43746984526E+03  0.77945437484E+03  0.57986255094E+03  0.10763648169E+04  0.15294330000E+03 0.  0.
    8880022    1    1    2    0    0  0.43746984526E+03 -0.77945437484E+03 -0.19780198309E+04  0.21759786516E+04  0.15294330000E+03 0.  0.
<mgrwt>
<rscale>  0 0.90681897E+03</rscale>
<asrwt>0</asrwt>
<pdfrwt beam="1">  1        2 0.35773083E+00 0.90681897E+03</pdfrwt>
<pdfrwt beam="2">  1       -2 0.14262971E+00 0.90681897E+03</pdfrwt>
<totfact> 0.15268368E+00</totfact>
</mgrwt>
</event>
<event>
 4    1  0.3365401E-008  0.1688469E+03  0.7818608E-02  0.1179056E+00
          2   -1    0    0  501    0  0.00000000000E+00  0.00000000000E+00  0.27960431121E+03  0.27960431122E+03  0.25500000000E-02 0. -1.
         -2   -1    0    0    0  501 -0.00000000000E+00 -0.00000000000E+00 -0.11007143014E+04  0.11007143014E+04  0.25500000000E-02 0.  1.
    8880022    1    1    2    0    0 -0.16283427869E+00 -0.71537354543E+02 -0.10679717070E+04  0.10812367177E+04  0.15294330000E+03 0.  0.
    8880022    1    1    2    0    0  0.16283427869E+00  0.71537354543E+02  0.24686171686E+03  0.29908189493E+03  0.15294330000E+03 0. -1.
<mgrwt>
<rscale>  0 0.16884689E+03</rscale>
<asrwt>0</asrwt>
<pdfrwt beam="1">  1        2 0.43016048E-01 0.16884689E+03</pdfrwt>
<pdfrwt beam="2">  1       -2 0.16934066E+00 0.16884689E+03</pdfrwt>
<totfact> 0.28063889E+01</totfact>
</mgrwt>
</event>
<event>
 4    1  0.3365401E-008  0.7595855E+03  0.7818608E-02  0.9620431E-01
          2   -1    0    0  501    0  0.00000000000E+00  0.00000000000E+00  0.16057725150E+04  0.16057725150E+04  0.25500000000E-02 0. -1.
         -2   -1    0    0    0  501 -0.00000000000E+00 -0.00000000000E+00 -0.48295699816E+03  0.48295699817E+03  0.25500000000E-02 0.  1.
    8880022    1    1    2    0    0  0.74365441767E+03  0.23591635755E+02  0.10898405707E+04  0.13284286133E+04  0.15294330000E+03 0.  0.
    8880022    1    1    2    0    0 -0.74365441767E+03 -0.23591635755E+02  0.32974946159E+02  0.76030089984E+03  0.15294330000E+03 0.  0.
<mgrwt>
<rscale>  0 0.75958549E+03</rscale>
<asrwt>0</asrwt>
<pdfrwt beam="1">  1        2 0.24704193E+00 0.75958549E+03</pdfrwt>
<pdfrwt beam="2">  1       -2 0.74301076E-01 0.75958549E+03</pdfrwt>
<totfact> 0.18493668E+01</totfact>
</mgrwt>
</event>
<event>
 4    1  0.3365401E-008  0.5318967E+03  0.7818608E-02  0.1005773E+00
          2   -1    0    0  501    0  0.00000000000E+00  0.00000000000E+00  0.20027498758E+04  0.20027498758E+04  0.25500000000E-02 0. -1.
         -2   -1    0    0    0  501 -0.00000000000E+00 -0.00000000000E+00 -0.33040465061E+03  0.33040465062E+03  0.25500000000E-02 0.  1.
    8880022    1    1    2    0    0  0.44473749347E+03 -0.24845724293E+03 -0.46468651961E+02  0.53392268007E+03  0.15294330000E+03 0.  0.
    8880022    1    1    2    0    0 -0.44473749347E+03  0.24845724293E+03  0.17188138772E+04  0.17992318464E+04  0.15294330000E+03 0.  0.
<mgrwt>
<rscale>  0 0.53189669E+03</rscale>
<asrwt>0</asrwt>
<pdfrwt beam="1">  1        2 0.30811536E+00 0.53189669E+03</pdfrwt>
<pdfrwt beam="2">  1       -2 0.50831485E-01 0.53189669E+03</pdfrwt>
<totfact> 0.26059791E+01</totfact>
</mgrwt>
</event>
<event>
 4    1  0.3365401E-008  0.3978438E+03  0.7818608E-02  0.1044529E+00
          2   -1    0    0  501    0  0.00000000000E+00  0.00000000000E+00  0.87347701340E+03  0.87347701341E+03  0.25500000000E-02 0. -1.
         -2   -1    0    0    0  501 -0.00000000000E+00 -0.00000000000E+00 -0.41709374675E+03  0.41709374676E+03  0.25500000000E-02 0.  1.
    8880022    1    1    2    0    0  0.35587682436E+03  0.90773008226E+02  0.71346585705E+03  0.81689242580E+03  0.15294330000E+03 0.  0.
    8880022    1    1    2    0    0 -0.35587682436E+03 -0.90773008226E+02 -0.25708259040E+03  0.47367833436E+03  0.15294330000E+03 0.  0.
<mgrwt>
<rscale>  0 0.39784382E+03</rscale>
<asrwt>0</asrwt>
<pdfrwt beam="1">  1        2 0.13438108E+00 0.39784382E+03</pdfrwt>
<pdfrwt beam="2">  1       -2 0.64168269E-01 0.39784382E+03</pdfrwt>
<totfact> 0.72083619E+01</totfact>
</mgrwt>
</event>
<event>
 4    1  0.3365401E-008  0.5015120E+03  0.7818608E-02  0.1013385E+00
         -2   -1    0    0    0  501 -0.00000000000E+00  0.00000000000E+00  0.17804802847E+03  0.17804802849E+03  0.25500000000E-02 0.  1.
          2   -1    0    0  501    0  0.00000000000E+00 -0.00000000000E+00 -0.29182404370E+04  0.29182404370E+04  0.25500000000E-02 0. -1.
    8880022    1    1    2    0    0  0.20089888597E+03 -0.43331543187E+03 -0.25808650510E+03  0.56402386741E+03  0.15294330000E+03 0.  0.
    8880022    1    1    2    0    0 -0.20089888597E+03  0.43331543187E+03 -0.24821059034E+04  0.25322645981E+04  0.15294330000E+03 0.  0.
<mgrwt>
<rscale>  0 0.50151199E+03</rscale>
<asrwt>0</asrwt>
<pdfrwt beam="1">  1        2 0.44896003E+00 0.50151199E+03</pdfrwt>
<pdfrwt beam="2">  1       -2 0.27392007E-01 0.50151199E+03</pdfrwt>
<totfact> 0.26310521E+01</totfact>
</mgrwt>
</event>
<event>
 4    1  0.3365401E-008  0.8649214E+03  0.7818608E-02  0.9470526E-01
          2   -1    0    0  501    0  0.00000000000E+00  0.00000000000E+00  0.15999098581E+04  0.15999098581E+04  0.25500000000E-02 0. -1.
         -2   -1    0    0    0  501 -0.00000000000E+00 -0.00000000000E+00 -0.83737041012E+03  0.83737041013E+03  0.25500000000E-02 0.  1.
    8880022    1    1    2    0    0  0.81693535914E+03 -0.23940355395E+03  0.11910986835E+04  0.14720071907E+04  0.15294330000E+03 0.  0.
    8880022    1    1    2    0    0 -0.81693535914E+03  0.23940355395E+03 -0.42855923557E+03  0.96527307746E+03  0.15294330000E+03 0.  0.
<mgrwt>
<rscale>  0 0.86492144E+03</rscale>
<asrwt>0</asrwt>
<pdfrwt beam="1">  1        2 0.24613998E+00 0.86492144E+03</pdfrwt>
<pdfrwt beam="2">  1       -2 0.12882622E+00 0.86492144E+03</pdfrwt>
<totfact> 0.50097520E+00</totfact>
</mgrwt>
</event>
<event>
 4    1  0.3365401E-008  0.2697663E+03  0.7818608E-02  0.1101413E+00
          2   -1    0    0  501    0  0.00000000000E+00  0.00000000000E+00  0.19493748093E+04  0.19493748093E+04  0.25500000000E-02 0. -1.
         -2   -1    0    0    0  501 -0.00000000000E+00 -0.00000000000E+00 -0.12342153570E+03  0.12342153573E+03  0.25500000000E-02 0.  1.
    8880022    1    1    2    0    0  0.63992317008E+02 -0.21280786904E+03  0.47397840396E+02  0.27389854700E+03  0.15294330000E+03 0.  1.
    8880022    1    1    2    0    0 -0.63992317008E+02  0.21280786904E+03  0.17785554332E+04  0.17988977980E+04  0.15294330000E+03 0.  0.
<mgrwt>
<rscale>  0 0.26976630E+03</rscale>
<asrwt>0</asrwt>
<pdfrwt beam="1">  1        2 0.29990380E+00 0.26976630E+03</pdfrwt>
<pdfrwt beam="2">  1       -2 0.18987930E-01 0.26976630E+03</pdfrwt>
<totfact> 0.18279555E+02</totfact>
</mgrwt>
</event>
<event>
 4    1  0.3365401E-008  0.1895431E+04  0.7818608E-02  0.8657134E-01
          2   -1    0    0  501    0  0.00000000000E+00  0.00000000000E+00  0.31529494884E+04  0.31529494884E+04  0.25500000000E-02 0. -1.
         -2   -1    0    0    0  501 -0.00000000000E+00 -0.00000000000E+00 -0.13378511902E+04  0.13378511902E+04  0.25500000000E-02 0.  1.
    8880022    1    1    2    0    0  0.18858431502E+04 -0.11340682915E+03  0.42875947520E+02  0.18959154770E+04  0.15294330000E+03 0.  0.
    8880022    1    1    2    0    0 -0.18858431502E+04  0.11340682915E+03  0.17722223507E+04  0.25948852016E+04  0.15294330000E+03 0.  0.
<mgrwt>
<rscale>  0 0.18954306E+04</rscale>
<asrwt>0</asrwt>
<pdfrwt beam="1">  1        2 0.48506914E+00 0.18954306E+04</pdfrwt>
<pdfrwt beam="2">  1       -2 0.20582326E+00 0.18954306E+04</pdfrwt>
<totfact> 0.15293074E-01</totfact>
</mgrwt>
</event>
<event>
 4    1  0.3365401E-008  0.5664386E+03  0.7818608E-02  0.9977591E-01
          2   -1    0    0  501    0  0.00000000000E+00  0.00000000000E+00  0.21831155434E+04  0.21831155434E+04  0.25500000000E-02 0. -1.
         -2   -1    0    0    0  501 -0.00000000000E+00 -0.00000000000E+00 -0.28693037743E+03  0.28693037744E+03  0.25500000000E-02 0.  1.
    8880022    1    1    2    0    0 -0.62106923255E+02 -0.54185220025E+03  0.85532909825E+02  0.57286002523E+03  0.15294330000E+03 0.  0.
    8880022    1    1    2    0    0  0.62106923255E+02  0.54185220025E+03  0.18106522562E+04  0.18971858957E+04  0.15294330000E+03 0.  0.
<mgrwt>
<rscale>  0 0.56643864E+03</rscale>
<asrwt>0</asrwt>
<pdfrwt beam="1">  1        2 0.33586394E+00 0.56643864E+03</pdfrwt>
<pdfrwt beam="2">  1       -2 0.44143134E-01 0.56643864E+03</pdfrwt>
<totfact> 0.27424851E+01</totfact>
</mgrwt>
</event>
<event>
 4    1  0.3365401E-008  0.4830956E+03  0.7818608E-02  0.1018288E+00
         -2   -1    0    0    0  501 -0.00000000000E+00  0.00000000000E+00  0.64702706276E+03  0.64702706276E+03  0.25500000000E-02 0.  1.
          2   -1    0    0  501    0  0.00000000000E+00 -0.00000000000E+00 -0.52626150785E+03  0.52626150786E+03  0.25500000000E-02 0. -1.
    8880022    1    1    2    0    0 -0.36904382832E+03 -0.27165490616E+03  0.38942854513E+03  0.62051267517E+03  0.15294330000E+03 0.  0.
    8880022    1    1    2    0    0  0.36904382832E+03  0.27165490616E+03 -0.26866299022E+03  0.55277589545E+03  0.15294330000E+03 0.  0.
<mgrwt>
<rscale>  0 0.48309563E+03</rscale>
<asrwt>0</asrwt>
<pdfrwt beam="1">  1        2 0.80963309E-01 0.48309563E+03</pdfrwt>
<pdfrwt beam="2">  1       -2 0.99542624E-01 0.48309563E+03</pdfrwt>
<totfact> 0.50111560E+01</totfact>
</mgrwt>
</event>
<event>
 4    1  0.3365401E-008  0.2298899E+03  0.7818608E-02  0.1126717E+00
         -2   -1    0    0    0  501 -0.00000000000E+00  0.00000000000E+00  0.13561114146E+03  0.13561114148E+03  0.25500000000E-02 0.  1.
          2   -1    0    0  501    0  0.00000000000E+00 -0.00000000000E+00 -0.39471023923E+04  0.39471023923E+04  0.25500000000E-02 0. -1.
    8880022    1    1    2    0    0 -0.12209577572E+03  0.12062472597E+03 -0.38437084877E+04  0.38505771378E+04  0.15294330000E+03 0. -1.
    8880022    1    1    2    0    0  0.12209577572E+03 -0.12062472597E+03  0.32217236851E+02  0.23213639596E+03  0.15294330000E+03 0.  0.
<mgrwt>
<rscale>  0 0.22988988E+03</rscale>
<asrwt>0</asrwt>
<pdfrwt beam="1">  1        2 0.60724644E+00 0.22988988E+03</pdfrwt>
<pdfrwt beam="2">  1       -2 0.20863255E-01 0.22988988E+03</pdfrwt>
<totfact> 0.99309220E+00</totfact>
</mgrwt>
</event>
<event>
 4    1  0.3365401E-008  0.4342905E+03  0.7818608E-02  0.1032513E+00
          2   -1    0    0  501    0  0.00000000000E+00  0.00000000000E+00  0.13818935733E+04  0.13818935733E+04  0.25500000000E-02 0. -1.
         -2   -1    0    0    0  501 -0.00000000000E+00 -0.00000000000E+00 -0.31367384761E+03  0.31367384762E+03  0.25500000000E-02 0.  1.
    8880022    1    1    2    0    0 -0.23927826994E+03  0.32857641585E+03 -0.10307242627E+03  0.44635426467E+03  0.15294330000E+03 0.  0.
    8880022    1    1    2    0    0  0.23927826994E+03 -0.32857641585E+03  0.11712921520E+04  0.12492131563E+04  0.15294330000E+03 0.  0.
<mgrwt>
<rscale>  0 0.43429046E+03</rscale>
<asrwt>0</asrwt>
<pdfrwt beam="1">  1        2 0.21259901E+00 0.43429046E+03</pdfrwt>
<pdfrwt beam="2">  1       -2 0.48257515E-01 0.43429046E+03</pdfrwt>
<totfact> 0.63933553E+01</totfact>
</mgrwt>
</event>
<event>
 4    1  0.3365401E-008  0.5868454E+03  0.7818608E-02  0.9933080E-01
          2   -1    0    0  501    0  0.00000000000E+00  0.00000000000E+00  0.29993331328E+04  0.29993331328E+04  0.25500000000E-02 0. -1.
         -2   -1    0    0    0  501 -0.00000000000E+00 -0.00000000000E+00 -0.13456226268E+03  0.13456226271E+03  0.25500000000E-02 0.  1.
    8880022    1    1    2    0    0 -0.28758926585E+03 -0.48814786385E+03  0.20325579740E+04  0.21155801789E+04  0.15294330000E+03 0.  0.
    8880022    1    1    2    0    0  0.28758926585E+03  0.48814786385E+03  0.83221289608E+03  0.10183152165E+04  0.15294330000E+03 0. -1.
<mgrwt>
<rscale>  0 0.58684544E+03</rscale>
<asrwt>0</asrwt>
<pdfrwt beam="1">  1        2 0.46143582E+00 0.58684544E+03</pdfrwt>
<pdfrwt beam="2">  1       -2 0.20701888E-01 0.58684544E+03</pdfrwt>
<totfact> 0.38026741E+01</totfact>
</mgrwt>
</event>
<event>
 4    1  0.3365401E-008  0.6872638E+03  0.7818608E-02  0.9739264E-01
         -2   -1    0    0    0  501 -0.00000000000E+00  0.00000000000E+00  0.20874830685E+03  0.20874830687E+03  0.25500000000E-02 0.  1.
          2   -1    0    0  501    0  0.00000000000E+00 -0.00000000000E+00 -0.25661260221E+04  0.25661260221E+04  0.25500000000E-02 0. -1.
    8880022    1    1    2    0    0  0.51361391644E+03 -0.43027965634E+03 -0.16557917712E+04  0.17927570611E+04  0.15294330000E+03 0.  0.
    8880022    1    1    2    0    0 -0.51361391644E+03  0.43027965634E+03 -0.70158594414E+03  0.98211726787E+03  0.15294330000E+03 0.  1.
<mgrwt>
<rscale>  0 0.68726377E+03</rscale>
<asrwt>0</asrwt>
<pdfrwt beam="1">  1        2 0.39478859E+00 0.68726377E+03</pdfrwt>
<pdfrwt beam="2">  1       -2 0.32115126E-01 0.68726377E+03</pdfrwt>
<totfact> 0.30323161E+01</totfact>
</mgrwt>
</event>
<event>
 4    1  0.3365401E-008  0.7361249E+03  0.7818608E-02  0.9657373E-01
          2   -1    0    0  501    0  0.00000000000E+00  0.00000000000E+00  0.28285363070E+04  0.28285363070E+04  0.25500000000E-02 0. -1.
         -2   -1    0    0    0  501 -0.00000000000E+00 -0.00000000000E+00 -0.23019864161E+03  0.23019864162E+03  0.25500000000E-02 0.  1.
    8880022    1    1    2    0    0  0.11679685302E+03 -0.71052562162E+03  0.19256112686E+04  0.20615185118E+04  0.15294330000E+03 0. -1.
    8880022    1    1    2    0    0 -0.11679685302E+03  0.71052562162E+03  0.67272639682E+03  0.99721643681E+03  0.15294330000E+03 0.  0.
<mgrwt>
<rscale>  0 0.73612486E+03</rscale>
<asrwt>0</asrwt>
<pdfrwt beam="1">  1        2 0.43515943E+00 0.73612486E+03</pdfrwt>
<pdfrwt beam="2">  1       -2 0.35415176E-01 0.73612486E+03</pdfrwt>
<totfact> 0.17597261E+01</totfact>
</mgrwt>
</event>
<event>
 4    1  0.3365401E-008  0.5836486E+03  0.7818608E-02  0.9939923E-01
         -2   -1    0    0    0  501 -0.00000000000E+00  0.00000000000E+00  0.56971130583E+03  0.56971130584E+03  0.25500000000E-02 0.  1.
          2   -1    0    0  501    0  0.00000000000E+00 -0.00000000000E+00 -0.16253447165E+04  0.16253447165E+04  0.25500000000E-02 0. -1.
    8880022    1    1    2    0    0  0.64041249075E+02 -0.55960057586E+03  0.34478570559E+03  0.67788120042E+03  0.15294330000E+03 0.  0.
    8880022    1    1    2    0    0 -0.64041249075E+02  0.55960057586E+03 -0.14004191163E+04  0.15171748220E+04  0.15294330000E+03 0.  0.
<mgrwt>
<rscale>  0 0.58364864E+03</rscale>
<asrwt>0</asrwt>
<pdfrwt beam="1">  1        2 0.25005303E+00 0.58364864E+03</pdfrwt>
<pdfrwt beam="2">  1       -2 0.87647894E-01 0.58364864E+03</pdfrwt>
<totfact> 0.12772942E+01</totfact>
</mgrwt>
</event>
<event>
 4    1  0.3365401E-008  0.4744610E+03  0.7818608E-02  0.1020669E+00
         -2   -1    0    0    0  501 -0.00000000000E+00  0.00000000000E+00  0.60655366789E+03  0.60655366790E+03  0.25500000000E-02 0.  1.
          2   -1    0    0  501    0  0.00000000000E+00 -0.00000000000E+00 -0.46421966629E+03  0.46421966629E+03  0.25500000000E-02 0. -1.
    8880022    1    1    2    0    0 -0.24399366954E+02  0.44847103411E+03 -0.16857549940E+03  0.50351856923E+03  0.15294330000E+03 0.  0.
    8880022    1    1    2    0    0  0.24399366954E+02 -0.44847103411E+03  0.31090950101E+03  0.56725476496E+03  0.15294330000E+03 0.  0.
<mgrwt>
<rscale>  0 0.47446101E+03</rscale>
<asrwt>0</asrwt>
<pdfrwt beam="1">  1        2 0.71418410E-01 0.47446101E+03</pdfrwt>
<pdfrwt beam="2">  1       -2 0.93315949E-01 0.47446101E+03</pdfrwt>
<totfact> 0.67294689E+01</totfact>
</mgrwt>
</event>
<event>
 4    1  0.3365401E-008  0.2062209E+03  0.7818608E-02  0.1144594E+00
         -2   -1    0    0    0  501 -0.00000000000E+00  0.00000000000E+00  0.33928140851E+03  0.33928140852E+03  0.25500000000E-02 0.  1.
          2   -1    0    0  501    0  0.00000000000E+00 -0.00000000000E+00 -0.61653552359E+03  0.61653552360E+03  0.25500000000E-02 0. -1.
    8880022    1    1    2    0    0  0.88060473454E+02  0.10668064705E+03 -0.56519761830E+03  0.60164392143E+03  0.15294330000E+03 0.  0.
    8880022    1    1    2    0    0 -0.88060473454E+02 -0.10668064705E+03  0.28794350322E+03  0.35417301069E+03  0.15294330000E+03 0.  1.
<mgrwt>
<rscale>  0 0.20622090E+03</rscale>
<asrwt>0</asrwt>
<pdfrwt beam="1">  1        2 0.94851619E-01 0.20622090E+03</pdfrwt>
<pdfrwt beam="2">  1       -2 0.52197140E-01 0.20622090E+03</pdfrwt>
<totfact> 0.17532156E+02</totfact>
</mgrwt>
</event>
<event>
 4    1  0.3365401E-008  0.7816187E+03  0.7818608E-02  0.9587011E-01
          2   -1    0    0  501    0  0.00000000000E+00  0.00000000000E+00  0.20011001912E+04  0.20011001912E+04  0.25500000000E-02 0. -1.
         -2   -1    0    0    0  501 -0.00000000000E+00 -0.00000000000E+00 -0.35007555708E+03  0.35007555709E+03  0.25500000000E-02 0.  1.
    8880022    1    1    2    0    0  0.75235207698E+03 -0.14663735732E+03  0.12459622299E+04  0.14708329931E+04  0.15294330000E+03 0.  0.
    8880022    1    1    2    0    0 -0.75235207698E+03  0.14663735732E+03  0.40506240427E+03  0.88034275522E+03  0.15294330000E+03 0.  0.
<mgrwt>
<rscale>  0 0.78161871E+03</rscale>
<asrwt>0</asrwt>
<pdfrwt beam="1">  1        2 0.30786157E+00 0.78161871E+03</pdfrwt>
<pdfrwt beam="2">  1       -2 0.53857777E-01 0.78161871E+03</pdfrwt>
<totfact> 0.22302875E+01</totfact>
</mgrwt>
</event>
<event>
 4    1  0.3365401E-008  0.1804220E+03  0.7818608E-02  0.1167395E+00
         -2   -1    0    0    0  501 -0.00000000000E+00  0.00000000000E+00  0.40938351037E+02  0.40938351117E+02  0.25500000000E-02 0.  1.
          2   -1    0    0  501    0  0.00000000000E+00 -0.00000000000E+00 -0.11902757464E+04  0.11902757464E+04  0.25500000000E-02 0. -1.
    8880022    1    1    2    0    0 -0.73171299346E+02  0.61696171057E+02 -0.21997969060E+03  0.28450513855E+03  0.15294330000E+03 0.  1.
    8880022    1    1    2    0    0  0.73171299346E+02 -0.61696171057E+02 -0.92935770472E+03  0.94670895892E+03  0.15294330000E+03 0.  0.
<mgrwt>
<rscale>  0 0.18042203E+03</rscale>
<asrwt>0</asrwt>
<pdfrwt beam="1">  1        2 0.18311932E+00 0.18042203E+03</pdfrwt>
<pdfrwt beam="2">  1       -2 0.62982087E-02 0.18042203E+03</pdfrwt>
<totfact> 0.27651589E+03</totfact>
</mgrwt>
</event>
<event>
 4    1  0.3365401E-008  0.9495673E+03  0.7818608E-02  0.9365657E-01
         -2   -1    0    0    0  501 -0.00000000000E+00  0.00000000000E+00  0.25822391423E+03  0.25822391424E+03  0.25500000000E-02 0.  1.
          2   -1    0    0  501    0  0.00000000000E+00 -0.00000000000E+00 -0.37658699470E+04  0.37658699470E+04  0.25500000000E-02 0. -1.
    8880022    1    1    2    0    0 -0.77464945039E+03  0.52745100917E+03 -0.22965734380E+04  0.24851413535E+04  0.15294330000E+03 0.  0.
    8880022    1    1    2    0    0  0.77464945039E+03 -0.52745100917E+03 -0.12110725948E+04  0.15389525077E+04  0.15294330000E+03 0.  0.
<mgrwt>
<rscale>  0 0.94956727E+03</rscale>
<asrwt>0</asrwt>
<pdfrwt beam="1">  1        2 0.57936457E+00 0.94956727E+03</pdfrwt>
<pdfrwt beam="2">  1       -2 0.39726759E-01 0.94956727E+03</pdfrwt>
<totfact> 0.32956270E+00</totfact>
</mgrwt>
</event>
<event>
 4    1  0.3365401E-008  0.1021895E+04  0.7818608E-02  0.9284851E-01
         -2   -1    0    0    0  501 -0.00000000000E+00  0.00000000000E+00  0.59793257133E+03  0.59793257133E+03  0.25500000000E-02 0.  1.
          2   -1    0    0  501    0  0.00000000000E+00 -0.00000000000E+00 -0.19599615893E+04  0.19599615893E+04  0.25500000000E-02 0. -1.
    8880022    1    1    2    0    0 -0.99912345249E+03 -0.15043293037E+03 -0.25890763930E+03  0.10541833610E+04  0.15294330000E+03 0.  0.
    8880022    1    1    2    0    0  0.99912345249E+03  0.15043293037E+03 -0.11031213786E+04  0.15037107996E+04  0.15294330000E+03 0.  0.
<mgrwt>
<rscale>  0 0.10218950E+04</rscale>
<asrwt>0</asrwt>
<pdfrwt beam="1">  1        2 0.30153255E+00 0.10218950E+04</pdfrwt>
<pdfrwt beam="2">  1       -2 0.91989627E-01 0.10218950E+04</pdfrwt>
<totfact> 0.70520693E+00</totfact>
</mgrwt>
</event>
<event>
 4    1  0.3365401E-008  0.6952686E+03  0.7818608E-02  0.9725358E-01
          2   -1    0    0  501    0  0.00000000000E+00  0.00000000000E+00  0.20007534917E+04  0.20007534917E+04  0.25500000000E-02 0. -1.
         -2   -1    0    0    0  501 -0.00000000000E+00 -0.00000000000E+00 -0.29495351830E+03  0.29495351831E+03  0.25500000000E-02 0.  1.
    8880022    1    1    2    0    0 -0.13413067201E+03  0.66484265344E+03  0.36474487503E+03  0.78513519083E+03  0.15294330000E+03 0.  0.
    8880022    1    1    2    0    0  0.13413067201E+03 -0.66484265344E+03  0.13410550984E+04  0.15105718192E+04  0.15294330000E+03 0.  0.
<mgrwt>
<rscale>  0 0.69526861E+03</rscale>
<asrwt>0</asrwt>
<pdfrwt beam="1">  1        2 0.30780824E+00 0.69526861E+03</pdfrwt>
<pdfrwt beam="2">  1       -2 0.45377463E-01 0.69526861E+03</pdfrwt>
<totfact> 0.31967096E+01</totfact>
</mgrwt>
</event>
<event>
 4    1  0.3365401E-008  0.2667640E+03  0.7818608E-02  0.1103146E+00
         -2   -1    0    0    0  501 -0.00000000000E+00  0.00000000000E+00  0.28436597997E+03  0.28436597998E+03  0.25500000000E-02 0.  1.
          2   -1    0    0  501    0  0.00000000000E+00 -0.00000000000E+00 -0.14335172465E+04  0.14335172465E+04  0.25500000000E-02 0. -1.
    8880022    1    1    2    0    0  0.17108336513E+03 -0.13602155255E+03  0.20579930840E+03  0.33692193300E+03  0.15294330000E+03 0.  0.
    8880022    1    1    2    0    0 -0.17108336513E+03  0.13602155255E+03 -0.13549505749E+04  0.13809612935E+04  0.15294330000E+03 0. -1.
<mgrwt>
<rscale>  0 0.26676400E+03</rscale>
<asrwt>0</asrwt>
<pdfrwt beam="1">  1        2 0.22054111E+00 0.26676400E+03</pdfrwt>
<pdfrwt beam="2">  1       -2 0.43748613E-01 0.26676400E+03</pdfrwt>
<totfact> 0.75318606E+01</totfact>
</mgrwt>
</event>
<event>
 4    1  0.4150761E-008  0.9426105E+03  0.7818608E-02  0.9373830E-01
          2   -1    0    0  501    0  0.00000000000E+00  0.00000000000E+00  0.15196830030E+04  0.15196830030E+04  0.25500000000E-02 0. -1.
         -2   -1    0    0    0  501 -0.00000000000E+00 -0.00000000000E+00 -0.35821297680E+04  0.35821297680E+04  0.25500000000E-02 0.  1.
    8880022    1    1    2    0    0  0.60092348627E+03  0.70993928390E+03 -0.33646840101E+04  0.34942256602E+04  0.15294330000E+03 0.  0.
    8880022    1    1    2    0    0 -0.60092348627E+03 -0.70993928390E+03  0.13022372452E+04  0.16075871108E+04  0.15294330000E+03 0.  0.
<mgrwt>
<rscale>  0 0.94261046E+03</rscale>
<asrwt>0</asrwt>
<pdfrwt beam="1">  1        2 0.23379739E+00 0.94261046E+03</pdfrwt>
<pdfrwt beam="2">  1       -2 0.55109689E+00 0.94261046E+03</pdfrwt>
<totfact> 0.10479796E-02</totfact>
</mgrwt>
</event>
<event>
 4    1  0.3365401E-008  0.6274356E+03  0.7818608E-02  0.9850066E-01
         -2   -1    0    0    0  501 -0.00000000000E+00  0.00000000000E+00  0.24349477240E+04  0.24349477240E+04  0.25500000000E-02 0.  1.
          2   -1    0    0  501    0  0.00000000000E+00 -0.00000000000E+00 -0.44266408509E+03  0.44266408509E+03  0.25500000000E-02 0. -1.
    8880022    1    1    2    0    0 -0.97205473646E+02  0.60069531744E+03 -0.15018413895E+03  0.64515943542E+03  0.15294330000E+03 0.  0.
    8880022    1    1    2    0    0  0.97205473646E+02 -0.60069531744E+03  0.21424677779E+04  0.22324523737E+04  0.15294330000E+03 0.  1.
<mgrwt>
<rscale>  0 0.62743559E+03</rscale>
<asrwt>0</asrwt>
<pdfrwt beam="1">  1        2 0.68102166E-01 0.62743559E+03</pdfrwt>
<pdfrwt beam="2">  1       -2 0.37460735E+00 0.62743559E+03</pdfrwt>
<totfact> 0.83419144E-01</totfact>
</mgrwt>
</event>
<event>
 4    1  0.3365401E-008  0.8668105E+03  0.7818608E-02  0.9468048E-01
          2   -1    0    0  501    0  0.00000000000E+00  0.00000000000E+00  0.43501806574E+04  0.43501806574E+04  0.25500000000E-02 0. -1.
         -2   -1    0    0    0  501 -0.00000000000E+00 -0.00000000000E+00 -0.29479434350E+03  0.29479434352E+03  0.25500000000E-02 0.  1.
    8880022    1    1    2    0    0  0.75278626058E+03 -0.40159879111E+03  0.35222318347E+04  0.36273237371E+04  0.15294330000E+03 0.  0.
    8880022    1    1    2    0    0 -0.75278626058E+03  0.40159879111E+03  0.53315447923E+03  0.10176512639E+04  0.15294330000E+03 0.  0.
<mgrwt>
<rscale>  0 0.86681047E+03</rscale>
<asrwt>0</asrwt>
<pdfrwt beam="1">  1        2 0.66925857E+00 0.86681047E+03</pdfrwt>
<pdfrwt beam="2">  1       -2 0.45352975E-01 0.86681047E+03</pdfrwt>
<totfact> 0.86539037E-01</totfact>
</mgrwt>
</event>
<event>
 4    1  0.3365401E-008  0.9725233E+03  0.7818608E-02  0.9339205E-01
          2   -1    0    0  501    0  0.00000000000E+00  0.00000000000E+00  0.85013109486E+03  0.85013109487E+03  0.25500000000E-02 0. -1.
         -2   -1    0    0    0  501 -0.00000000000E+00 -0.00000000000E+00 -0.13687985494E+04  0.13687985494E+04  0.25500000000E-02 0.  1.
    8880022    1    1    2    0    0  0.60102738776E+03  0.74911676644E+03  0.22071606265E+03  0.99725477383E+03  0.15294330000E+03 0.  0.
    8880022    1    1    2    0    0 -0.60102738776E+03 -0.74911676644E+03 -0.73938351722E+03  0.12216748705E+04  0.15294330000E+03 0.  0.
<mgrwt>
<rscale>  0 0.97252327E+03</rscale>
<asrwt>0</asrwt>
<pdfrwt beam="1">  1        2 0.13078940E+00 0.97252327E+03</pdfrwt>
<pdfrwt beam="2">  1       -2 0.21058439E+00 0.97252327E+03</pdfrwt>
<totfact> 0.35887851E+00</totfact>
</mgrwt>
</event>
<event>
 4    1  0.3365401E-008  0.2553415E+03  0.7818608E-02  0.1109975E+00
         -2   -1    0    0    0  501 -0.00000000000E+00  0.00000000000E+00  0.36372824264E+03  0.36372824265E+03  0.25500000000E-02 0.  1.
          2   -1    0    0  501    0  0.00000000000E+00 -0.00000000000E+00 -0.17859382714E+04  0.17859382714E+04  0.25500000000E-02 0. -1.
    8880022    1    1    2    0    0 -0.17676545604E+03  0.10276964496E+03 -0.17305723537E+04  0.17493084207E+04  0.15294330000E+03 0.  0.
    8880022    1    1    2    0    0  0.17676545604E+03 -0.10276964496E+03  0.30836232499E+03  0.40035809329E+03  0.15294330000E+03 0.  0.
<mgrwt>
<rscale>  0 0.25534150E+03</rscale>
<asrwt>0</asrwt>
<pdfrwt beam="1">  1        2 0.27475973E+00 0.25534150E+03</pdfrwt>
<pdfrwt beam="2">  1       -2 0.55958192E-01 0.25534150E+03</pdfrwt>
<totfact> 0.30056960E+01</totfact>
</mgrwt>
</event>
<event>
 4    1  0.3365401E-008  0.1188466E+04  0.7818608E-02  0.9123012E-01
          2   -1    0    0  501    0  0.00000000000E+00  0.00000000000E+00  0.18131010617E+04  0.18131010617E+04  0.25500000000E-02 0. -1.
         -2   -1    0    0    0  501 -0.00000000000E+00 -0.00000000000E+00 -0.11109729768E+04  0.11109729768E+04  0.25500000000E-02 0.  1.
    8880022    1    1    2    0    0  0.24438709736E+03 -0.11529678600E+04 -0.44811013092E+03  0.12701394735E+04  0.15294330000E+03 0.  0.
    8880022    1    1    2    0    0 -0.24438709736E+03  0.11529678600E+04  0.11502382158E+04  0.16539345651E+04  0.15294330000E+03 0.  0.
<mgrwt>
<rscale>  0 0.11884661E+04</rscale>
<asrwt>0</asrwt>
<pdfrwt beam="1">  1        2 0.27893862E+00 0.11884661E+04</pdfrwt>
<pdfrwt beam="2">  1       -2 0.17091892E+00 0.11884661E+04</pdfrwt>
<totfact> 0.17324560E+00</totfact>
</mgrwt>
</event>
<event>
 4    1  0.3365401E-008  0.3916860E+03  0.7818608E-02  0.1046697E+00
         -2   -1    0    0    0  501 -0.00000000000E+00  0.00000000000E+00  0.10367763040E+03  0.10367763043E+03  0.25500000000E-02 0.  1.
          2   -1    0    0  501    0  0.00000000000E+00 -0.00000000000E+00 -0.26877198665E+04  0.26877198665E+04  0.25500000000E-02 0. -1.
    8880022    1    1    2    0    0  0.30190080354E+03 -0.19718566165E+03 -0.22276983776E+04  0.22618704637E+04  0.15294330000E+03 0.  0.
    8880022    1    1    2    0    0 -0.30190080354E+03  0.19718566165E+03 -0.35634385849E+03  0.52952703315E+03  0.15294330000E+03 0.  0.
<mgrwt>
<rscale>  0 0.39168601E+03</rscale>
<asrwt>0</asrwt>
<pdfrwt beam="1">  1        2 0.41349531E+00 0.39168601E+03</pdfrwt>
<pdfrwt beam="2">  1       -2 0.15950407E-01 0.39168601E+03</pdfrwt>
<totfact> 0.94607379E+01</totfact>
</mgrwt>
</event>
<event>
 4    1  0.3365401E-008  0.3284837E+03  0.7818608E-02  0.1071810E+00
          2   -1    0    0  501    0  0.00000000000E+00  0.00000000000E+00  0.59086853920E+03  0.59086853921E+03  0.25500000000E-02 0. -1.
         -2   -1    0    0    0  501 -0.00000000000E+00 -0.00000000000E+00 -0.22355981826E+03  0.22355981827E+03  0.25500000000E-02 0.  1.
    8880022    1    1    2    0    0 -0.56005844342E+02  0.28525998957E+03  0.93836125328E+01  0.32861774366E+03  0.15294330000E+03 0.  1.
    8880022    1    1    2    0    0  0.56005844342E+02 -0.28525998957E+03  0.35792510841E+03  0.48581061382E+03  0.15294330000E+03 0.  0.
<mgrwt>
<rscale>  0 0.32848374E+03</rscale>
<asrwt>0</asrwt>
<pdfrwt beam="1">  1        2 0.90902851E-01 0.32848374E+03</pdfrwt>
<pdfrwt beam="2">  1       -2 0.34393819E-01 0.32848374E+03</pdfrwt>
<totfact> 0.40916469E+02</totfact>
</mgrwt>
</event>
<event>
 4    1  0.3365401E-008  0.1788248E+03  0.7818608E-02  0.1168945E+00
          2   -1    0    0  501    0  0.00000000000E+00  0.00000000000E+00  0.15520441302E+04  0.15520441302E+04  0.25500000000E-02 0. -1.
         -2   -1    0    0    0  501 -0.00000000000E+00 -0.00000000000E+00 -0.12503204347E+03  0.12503204350E+03  0.25500000000E-02 0.  1.
    8880022    1    1    2    0    0 -0.25751254457E+02  0.89014107406E+02 -0.52832614314E+02  0.18646601989E+03  0.15294330000E+03 0.  0.
    8880022    1    1    2    0    0  0.25751254457E+02 -0.89014107406E+02  0.14798447010E+04  0.14906101538E+04  0.15294330000E+03 0.  0.
<mgrwt>
<rscale>  0 0.17882475E+03</rscale>
<asrwt>0</asrwt>
<pdfrwt beam="1">  1        2 0.23877603E+00 0.17882475E+03</pdfrwt>
<pdfrwt beam="2">  1       -2 0.19235698E-01 0.17882475E+03</pdfrwt>
<totfact> 0.29543273E+02</totfact>
</mgrwt>
</event>
<event>
 4    1  0.3365401E-008  0.4552376E+03  0.7818608E-02  0.1026172E+00
          2   -1    0    0  501    0  0.00000000000E+00  0.00000000000E+00  0.49218294547E+03  0.49218294547E+03  0.25500000000E-02 0. -1.
         -2   -1    0    0    0  501 -0.00000000000E+00 -0.00000000000E+00 -0.97154012589E+03  0.97154012589E+03  0.25500000000E-02 0.  1.
    8880022    1    1    2    0    0  0.38103314067E+03  0.19663012013E+03  0.31121429207E+03  0.55144868032E+03  0.15294330000E+03 0.  0.
    8880022    1    1    2    0    0 -0.38103314067E+03 -0.19663012013E+03 -0.79057147249E+03  0.91227439104E+03  0.15294330000E+03 0.  0.
<mgrwt>
<rscale>  0 0.45523764E+03</rscale>
<asrwt>0</asrwt>
<pdfrwt beam="1">  1        2 0.75720453E-01 0.45523764E+03</pdfrwt>
<pdfrwt beam="2">  1       -2 0.14946771E+00 0.45523764E+03</pdfrwt>
<totfact> 0.19866003E+01</totfact>
</mgrwt>
</event>
<event>
 4    1  0.3365401E-008  0.5693578E+03  0.7818608E-02  0.9971101E-01
          2   -1    0    0  501    0  0.00000000000E+00  0.00000000000E+00  0.89978543182E+03  0.89978543183E+03  0.25500000000E-02 0. -1.
         -2   -1    0    0    0  501 -0.00000000000E+00 -0.00000000000E+00 -0.12043138824E+04  0.12043138824E+04  0.25500000000E-02 0.  1.
    8880022    1    1    2    0    0 -0.28121561632E+03  0.47084442507E+03 -0.10330050917E+04  0.11795201855E+04  0.15294330000E+03 0.  0.
    8880022    1    1    2    0    0  0.28121561632E+03 -0.47084442507E+03  0.72847664117E+03  0.92457912870E+03  0.15294330000E+03 0.  0.
<mgrwt>
<rscale>  0 0.56935784E+03</rscale>
<asrwt>0</asrwt>
<pdfrwt beam="1">  1        2 0.13842853E+00 0.56935784E+03</pdfrwt>
<pdfrwt beam="2">  1       -2 0.18527906E+00 0.56935784E+03</pdfrwt>
<totfact> 0.51365947E+00</totfact>
</mgrwt>
</event>
<event>
 4    1  0.3365401E-008  0.3532862E+03  0.7818608E-02  0.1061274E+00
         -2   -1    0    0    0  501 -0.00000000000E+00  0.00000000000E+00  0.10920751378E+03  0.10920751381E+03  0.25500000000E-02 0.  1.
          2   -1    0    0  501    0  0.00000000000E+00 -0.00000000000E+00 -0.15868917996E+04  0.15868917996E+04  0.25500000000E-02 0. -1.
    8880022    1    1    2    0    0  0.29706118521E+03  0.11477861495E+03 -0.29025722666E+03  0.45723122034E+03  0.15294330000E+03 0.  1.
    8880022    1    1    2    0    0 -0.29706118521E+03 -0.11477861495E+03 -0.11874270592E+04  0.12388680931E+04  0.15294330000E+03 0.  0.
<mgrwt>
<rscale>  0 0.35328619E+03</rscale>
<asrwt>0</asrwt>
<pdfrwt beam="1">  1        2 0.24413718E+00 0.35328619E+03</pdfrwt>
<pdfrwt beam="2">  1       -2 0.16801157E-01 0.35328619E+03</pdfrwt>
<totfact> 0.34465985E+02</totfact>
</mgrwt>
</event>
<event>
 4    1  0.3365401E-008  0.9038241E+03  0.7818608E-02  0.9420814E-01
         -2   -1    0    0    0  501 -0.00000000000E+00  0.00000000000E+00  0.67858283564E+03  0.67858283565E+03  0.25500000000E-02 0.  1.
          2   -1    0    0  501    0  0.00000000000E+00 -0.00000000000E+00 -0.21269659216E+04  0.21269659216E+04  0.25500000000E-02 0. -1.
    8880022    1    1    2    0    0 -0.69981681361E+03  0.55114678379E+03 -0.16483373843E+04  0.18798707763E+04  0.15294330000E+03 0.  0.
    8880022    1    1    2    0    0  0.69981681361E+03 -0.55114678379E+03  0.19995429843E+03  0.92567798092E+03  0.15294330000E+03 0.  0.
<mgrwt>
<rscale>  0 0.90382410E+03</rscale>
<asrwt>0</asrwt>
<pdfrwt beam="1">  1        2 0.32722552E+00 0.90382410E+03</pdfrwt>
<pdfrwt beam="2">  1       -2 0.10439736E+00 0.90382410E+03</pdfrwt>
<totfact> 0.42928006E+00</totfact>
</mgrwt>
</event>
<event>
 4    1  0.3365401E-008  0.7774772E+03  0.7818608E-02  0.9593202E-01
         -2   -1    0    0    0  501 -0.00000000000E+00  0.00000000000E+00  0.31094735766E+03  0.31094735767E+03  0.25500000000E-02 0.  1.
          2   -1    0    0  501    0  0.00000000000E+00 -0.00000000000E+00 -0.23614531786E+04  0.23614531786E+04  0.25500000000E-02 0. -1.
    8880022    1    1    2    0    0  0.50168952856E+03  0.57392229440E+03 -0.15870815616E+04  0.17672856926E+04  0.15294330000E+03 0.  0.
    8880022    1    1    2    0    0 -0.50168952856E+03 -0.57392229440E+03 -0.46342425931E+03  0.90511484366E+03  0.15294330000E+03 0.  0.
<mgrwt>
<rscale>  0 0.77747723E+03</rscale>
<asrwt>0</asrwt>
<pdfrwt beam="1">  1        2 0.36330048E+00 0.77747723E+03</pdfrwt>
<pdfrwt beam="2">  1       -2 0.47838057E-01 0.77747723E+03</pdfrwt>
<totfact> 0.17986035E+01</totfact>
</mgrwt>
</event>
<event>
 4    1  0.4200993E-008  0.1108372E+04  0.7818608E-02  0.9197070E-01
          2   -1    0    0  501    0  0.00000000000E+00  0.00000000000E+00  0.29413671272E+04  0.29413671272E+04  0.25500000000E-02 0. -1.
         -2   -1    0    0    0  501 -0.00000000000E+00 -0.00000000000E+00 -0.13309647869E+04  0.13309647869E+04  0.25500000000E-02 0.  1.
    8880022    1    1    2    0    0 -0.84847515845E+03 -0.69655332554E+03 -0.96433655276E+03  0.14691607366E+04  0.15294330000E+03 0.  0.
    8880022    1    1    2    0    0  0.84847515845E+03  0.69655332554E+03  0.25747388931E+04  0.28031711775E+04  0.15294330000E+03 0.  0.
<mgrwt>
<rscale>  0 0.11083719E+04</rscale>
<asrwt>0</asrwt>
<pdfrwt beam="1">  1        2 0.45251802E+00 0.11083719E+04</pdfrwt>
<pdfrwt beam="2">  1       -2 0.20476381E+00 0.11083719E+04</pdfrwt>
<totfact> 0.23374630E-01</totfact>
</mgrwt>
</event>
<event>
 4    1  0.3365401E-008  0.3189005E+03  0.7818608E-02  0.1076156E+00
         -2   -1    0    0    0  501 -0.00000000000E+00  0.00000000000E+00  0.95966250623E+02  0.95966250657E+02  0.25500000000E-02 0.  1.
          2   -1    0    0  501    0  0.00000000000E+00 -0.00000000000E+00 -0.19636301407E+04  0.19636301407E+04  0.25500000000E-02 0. -1.
    8880022    1    1    2    0    0 -0.79691157072E+02  0.26824461703E+03 -0.16325219461E+04  0.16633777119E+04  0.15294330000E+03 0.  0.
    8880022    1    1    2    0    0  0.79691157072E+02 -0.26824461703E+03 -0.23514194398E+03  0.39621867941E+03  0.15294330000E+03 0.  0.
<mgrwt>
<rscale>  0 0.31890047E+03</rscale>
<asrwt>0</asrwt>
<pdfrwt beam="1">  1        2 0.30209691E+00 0.31890047E+03</pdfrwt>
<pdfrwt beam="2">  1       -2 0.14764040E-01 0.31890047E+03</pdfrwt>
<totfact> 0.27144993E+02</totfact>
</mgrwt>
</event>
<event>
 4    1  0.3365401E-008  0.1284454E+04  0.7818608E-02  0.9041985E-01
          2   -1    0    0  501    0  0.00000000000E+00  0.00000000000E+00  0.26194603253E+04  0.26194603253E+04  0.25500000000E-02 0. -1.
         -2   -1    0    0    0  501 -0.00000000000E+00 -0.00000000000E+00 -0.14193995733E+04  0.14193995733E+04  0.25500000000E-02 0.  1.
    8880022    1    1    2    0    0  0.12078853929E+04  0.40919992798E+03 -0.90612837862E+03  0.15719071203E+04  0.15294330000E+03 0.  0.
    8880022    1    1    2    0    0 -0.12078853929E+04 -0.40919992798E+03  0.21061891306E+04  0.24669527783E+04  0.15294330000E+03 0.  0.
<mgrwt>
<rscale>  0 0.12844545E+04</rscale>
<asrwt>0</asrwt>
<pdfrwt beam="1">  1        2 0.40299389E+00 0.12844545E+04</pdfrwt>
<pdfrwt beam="2">  1       -2 0.21836917E+00 0.12844545E+04</pdfrwt>
<totfact> 0.28967174E-01</totfact>
</mgrwt>
</event>
<event>
 4    1  0.3365401E-008  0.5439839E+03  0.7818608E-02  0.1002896E+00
         -2   -1    0    0    0  501 -0.00000000000E+00  0.00000000000E+00  0.56664805674E+03  0.56664805675E+03  0.25500000000E-02 0.  1.
          2   -1    0    0  501    0  0.00000000000E+00 -0.00000000000E+00 -0.15041243753E+04  0.15041243753E+04  0.25500000000E-02 0. -1.
    8880022    1    1    2    0    0 -0.51317540599E+03 -0.95801051988E+02 -0.13052916560E+04  0.14141091893E+04  0.15294330000E+03 0. -1.
    8880022    1    1    2    0    0  0.51317540599E+03  0.95801051988E+02  0.36781533749E+03  0.65666324275E+03  0.15294330000E+03 0.  0.
<mgrwt>
<rscale>  0 0.54398391E+03</rscale>
<asrwt>0</asrwt>
<pdfrwt beam="1">  1        2 0.23140375E+00 0.54398391E+03</pdfrwt>
<pdfrwt beam="2">  1       -2 0.87176625E-01 0.54398391E+03</pdfrwt>
<totfact> 0.15173355E+01</totfact>
</mgrwt>
</event>
<event>
 4    1  0.3365401E-008  0.5703381E+03  0.7818608E-02  0.9968931E-01
          2   -1    0    0  501    0  0.00000000000E+00  0.00000000000E+00  0.24988599009E+04  0.24988599009E+04  0.25500000000E-02 0. -1.
         -2   -1    0    0    0  501 -0.00000000000E+00 -0.00000000000E+00 -0.16509786368E+03  0.16509786370E+03  0.25500000000E-02 0.  1.
    8880022    1    1    2    0    0 -0.35750821883E+03  0.41723112349E+03  0.55426233180E+03  0.79529385915E+03  0.15294330000E+03 0.  1.
    8880022    1    1    2    0    0  0.35750821883E+03 -0.41723112349E+03  0.17794997055E+04  0.18686639055E+04  0.15294330000E+03 0.  0.
<mgrwt>
<rscale>  0 0.57033814E+03</rscale>
<asrwt>0</asrwt>
<pdfrwt beam="1">  1        2 0.38443995E+00 0.57033814E+03</pdfrwt>
<pdfrwt beam="2">  1       -2 0.25399673E-01 0.57033814E+03</pdfrwt>
<totfact> 0.51936589E+01</totfact>
</mgrwt>
</event>
<event>
 4    1  0.3365401E-008  0.3003463E+03  0.7818608E-02  0.1085068E+00
          2   -1    0    0  501    0  0.00000000000E+00  0.00000000000E+00  0.17592444022E+04  0.17592444023E+04  0.25500000000E-02 0. -1.
         -2   -1    0    0    0  501 -0.00000000000E+00 -0.00000000000E+00 -0.24818812089E+03  0.24818812090E+03  0.25500000000E-02 0.  1.
    8880022    1    1    2    0    0  0.21941731446E+03 -0.13664655033E+03  0.16495664768E+04  0.16766864501E+04  0.15294330000E+03 0.  0.
    8880022    1    1    2    0    0 -0.21941731446E+03  0.13664655033E+03 -0.13851019541E+03  0.33074607307E+03  0.15294330000E+03 0.  0.
<mgrwt>
<rscale>  0 0.30034628E+03</rscale>
<asrwt>0</asrwt>
<pdfrwt beam="1">  1        2 0.27065299E+00 0.30034628E+03</pdfrwt>
<pdfrwt beam="2">  1       -2 0.38182787E-01 0.30034628E+03</pdfrwt>
<totfact> 0.65047129E+01</totfact>
</mgrwt>
</event>
<event>
 4    1  0.3365401E-008  0.7296166E+03  0.7818608E-02  0.9667883E-01
         -2   -1    0    0    0  501 -0.00000000000E+00  0.00000000000E+00  0.57446251492E+03  0.57446251492E+03  0.25500000000E-02 0.  1.
          2   -1    0    0  501    0  0.00000000000E+00 -0.00000000000E+00 -0.10528203916E+04  0.10528203916E+04  0.25500000000E-02 0. -1.
    8880022    1    1    2    0    0  0.53298225272E+03  0.47421372548E+03 -0.52081651274E+03  0.89643194505E+03  0.15294330000E+03 0.  0.
    8880022    1    1    2    0    0 -0.53298225272E+03 -0.47421372548E+03  0.42458636015E+02  0.73085096151E+03  0.15294330000E+03 0.  0.
<mgrwt>
<rscale>  0 0.72961661E+03</rscale>
<asrwt>0</asrwt>
<pdfrwt beam="1">  1        2 0.16197237E+00 0.72961661E+03</pdfrwt>
<pdfrwt beam="2">  1       -2 0.88378849E-01 0.72961661E+03</pdfrwt>
<totfact> 0.26180074E+01</totfact>
</mgrwt>
</event>
<event>
 4    1  0.3365401E-008  0.4441369E+03  0.7818608E-02  0.1029485E+00
         -2   -1    0    0    0  501 -0.00000000000E+00  0.00000000000E+00  0.30581210281E+03  0.30581210282E+03  0.25500000000E-02 0.  1.
          2   -1    0    0  501    0  0.00000000000E+00 -0.00000000000E+00 -0.11980205214E+04  0.11980205215E+04  0.25500000000E-02 0. -1.
    8880022    1    1    2    0    0  0.17867125822E+03  0.37675261920E+03 -0.95695809442E+03  0.10550006645E+04  0.15294330000E+03 0.  0.
    8880022    1    1    2    0    0 -0.17867125822E+03 -0.37675261920E+03  0.64749675779E+02  0.44883195978E+03  0.15294330000E+03 0. -1.
<mgrwt>
<rscale>  0 0.44413692E+03</rscale>
<asrwt>0</asrwt>
<pdfrwt beam="1">  1        2 0.18431085E+00 0.44413692E+03</pdfrwt>
<pdfrwt beam="2">  1       -2 0.47048017E-01 0.44413692E+03</pdfrwt>
<totfact> 0.85405441E+01</totfact>
</mgrwt>
</event>
<event>
 4    1  0.3365401E-008  0.2086968E+03  0.7818608E-02  0.1142602E+00
         -2   -1    0    0    0  501 -0.00000000000E+00  0.00000000000E+00  0.27958082825E+03  0.27958082826E+03  0.25500000000E-02 0.  1.
          2   -1    0    0  501    0  0.00000000000E+00 -0.00000000000E+00 -0.33895110655E+03  0.33895110656E+03  0.25500000000E-02 0. -1.
    8880022    1    1    2    0    0  0.64424021620E+01 -0.14184924363E+03  0.19766055229E+03  0.28744401092E+03  0.15294330000E+03 0.  0.
    8880022    1    1    2    0    0 -0.64424021620E+01  0.14184924363E+03 -0.25703083060E+03  0.33108792391E+03  0.15294330000E+03 0. -1.
<mgrwt>
<rscale>  0 0.20869683E+03</rscale>
<asrwt>0</asrwt>
<pdfrwt beam="1">  1        2 0.52146324E-01 0.20869683E+03</pdfrwt>
<pdfrwt beam="2">  1       -2 0.43012435E-01 0.20869683E+03</pdfrwt>
<totfact> 0.49786100E+02</totfact>
</mgrwt>
</event>
<event>
 4    1  0.3365401E-008  0.1070057E+04  0.7818608E-02  0.9234878E-01
         -2   -1    0    0    0  501 -0.00000000000E+00  0.00000000000E+00  0.95746881255E+03  0.95746881255E+03  0.25500000000E-02 0.  1.
          2   -1    0    0  501    0  0.00000000000E+00 -0.00000000000E+00 -0.16902634864E+04  0.16902634864E+04  0.25500000000E-02 0. -1.
    8880022    1    1    2    0    0  0.93265070124E+03  0.50179056510E+03  0.34957555485E+03  0.11257112522E+04  0.15294330000E+03 0.  0.
    8880022    1    1    2    0    0 -0.93265070124E+03 -0.50179056510E+03 -0.10823702287E+04  0.15220210467E+04  0.15294330000E+03 0.  0.
<mgrwt>
<rscale>  0 0.10700574E+04</rscale>
<asrwt>0</asrwt>
<pdfrwt beam="1">  1        2 0.26004054E+00 0.10700574E+04</pdfrwt>
<pdfrwt beam="2">  1       -2 0.14730289E+00 0.10700574E+04</pdfrwt>
<totfact> 0.30780458E+00</totfact>
</mgrwt>
</event>
<event>
 4    1  0.3365401E-008  0.2867749E+03  0.7818608E-02  0.1092045E+00
          2   -1    0    0  501    0  0.00000000000E+00  0.00000000000E+00  0.20848168337E+04  0.20848168337E+04  0.25500000000E-02 0. -1.
         -2   -1    0    0    0  501 -0.00000000000E+00 -0.00000000000E+00 -0.34331111644E+03  0.34331111645E+03  0.25500000000E-02 0.  1.
    8880022    1    1    2    0    0 -0.21853429942E+03  0.10531352676E+03 -0.27143444028E+03  0.39486261829E+03  0.15294330000E+03 0.  1.
    8880022    1    1    2    0    0  0.21853429942E+03 -0.10531352676E+03  0.20129401575E+04  0.20332653318E+04  0.15294330000E+03 0.  0.
<mgrwt>
<rscale>  0 0.28677488E+03</rscale>
<asrwt>0</asrwt>
<pdfrwt beam="1">  1        2 0.32074105E+00 0.28677488E+03</pdfrwt>
<pdfrwt beam="2">  1       -2 0.52817094E-01 0.28677488E+03</pdfrwt>
<totfact> 0.23258727E+01</totfact>
</mgrwt>
</event>
<event>
 4    1  0.3365401E-008  0.1940057E+03  0.7818608E-02  0.1154897E+00
         -2   -1    0    0    0  501 -0.00000000000E+00  0.00000000000E+00  0.11053109599E+03  0.11053109602E+03  0.25500000000E-02 0.  1.
          2   -1    0    0  501    0  0.00000000000E+00 -0.00000000000E+00 -0.11110115162E+04  0.11110115162E+04  0.25500000000E-02 0. -1.
    8880022    1    1    2    0    0 -0.22726062073E+02 -0.11717544300E+03  0.83908316077E+01  0.19418706808E+03  0.15294330000E+03 0.  0.
    8880022    1    1    2    0    0  0.22726062073E+02  0.11717544300E+03 -0.10088712518E+04  0.10273555441E+04  0.15294330000E+03 0. -1.
<mgrwt>
<rscale>  0 0.19400570E+03</rscale>
<asrwt>0</asrwt>
<pdfrwt beam="1">  1        2 0.17092484E+00 0.19400570E+03</pdfrwt>
<pdfrwt beam="2">  1       -2 0.17004785E-01 0.19400570E+03</pdfrwt>
<totfact> 0.63101640E+02</totfact>
</mgrwt>
</event>
<event>
 4    1  0.3365401E-008  0.1069449E+04  0.7818608E-02  0.9235491E-01
         -2   -1    0    0    0  501 -0.00000000000E+00  0.00000000000E+00  0.62445390595E+03  0.62445390595E+03  0.25500000000E-02 0.  1.
          2   -1    0    0  501    0  0.00000000000E+00 -0.00000000000E+00 -0.22937720097E+04  0.22937720097E+04  0.25500000000E-02 0. -1.
    8880022    1    1    2    0    0  0.93154929611E+03 -0.50253948612E+03 -0.17966591788E+03  0.10844360383E+04  0.15294330000E+03 0.  0.
    8880022    1    1    2    0    0 -0.93154929611E+03  0.50253948612E+03 -0.14896521858E+04  0.18337898773E+04  0.15294330000E+03 0.  0.
<mgrwt>
<rscale>  0 0.10694492E+04</rscale>
<asrwt>0</asrwt>
<pdfrwt beam="1">  1        2 0.35288800E+00 0.10694492E+04</pdfrwt>
<pdfrwt beam="2">  1       -2 0.96069833E-01 0.10694492E+04</pdfrwt>
<totfact> 0.41348845E+00</totfact>
</mgrwt>
</event>
<event>
 4    1  0.3365401E-008  0.5958793E+03  0.7818608E-02  0.9913992E-01
         -2   -1    0    0    0  501 -0.00000000000E+00  0.00000000000E+00  0.19131814235E+04  0.19131814235E+04  0.25500000000E-02 0.  1.
          2   -1    0    0  501    0  0.00000000000E+00 -0.00000000000E+00 -0.21882813096E+03  0.21882813098E+03  0.25500000000E-02 0. -1.
    8880022    1    1    2    0    0  0.40627177384E+03  0.40819572655E+03  0.12626177083E+04  0.13961646163E+04  0.15294330000E+03 0.  0.
    8880022    1    1    2    0    0 -0.40627177384E+03 -0.40819572655E+03  0.43173558426E+03  0.73584493824E+03  0.15294330000E+03 0.  0.
<mgrwt>
<rscale>  0 0.59587932E+03</rscale>
<asrwt>0</asrwt>
<pdfrwt beam="1">  1        2 0.33665867E-01 0.59587932E+03</pdfrwt>
<pdfrwt beam="2">  1       -2 0.29433560E+00 0.59587932E+03</pdfrwt>
<totfact> 0.56987039E+00</totfact>
</mgrwt>
</event>
<event>
 4    1  0.3365401E-008  0.4087629E+03  0.7818608E-02  0.1040787E+00
         -2   -1    0    0    0  501 -0.00000000000E+00  0.00000000000E+00  0.11890886734E+03  0.11890886737E+03  0.25500000000E-02 0.  1.
          2   -1    0    0  501    0  0.00000000000E+00 -0.00000000000E+00 -0.21601523726E+04  0.21601523726E+04  0.25500000000E-02 0. -1.
    8880022    1    1    2    0    0 -0.37628350069E+03 -0.45892914285E+02 -0.16942998443E+04  0.17429110844E+04  0.15294330000E+03 0.  0.
    8880022    1    1    2    0    0  0.37628350069E+03  0.45892914285E+02 -0.34694366089E+03  0.53615015558E+03  0.15294330000E+03 0.  1.
<mgrwt>
<rscale>  0 0.40876287E+03</rscale>
<asrwt>0</asrwt>
<pdfrwt beam="1">  1        2 0.33233110E+00 0.40876287E+03</pdfrwt>
<pdfrwt beam="2">  1       -2 0.18293674E-01 0.40876287E+03</pdfrwt>
<totfact> 0.14604175E+02</totfact>
</mgrwt>
</event>
<event>
 4    1  0.3365401E-008  0.3029441E+03  0.7818608E-02  0.1083778E+00
         -2   -1    0    0    0  501 -0.00000000000E+00  0.00000000000E+00  0.12006895819E+03  0.12006895822E+03  0.25500000000E-02 0.  1.
          2   -1    0    0  501    0  0.00000000000E+00 -0.00000000000E+00 -0.95237103036E+03  0.95237103036E+03  0.25500000000E-02 0. -1.
    8880022    1    1    2    0    0 -0.94210371706E+02 -0.24394235237E+03 -0.65440447823E+03  0.72112435790E+03  0.15294330000E+03 0.  0.
    8880022    1    1    2    0    0  0.94210371706E+02  0.24394235237E+03 -0.17789759394E+03  0.35131563068E+03  0.15294330000E+03 0.  0.
<mgrwt>
<rscale>  0 0.30294408E+03</rscale>
<asrwt>0</asrwt>
<pdfrwt beam="1">  1        2 0.14651861E+00 0.30294408E+03</pdfrwt>
<pdfrwt beam="2">  1       -2 0.18472148E-01 0.30294408E+03</pdfrwt>
<totfact> 0.67869840E+02</totfact>
</mgrwt>
</event>
<event>
 4    1  0.3365401E-008  0.5305282E+03  0.7818608E-02  0.1006104E+00
         -2   -1    0    0    0  501 -0.00000000000E+00  0.00000000000E+00  0.17099766127E+03  0.17099766129E+03  0.25500000000E-02 0.  1.
          2   -1    0    0  501    0  0.00000000000E+00 -0.00000000000E+00 -0.19973934033E+04  0.19973934033E+04  0.25500000000E-02 0. -1.
    8880022    1    1    2    0    0  0.50727076488E+03  0.27292290728E+02 -0.13679553344E+04  0.14672293440E+04  0.15294330000E+03 0.  0.
    8880022    1    1    2    0    0 -0.50727076488E+03 -0.27292290728E+02 -0.45844040762E+03  0.70116172057E+03  0.15294330000E+03 0.  0.
<mgrwt>
<rscale>  0 0.53052818E+03</rscale>
<asrwt>0</asrwt>
<pdfrwt beam="1">  1        2 0.30729128E+00 0.53052818E+03</pdfrwt>
<pdfrwt beam="2">  1       -2 0.26307334E-01 0.53052818E+03</pdfrwt>
<totfact> 0.92462285E+01</totfact>
</mgrwt>
</event>
<event>
 4    1  0.3365401E-008  0.1731122E+04  0.7818608E-02  0.8743811E-01
          2   -1    0    0  501    0  0.00000000000E+00  0.00000000000E+00  0.25611500823E+04  0.25611500823E+04  0.25500000000E-02 0. -1.
         -2   -1    0    0    0  501 -0.00000000000E+00 -0.00000000000E+00 -0.15183425437E+04  0.15183425437E+04  0.25500000000E-02 0.  1.
    8880022    1    1    2    0    0 -0.11644270236E+04  0.12718102447E+04  0.14982735733E+04  0.22894556003E+04  0.15294330000E+03 0.  0.
    8880022    1    1    2    0    0  0.11644270236E+04 -0.12718102447E+04 -0.45546603474E+03  0.17900370258E+04  0.15294330000E+03 0.  0.
<mgrwt>
<rscale>  0 0.17311220E+04</rscale>
<asrwt>0</asrwt>
<pdfrwt beam="1">  1        2 0.39402308E+00 0.17311220E+04</pdfrwt>
<pdfrwt beam="2">  1       -2 0.23359116E+00 0.17311220E+04</pdfrwt>
<totfact> 0.23813377E-01</totfact>
</mgrwt>
</event>
<event>
 4    1  0.3365401E-008  0.2840663E+03  0.7818608E-02  0.1093488E+00
         -2   -1    0    0    0  501 -0.00000000000E+00  0.00000000000E+00  0.78203820859E+02  0.78203820901E+02  0.25500000000E-02 0.  1.
          2   -1    0    0  501    0  0.00000000000E+00 -0.00000000000E+00 -0.18921860067E+04  0.18921860067E+04  0.25500000000E-02 0. -1.
    8880022    1    1    2    0    0  0.23230293845E+03  0.57770054414E+02 -0.24267116035E+03  0.37360805596E+03  0.15294330000E+03 0.  0.
    8880022    1    1    2    0    0 -0.23230293845E+03 -0.57770054414E+02 -0.15713110255E+04  0.15967817717E+04  0.15294330000E+03 0.  0.
<mgrwt>
<rscale>  0 0.28406634E+03</rscale>
<asrwt>0</asrwt>
<pdfrwt beam="1">  1        2 0.29110551E+00 0.28406634E+03</pdfrwt>
<pdfrwt beam="2">  1       -2 0.12031358E-01 0.28406634E+03</pdfrwt>
<totfact> 0.41700831E+02</totfact>
</mgrwt>
</event>
<event>
 4    1  0.3365401E-008  0.9014324E+03  0.7818608E-02  0.9423793E-01
          2   -1    0    0  501    0  0.00000000000E+00  0.00000000000E+00  0.18819631669E+04  0.18819631669E+04  0.25500000000E-02 0. -1.
         -2   -1    0    0    0  501 -0.00000000000E+00 -0.00000000000E+00 -0.66943323821E+03  0.66943323821E+03  0.25500000000E-02 0.  1.
    8880022    1    1    2    0    0 -0.83639646672E+03 -0.29938210585E+03 -0.15383870888E+03  0.91446525151E+03  0.15294330000E+03 0.  0.
    8880022    1    1    2    0    0  0.83639646672E+03  0.29938210585E+03  0.13663686375E+04  0.16369311536E+04  0.15294330000E+03 0.  0.
<mgrwt>
<rscale>  0 0.90143239E+03</rscale>
<asrwt>0</asrwt>
<pdfrwt beam="1">  1        2 0.28953279E+00 0.90143239E+03</pdfrwt>
<pdfrwt beam="2">  1       -2 0.10298973E+00 0.90143239E+03</pdfrwt>
<totfact> 0.60486787E+00</totfact>
</mgrwt>
</event>
<event>
 4    1  0.3365401E-008  0.2712704E+03  0.7818608E-02  0.1100555E+00
          2   -1    0    0  501    0  0.00000000000E+00  0.00000000000E+00  0.37907612412E+04  0.37907612412E+04  0.25500000000E-02 0. -1.
         -2   -1    0    0    0  501 -0.00000000000E+00 -0.00000000000E+00 -0.29987162251E+02  0.29987162360E+02  0.25500000000E-02 0.  1.
    8880022    1    1    2    0    0  0.15485184921E+03  0.16191622022E+03  0.30148411923E+04  0.30270208168E+04  0.15294330000E+03 0.  0.
    8880022    1    1    2    0    0 -0.15485184921E+03 -0.16191622022E+03  0.74593288666E+03  0.79372758676E+03  0.15294330000E+03 0.  0.
<mgrwt>
<rscale>  0 0.27127036E+03</rscale>
<asrwt>0</asrwt>
<pdfrwt beam="1">  1        2 0.58319397E+00 0.27127036E+03</pdfrwt>
<pdfrwt beam="2">  1       -2 0.46134101E-02 0.27127036E+03</pdfrwt>
<totfact> 0.14159471E+02</totfact>
</mgrwt>
</event>
<event>
 4    1  0.3365401E-008  0.2478190E+03  0.7818608E-02  0.1114691E+00
         -2   -1    0    0    0  501 -0.00000000000E+00  0.00000000000E+00  0.28986583254E+03  0.28986583255E+03  0.25500000000E-02 0.  1.
          2   -1    0    0  501    0  0.00000000000E+00 -0.00000000000E+00 -0.14385968433E+04  0.14385968433E+04  0.25500000000E-02 0. -1.
    8880022    1    1    2    0    0 -0.19482430316E+03 -0.81297500576E+01  0.22369195236E+03  0.33384479104E+03  0.15294330000E+03 0.  0.
    8880022    1    1    2    0    0  0.19482430316E+03  0.81297500576E+01 -0.13724229631E+04  0.13946178848E+04  0.15294330000E+03 0. -1.
<mgrwt>
<rscale>  0 0.24781900E+03</rscale>
<asrwt>0</asrwt>
<pdfrwt beam="1">  1        2 0.22132259E+00 0.24781900E+03</pdfrwt>
<pdfrwt beam="2">  1       -2 0.44594744E-01 0.24781900E+03</pdfrwt>
<totfact> 0.72481162E+01</totfact>
</mgrwt>
</event>
<event>
 4    1  0.3365401E-008  0.2961494E+03  0.7818608E-02  0.1087181E+00
         -2   -1    0    0    0  501 -0.00000000000E+00  0.00000000000E+00  0.36604000663E+03  0.36604000664E+03  0.25500000000E-02 0.  1.
          2   -1    0    0  501    0  0.00000000000E+00 -0.00000000000E+00 -0.77712234314E+03  0.77712234314E+03  0.25500000000E-02 0. -1.
    8880022    1    1    2    0    0  0.21677805388E+03  0.13160591034E+03 -0.68090927015E+03  0.74252402484E+03  0.15294330000E+03 0.  0.
    8880022    1    1    2    0    0 -0.21677805388E+03 -0.13160591034E+03  0.26982693364E+03  0.40063832494E+03  0.15294330000E+03 0.  0.
<mgrwt>
<rscale>  0 0.29614944E+03</rscale>
<asrwt>0</asrwt>
<pdfrwt beam="1">  1        2 0.11955728E+00 0.29614944E+03</pdfrwt>
<pdfrwt beam="2">  1       -2 0.56313847E-01 0.29614944E+03</pdfrwt>
<totfact> 0.11194137E+02</totfact>
</mgrwt>
</event>
<event>
 4    1  0.3365401E-008  0.4013420E+03  0.7818608E-02  0.1043316E+00
         -2   -1    0    0    0  501 -0.00000000000E+00  0.00000000000E+00  0.36354497950E+03  0.36354497951E+03  0.25500000000E-02 0.  1.
          2   -1    0    0  501    0  0.00000000000E+00 -0.00000000000E+00 -0.11464025087E+04  0.11464025087E+04  0.25500000000E-02 0. -1.
    8880022    1    1    2    0    0 -0.41070578878E+02  0.36877765752E+03 -0.98277798358E+03  0.10615686370E+04  0.15294330000E+03 0.  0.
    8880022    1    1    2    0    0  0.41070578878E+02 -0.36877765752E+03  0.19992045434E+03  0.44837885121E+03  0.15294330000E+03 0.  0.
<mgrwt>
<rscale>  0 0.40134201E+03</rscale>
<asrwt>0</asrwt>
<pdfrwt beam="1">  1        2 0.17636962E+00 0.40134201E+03</pdfrwt>
<pdfrwt beam="2">  1       -2 0.55929997E-01 0.40134201E+03</pdfrwt>
<totfact> 0.64890108E+01</totfact>
</mgrwt>
</event>
<event>
 4    1  0.3365401E-008  0.2596747E+03  0.7818608E-02  0.1107339E+00
         -2   -1    0    0    0  501 -0.00000000000E+00  0.00000000000E+00  0.76666603417E+02  0.76666603460E+02  0.25500000000E-02 0.  1.
          2   -1    0    0  501    0  0.00000000000E+00 -0.00000000000E+00 -0.44834047231E+04  0.44834047231E+04  0.25500000000E-02 0. -1.
    8880022    1    1    2    0    0 -0.10570547921E+03 -0.18128884560E+03 -0.42475635827E+04  0.42554937829E+04  0.15294330000E+03 0.  0.
    8880022    1    1    2    0    0  0.10570547921E+03  0.18128884560E+03 -0.15917453694E+03  0.30457754366E+03  0.15294330000E+03 0.  0.
<mgrwt>
<rscale>  0 0.25967469E+03</rscale>
<asrwt>0</asrwt>
<pdfrwt beam="1">  1        2 0.68975437E+00 0.25967469E+03</pdfrwt>
<pdfrwt beam="2">  1       -2 0.11794866E-01 0.25967469E+03</pdfrwt>
<totfact> 0.90503152E+00</totfact>
</mgrwt>
</event>
<event>
 4    1  0.3365401E-008  0.3861125E+03  0.7818608E-02  0.1048697E+00
          2   -1    0    0  501    0  0.00000000000E+00  0.00000000000E+00  0.67534914575E+03  0.67534914576E+03  0.25500000000E-02 0. -1.
         -2   -1    0    0    0  501 -0.00000000000E+00 -0.00000000000E+00 -0.64173075465E+03  0.64173075466E+03  0.25500000000E-02 0.  1.
    8880022    1    1    2    0    0  0.34387596981E+03  0.86258580441E+02  0.55018972901E+03  0.67215445862E+03  0.15294330000E+03 0.  0.
    8880022    1    1    2    0    0 -0.34387596981E+03 -0.86258580441E+02 -0.51657133791E+03  0.64492544180E+03  0.15294330000E+03 0.  0.
<mgrwt>
<rscale>  0 0.38611252E+03</rscale>
<asrwt>0</asrwt>
<pdfrwt beam="1">  1        2 0.10389987E+00 0.38611252E+03</pdfrwt>
<pdfrwt beam="2">  1       -2 0.98727808E-01 0.38611252E+03</pdfrwt>
<totfact> 0.38467332E+01</totfact>
</mgrwt>
</event>
<event>
 4    1  0.3365401E-008  0.6473129E+03  0.7818608E-02  0.9811834E-01
          2   -1    0    0  501    0  0.00000000000E+00  0.00000000000E+00  0.11905932036E+04  0.11905932036E+04  0.25500000000E-02 0. -1.
         -2   -1    0    0    0  501 -0.00000000000E+00 -0.00000000000E+00 -0.18014415007E+04  0.18014415007E+04  0.25500000000E-02 0.  1.
    8880022    1    1    2    0    0 -0.42979021506E+02 -0.62751508012E+03 -0.16473740566E+04  0.17699873749E+04  0.15294330000E+03 0.  0.
    8880022    1    1    2    0    0  0.42979021506E+02  0.62751508012E+03  0.10365257595E+04  0.12220473293E+04  0.15294330000E+03 0.  0.
<mgrwt>
<rscale>  0 0.64731293E+03</rscale>
<asrwt>0</asrwt>
<pdfrwt beam="1">  1        2 0.18316819E+00 0.64731293E+03</pdfrwt>
<pdfrwt beam="2">  1       -2 0.27714484E+00 0.64731293E+03</pdfrwt>
<totfact> 0.89689852E-01</totfact>
</mgrwt>
</event>
<event>
 4    1  0.3365401E-008  0.4752631E+03  0.7818608E-02  0.1020445E+00
          2   -1    0    0  501    0  0.00000000000E+00  0.00000000000E+00  0.11016700526E+04  0.11016700526E+04  0.25500000000E-02 0. -1.
         -2   -1    0    0    0  501 -0.00000000000E+00 -0.00000000000E+00 -0.33733051638E+03  0.33733051639E+03  0.25500000000E-02 0.  1.
    8880022    1    1    2    0    0  0.14129651992E+02  0.44975965619E+03  0.83276279250E+03  0.95883727347E+03  0.15294330000E+03 0.  0.
    8880022    1    1    2    0    0 -0.14129651992E+02 -0.44975965619E+03 -0.68423256241E+02  0.48016329557E+03  0.15294330000E+03 0.  0.
<mgrwt>
<rscale>  0 0.47526314E+03</rscale>
<asrwt>0</asrwt>
<pdfrwt beam="1">  1        2 0.16948770E+00 0.47526314E+03</pdfrwt>
<pdfrwt beam="2">  1       -2 0.51897003E-01 0.47526314E+03</pdfrwt>
<totfact> 0.79569937E+01</totfact>
</mgrwt>
</event>
<event>
 4    1  0.3365401E-008  0.3620421E+03  0.7818608E-02  0.1057778E+00
          2   -1    0    0  501    0  0.00000000000E+00  0.00000000000E+00  0.10999429715E+04  0.10999429715E+04  0.25500000000E-02 0. -1.
         -2   -1    0    0    0  501 -0.00000000000E+00 -0.00000000000E+00 -0.12734673707E+03  0.12734673710E+03  0.25500000000E-02 0.  1.
    8880022    1    1    2    0    0  0.20901935512E+03  0.25296981275E+03  0.33075471400E+03  0.49038061832E+03  0.15294330000E+03 0.  0.
    8880022    1    1    2    0    0 -0.20901935512E+03 -0.25296981275E+03  0.64184152044E+03  0.73690909030E+03  0.15294330000E+03 0.  0.
<mgrwt>
<rscale>  0 0.36204208E+03</rscale>
<asrwt>0</asrwt>
<pdfrwt beam="1">  1        2 0.16922199E+00 0.36204208E+03</pdfrwt>
<pdfrwt beam="2">  1       -2 0.19591806E-01 0.36204208E+03</pdfrwt>
<totfact> 0.49620299E+02</totfact>
</mgrwt>
</event>
<event>
 4    1  0.3365401E-008  0.9987471E+03  0.7818608E-02  0.9309920E-01
         -2   -1    0    0    0  501 -0.00000000000E+00  0.00000000000E+00  0.17178482367E+04  0.17178482367E+04  0.25500000000E-02 0.  1.
          2   -1    0    0  501    0  0.00000000000E+00 -0.00000000000E+00 -0.98212021424E+03  0.98212021425E+03  0.25500000000E-02 0. -1.
    8880022    1    1    2    0    0  0.73427605741E+03  0.65950196185E+03 -0.49524262665E+03  0.11147919440E+04  0.15294330000E+03 0.  0.
    8880022    1    1    2    0    0 -0.73427605741E+03 -0.65950196185E+03  0.12309706491E+04  0.15851765070E+04  0.15294330000E+03 0.  0.
<mgrwt>
<rscale>  0 0.99874712E+03</rscale>
<asrwt>0</asrwt>
<pdfrwt beam="1">  1        2 0.15109542E+00 0.99874712E+03</pdfrwt>
<pdfrwt beam="2">  1       -2 0.26428434E+00 0.99874712E+03</pdfrwt>
<totfact> 0.13571998E+00</totfact>
</mgrwt>
</event>
<event>
 4    1  0.3365401E-008  0.6925474E+03  0.7818608E-02  0.9730063E-01
          2   -1    0    0  501    0  0.00000000000E+00  0.00000000000E+00  0.19164943380E+04  0.19164943381E+04  0.25500000000E-02 0. -1.
         -2   -1    0    0    0  501 -0.00000000000E+00 -0.00000000000E+00 -0.31345258918E+03  0.31345258919E+03  0.25500000000E-02 0.  1.
    8880022    1    1    2    0    0  0.52159349647E+03  0.42915091199E+03  0.30089698901E+03  0.75509001572E+03  0.15294330000E+03 0.  0.
    8880022    1    1    2    0    0 -0.52159349647E+03 -0.42915091199E+03  0.13021447599E+04  0.14748569115E+04  0.15294330000E+03 0.  0.
<mgrwt>
<rscale>  0 0.69254742E+03</rscale>
<asrwt>0</asrwt>
<pdfrwt beam="1">  1        2 0.29484529E+00 0.69254742E+03</pdfrwt>
<pdfrwt beam="2">  1       -2 0.48223475E-01 0.69254742E+03</pdfrwt>
<totfact> 0.31454966E+01</totfact>
</mgrwt>
</event>
<event>
 4    1  0.3365401E-008  0.1030489E+04  0.7818608E-02  0.9275723E-01
          2   -1    0    0  501    0  0.00000000000E+00  0.00000000000E+00  0.28374240622E+04  0.28374240622E+04  0.25500000000E-02 0. -1.
         -2   -1    0    0    0  501 -0.00000000000E+00 -0.00000000000E+00 -0.62631205496E+03  0.62631205497E+03  0.25500000000E-02 0.  1.
    8880022    1    1    2    0    0  0.37613203194E+03 -0.94712257440E+03  0.22042392275E+04  0.24332239317E+04  0.15294330000E+03 0.  0.
    8880022    1    1    2    0    0 -0.37613203194E+03  0.94712257440E+03  0.68727797208E+01  0.10305121855E+04  0.15294330000E+03 0.  0.
<mgrwt>
<rscale>  0 0.10304893E+04</rscale>
<asrwt>0</asrwt>
<pdfrwt beam="1">  1        2 0.43652677E+00 0.10304893E+04</pdfrwt>
<pdfrwt beam="2">  1       -2 0.96355702E-01 0.10304893E+04</pdfrwt>
<totfact> 0.20008822E+00</totfact>
</mgrwt>
</event>
<event>
 4    1  0.3365401E-008  0.7865078E+03  0.7818608E-02  0.9579754E-01
         -2   -1    0    0    0  501 -0.00000000000E+00  0.00000000000E+00  0.24759275996E+04  0.24759275996E+04  0.25500000000E-02 0.  1.
          2   -1    0    0  501    0  0.00000000000E+00 -0.00000000000E+00 -0.31430317739E+03  0.31430317741E+03  0.25500000000E-02 0. -1.
    8880022    1    1    2    0    0  0.64817189127E+03 -0.41842087860E+03  0.17126123465E+04  0.18845783440E+04  0.15294330000E+03 0.  0.
    8880022    1    1    2    0    0 -0.64817189127E+03  0.41842087860E+03  0.44901207571E+03  0.90565243302E+03  0.15294330000E+03 0.  0.
<mgrwt>
<rscale>  0 0.78650778E+03</rscale>
<asrwt>0</asrwt>
<pdfrwt beam="1">  1        2 0.48354334E-01 0.78650778E+03</pdfrwt>
<pdfrwt beam="2">  1       -2 0.38091195E+00 0.78650778E+03</pdfrwt>
<totfact> 0.10834966E+00</totfact>
</mgrwt>
</event>
<event>
 4    1  0.3365401E-008  0.7430960E+03  0.7818608E-02  0.9646244E-01
          2   -1    0    0  501    0  0.00000000000E+00  0.00000000000E+00  0.36270257720E+04  0.36270257720E+04  0.25500000000E-02 0. -1.
         -2   -1    0    0    0  501 -0.00000000000E+00 -0.00000000000E+00 -0.18941426717E+03  0.18941426719E+03  0.25500000000E-02 0.  1.
    8880022    1    1    2    0    0 -0.71570306662E+03 -0.12872110731E+03  0.25641273547E+04  0.26696330735E+04  0.15294330000E+03 0.  0.
    8880022    1    1    2    0    0  0.71570306662E+03  0.12872110731E+03  0.87348415020E+03  0.11468069658E+04  0.15294330000E+03 0.  0.
<mgrwt>
<rscale>  0 0.74309599E+03</rscale>
<asrwt>0</asrwt>
<pdfrwt beam="1">  1        2 0.55800393E+00 0.74309599E+03</pdfrwt>
<pdfrwt beam="2">  1       -2 0.29140658E-01 0.74309599E+03</pdfrwt>
<totfact> 0.77682252E+00</totfact>
</mgrwt>
</event>
<event>
 4    1  0.3365401E-008  0.1310149E+04  0.7818608E-02  0.9021556E-01
          2   -1    0    0  501    0  0.00000000000E+00  0.00000000000E+00  0.17963767410E+04  0.17963767410E+04  0.25500000000E-02 0. -1.
         -2   -1    0    0    0  501 -0.00000000000E+00 -0.00000000000E+00 -0.14819699088E+04  0.14819699088E+04  0.25500000000E-02 0.  1.
    8880022    1    1    2    0    0  0.12511076753E+04 -0.35752972899E+03 -0.81976407834E+03  0.15454781523E+04  0.15294330000E+03 0.  0.
    8880022    1    1    2    0    0 -0.12511076753E+04  0.35752972899E+03  0.11341709105E+04  0.17328684974E+04  0.15294330000E+03 0.  0.
<mgrwt>
<rscale>  0 0.13101487E+04</rscale>
<asrwt>0</asrwt>
<pdfrwt beam="1">  1        2 0.27636565E+00 0.13101487E+04</pdfrwt>
<pdfrwt beam="2">  1       -2 0.22799537E+00 0.13101487E+04</pdfrwt>
<totfact> 0.73097549E-01</totfact>
</mgrwt>
</event>
<event>
 4    1  0.3458576E-008  0.7485002E+03  0.7818608E-02  0.9637706E-01
         -2   -1    0    0    0  501 -0.00000000000E+00  0.00000000000E+00  0.76542577922E+03  0.76542577923E+03  0.25500000000E-02 0.  1.
          2   -1    0    0  501    0  0.00000000000E+00 -0.00000000000E+00 -0.17538588362E+04  0.17538588362E+04  0.25500000000E-02 0. -1.
    8880022    1    1    2    0    0 -0.19430096354E+03 -0.70647578517E+03 -0.14557319043E+04  0.16368897122E+04  0.15294330000E+03 0.  0.
    8880022    1    1    2    0    0  0.19430096354E+03  0.70647578517E+03  0.46729884740E+03  0.88239490323E+03  0.15294330000E+03 0.  0.
<mgrwt>
<rscale>  0 0.74850020E+03</rscale>
<asrwt>0</asrwt>
<pdfrwt beam="1">  1        2 0.26982444E+00 0.74850020E+03</pdfrwt>
<pdfrwt beam="2">  1       -2 0.11775781E+00 0.74850020E+03</pdfrwt>
<totfact> 0.52488677E+00</totfact>
</mgrwt>
</event>
<event>
 4    1  0.3365401E-008  0.4850163E+03  0.7818608E-02  0.1017766E+00
          2   -1    0    0  501    0  0.00000000000E+00  0.00000000000E+00  0.46380941636E+03  0.46380941636E+03  0.25500000000E-02 0. -1.
         -2   -1    0    0    0  501 -0.00000000000E+00 -0.00000000000E+00 -0.19058892733E+04  0.19058892733E+04  0.25500000000E-02 0.  1.
    8880022    1    1    2    0    0  0.10200403378E+03 -0.44882555763E+03  0.29398338988E+03  0.56715702466E+03  0.15294330000E+03 0.  0.
    8880022    1    1    2    0    0 -0.10200403378E+03  0.44882555763E+03 -0.17360632468E+04  0.18025416650E+04  0.15294330000E+03 0.  0.
<mgrwt>
<rscale>  0 0.48501635E+03</rscale>
<asrwt>0</asrwt>
<pdfrwt beam="1">  1        2 0.71355296E-01 0.48501635E+03</pdfrwt>
<pdfrwt beam="2">  1       -2 0.29321373E+00 0.48501635E+03</pdfrwt>
<totfact> 0.25662960E+00</totfact>
</mgrwt>
</event>
<event>
 4    1  0.3365401E-008  0.4725112E+03  0.7818608E-02  0.1021214E+00
         -2   -1    0    0    0  501 -0.00000000000E+00  0.00000000000E+00  0.44028444289E+03  0.44028444290E+03  0.25500000000E-02 0.  1.
          2   -1    0    0  501    0  0.00000000000E+00 -0.00000000000E+00 -0.20708563995E+04  0.20708563995E+04  0.25500000000E-02 0. -1.
    8880022    1    1    2    0    0  0.37025246140E+03 -0.25057590727E+03 -0.19063521251E+04  0.19640379957E+04  0.15294330000E+03 0.  0.
    8880022    1    1    2    0    0 -0.37025246140E+03  0.25057590727E+03  0.27578016855E+03  0.54710284669E+03  0.15294330000E+03 0.  0.
<mgrwt>
<rscale>  0 0.47251119E+03</rscale>
<asrwt>0</asrwt>
<pdfrwt beam="1">  1        2 0.31859329E+00 0.47251119E+03</pdfrwt>
<pdfrwt beam="2">  1       -2 0.67736069E-01 0.47251119E+03</pdfrwt>
<totfact> 0.13308602E+01</totfact>
</mgrwt>
</event>
<event>
 4    1  0.3365401E-008  0.1664087E+03  0.7818608E-02  0.1181646E+00
         -2   -1    0    0    0  501 -0.00000000000E+00  0.00000000000E+00  0.93045736668E+03  0.93045736669E+03  0.25500000000E-02 0.  1.
          2   -1    0    0  501    0  0.00000000000E+00 -0.00000000000E+00 -0.14236617179E+03  0.14236617182E+03  0.25500000000E-02 0. -1.
    8880022    1    1    2    0    0  0.44653724579E+02  0.48023557379E+02 -0.83014363052E+02  0.18596573520E+03  0.15294330000E+03 0.  0.
    8880022    1    1    2    0    0 -0.44653724579E+02 -0.48023557379E+02  0.87110555794E+03  0.88685780330E+03  0.15294330000E+03 0.  1.
<mgrwt>
<rscale>  0 0.16640874E+03</rscale>
<asrwt>0</asrwt>
<pdfrwt beam="1">  1        2 0.21902488E-01 0.16640874E+03</pdfrwt>
<pdfrwt beam="2">  1       -2 0.14314729E+00 0.16640874E+03</pdfrwt>
<totfact> 0.90776801E+01</totfact>
</mgrwt>
</event>
<event>
 4    1  0.3365401E-008  0.3318044E+03  0.7818608E-02  0.1070341E+00
         -2   -1    0    0    0  501 -0.00000000000E+00  0.00000000000E+00  0.34788828598E+03  0.34788828599E+03  0.25500000000E-02 0.  1.
          2   -1    0    0  501    0  0.00000000000E+00 -0.00000000000E+00 -0.74246417747E+03  0.74246417747E+03  0.25500000000E-02 0. -1.
    8880022    1    1    2    0    0  0.10171049783E+03  0.27632859461E+03  0.21566823911E+03  0.39573597251E+03  0.15294330000E+03 0.  0.
    8880022    1    1    2    0    0 -0.10171049783E+03 -0.27632859461E+03 -0.61024413059E+03  0.69461649095E+03  0.15294330000E+03 0.  0.
<mgrwt>
<rscale>  0 0.33180442E+03</rscale>
<asrwt>0</asrwt>
<pdfrwt beam="1">  1        2 0.11422526E+00 0.33180442E+03</pdfrwt>
<pdfrwt beam="2">  1       -2 0.53521275E-01 0.33180442E+03</pdfrwt>
<totfact> 0.13093145E+02</totfact>
</mgrwt>
</event>
<event>
 4    1  0.3365401E-008  0.5790625E+03  0.7818608E-02  0.9949823E-01
         -2   -1    0    0    0  501 -0.00000000000E+00  0.00000000000E+00  0.39105154873E+03  0.39105154873E+03  0.25500000000E-02 0.  1.
          2   -1    0    0  501    0  0.00000000000E+00 -0.00000000000E+00 -0.85903933633E+03  0.85903933634E+03  0.25500000000E-02 0. -1.
    8880022    1    1    2    0    0  0.10795595114E+03  0.54796648742E+03 -0.20724447923E+03  0.61503145116E+03  0.15294330000E+03 0. -1.
    8880022    1    1    2    0    0 -0.10795595114E+03 -0.54796648742E+03 -0.26074330837E+03  0.63505943391E+03  0.15294330000E+03 0.  1.
<mgrwt>
<rscale>  0 0.57906253E+03</rscale>
<asrwt>0</asrwt>
<pdfrwt beam="1">  1        2 0.13215990E+00 0.57906253E+03</pdfrwt>
<pdfrwt beam="2">  1       -2 0.60161777E-01 0.57906253E+03</pdfrwt>
<totfact> 0.82767279E+01</totfact>
</mgrwt>
</event>
<event>
 4    1  0.3365401E-008  0.3838194E+03  0.7818608E-02  0.1049531E+00
          2   -1    0    0  501    0  0.00000000000E+00  0.00000000000E+00  0.51942731073E+03  0.51942731073E+03  0.25500000000E-02 0. -1.
         -2   -1    0    0    0  501 -0.00000000000E+00 -0.00000000000E+00 -0.44390438696E+03  0.44390438696E+03  0.25500000000E-02 0.  1.
    8880022    1    1    2    0    0 -0.40577849442E+01  0.35200735540E+03  0.32719824900E+03  0.50435700752E+03  0.15294330000E+03 0.  0.
    8880022    1    1    2    0    0  0.40577849442E+01 -0.35200735540E+03 -0.25167532523E+03  0.45897469017E+03  0.15294330000E+03 0.  0.
<mgrwt>
<rscale>  0 0.38381935E+03</rscale>
<asrwt>0</asrwt>
<pdfrwt beam="1">  1        2 0.79911894E-01 0.38381935E+03</pdfrwt>
<pdfrwt beam="2">  1       -2 0.68292983E-01 0.38381935E+03</pdfrwt>
<totfact> 0.11973624E+02</totfact>
</mgrwt>
</event>
<event>
 4    1  0.3365401E-008  0.1123195E+04  0.7818608E-02  0.9182874E-01
          2   -1    0    0  501    0  0.00000000000E+00  0.00000000000E+00  0.12234795002E+04  0.12234795002E+04  0.25500000000E-02 0. -1.
         -2   -1    0    0    0  501 -0.00000000000E+00 -0.00000000000E+00 -0.21367717729E+04  0.21367717729E+04  0.25500000000E-02 0.  1.
    8880022    1    1    2    0    0 -0.72446854838E+03  0.84458358038E+03 -0.16652102495E+04  0.20086047222E+04  0.15294330000E+03 0.  0.
    8880022    1    1    2    0    0  0.72446854838E+03 -0.84458358038E+03  0.75191797685E+03  0.13516465510E+04  0.15294330000E+03 0.  0.
<mgrwt>
<rscale>  0 0.11231953E+04</rscale>
<asrwt>0</asrwt>
<pdfrwt beam="1">  1        2 0.18822762E+00 0.11231953E+04</pdfrwt>
<pdfrwt beam="2">  1       -2 0.32873412E+00 0.11231953E+04</pdfrwt>
<totfact> 0.38365575E-01</totfact>
</mgrwt>
</event>
<event>
 4    1  0.3365401E-008  0.6348694E+03  0.7818608E-02  0.9835592E-01
         -2   -1    0    0    0  501 -0.00000000000E+00  0.00000000000E+00  0.49264919564E+03  0.49264919564E+03  0.25500000000E-02 0.  1.
          2   -1    0    0  501    0  0.00000000000E+00 -0.00000000000E+00 -0.11629608459E+04  0.11629608459E+04  0.25500000000E-02 0. -1.
    8880022    1    1    2    0    0  0.92087566986E+02  0.60925144729E+03  0.11559685847E+03  0.64530747146E+03  0.15294330000E+03 0.  0.
    8880022    1    1    2    0    0 -0.92087566986E+02 -0.60925144729E+03 -0.78590850874E+03  0.10103025701E+04  0.15294330000E+03 0.  0.
<mgrwt>
<rscale>  0 0.63486936E+03</rscale>
<asrwt>0</asrwt>
<pdfrwt beam="1">  1        2 0.17891705E+00 0.63486936E+03</pdfrwt>
<pdfrwt beam="2">  1       -2 0.75792184E-01 0.63486936E+03</pdfrwt>
<totfact> 0.32071451E+01</totfact>
</mgrwt>
</event>
<event>
 4    1  0.3365401E-008  0.9385370E+03  0.7818608E-02  0.9378650E-01
         -2   -1    0    0    0  501 -0.00000000000E+00  0.00000000000E+00  0.34572591423E+03  0.34572591424E+03  0.25500000000E-02 0.  1.
          2   -1    0    0  501    0  0.00000000000E+00 -0.00000000000E+00 -0.32281724853E+04  0.32281724853E+04  0.25500000000E-02 0. -1.
    8880022    1    1    2    0    0  0.83158908142E+03 -0.40733237314E+03 -0.22615688668E+04  0.24485802937E+04  0.15294330000E+03 0.  0.
    8880022    1    1    2    0    0 -0.83158908142E+03  0.40733237314E+03 -0.62087770425E+03  0.11253181058E+04  0.15294330000E+03 0.  0.
<mgrwt>
<rscale>  0 0.93853701E+03</rscale>
<asrwt>0</asrwt>
<pdfrwt beam="1">  1        2 0.49664190E+00 0.93853701E+03</pdfrwt>
<pdfrwt beam="2">  1       -2 0.53188604E-01 0.93853701E+03</pdfrwt>
<totfact> 0.43027533E+00</totfact>
</mgrwt>
</event>
<event>
 4    1  0.3365401E-008  0.5226176E+03  0.7818608E-02  0.1008038E+00
         -2   -1    0    0    0  501 -0.00000000000E+00  0.00000000000E+00  0.34330366995E+03  0.34330366996E+03  0.25500000000E-02 0.  1.
          2   -1    0    0  501    0  0.00000000000E+00 -0.00000000000E+00 -0.12465827688E+04  0.12465827688E+04  0.25500000000E-02 0. -1.
    8880022    1    1    2    0    0  0.27579742334E+03 -0.41674132668E+03  0.26505875419E+02  0.52328937170E+03  0.15294330000E+03 0.  0.
    8880022    1    1    2    0    0 -0.27579742334E+03  0.41674132668E+03 -0.92978497428E+03  0.10665970671E+04  0.15294330000E+03 0.  0.
<mgrwt>
<rscale>  0 0.52261765E+03</rscale>
<asrwt>0</asrwt>
<pdfrwt beam="1">  1        2 0.19178196E+00 0.52261765E+03</pdfrwt>
<pdfrwt beam="2">  1       -2 0.52815950E-01 0.52261765E+03</pdfrwt>
<totfact> 0.62693403E+01</totfact>
</mgrwt>
</event>
<event>
 4    1  0.3365401E-008  0.3017488E+03  0.7818608E-02  0.1084370E+00
         -2   -1    0    0    0  501 -0.00000000000E+00  0.00000000000E+00  0.91167293459E+02  0.91167293495E+02  0.25500000000E-02 0.  1.
          2   -1    0    0  501    0  0.00000000000E+00 -0.00000000000E+00 -0.18693265399E+04  0.18693265399E+04  0.25500000000E-02 0. -1.
    8880022    1    1    2    0    0  0.29942283419E+02 -0.25838755645E+03 -0.15580380775E+04  0.15869892797E+04  0.15294330000E+03 0.  0.
    8880022    1    1    2    0    0 -0.29942283419E+02  0.25838755645E+03 -0.22012116894E+03  0.37350455378E+03  0.15294330000E+03 0.  0.
<mgrwt>
<rscale>  0 0.30174877E+03</rscale>
<asrwt>0</asrwt>
<pdfrwt beam="1">  1        2 0.28758867E+00 0.30174877E+03</pdfrwt>
<pdfrwt beam="2">  1       -2 0.14025739E-01 0.30174877E+03</pdfrwt>
<totfact> 0.33249485E+02</totfact>
</mgrwt>
</event>
<event>
 4    1  0.3365401E-008  0.5459672E+03  0.7818608E-02  0.1002432E+00
         -2   -1    0    0    0  501 -0.00000000000E+00  0.00000000000E+00  0.13708764141E+03  0.13708764143E+03  0.25500000000E-02 0.  1.
          2   -1    0    0  501    0  0.00000000000E+00 -0.00000000000E+00 -0.22716296426E+04  0.22716296426E+04  0.25500000000E-02 0. -1.
    8880022    1    1    2    0    0 -0.43720927622E+03 -0.28902694342E+03 -0.81807655062E+03  0.98352906460E+03  0.15294330000E+03 0.  0.
    8880022    1    1    2    0    0  0.43720927622E+03  0.28902694342E+03 -0.13164654506E+04  0.14251882194E+04  0.15294330000E+03 0.  0.
<mgrwt>
<rscale>  0 0.54596720E+03</rscale>
<asrwt>0</asrwt>
<pdfrwt beam="1">  1        2 0.34948145E+00 0.54596720E+03</pdfrwt>
<pdfrwt beam="2">  1       -2 0.21090408E-01 0.54596720E+03</pdfrwt>
<totfact> 0.96989044E+01</totfact>
</mgrwt>
</event>
<event>
 4    1  0.3365401E-008  0.4124944E+03  0.7818608E-02  0.1039537E+00
         -2   -1    0    0    0  501 -0.00000000000E+00  0.00000000000E+00  0.38812515089E+03  0.38812515089E+03  0.25500000000E-02 0.  1.
          2   -1    0    0  501    0  0.00000000000E+00 -0.00000000000E+00 -0.12205428488E+04  0.12205428488E+04  0.25500000000E-02 0. -1.
    8880022    1    1    2    0    0 -0.35392361616E+03  0.14662211425E+03 -0.10600884978E+04  0.11375145039E+04  0.15294330000E+03 0. -1.
    8880022    1    1    2    0    0  0.35392361616E+03 -0.14662211425E+03  0.22767079987E+03  0.47115349579E+03  0.15294330000E+03 0.  0.
<mgrwt>
<rscale>  0 0.41249439E+03</rscale>
<asrwt>0</asrwt>
<pdfrwt beam="1">  1        2 0.18777582E+00 0.41249439E+03</pdfrwt>
<pdfrwt beam="2">  1       -2 0.59711562E-01 0.41249439E+03</pdfrwt>
<totfact> 0.51192474E+01</totfact>
</mgrwt>
</event>
<event>
 4    1  0.3365401E-008  0.2707066E+03  0.7818608E-02  0.1100876E+00
         -2   -1    0    0    0  501 -0.00000000000E+00  0.00000000000E+00  0.57968427253E+02  0.57968427309E+02  0.25500000000E-02 0.  1.
          2   -1    0    0  501    0  0.00000000000E+00 -0.00000000000E+00 -0.19199505447E+04  0.19199505447E+04  0.25500000000E-02 0. -1.
    8880022    1    1    2    0    0  0.60391766797E+02 -0.21504241056E+03 -0.35301198524E+03  0.44485898729E+03  0.15294330000E+03 0.  0.
    8880022    1    1    2    0    0 -0.60391766797E+02  0.21504241056E+03 -0.15089701322E+04  0.15330599847E+04  0.15294330000E+03 0.  0.
<mgrwt>
<rscale>  0 0.27070659E+03</rscale>
<asrwt>0</asrwt>
<pdfrwt beam="1">  1        2 0.29537696E+00 0.27070659E+03</pdfrwt>
<pdfrwt beam="2">  1       -2 0.89182211E-02 0.27070659E+03</pdfrwt>
<totfact> 0.65287112E+02</totfact>
</mgrwt>
</event>
<event>
 4    1  0.3365401E-008  0.1583222E+03  0.7818608E-02  0.1190604E+00
          2   -1    0    0  501    0  0.00000000000E+00  0.00000000000E+00  0.33118911177E+04  0.33118911177E+04  0.25500000000E-02 0. -1.
         -2   -1    0    0    0  501 -0.00000000000E+00 -0.00000000000E+00 -0.87458585491E+03  0.87458585492E+03  0.25500000000E-02 0.  1.
    8880022    1    1    2    0    0 -0.29748986898E+02  0.28093992969E+02 -0.86550897410E+03  0.87987028130E+03  0.15294330000E+03 0.  0.
    8880022    1    1    2    0    0  0.29748986898E+02 -0.28093992969E+02  0.33028142369E+04  0.33066066913E+04  0.15294330000E+03 0. -1.
<mgrwt>
<rscale>  0 0.15832223E+03</rscale>
<asrwt>0</asrwt>
<pdfrwt beam="1">  1        2 0.50952170E+00 0.15832223E+03</pdfrwt>
<pdfrwt beam="2">  1       -2 0.13455167E+00 0.15832223E+03</pdfrwt>
<totfact> 0.63998264E-01</totfact>
</mgrwt>
</event>
<event>
 4    1  0.3365401E-008  0.9469697E+03  0.7818608E-02  0.9368700E-01
          2   -1    0    0  501    0  0.00000000000E+00  0.00000000000E+00  0.25954239712E+04  0.25954239712E+04  0.25500000000E-02 0. -1.
         -2   -1    0    0    0  501 -0.00000000000E+00 -0.00000000000E+00 -0.94161592755E+03  0.94161592756E+03  0.25500000000E-02 0.  1.
    8880022    1    1    2    0    0  0.72668217862E+03  0.58761631620E+03 -0.58022478259E+03  0.11105910026E+04  0.15294330000E+03 0.  0.
    8880022    1    1    2    0    0 -0.72668217862E+03 -0.58761631620E+03  0.22340328262E+04  0.24264488961E+04  0.15294330000E+03 0.  0.
<mgrwt>
<rscale>  0 0.94696968E+03</rscale>
<asrwt>0</asrwt>
<pdfrwt beam="1">  1        2 0.39929599E+00 0.94696968E+03</pdfrwt>
<pdfrwt beam="2">  1       -2 0.14486399E+00 0.94696968E+03</pdfrwt>
<totfact> 0.10225343E+00</totfact>
</mgrwt>
</event>
<event>
 4    1  0.3365401E-008  0.2977294E+03  0.7818608E-02  0.1086381E+00
          2   -1    0    0  501    0  0.00000000000E+00  0.00000000000E+00  0.11692848302E+04  0.11692848302E+04  0.25500000000E-02 0. -1.
         -2   -1    0    0    0  501 -0.00000000000E+00 -0.00000000000E+00 -0.48883361167E+03  0.48883361167E+03  0.25500000000E-02 0.  1.
    8880022    1    1    2    0    0 -0.23161841009E+03  0.10772207175E+03  0.11022919458E+04  0.11417925904E+04  0.15294330000E+03 0.  0.
    8880022    1    1    2    0    0  0.23161841009E+03 -0.10772207175E+03 -0.42184072732E+03  0.51632585145E+03  0.15294330000E+03 0.  0.
<mgrwt>
<rscale>  0 0.29772938E+03</rscale>
<asrwt>0</asrwt>
<pdfrwt beam="1">  1        2 0.17988997E+00 0.29772938E+03</pdfrwt>
<pdfrwt beam="2">  1       -2 0.75205171E-01 0.29772938E+03</pdfrwt>
<totfact> 0.34282834E+01</totfact>
</mgrwt>
</event>
<event>
 4    1  0.3365401E-008  0.1223077E+04  0.7818608E-02  0.9092894E-01
          2   -1    0    0  501    0  0.00000000000E+00  0.00000000000E+00  0.18210977934E+04  0.18210977934E+04  0.25500000000E-02 0. -1.
         -2   -1    0    0    0  501 -0.00000000000E+00 -0.00000000000E+00 -0.10202864965E+04  0.10202864965E+04  0.25500000000E-02 0.  1.
    8880022    1    1    2    0    0  0.11885048788E+04 -0.24491067582E+03 -0.22678760621E+03  0.12439249807E+04  0.15294330000E+03 0.  0.
    8880022    1    1    2    0    0 -0.11885048788E+04  0.24491067582E+03  0.10275989031E+04  0.15974593093E+04  0.15294330000E+03 0.  0.
<mgrwt>
<rscale>  0 0.12230768E+04</rscale>
<asrwt>0</asrwt>
<pdfrwt beam="1">  1        2 0.28016889E+00 0.12230768E+04</pdfrwt>
<pdfrwt beam="2">  1       -2 0.15696715E+00 0.12230768E+04</pdfrwt>
<totfact> 0.21607680E+00</totfact>
</mgrwt>
</event>
<event>
 4    1  0.3365401E-008  0.5432417E+03  0.7818608E-02  0.1003070E+00
          2   -1    0    0  501    0  0.00000000000E+00  0.00000000000E+00  0.12605509184E+04  0.12605509184E+04  0.25500000000E-02 0. -1.
         -2   -1    0    0    0  501 -0.00000000000E+00 -0.00000000000E+00 -0.26231829643E+03  0.26231829644E+03  0.25500000000E-02 0.  1.
    8880022    1    1    2    0    0 -0.55931591679E+01  0.52123756625E+03  0.24943700040E+03  0.59777115528E+03  0.15294330000E+03 0.  0.
    8880022    1    1    2    0    0  0.55931591679E+01 -0.52123756625E+03  0.74879562154E+03  0.92509805954E+03  0.15294330000E+03 0.  0.
<mgrwt>
<rscale>  0 0.54324169E+03</rscale>
<asrwt>0</asrwt>
<pdfrwt beam="1">  1        2 0.19393091E+00 0.54324169E+03</pdfrwt>
<pdfrwt beam="2">  1       -2 0.40356662E-01 0.54324169E+03</pdfrwt>
<totfact> 0.10497091E+02</totfact>
</mgrwt>
</event>
<event>
 4    1  0.3365401E-008  0.1934634E+03  0.7818608E-02  0.1155374E+00
         -2   -1    0    0    0  501 -0.00000000000E+00  0.00000000000E+00  0.29558215198E+03  0.29558215199E+03  0.25500000000E-02 0.  1.
          2   -1    0    0  501    0  0.00000000000E+00 -0.00000000000E+00 -0.13836986134E+04  0.13836986134E+04  0.25500000000E-02 0. -1.
    8880022    1    1    2    0    0 -0.35914240277E+01 -0.11842100738E+03 -0.13443584251E+04  0.13582075178E+04  0.15294330000E+03 0. -1.
    8880022    1    1    2    0    0  0.35914240277E+01  0.11842100738E+03  0.25624196370E+03  0.32107324755E+03  0.15294330000E+03 0.  0.
<mgrwt>
<rscale>  0 0.19346340E+03</rscale>
<asrwt>0</asrwt>
<pdfrwt beam="1">  1        2 0.21287671E+00 0.19346340E+03</pdfrwt>
<pdfrwt beam="2">  1       -2 0.45474178E-01 0.19346340E+03</pdfrwt>
<totfact> 0.76012552E+01</totfact>
</mgrwt>
</event>
<event>
 4    1  0.3365401E-008  0.7956393E+03  0.7818608E-02  0.9566351E-01
         -2   -1    0    0    0  501 -0.00000000000E+00  0.00000000000E+00  0.11137031808E+04  0.11137031808E+04  0.25500000000E-02 0.  1.
          2   -1    0    0  501    0  0.00000000000E+00 -0.00000000000E+00 -0.20015395333E+04  0.20015395333E+04  0.25500000000E-02 0. -1.
    8880022    1    1    2    0    0 -0.66235974999E+03 -0.41343649502E+03  0.87410268696E+03  0.11819887200E+04  0.15294330000E+03 0.  0.
    8880022    1    1    2    0    0  0.66235974999E+03  0.41343649502E+03 -0.17619390395E+04  0.19332539941E+04  0.15294330000E+03 0.  0.
<mgrwt>
<rscale>  0 0.79563926E+03</rscale>
<asrwt>0</asrwt>
<pdfrwt beam="1">  1        2 0.30792916E+00 0.79563926E+03</pdfrwt>
<pdfrwt beam="2">  1       -2 0.17133895E+00 0.79563926E+03</pdfrwt>
<totfact> 0.14336461E+00</totfact>
</mgrwt>
</event>
<event>
 4    1  0.3365401E-008  0.1848694E+03  0.7818608E-02  0.1163172E+00
         -2   -1    0    0    0  501 -0.00000000000E+00  0.00000000000E+00  0.22433960360E+03  0.22433960362E+03  0.25500000000E-02 0.  1.
          2   -1    0    0  501    0  0.00000000000E+00 -0.00000000000E+00 -0.17943987390E+04  0.17943987390E+04  0.25500000000E-02 0. -1.
    8880022    1    1    2    0    0 -0.10065403489E+03  0.25569674421E+02 -0.17506010501E+04  0.17603354035E+04  0.15294330000E+03 0.  0.
    8880022    1    1    2    0    0  0.10065403489E+03 -0.25569674421E+02  0.18054191471E+03  0.25840293917E+03  0.15294330000E+03 0.  0.
<mgrwt>
<rscale>  0 0.18486940E+03</rscale>
<asrwt>0</asrwt>
<pdfrwt beam="1">  1        2 0.27606134E+00 0.18486940E+03</pdfrwt>
<pdfrwt beam="2">  1       -2 0.34513786E-01 0.18486940E+03</pdfrwt>
<totfact> 0.78442677E+01</totfact>
</mgrwt>
</event>
<event>
 4    1  0.3365401E-008  0.1116310E+04  0.7818608E-02  0.9189439E-01
          2   -1    0    0  501    0  0.00000000000E+00  0.00000000000E+00  0.33295548902E+04  0.33295548902E+04  0.25500000000E-02 0. -1.
         -2   -1    0    0    0  501 -0.00000000000E+00 -0.00000000000E+00 -0.43026132800E+03  0.43026132801E+03  0.25500000000E-02 0.  1.
    8880022    1    1    2    0    0  0.28602368899E+03 -0.10681514747E+04  0.21278115057E+04  0.24028588349E+04  0.15294330000E+03 0.  0.
    8880022    1    1    2    0    0 -0.28602368899E+03  0.10681514747E+04  0.77148205653E+03  0.13569573833E+04  0.15294330000E+03 0.  0.
<mgrwt>
<rscale>  0 0.11163103E+04</rscale>
<asrwt>0</asrwt>
<pdfrwt beam="1">  1        2 0.51223920E+00 0.11163103E+04</pdfrwt>
<pdfrwt beam="2">  1       -2 0.66194052E-01 0.11163103E+04</pdfrwt>
<totfact> 0.22637605E+00</totfact>
</mgrwt>
</event>
<event>
 4    1  0.3365401E-008  0.7895312E+03  0.7818608E-02  0.9575295E-01
         -2   -1    0    0    0  501 -0.00000000000E+00  0.00000000000E+00  0.27890204887E+03  0.27890204888E+03  0.25500000000E-02 0.  1.
          2   -1    0    0  501    0  0.00000000000E+00 -0.00000000000E+00 -0.31178228980E+04  0.31178228980E+04  0.25500000000E-02 0. -1.
    8880022    1    1    2    0    0  0.77054084336E+03  0.78959796635E+02 -0.51574930146E+03  0.94305717522E+03  0.15294330000E+03 0.  0.
    8880022    1    1    2    0    0 -0.77054084336E+03 -0.78959796635E+02 -0.23231715477E+04  0.24536677717E+04  0.15294330000E+03 0.  0.
<mgrwt>
<rscale>  0 0.78953119E+03</rscale>
<asrwt>0</asrwt>
<pdfrwt beam="1">  1        2 0.47966504E+00 0.78953119E+03</pdfrwt>
<pdfrwt beam="2">  1       -2 0.42908010E-01 0.78953119E+03</pdfrwt>
<totfact> 0.80041901E+00</totfact>
</mgrwt>
</event>
<event>
 4    1  0.3365401E-008  0.1183545E+04  0.7818608E-02  0.9127383E-01
          2   -1    0    0  501    0  0.00000000000E+00  0.00000000000E+00  0.34824109714E+04  0.34824109714E+04  0.25500000000E-02 0. -1.
         -2   -1    0    0    0  501 -0.00000000000E+00 -0.00000000000E+00 -0.95415940591E+03  0.95415940592E+03  0.25500000000E-02 0.  1.
    8880022    1    1    2    0    0 -0.63056652467E+03 -0.98983489029E+03 -0.42298333127E+03  0.12568587047E+04  0.15294330000E+03 0.  0.
    8880022    1    1    2    0    0  0.63056652467E+03  0.98983489029E+03  0.29512348967E+04  0.31797116726E+04  0.15294330000E+03 0.  0.
<mgrwt>
<rscale>  0 0.11835451E+04</rscale>
<asrwt>0</asrwt>
<pdfrwt beam="1">  1        2 0.53575553E+00 0.11835451E+04</pdfrwt>
<pdfrwt beam="2">  1       -2 0.14679376E+00 0.11835451E+04</pdfrwt>
<totfact> 0.26460230E-01</totfact>
</mgrwt>
</event>
<event>
 4    1  0.3365401E-008  0.1849788E+03  0.7818608E-02  0.1163070E+00
         -2   -1    0    0    0  501 -0.00000000000E+00  0.00000000000E+00  0.12511678775E+04  0.12511678775E+04  0.25500000000E-02 0.  1.
          2   -1    0    0  501    0  0.00000000000E+00 -0.00000000000E+00 -0.27101986522E+03  0.27101986524E+03  0.25500000000E-02 0. -1.
    8880022    1    1    2    0    0  0.68593221023E+02  0.78233397890E+02  0.12117465914E+04  0.12257842181E+04  0.15294330000E+03 0.  1.
    8880022    1    1    2    0    0 -0.68593221023E+02 -0.78233397890E+02 -0.23159857917E+03  0.29640352461E+03  0.15294330000E+03 0.  0.
<mgrwt>
<rscale>  0 0.18497878E+03</rscale>
<asrwt>0</asrwt>
<pdfrwt beam="1">  1        2 0.41695365E-01 0.18497878E+03</pdfrwt>
<pdfrwt beam="2">  1       -2 0.19248736E+00 0.18497878E+03</pdfrwt>
<totfact> 0.20290470E+01</totfact>
</mgrwt>
</event>
<event>
 4    1  0.3365401E-008  0.2544741E+03  0.7818608E-02  0.1110510E+00
          2   -1    0    0  501    0  0.00000000000E+00  0.00000000000E+00  0.70022396577E+03  0.70022396578E+03  0.25500000000E-02 0. -1.
         -2   -1    0    0    0  501 -0.00000000000E+00 -0.00000000000E+00 -0.20818345943E+03  0.20818345944E+03  0.25500000000E-02 0.  1.
    8880022    1    1    2    0    0 -0.19286237772E+03  0.64571735577E+02 -0.92589772602E+02  0.27079498663E+03  0.15294330000E+03 0.  0.
    8880022    1    1    2    0    0  0.19286237772E+03 -0.64571735577E+02  0.58463027895E+03  0.63761243860E+03  0.15294330000E+03 0.  0.
<mgrwt>
<rscale>  0 0.25447408E+03</rscale>
<asrwt>0</asrwt>
<pdfrwt beam="1">  1        2 0.10772676E+00 0.25447408E+03</pdfrwt>
<pdfrwt beam="2">  1       -2 0.32028224E-01 0.25447408E+03</pdfrwt>
<totfact> 0.38318344E+02</totfact>
</mgrwt>
</event>
<event>
 4    1  0.3365401E-008  0.3085976E+03  0.7818608E-02  0.1081020E+00
         -2   -1    0    0    0  501 -0.00000000000E+00  0.00000000000E+00  0.13538674236E+03  0.13538674239E+03  0.25500000000E-02 0.  1.
          2   -1    0    0  501    0  0.00000000000E+00 -0.00000000000E+00 -0.10255094352E+04  0.10255094352E+04  0.25500000000E-02 0. -1.
    8880022    1    1    2    0    0 -0.21090312218E+03 -0.16541078650E+03 -0.77036425055E+03  0.82987564537E+03  0.15294330000E+03 0.  0.
    8880022    1    1    2    0    0  0.21090312218E+03  0.16541078650E+03 -0.11975844228E+03  0.33102053222E+03  0.15294330000E+03 0.  0.
<mgrwt>
<rscale>  0 0.30859765E+03</rscale>
<asrwt>0</asrwt>
<pdfrwt beam="1">  1        2 0.15777068E+00 0.30859765E+03</pdfrwt>
<pdfrwt beam="2">  1       -2 0.20828730E-01 0.30859765E+03</pdfrwt>
<totfact> 0.49717390E+02</totfact>
</mgrwt>
</event>
<event>
 4    1  0.3365401E-008  0.5932429E+03  0.7818608E-02  0.9919525E-01
          2   -1    0    0  501    0  0.00000000000E+00  0.00000000000E+00  0.93988423793E+03  0.93988423793E+03  0.25500000000E-02 0. -1.
         -2   -1    0    0    0  501 -0.00000000000E+00 -0.00000000000E+00 -0.66515819194E+03  0.66515819194E+03  0.25500000000E-02 0.  1.
    8880022    1    1    2    0    0  0.46156346596E+03  0.33985973157E+03 -0.39318499358E+03  0.71171030795E+03  0.15294330000E+03 0.  0.
    8880022    1    1    2    0    0 -0.46156346596E+03 -0.33985973157E+03  0.66791103958E+03  0.89333212192E+03  0.15294330000E+03 0.  0.
<mgrwt>
<rscale>  0 0.59324289E+03</rscale>
<asrwt>0</asrwt>
<pdfrwt beam="1">  1        2 0.14459758E+00 0.59324289E+03</pdfrwt>
<pdfrwt beam="2">  1       -2 0.10233203E+00 0.59324289E+03</pdfrwt>
<totfact> 0.22288058E+01</totfact>
</mgrwt>
</event>
<event>
 4    1  0.3365401E-008  0.4654486E+03  0.7818608E-02  0.1023213E+00
         -2   -1    0    0    0  501 -0.00000000000E+00  0.00000000000E+00  0.51999466014E+03  0.51999466015E+03  0.25500000000E-02 0.  1.
          2   -1    0    0  501    0  0.00000000000E+00 -0.00000000000E+00 -0.24949736286E+04  0.24949736286E+04  0.25500000000E-02 0. -1.
    8880022    1    1    2    0    0  0.29445797786E+03 -0.32641273575E+03  0.38838571573E+03  0.60620614644E+03  0.15294330000E+03 0.  0.
    8880022    1    1    2    0    0 -0.29445797786E+03  0.32641273575E+03 -0.23633646842E+04  0.24087621423E+04  0.15294330000E+03 0. -1.
<mgrwt>
<rscale>  0 0.46544863E+03</rscale>
<asrwt>0</asrwt>
<pdfrwt beam="1">  1        2 0.38384209E+00 0.46544863E+03</pdfrwt>
<pdfrwt beam="2">  1       -2 0.79999180E-01 0.46544863E+03</pdfrwt>
<totfact> 0.54268374E+00</totfact>
</mgrwt>
</event>
<event>
 4    1  0.3365401E-008  0.1216296E+04  0.7818608E-02  0.9098711E-01
         -2   -1    0    0    0  501 -0.00000000000E+00  0.00000000000E+00  0.11290010209E+04  0.11290010209E+04  0.25500000000E-02 0.  1.
          2   -1    0    0  501    0  0.00000000000E+00 -0.00000000000E+00 -0.29387072571E+04  0.29387072571E+04  0.25500000000E-02 0. -1.
    8880022    1    1    2    0    0  0.12063516145E+04  0.26470030973E+02 -0.24188244921E+04  0.27074136102E+04  0.15294330000E+03 0.  0.
    8880022    1    1    2    0    0 -0.12063516145E+04 -0.26470030973E+02  0.60911825594E+03  0.13602946677E+04  0.15294330000E+03 0.  0.
<mgrwt>
<rscale>  0 0.12162962E+04</rscale>
<asrwt>0</asrwt>
<pdfrwt beam="1">  1        2 0.45210881E+00 0.12162962E+04</pdfrwt>
<pdfrwt beam="2">  1       -2 0.17369247E+00 0.12162962E+04</pdfrwt>
<totfact> 0.37398654E-01</totfact>
</mgrwt>
</event>
<event>
 4    1  0.3365401E-008  0.1329881E+04  0.7818608E-02  0.9006199E-01
         -2   -1    0    0    0  501 -0.00000000000E+00  0.00000000000E+00  0.66350302312E+03  0.66350302313E+03  0.25500000000E-02 0.  1.
          2   -1    0    0  501    0  0.00000000000E+00 -0.00000000000E+00 -0.31529704071E+04  0.31529704071E+04  0.25500000000E-02 0. -1.
    8880022    1    1    2    0    0 -0.12952837327E+04  0.25967842240E+03 -0.49443377844E+03  0.14188196663E+04  0.15294330000E+03 0.  0.
    8880022    1    1    2    0    0  0.12952837327E+04 -0.25967842240E+03 -0.19950336056E+04  0.23976537639E+04  0.15294330000E+03 0.  0.
<mgrwt>
<rscale>  0 0.13298814E+04</rscale>
<asrwt>0</asrwt>
<pdfrwt beam="1">  1        2 0.48507236E+00 0.13298814E+04</pdfrwt>
<pdfrwt beam="2">  1       -2 0.10207739E+00 0.13298814E+04</pdfrwt>
<totfact> 0.10685341E+00</totfact>
</mgrwt>
</event>
<event>
 4    1  0.3365401E-008  0.3475199E+03  0.7818608E-02  0.1063638E+00
         -2   -1    0    0    0  501 -0.00000000000E+00  0.00000000000E+00  0.10647785124E+04  0.10647785124E+04  0.25500000000E-02 0.  1.
          2   -1    0    0  501    0  0.00000000000E+00 -0.00000000000E+00 -0.10753558686E+04  0.10753558686E+04  0.25500000000E-02 0. -1.
    8880022    1    1    2    0    0  0.31205501131E+03 -0.32461466451E+00 -0.10173513015E+04  0.10750691881E+04  0.15294330000E+03 0.  0.
    8880022    1    1    2    0    0 -0.31205501131E+03  0.32461466451E+00  0.10067739453E+04  0.10650651930E+04  0.15294330000E+03 0.  1.
<mgrwt>
<rscale>  0 0.34751991E+03</rscale>
<asrwt>0</asrwt>
<pdfrwt beam="1">  1        2 0.16543936E+00 0.34751991E+03</pdfrwt>
<pdfrwt beam="2">  1       -2 0.16381208E+00 0.34751991E+03</pdfrwt>
<totfact> 0.58920478E+00</totfact>
</mgrwt>
</event>
<event>
 4    1  0.3365401E-008  0.1014280E+04  0.7818608E-02  0.9293020E-01
          2   -1    0    0  501    0  0.00000000000E+00  0.00000000000E+00  0.51850328017E+04  0.51850328017E+04  0.25500000000E-02 0. -1.
         -2   -1    0    0    0  501 -0.00000000000E+00 -0.00000000000E+00 -0.34323455117E+03  0.34323455118E+03  0.25500000000E-02 0.  1.
    8880022    1    1    2    0    0 -0.10024591804E+04  0.21153462183E+02  0.62540371486E+03  0.11915927731E+04  0.15294330000E+03 0.  0.
    8880022    1    1    2    0    0  0.10024591804E+04 -0.21153462183E+02  0.42163945357E+04  0.43366745798E+04  0.15294330000E+03 0.  0.
<mgrwt>
<rscale>  0 0.10142798E+04</rscale>
<asrwt>0</asrwt>
<pdfrwt beam="1">  1        2 0.79769731E+00 0.10142798E+04</pdfrwt>
<pdfrwt beam="2">  1       -2 0.52805319E-01 0.10142798E+04</pdfrwt>
<totfact> 0.73054938E-02</totfact>
</mgrwt>
</event>
<event>
 4    1  0.3365401E-008  0.3911902E+03  0.7818608E-02  0.1046874E+00
         -2   -1    0    0    0  501 -0.00000000000E+00  0.00000000000E+00  0.44567315392E+03  0.44567315393E+03  0.25500000000E-02 0.  1.
          2   -1    0    0  501    0  0.00000000000E+00 -0.00000000000E+00 -0.97795854119E+03  0.97795854119E+03  0.25500000000E-02 0. -1.
    8880022    1    1    2    0    0 -0.32060902923E+03 -0.16385352842E+03 -0.83953824425E+03  0.92620421343E+03  0.15294330000E+03 0.  0.
    8880022    1    1    2    0    0  0.32060902923E+03  0.16385352842E+03  0.30725285698E+03  0.49742748169E+03  0.15294330000E+03 0.  0.
<mgrwt>
<rscale>  0 0.39119021E+03</rscale>
<asrwt>0</asrwt>
<pdfrwt beam="1">  1        2 0.15045516E+00 0.39119021E+03</pdfrwt>
<pdfrwt beam="2">  1       -2 0.68565101E-01 0.39119021E+03</pdfrwt>
<totfact> 0.53578087E+01</totfact>
</mgrwt>
</event>
<event>
 4    1  0.3365401E-008  0.2247027E+03  0.7818608E-02  0.1130425E+00
          2   -1    0    0  501    0  0.00000000000E+00  0.00000000000E+00  0.27964470040E+03  0.27964470041E+03  0.25500000000E-02 0. -1.
         -2   -1    0    0    0  501 -0.00000000000E+00 -0.00000000000E+00 -0.17390810639E+04  0.17390810639E+04  0.25500000000E-02 0.  1.
    8880022    1    1    2    0    0  0.72344582043E+01 -0.16446071436E+03  0.22581201863E+03  0.31856299962E+03  0.15294330000E+03 0.  0.
    8880022    1    1    2    0    0 -0.72344582043E+01  0.16446071436E+03 -0.16852483821E+04  0.17001627647E+04  0.15294330000E+03 0.  1.
<mgrwt>
<rscale>  0 0.22470273E+03</rscale>
<asrwt>0</asrwt>
<pdfrwt beam="1">  1        2 0.43022263E-01 0.22470273E+03</pdfrwt>
<pdfrwt beam="2">  1       -2 0.26755093E+00 0.22470273E+03</pdfrwt>
<totfact> 0.68469589E+00</totfact>
</mgrwt>
</event>
<event>
 4    1  0.3365401E-008  0.5015660E+03  0.7818608E-02  0.1013371E+00
         -2   -1    0    0    0  501 -0.00000000000E+00  0.00000000000E+00  0.88128338509E+03  0.88128338510E+03  0.25500000000E-02 0.  1.
          2   -1    0    0  501    0  0.00000000000E+00 -0.00000000000E+00 -0.63079865814E+03  0.63079865814E+03  0.25500000000E-02 0. -1.
    8880022    1    1    2    0    0 -0.15845713140E+03 -0.45063083833E+03  0.68464498303E+03  0.84870914968E+03  0.15294330000E+03 0.  0.
    8880022    1    1    2    0    0  0.15845713140E+03  0.45063083833E+03 -0.43416025607E+03  0.66337289356E+03  0.15294330000E+03 0.  0.
<mgrwt>
<rscale>  0 0.50156602E+03</rscale>
<asrwt>0</asrwt>
<pdfrwt beam="1">  1        2 0.97045948E-01 0.50156602E+03</pdfrwt>
<pdfrwt beam="2">  1       -2 0.13558206E+00 0.50156602E+03</pdfrwt>
<totfact> 0.18982003E+01</totfact>
</mgrwt>
</event>
<event>
 4    1  0.3365401E-008  0.4074647E+03  0.7818608E-02  0.1041225E+00
          2   -1    0    0  501    0  0.00000000000E+00  0.00000000000E+00  0.17318442723E+04  0.17318442723E+04  0.25500000000E-02 0. -1.
         -2   -1    0    0    0  501 -0.00000000000E+00 -0.00000000000E+00 -0.13088148650E+03  0.13088148653E+03  0.25500000000E-02 0.  1.
    8880022    1    1    2    0    0  0.13014824029E+03 -0.35453814185E+03  0.12822082319E+04  0.13453941658E+04  0.15294330000E+03 0. -1.
    8880022    1    1    2    0    0 -0.13014824029E+03  0.35453814185E+03  0.31875455393E+03  0.51733159303E+03  0.15294330000E+03 0.  0.
<mgrwt>
<rscale>  0 0.40746474E+03</rscale>
<asrwt>0</asrwt>
<pdfrwt beam="1">  1        2 0.26643759E+00 0.40746474E+03</pdfrwt>
<pdfrwt beam="2">  1       -2 0.20135613E-01 0.40746474E+03</pdfrwt>
<totfact> 0.20985086E+02</totfact>
</mgrwt>
</event>
<event>
 4    1  0.3365401E-008  0.4586138E+03  0.7818608E-02  0.1025184E+00
         -2   -1    0    0    0  501 -0.00000000000E+00  0.00000000000E+00  0.21416602227E+03  0.21416602229E+03  0.25500000000E-02 0.  1.
          2   -1    0    0  501    0  0.00000000000E+00 -0.00000000000E+00 -0.17210702896E+04  0.17210702896E+04  0.25500000000E-02 0. -1.
    8880022    1    1    2    0    0 -0.41773847203E+03 -0.11148771254E+03 -0.11939815935E+03  0.47390137638E+03  0.15294330000E+03 0.  0.
    8880022    1    1    2    0    0  0.41773847203E+03  0.11148771254E+03 -0.13875061080E+04  0.14613349355E+04  0.15294330000E+03 0.  0.
<mgrwt>
<rscale>  0 0.45861377E+03</rscale>
<asrwt>0</asrwt>
<pdfrwt beam="1">  1        2 0.26478004E+00 0.45861377E+03</pdfrwt>
<pdfrwt beam="2">  1       -2 0.32948620E-01 0.45861377E+03</pdfrwt>
<totfact> 0.87055428E+01</totfact>
</mgrwt>
</event>
<event>
 4    1  0.3365401E-008  0.3824891E+03  0.7818608E-02  0.1050018E+00
         -2   -1    0    0    0  501 -0.00000000000E+00  0.00000000000E+00  0.42684985778E+03  0.42684985779E+03  0.25500000000E-02 0.  1.
          2   -1    0    0  501    0  0.00000000000E+00 -0.00000000000E+00 -0.68547362451E+03  0.68547362451E+03  0.25500000000E-02 0. -1.
    8880022    1    1    2    0    0 -0.18473050711E+03  0.29796118641E+03  0.26395288441E+03  0.46472465726E+03  0.15294330000E+03 0.  0.
    8880022    1    1    2    0    0  0.18473050711E+03 -0.29796118641E+03 -0.52257665114E+03  0.64759882504E+03  0.15294330000E+03 0. -1.
<mgrwt>
<rscale>  0 0.38248906E+03</rscale>
<asrwt>0</asrwt>
<pdfrwt beam="1">  1        2 0.10545748E+00 0.38248906E+03</pdfrwt>
<pdfrwt beam="2">  1       -2 0.65669209E-01 0.38248906E+03</pdfrwt>
<totfact> 0.93814094E+01</totfact>
</mgrwt>
</event>
<event>
 4    1  0.3365401E-008  0.5812348E+03  0.7818608E-02  0.9945121E-01
         -2   -1    0    0    0  501 -0.00000000000E+00  0.00000000000E+00  0.71857258334E+03  0.71857258334E+03  0.25500000000E-02 0.  1.
          2   -1    0    0  501    0  0.00000000000E+00 -0.00000000000E+00 -0.18333248051E+04  0.18333248051E+04  0.25500000000E-02 0. -1.
    8880022    1    1    2    0    0  0.22989128029E+03 -0.51146092213E+03 -0.16576224661E+04  0.17565722782E+04  0.15294330000E+03 0.  0.
    8880022    1    1    2    0    0 -0.22989128029E+03  0.51146092213E+03  0.54287024436E+03  0.79532511016E+03  0.15294330000E+03 0.  1.
<mgrwt>
<rscale>  0 0.58123483E+03</rscale>
<asrwt>0</asrwt>
<pdfrwt beam="1">  1        2 0.28204997E+00 0.58123483E+03</pdfrwt>
<pdfrwt beam="2">  1       -2 0.11054963E+00 0.58123483E+03</pdfrwt>
<totfact> 0.57110663E+00</totfact>
</mgrwt>
</event>
<event>
 4    1  0.3365401E-008  0.1107828E+04  0.7818608E-02  0.9197595E-01
          2   -1    0    0  501    0  0.00000000000E+00  0.00000000000E+00  0.20782199571E+04  0.20782199571E+04  0.25500000000E-02 0. -1.
         -2   -1    0    0    0  501 -0.00000000000E+00 -0.00000000000E+00 -0.11167155268E+04  0.11167155268E+04  0.25500000000E-02 0.  1.
    8880022    1    1    2    0    0  0.10971966695E+04  0.71864276369E+01  0.15772904908E+04  0.19274670222E+04  0.15294330000E+03 0.  0.
    8880022    1    1    2    0    0 -0.10971966695E+04 -0.71864276369E+01 -0.61578606044E+03  0.12674684618E+04  0.15294330000E+03 0.  0.
<mgrwt>
<rscale>  0 0.11078284E+04</rscale>
<asrwt>0</asrwt>
<pdfrwt beam="1">  1        2 0.31972614E+00 0.11078284E+04</pdfrwt>
<pdfrwt beam="2">  1       -2 0.17180239E+00 0.11078284E+04</pdfrwt>
<totfact> 0.12303856E+00</totfact>
</mgrwt>
</event>
<event>
 4    1  0.3365401E-008  0.4191239E+03  0.7818608E-02  0.1037352E+00
         -2   -1    0    0    0  501 -0.00000000000E+00  0.00000000000E+00  0.55009163006E+03  0.55009163007E+03  0.25500000000E-02 0.  1.
          2   -1    0    0  501    0  0.00000000000E+00 -0.00000000000E+00 -0.62069707737E+03  0.62069707737E+03  0.25500000000E-02 0. -1.
    8880022    1    1    2    0    0 -0.17141302844E+03  0.35055783152E+03 -0.44320036643E+03  0.60999298141E+03  0.15294330000E+03 0.  0.
    8880022    1    1    2    0    0  0.17141302844E+03 -0.35055783152E+03  0.37259491912E+03  0.56079572603E+03  0.15294330000E+03 0.  0.
<mgrwt>
<rscale>  0 0.41912393E+03</rscale>
<asrwt>0</asrwt>
<pdfrwt beam="1">  1        2 0.95491858E-01 0.41912393E+03</pdfrwt>
<pdfrwt beam="2">  1       -2 0.84629482E-01 0.41912393E+03</pdfrwt>
<totfact> 0.60389909E+01</totfact>
</mgrwt>
</event>
<event>
 4    1  0.3365401E-008  0.6667674E+03  0.7818608E-02  0.9775815E-01
          2   -1    0    0  501    0  0.00000000000E+00  0.00000000000E+00  0.10655483120E+04  0.10655483120E+04  0.25500000000E-02 0. -1.
         -2   -1    0    0    0  501 -0.00000000000E+00 -0.00000000000E+00 -0.93793140188E+03  0.93793140188E+03  0.25500000000E-02 0.  1.
    8880022    1    1    2    0    0  0.83690724639E+02 -0.64357046453E+03 -0.68257806053E+03  0.95419680462E+03  0.15294330000E+03 0.  0.
    8880022    1    1    2    0    0 -0.83690724639E+02  0.64357046453E+03  0.81019497070E+03  0.10492829093E+04  0.15294330000E+03 0.  0.
<mgrwt>
<rscale>  0 0.66676738E+03</rscale>
<asrwt>0</asrwt>
<pdfrwt beam="1">  1        2 0.16393051E+00 0.66676738E+03</pdfrwt>
<pdfrwt beam="2">  1       -2 0.14429714E+00 0.66676738E+03</pdfrwt>
<totfact> 0.78278812E+00</totfact>
</mgrwt>
</event>
<event>
 4    1  0.3365401E-008  0.5618999E+03  0.7818608E-02  0.9987765E-01
          2   -1    0    0  501    0  0.00000000000E+00  0.00000000000E+00  0.37230442247E+04  0.37230442247E+04  0.25500000000E-02 0. -1.
         -2   -1    0    0    0  501 -0.00000000000E+00 -0.00000000000E+00 -0.11884680218E+03  0.11884680221E+03  0.25500000000E-02 0.  1.
    8880022    1    1    2    0    0  0.33561655640E+03 -0.42391199487E+03  0.28301853787E+04  0.28854255809E+04  0.15294330000E+03 0.  0.
    8880022    1    1    2    0    0 -0.33561655640E+03  0.42391199487E+03  0.77401204378E+03  0.95646544593E+03  0.15294330000E+03 0.  0.
<mgrwt>
<rscale>  0 0.56189991E+03</rscale>
<asrwt>0</asrwt>
<pdfrwt beam="1">  1        2 0.57277605E+00 0.56189991E+03</pdfrwt>
<pdfrwt beam="2">  1       -2 0.18284123E-01 0.56189991E+03</pdfrwt>
<totfact> 0.15860784E+01</totfact>
</mgrwt>
</event>
<event>
 4    1  0.3365401E-008  0.1922973E+03  0.7818608E-02  0.1156405E+00
         -2   -1    0    0    0  501 -0.00000000000E+00  0.00000000000E+00  0.89192246217E+02  0.89192246254E+02  0.25500000000E-02 0.  1.
          2   -1    0    0  501    0  0.00000000000E+00 -0.00000000000E+00 -0.53691225691E+03  0.53691225691E+03  0.25500000000E-02 0. -1.
    8880022    1    1    2    0    0  0.40506212509E+02  0.10929709561E+03 -0.74437174558E+02  0.20620173213E+03  0.15294330000E+03 0.  0.
    8880022    1    1    2    0    0 -0.40506212509E+02 -0.10929709561E+03 -0.37328283613E+03  0.41990277104E+03  0.15294330000E+03 0.  0.
<mgrwt>
<rscale>  0 0.19229733E+03</rscale>
<asrwt>0</asrwt>
<pdfrwt beam="1">  1        2 0.82601884E-01 0.19229733E+03</pdfrwt>
<pdfrwt beam="2">  1       -2 0.13721884E-01 0.19229733E+03</pdfrwt>
<totfact> 0.22550693E+03</totfact>
</mgrwt>
</event>
<event>
 4    1  0.3365401E-008  0.4385521E+03  0.7818608E-02  0.1031192E+00
         -2   -1    0    0    0  501 -0.00000000000E+00  0.00000000000E+00  0.11585697747E+03  0.11585697750E+03  0.25500000000E-02 0.  1.
          2   -1    0    0  501    0  0.00000000000E+00 -0.00000000000E+00 -0.20339424548E+04  0.20339424548E+04  0.25500000000E-02 0. -1.
    8880022    1    1    2    0    0 -0.18290800421E+03 -0.36807743160E+03 -0.49817753726E+03  0.66370840382E+03  0.15294330000E+03 0.  1.
    8880022    1    1    2    0    0  0.18290800421E+03  0.36807743160E+03 -0.14199079400E+04  0.14860910285E+04  0.15294330000E+03 0.  0.
<mgrwt>
<rscale>  0 0.43855215E+03</rscale>
<asrwt>0</asrwt>
<pdfrwt beam="1">  1        2 0.31291420E+00 0.43855215E+03</pdfrwt>
<pdfrwt beam="2">  1       -2 0.17824152E-01 0.43855215E+03</pdfrwt>
<totfact> 0.17758340E+02</totfact>
</mgrwt>
</event>
<event>
 4    1  0.3365401E-008  0.2734738E+03  0.7818608E-02  0.1099308E+00
         -2   -1    0    0    0  501 -0.00000000000E+00  0.00000000000E+00  0.33143528828E+03  0.33143528829E+03  0.25500000000E-02 0.  1.
          2   -1    0    0  501    0  0.00000000000E+00 -0.00000000000E+00 -0.80737001727E+03  0.80737001728E+03  0.25500000000E-02 0. -1.
    8880022    1    1    2    0    0  0.35061777344E+02  0.22397978780E+03 -0.72129394995E+03  0.77139671299E+03  0.15294330000E+03 0.  0.
    8880022    1    1    2    0    0 -0.35061777344E+02 -0.22397978780E+03  0.24535922096E+03  0.36740859257E+03  0.15294330000E+03 0.  0.
<mgrwt>
<rscale>  0 0.27347381E+03</rscale>
<asrwt>0</asrwt>
<pdfrwt beam="1">  1        2 0.12421077E+00 0.27347381E+03</pdfrwt>
<pdfrwt beam="2">  1       -2 0.50990045E-01 0.27347381E+03</pdfrwt>
<totfact> 0.13092585E+02</totfact>
</mgrwt>
</event>
<event>
 4    1  0.3365401E-008  0.2337826E+03  0.7818608E-02  0.1124005E+00
         -2   -1    0    0    0  501 -0.00000000000E+00  0.00000000000E+00  0.17095550527E+03  0.17095550529E+03  0.25500000000E-02 0.  1.
          2   -1    0    0  501    0  0.00000000000E+00 -0.00000000000E+00 -0.13065232852E+04  0.13065232852E+04  0.25500000000E-02 0. -1.
    8880022    1    1    2    0    0 -0.46958513349E+02 -0.17046270562E+03  0.74242110370E+02  0.24528795313E+03  0.15294330000E+03 0.  0.
    8880022    1    1    2    0    0  0.46958513349E+02  0.17046270562E+03 -0.12098098903E+04  0.12321908374E+04  0.15294330000E+03 0. -1.
<mgrwt>
<rscale>  0 0.23378257E+03</rscale>
<asrwt>0</asrwt>
<pdfrwt beam="1">  1        2 0.20100358E+00 0.23378257E+03</pdfrwt>
<pdfrwt beam="2">  1       -2 0.26300848E-01 0.23378257E+03</pdfrwt>
<totfact> 0.22952005E+02</totfact>
</mgrwt>
</event>
<event>
 4    1  0.3365401E-008  0.2579973E+03  0.7818608E-02  0.1108352E+00
         -2   -1    0    0    0  501 -0.00000000000E+00  0.00000000000E+00  0.47280620825E+04  0.47280620825E+04  0.25500000000E-02 0.  1.
          2   -1    0    0  501    0  0.00000000000E+00 -0.00000000000E+00 -0.72204524458E+02  0.72204524503E+02  0.25500000000E-02 0. -1.
    8880022    1    1    2    0    0 -0.20623691880E+03  0.25244934195E+02  0.44814024683E+04  0.44888228645E+04  0.15294330000E+03 0.  1.
    8880022    1    1    2    0    0  0.20623691880E+03 -0.25244934195E+02  0.17445508980E+03  0.31144374251E+03  0.15294330000E+03 0.  0.
<mgrwt>
<rscale>  0 0.25799734E+03</rscale>
<asrwt>0</asrwt>
<pdfrwt beam="1">  1        2 0.11108387E-01 0.25799734E+03</pdfrwt>
<pdfrwt beam="2">  1       -2 0.72739428E+00 0.25799734E+03</pdfrwt>
<totfact> 0.13047586E-01</totfact>
</mgrwt>
</event>
<event>
 4    1  0.3365401E-008  0.1440380E+04  0.7818608E-02  0.8925097E-01
          2   -1    0    0  501    0  0.00000000000E+00  0.00000000000E+00  0.25990588489E+04  0.25990588489E+04  0.25500000000E-02 0. -1.
         -2   -1    0    0    0  501 -0.00000000000E+00 -0.00000000000E+00 -0.10337976192E+04  0.10337976192E+04  0.25500000000E-02 0.  1.
    8880022    1    1    2    0    0  0.55813389897E+02  0.14311495438E+04  0.16496740930E+04  0.21900046615E+04  0.15294330000E+03 0. -1.
    8880022    1    1    2    0    0 -0.55813389897E+02 -0.14311495438E+04 -0.84412863264E+02  0.14428518066E+04  0.15294330000E+03 0.  0.
<mgrwt>
<rscale>  0 0.14403804E+04</rscale>
<asrwt>0</asrwt>
<pdfrwt beam="1">  1        2 0.39985520E+00 0.14403804E+04</pdfrwt>
<pdfrwt beam="2">  1       -2 0.15904579E+00 0.14403804E+04</pdfrwt>
<totfact> 0.74128328E-01</totfact>
</mgrwt>
</event>
<event>
 4    1  0.3365401E-008  0.6654327E+03  0.7818608E-02  0.9778244E-01
         -2   -1    0    0    0  501 -0.00000000000E+00  0.00000000000E+00  0.11601142896E+04  0.11601142896E+04  0.25500000000E-02 0.  1.
          2   -1    0    0  501    0  0.00000000000E+00 -0.00000000000E+00 -0.90734826427E+03  0.90734826427E+03  0.25500000000E-02 0. -1.
    8880022    1    1    2    0    0  0.31273769992E+03  0.56710152205E+03  0.91319976271E+03  0.11299267520E+04  0.15294330000E+03 0.  0.
    8880022    1    1    2    0    0 -0.31273769992E+03 -0.56710152205E+03 -0.66043373739E+03  0.93753580186E+03  0.15294330000E+03 0.  0.
<mgrwt>
<rscale>  0 0.66543269E+03</rscale>
<asrwt>0</asrwt>
<pdfrwt beam="1">  1        2 0.13959204E+00 0.66543269E+03</pdfrwt>
<pdfrwt beam="2">  1       -2 0.17847912E+00 0.66543269E+03</pdfrwt>
<totfact> 0.55591820E+00</totfact>
</mgrwt>
</event>
<event>
 4    1  0.3365401E-008  0.2625572E+03  0.7818608E-02  0.1105616E+00
          2   -1    0    0  501    0  0.00000000000E+00  0.00000000000E+00  0.41758390954E+03  0.41758390955E+03  0.25500000000E-02 0. -1.
         -2   -1    0    0    0  501 -0.00000000000E+00 -0.00000000000E+00 -0.48529503852E+03  0.48529503852E+03  0.25500000000E-02 0.  1.
    8880022    1    1    2    0    0  0.86340889967E+02  0.19516634462E+03  0.33284784376E+03  0.42393866474E+03  0.15294330000E+03 0. -1.
    8880022    1    1    2    0    0 -0.86340889967E+02 -0.19516634462E+03 -0.40055897273E+03  0.47894028333E+03  0.15294330000E+03 0.  1.
<mgrwt>
<rscale>  0 0.26255724E+03</rscale>
<asrwt>0</asrwt>
<pdfrwt beam="1">  1        2 0.64243679E-01 0.26255724E+03</pdfrwt>
<pdfrwt beam="2">  1       -2 0.74660775E-01 0.26255724E+03</pdfrwt>
<totfact> 0.12761670E+02</totfact>
</mgrwt>
</event>
<event>
 4    1  0.3365401E-008  0.7213502E+03  0.7818608E-02  0.9681401E-01
         -2   -1    0    0    0  501 -0.00000000000E+00  0.00000000000E+00  0.63783208992E+03  0.63783208993E+03  0.25500000000E-02 0.  1.
          2   -1    0    0  501    0  0.00000000000E+00 -0.00000000000E+00 -0.15782235159E+04  0.15782235159E+04  0.25500000000E-02 0. -1.
    8880022    1    1    2    0    0 -0.10904290674E+03 -0.69646547890E+03  0.29993299911E+03  0.78122082395E+03  0.15294330000E+03 0.  0.
    8880022    1    1    2    0    0  0.10904290674E+03  0.69646547890E+03 -0.12403244251E+04  0.14348347819E+04  0.15294330000E+03 0.  0.
<mgrwt>
<rscale>  0 0.72135024E+03</rscale>
<asrwt>0</asrwt>
<pdfrwt beam="1">  1        2 0.24280362E+00 0.72135024E+03</pdfrwt>
<pdfrwt beam="2">  1       -2 0.98128014E-01 0.72135024E+03</pdfrwt>
<totfact> 0.10206531E+01</totfact>
</mgrwt>
</event>
<event>
 4    1  0.3365401E-008  0.3067239E+03  0.7818608E-02  0.1081927E+00
         -2   -1    0    0    0  501 -0.00000000000E+00  0.00000000000E+00  0.41285814920E+03  0.41285814921E+03  0.25500000000E-02 0.  1.
          2   -1    0    0  501    0  0.00000000000E+00 -0.00000000000E+00 -0.42607630467E+03  0.42607630467E+03  0.25500000000E-02 0. -1.
    8880022    1    1    2    0    0  0.78549847066E+02 -0.25400358802E+03 -0.29270318709E+03  0.42397489306E+03  0.15294330000E+03 0.  0.
    8880022    1    1    2    0    0 -0.78549847066E+02  0.25400358802E+03  0.27948503162E+03  0.41495956082E+03  0.15294330000E+03 0.  0.
<mgrwt>
<rscale>  0 0.30672391E+03</rscale>
<asrwt>0</asrwt>
<pdfrwt beam="1">  1        2 0.65550201E-01 0.30672391E+03</pdfrwt>
<pdfrwt beam="2">  1       -2 0.63516638E-01 0.30672391E+03</pdfrwt>
<totfact> 0.17576475E+02</totfact>
</mgrwt>
</event>
<event>
 4    1  0.3365401E-008  0.3242143E+03  0.7818608E-02  0.1073726E+00
         -2   -1    0    0    0  501 -0.00000000000E+00  0.00000000000E+00  0.50199777423E+02  0.50199777488E+02  0.25500000000E-02 0.  1.
          2   -1    0    0  501    0  0.00000000000E+00 -0.00000000000E+00 -0.40574972528E+04  0.40574972528E+04  0.25500000000E-02 0. -1.
    8880022    1    1    2    0    0 -0.27882370527E+03 -0.63092102869E+02 -0.34324175114E+04  0.34476955923E+04  0.15294330000E+03 0.  0.
    8880022    1    1    2    0    0  0.27882370527E+03  0.63092102869E+02 -0.57487996402E+03  0.66000143796E+03  0.15294330000E+03 0.  0.
<mgrwt>
<rscale>  0 0.32421432E+03</rscale>
<asrwt>0</asrwt>
<pdfrwt beam="1">  1        2 0.62423009E+00 0.32421432E+03</pdfrwt>
<pdfrwt beam="2">  1       -2 0.77230459E-02 0.32421432E+03</pdfrwt>
<totfact> 0.39447299E+01</totfact>
</mgrwt>
</event>
<event>
 4    1  0.3365401E-008  0.4810881E+03  0.7818608E-02  0.1018837E+00
         -2   -1    0    0    0  501 -0.00000000000E+00  0.00000000000E+00  0.25623468972E+03  0.25623468974E+03  0.25500000000E-02 0.  1.
          2   -1    0    0  501    0  0.00000000000E+00 -0.00000000000E+00 -0.29066316833E+04  0.29066316833E+04  0.25500000000E-02 0. -1.
    8880022    1    1    2    0    0  0.45124492785E+03  0.66574047992E+02 -0.12282462562E+02  0.48124484483E+03  0.15294330000E+03 0.  0.
    8880022    1    1    2    0    0 -0.45124492785E+03 -0.66574047992E+02 -0.26381145311E+04  0.26816215283E+04  0.15294330000E+03 0.  0.
<mgrwt>
<rscale>  0 0.48108808E+03</rscale>
<asrwt>0</asrwt>
<pdfrwt beam="1">  1        2 0.44717408E+00 0.48108808E+03</pdfrwt>
<pdfrwt beam="2">  1       -2 0.39420724E-01 0.48108808E+03</pdfrwt>
<totfact> 0.13593938E+01</totfact>
</mgrwt>
</event>
<event>
 4    1  0.3365401E-008  0.2186328E+03  0.7818608E-02  0.1134906E+00
         -2   -1    0    0    0  501 -0.00000000000E+00  0.00000000000E+00  0.42896904105E+02  0.42896904180E+02  0.25500000000E-02 0.  1.
          2   -1    0    0  501    0  0.00000000000E+00 -0.00000000000E+00 -0.15457544111E+04  0.15457544111E+04  0.25500000000E-02 0. -1.
    8880022    1    1    2    0    0 -0.11710782808E+03 -0.10341372955E+03 -0.33177359381E+03  0.39733362987E+03  0.15294330000E+03 0.  1.
    8880022    1    1    2    0    0  0.11710782808E+03  0.10341372955E+03 -0.11710839131E+04  0.11913176854E+04  0.15294330000E+03 0.  0.
<mgrwt>
<rscale>  0 0.21863279E+03</rscale>
<asrwt>0</asrwt>
<pdfrwt beam="1">  1        2 0.23780833E+00 0.21863279E+03</pdfrwt>
<pdfrwt beam="2">  1       -2 0.65995249E-02 0.21863279E+03</pdfrwt>
<totfact> 0.16516781E+03</totfact>
</mgrwt>
</event>
<event>
 4    1  0.3365401E-008  0.5752146E+03  0.7818608E-02  0.9958205E-01
         -2   -1    0    0    0  501 -0.00000000000E+00  0.00000000000E+00  0.39978847185E+03  0.39978847186E+03  0.25500000000E-02 0.  1.
          2   -1    0    0  501    0  0.00000000000E+00 -0.00000000000E+00 -0.15359092688E+04  0.15359092688E+04  0.25500000000E-02 0. -1.
    8880022    1    1    2    0    0 -0.17388131110E+03 -0.52654100980E+03  0.89190168636E+02  0.58208821028E+03  0.15294330000E+03 0.  0.
    8880022    1    1    2    0    0  0.17388131110E+03  0.52654100980E+03 -0.12253109655E+04  0.13536095303E+04  0.15294330000E+03 0.  0.
<mgrwt>
<rscale>  0 0.57521457E+03</rscale>
<asrwt>0</asrwt>
<pdfrwt beam="1">  1        2 0.23629373E+00 0.57521457E+03</pdfrwt>
<pdfrwt beam="2">  1       -2 0.61505920E-01 0.57521457E+03</pdfrwt>
<totfact> 0.31189826E+01</totfact>
</mgrwt>
</event>
<event>
 4    1  0.3365401E-008  0.5175050E+03  0.7818608E-02  0.1009308E+00
         -2   -1    0    0    0  501 -0.00000000000E+00  0.00000000000E+00  0.69770833273E+03  0.69770833273E+03  0.25500000000E-02 0.  1.
          2   -1    0    0  501    0  0.00000000000E+00 -0.00000000000E+00 -0.12951350567E+04  0.12951350567E+04  0.25500000000E-02 0. -1.
    8880022    1    1    2    0    0 -0.26890383268E+03  0.41486203259E+03 -0.11345359544E+04  0.12469896801E+04  0.15294330000E+03 0.  0.
    8880022    1    1    2    0    0  0.26890383268E+03 -0.41486203259E+03  0.53710923045E+03  0.74585370936E+03  0.15294330000E+03 0.  0.
<mgrwt>
<rscale>  0 0.51750501E+03</rscale>
<asrwt>0</asrwt>
<pdfrwt beam="1">  1        2 0.19925155E+00 0.51750501E+03</pdfrwt>
<pdfrwt beam="2">  1       -2 0.10733974E+00 0.51750501E+03</pdfrwt>
<totfact> 0.12267675E+01</totfact>
</mgrwt>
</event>
<event>
 4    1  0.3365401E-008  0.4282213E+03  0.7818608E-02  0.1034423E+00
         -2   -1    0    0    0  501 -0.00000000000E+00  0.00000000000E+00  0.35252543031E+03  0.35252543032E+03  0.25500000000E-02 0.  1.
          2   -1    0    0  501    0  0.00000000000E+00 -0.00000000000E+00 -0.16809777804E+04  0.16809777804E+04  0.25500000000E-02 0. -1.
    8880022    1    1    2    0    0  0.88978115165E+02  0.38995482016E+03 -0.15091427716E+04  0.15687209519E+04  0.15294330000E+03 0.  0.
    8880022    1    1    2    0    0 -0.88978115165E+02 -0.38995482016E+03  0.18069042148E+03  0.46478225888E+03  0.15294330000E+03 0.  0.
<mgrwt>
<rscale>  0 0.42822134E+03</rscale>
<asrwt>0</asrwt>
<pdfrwt beam="1">  1        2 0.25861196E+00 0.42822134E+03</pdfrwt>
<pdfrwt beam="2">  1       -2 0.54234682E-01 0.42822134E+03</pdfrwt>
<totfact> 0.34707117E+01</totfact>
</mgrwt>
</event>
<event>
 4    1  0.3365401E-008  0.5083423E+03  0.7818608E-02  0.1011624E+00
         -2   -1    0    0    0  501 -0.00000000000E+00  0.00000000000E+00  0.17546244571E+03  0.17546244573E+03  0.25500000000E-02 0.  1.
          2   -1    0    0  501    0  0.00000000000E+00 -0.00000000000E+00 -0.21625866949E+04  0.21625866949E+04  0.25500000000E-02 0. -1.
    8880022    1    1    2    0    0  0.11698290370E+03  0.47046283243E+03 -0.16538156322E+04  0.17301786251E+04  0.15294330000E+03 0.  0.
    8880022    1    1    2    0    0 -0.11698290370E+03 -0.47046283243E+03 -0.33330861697E+03  0.60787051550E+03  0.15294330000E+03 0.  0.
<mgrwt>
<rscale>  0 0.50834233E+03</rscale>
<asrwt>0</asrwt>
<pdfrwt beam="1">  1        2 0.33270563E+00 0.50834233E+03</pdfrwt>
<pdfrwt beam="2">  1       -2 0.26994224E-01 0.50834233E+03</pdfrwt>
<totfact> 0.72095630E+01</totfact>
</mgrwt>
</event>
<event>
 4    1  0.3365401E-008  0.3411633E+03  0.7818608E-02  0.1066302E+00
          2   -1    0    0  501    0  0.00000000000E+00  0.00000000000E+00  0.30121110241E+04  0.30121110241E+04  0.25500000000E-02 0. -1.
         -2   -1    0    0    0  501 -0.00000000000E+00 -0.00000000000E+00 -0.34765984294E+03  0.34765984295E+03  0.25500000000E-02 0.  1.
    8880022    1    1    2    0    0 -0.29157549028E+03 -0.89355740512E+02 -0.25155332567E+03  0.42387668439E+03  0.15294330000E+03 0.  0.
    8880022    1    1    2    0    0  0.29157549028E+03  0.89355740512E+02  0.29160045068E+04  0.29358941826E+04  0.15294330000E+03 0.  0.
<mgrwt>
<rscale>  0 0.34116326E+03</rscale>
<asrwt>0</asrwt>
<pdfrwt beam="1">  1        2 0.46340171E+00 0.34116326E+03</pdfrwt>
<pdfrwt beam="2">  1       -2 0.53486128E-01 0.34116326E+03</pdfrwt>
<totfact> 0.67403293E+00</totfact>
</mgrwt>
</event>
<event>
 4    1  0.3365401E-008  0.7536542E+03  0.7818608E-02  0.9629635E-01
          2   -1    0    0  501    0  0.00000000000E+00  0.00000000000E+00  0.17468885423E+04  0.17468885423E+04  0.25500000000E-02 0. -1.
         -2   -1    0    0    0  501 -0.00000000000E+00 -0.00000000000E+00 -0.35806734091E+03  0.35806734092E+03  0.25500000000E-02 0.  1.
    8880022    1    1    2    0    0  0.73790449225E+03  0.10000743742E+02  0.37528175521E+03  0.84192107906E+03  0.15294330000E+03 0.  0.
    8880022    1    1    2    0    0 -0.73790449225E+03 -0.10000743742E+02  0.10135394462E+04  0.12630348042E+04  0.15294330000E+03 0.  0.
<mgrwt>
<rscale>  0 0.75365424E+03</rscale>
<asrwt>0</asrwt>
<pdfrwt beam="1">  1        2 0.26875208E+00 0.75365424E+03</pdfrwt>
<pdfrwt beam="2">  1       -2 0.55087284E-01 0.75365424E+03</pdfrwt>
<totfact> 0.29397139E+01</totfact>
</mgrwt>
</event>
<event>
 4    1  0.3593286E-008  0.8154448E+03  0.7818608E-02  0.9537927E-01
          2   -1    0    0  501    0  0.00000000000E+00  0.00000000000E+00  0.28738009396E+04  0.28738009396E+04  0.25500000000E-02 0. -1.
         -2   -1    0    0    0  501 -0.00000000000E+00 -0.00000000000E+00 -0.88185520674E+03  0.88185520674E+03  0.25500000000E-02 0.  1.
    8880022    1    1    2    0    0 -0.19390430400E+03  0.77714838865E+03 -0.61679323933E+03  0.10224402428E+04  0.15294330000E+03 0.  0.
    8880022    1    1    2    0    0  0.19390430400E+03 -0.77714838865E+03  0.26087389722E+04  0.27332159035E+04  0.15294330000E+03 0.  0.
<mgrwt>
<rscale>  0 0.81544476E+03</rscale>
<asrwt>0</asrwt>
<pdfrwt beam="1">  1        2 0.44212321E+00 0.81544476E+03</pdfrwt>
<pdfrwt beam="2">  1       -2 0.13567003E+00 0.81544476E+03</pdfrwt>
<totfact> 0.85226900E-01</totfact>
</mgrwt>
</event>
<event>
 4    1  0.3365401E-008  0.6496496E+03  0.7818608E-02  0.9807437E-01
          2   -1    0    0  501    0  0.00000000000E+00  0.00000000000E+00  0.18510091948E+04  0.18510091948E+04  0.25500000000E-02 0. -1.
         -2   -1    0    0    0  501 -0.00000000000E+00 -0.00000000000E+00 -0.29693668497E+03  0.29693668498E+03  0.25500000000E-02 0.  1.
    8880022    1    1    2    0    0  0.63222502657E+01  0.63135807896E+03  0.12944784548E+04  0.14483504816E+04  0.15294330000E+03 0.  0.
    8880022    1    1    2    0    0 -0.63222502657E+01 -0.63135807896E+03  0.25959405507E+03  0.69959539818E+03  0.15294330000E+03 0.  0.
<mgrwt>
<rscale>  0 0.64964963E+03</rscale>
<asrwt>0</asrwt>
<pdfrwt beam="1">  1        2 0.28477064E+00 0.64964963E+03</pdfrwt>
<pdfrwt beam="2">  1       -2 0.45682567E-01 0.64964963E+03</pdfrwt>
<totfact> 0.38284228E+01</totfact>
</mgrwt>
</event>
<event>
 4    1  0.3365401E-008  0.9453952E+03  0.7818608E-02  0.9370549E-01
          2   -1    0    0  501    0  0.00000000000E+00  0.00000000000E+00  0.30847141833E+04  0.30847141833E+04  0.25500000000E-02 0. -1.
         -2   -1    0    0    0  501 -0.00000000000E+00 -0.00000000000E+00 -0.40846813208E+03  0.40846813209E+03  0.25500000000E-02 0.  1.
    8880022    1    1    2    0    0 -0.53657925504E+03  0.76319275424E+03  0.39648321900E+03  0.10251688022E+04  0.15294330000E+03 0.  0.
    8880022    1    1    2    0    0  0.53657925504E+03 -0.76319275424E+03  0.22797628322E+04  0.24680135132E+04  0.15294330000E+03 0. -1.
<mgrwt>
<rscale>  0 0.94539522E+03</rscale>
<asrwt>0</asrwt>
<pdfrwt beam="1">  1        2 0.47457141E+00 0.94539522E+03</pdfrwt>
<pdfrwt beam="2">  1       -2 0.62841252E-01 0.94539522E+03</pdfrwt>
<totfact> 0.37327624E+00</totfact>
</mgrwt>
</event>
<event>
 4    1  0.3365401E-008  0.4185196E+03  0.7818608E-02  0.1037549E+00
          2   -1    0    0  501    0  0.00000000000E+00  0.00000000000E+00  0.73363734641E+03  0.73363734642E+03  0.25500000000E-02 0. -1.
         -2   -1    0    0    0  501 -0.00000000000E+00 -0.00000000000E+00 -0.52027904511E+03  0.52027904511E+03  0.25500000000E-02 0.  1.
    8880022    1    1    2    0    0 -0.38273771643E+03  0.72655788036E+02  0.56786834046E+03  0.70543116476E+03  0.15294330000E+03 0. -1.
    8880022    1    1    2    0    0  0.38273771643E+03 -0.72655788036E+02 -0.35451003915E+03  0.54848522677E+03  0.15294330000E+03 0.  0.
<mgrwt>
<rscale>  0 0.41851962E+03</rscale>
<asrwt>0</asrwt>
<pdfrwt beam="1">  1        2 0.11286728E+00 0.41851962E+03</pdfrwt>
<pdfrwt beam="2">  1       -2 0.80042930E-01 0.41851962E+03</pdfrwt>
<totfact> 0.55756176E+01</totfact>
</mgrwt>
</event>
<event>
 4    1  0.3365401E-008  0.7158761E+03  0.7818608E-02  0.9690461E-01
          2   -1    0    0  501    0  0.00000000000E+00  0.00000000000E+00  0.26174105166E+04  0.26174105166E+04  0.25500000000E-02 0. -1.
         -2   -1    0    0    0  501 -0.00000000000E+00 -0.00000000000E+00 -0.19584261127E+03  0.19584261129E+03  0.25500000000E-02 0.  1.
    8880022    1    1    2    0    0  0.69151166825E+03 -0.10439588560E+03  0.11890862280E+04  0.13879497826E+04  0.15294330000E+03 0.  1.
    8880022    1    1    2    0    0 -0.69151166825E+03  0.10439588560E+03  0.12324816773E+04  0.14253033453E+04  0.15294330000E+03 0. -1.
<mgrwt>
<rscale>  0 0.71587607E+03</rscale>
<asrwt>0</asrwt>
<pdfrwt beam="1">  1        2 0.40267853E+00 0.71587607E+03</pdfrwt>
<pdfrwt beam="2">  1       -2 0.30129633E-01 0.71587607E+03</pdfrwt>
<totfact> 0.31779887E+01</totfact>
</mgrwt>
</event>
<event>
 4    1  0.3365401E-008  0.9986089E+03  0.7818608E-02  0.9310072E-01
         -2   -1    0    0    0  501 -0.00000000000E+00  0.00000000000E+00  0.15082821257E+04  0.15082821257E+04  0.25500000000E-02 0.  1.
          2   -1    0    0  501    0  0.00000000000E+00 -0.00000000000E+00 -0.95368919435E+03  0.95368919435E+03  0.25500000000E-02 0. -1.
    8880022    1    1    2    0    0 -0.82407751972E+03  0.54288511490E+03 -0.40446472588E+03  0.10774095665E+04  0.15294330000E+03 0.  0.
    8880022    1    1    2    0    0  0.82407751972E+03 -0.54288511490E+03  0.95905765720E+03  0.13845617535E+04  0.15294330000E+03 0.  0.
<mgrwt>
<rscale>  0 0.99860886E+03</rscale>
<asrwt>0</asrwt>
<pdfrwt beam="1">  1        2 0.14672141E+00 0.99860886E+03</pdfrwt>
<pdfrwt beam="2">  1       -2 0.23204340E+00 0.99860886E+03</pdfrwt>
<totfact> 0.22302793E+00</totfact>
</mgrwt>
</event>
<event>
 4    1  0.3365401E-008  0.4814497E+03  0.7818608E-02  0.1018738E+00
         -2   -1    0    0    0  501 -0.00000000000E+00  0.00000000000E+00  0.64645245203E+03  0.64645245204E+03  0.25500000000E-02 0.  1.
          2   -1    0    0  501    0  0.00000000000E+00 -0.00000000000E+00 -0.20118891285E+04  0.20118891285E+04  0.25500000000E-02 0. -1.
    8880022    1    1    2    0    0  0.47806628025E+01 -0.45648578401E+03  0.52220124306E+03  0.71027312846E+03  0.15294330000E+03 0.  0.
    8880022    1    1    2    0    0 -0.47806628025E+01  0.45648578401E+03 -0.18876379195E+04  0.19480684520E+04  0.15294330000E+03 0.  0.
<mgrwt>
<rscale>  0 0.48144966E+03</rscale>
<asrwt>0</asrwt>
<pdfrwt beam="1">  1        2 0.30952140E+00 0.48144966E+03</pdfrwt>
<pdfrwt beam="2">  1       -2 0.99454224E-01 0.48144966E+03</pdfrwt>
<totfact> 0.60271126E+00</totfact>
</mgrwt>
</event>
<event>
 4    1  0.3365401E-008  0.2909080E+03  0.7818608E-02  0.1089876E+00
          2   -1    0    0  501    0  0.00000000000E+00  0.00000000000E+00  0.10394637471E+04  0.10394637471E+04  0.25500000000E-02 0. -1.
         -2   -1    0    0    0  501 -0.00000000000E+00 -0.00000000000E+00 -0.11727366908E+03  0.11727366911E+03  0.25500000000E-02 0.  1.
    8880022    1    1    2    0    0 -0.24264656913E+03  0.48563691502E+02  0.14127584989E+03  0.32339806496E+03  0.15294330000E+03 0. -1.
    8880022    1    1    2    0    0  0.24264656913E+03 -0.48563691502E+02  0.78091422814E+03  0.83333935127E+03  0.15294330000E+03 0.  1.
<mgrwt>
<rscale>  0 0.29090796E+03</rscale>
<asrwt>0</asrwt>
<pdfrwt beam="1">  1        2 0.15991750E+00 0.29090796E+03</pdfrwt>
<pdfrwt beam="2">  1       -2 0.18042103E-01 0.29090796E+03</pdfrwt>
<totfact> 0.62450358E+02</totfact>
</mgrwt>
</event>
<event>
 4    1  0.3365401E-008  0.7755045E+03  0.7818608E-02  0.9596166E-01
          2   -1    0    0  501    0  0.00000000000E+00  0.00000000000E+00  0.24625836631E+04  0.24625836631E+04  0.25500000000E-02 0. -1.
         -2   -1    0    0    0  501 -0.00000000000E+00 -0.00000000000E+00 -0.57235656696E+03  0.57235656696E+03  0.25500000000E-02 0.  1.
    8880022    1    1    2    0    0  0.63395918283E+03 -0.41965627153E+03 -0.20387431960E+03  0.80185536285E+03  0.15294330000E+03 0.  0.
    8880022    1    1    2    0    0 -0.63395918283E+03  0.41965627153E+03  0.20941014158E+04  0.22330848672E+04  0.15294330000E+03 0.  0.
<mgrwt>
<rscale>  0 0.77550454E+03</rscale>
<asrwt>0</asrwt>
<pdfrwt beam="1">  1        2 0.37885902E+00 0.77550454E+03</pdfrwt>
<pdfrwt beam="2">  1       -2 0.88054858E-01 0.77550454E+03</pdfrwt>
<totfact> 0.42461448E+00</totfact>
</mgrwt>
</event>
<event>
 4    1  0.3365401E-008  0.7718987E+03  0.7818608E-02  0.9601608E-01
         -2   -1    0    0    0  501 -0.00000000000E+00  0.00000000000E+00  0.66513104360E+03  0.66513104360E+03  0.25500000000E-02 0.  1.
          2   -1    0    0  501    0  0.00000000000E+00 -0.00000000000E+00 -0.11597624887E+04  0.11597624887E+04  0.25500000000E-02 0. -1.
    8880022    1    1    2    0    0  0.75658420174E+03 -0.40318636941E+01 -0.68261724735E+03  0.10304338259E+04  0.15294330000E+03 0.  0.
    8880022    1    1    2    0    0 -0.75658420174E+03  0.40318636941E+01  0.18798580221E+03  0.79445970640E+03  0.15294330000E+03 0.  0.
<mgrwt>
<rscale>  0 0.77189867E+03</rscale>
<asrwt>0</asrwt>
<pdfrwt beam="1">  1        2 0.17842500E+00 0.77189867E+03</pdfrwt>
<pdfrwt beam="2">  1       -2 0.10232785E+00 0.77189867E+03</pdfrwt>
<totfact> 0.15914232E+01</totfact>
</mgrwt>
</event>
<event>
 4    1  0.3365401E-008  0.6541782E+03  0.7818608E-02  0.9798970E-01
         -2   -1    0    0    0  501 -0.00000000000E+00  0.00000000000E+00  0.85858840131E+03  0.85858840132E+03  0.25500000000E-02 0.  1.
          2   -1    0    0  501    0  0.00000000000E+00 -0.00000000000E+00 -0.76679232731E+03  0.76679232732E+03  0.25500000000E-02 0. -1.
    8880022    1    1    2    0    0  0.37264650853E+03  0.51545329577E+03  0.52667563090E+03  0.83984307679E+03  0.15294330000E+03 0.  0.
    8880022    1    1    2    0    0 -0.37264650853E+03 -0.51545329577E+03 -0.43487955690E+03  0.78553765184E+03  0.15294330000E+03 0. -1.
<mgrwt>
<rscale>  0 0.65417824E+03</rscale>
<asrwt>0</asrwt>
<pdfrwt beam="1">  1        2 0.11796805E+00 0.65417824E+03</pdfrwt>
<pdfrwt beam="2">  1       -2 0.13209052E+00 0.65417824E+03</pdfrwt>
<totfact> 0.15581449E+01</totfact>
</mgrwt>
</event>
<event>
 4    1  0.3365401E-008  0.2290369E+03  0.7818608E-02  0.1127320E+00
         -2   -1    0    0    0  501 -0.00000000000E+00  0.00000000000E+00  0.62122893497E+03  0.62122893498E+03  0.25500000000E-02 0.  1.
          2   -1    0    0  501    0  0.00000000000E+00 -0.00000000000E+00 -0.10722313987E+04  0.10722313987E+04  0.25500000000E-02 0. -1.
    8880022    1    1    2    0    0 -0.33626486298E+02  0.16713913237E+03 -0.10382062256E+04  0.10631698124E+04  0.15294330000E+03 0.  0.
    8880022    1    1    2    0    0  0.33626486298E+02 -0.16713913237E+03  0.58720376190E+03  0.63029052123E+03  0.15294330000E+03 0.  0.
<mgrwt>
<rscale>  0 0.22903686E+03</rscale>
<asrwt>0</asrwt>
<pdfrwt beam="1">  1        2 0.16495868E+00 0.22903686E+03</pdfrwt>
<pdfrwt beam="2">  1       -2 0.95573682E-01 0.22903686E+03</pdfrwt>
<totfact> 0.23307690E+01</totfact>
</mgrwt>
</event>
<event>
 4    1  0.3365401E-008  0.1212397E+04  0.7818608E-02  0.9102074E-01
         -2   -1    0    0    0  501 -0.00000000000E+00  0.00000000000E+00  0.34630752324E+03  0.34630752325E+03  0.25500000000E-02 0.  1.
          2   -1    0    0  501    0  0.00000000000E+00 -0.00000000000E+00 -0.47515298992E+04  0.47515298992E+04  0.25500000000E-02 0. -1.
    8880022    1    1    2    0    0 -0.47803171453E+02 -0.12017609497E+04 -0.13699827851E+04  0.18294149360E+04  0.15294330000E+03 0.  0.
    8880022    1    1    2    0    0  0.47803171453E+02  0.12017609497E+04 -0.30352395908E+04  0.32684224865E+04  0.15294330000E+03 0.  0.
<mgrwt>
<rscale>  0 0.12123969E+04</rscale>
<asrwt>0</asrwt>
<pdfrwt beam="1">  1        2 0.73100455E+00 0.12123969E+04</pdfrwt>
<pdfrwt beam="2">  1       -2 0.53278084E-01 0.12123969E+04</pdfrwt>
<totfact> 0.23401423E-01</totfact>
</mgrwt>
</event>
<event>
 4    1  0.3365401E-008  0.6679539E+03  0.7818608E-02  0.9773661E-01
          2   -1    0    0  501    0  0.00000000000E+00  0.00000000000E+00  0.61427130532E+03  0.61427130533E+03  0.25500000000E-02 0. -1.
         -2   -1    0    0    0  501 -0.00000000000E+00 -0.00000000000E+00 -0.16486390484E+04  0.16486390484E+04  0.25500000000E-02 0.  1.
    8880022    1    1    2    0    0  0.47739494827E+03 -0.44143503190E+03 -0.13634622739E+04  0.15182858260E+04  0.15294330000E+03 0.  0.
    8880022    1    1    2    0    0 -0.47739494827E+03  0.44143503190E+03  0.32909453085E+03  0.74462452772E+03  0.15294330000E+03 0.  0.
<mgrwt>
<rscale>  0 0.66795395E+03</rscale>
<asrwt>0</asrwt>
<pdfrwt beam="1">  1        2 0.94503279E-01 0.66795395E+03</pdfrwt>
<pdfrwt beam="2">  1       -2 0.25363677E+00 0.66795395E+03</pdfrwt>
<totfact> 0.30714118E+00</totfact>
</mgrwt>
</event>
<event>
 4    1  0.3365401E-008  0.4006344E+03  0.7818608E-02  0.1043560E+00
         -2   -1    0    0    0  501 -0.00000000000E+00  0.00000000000E+00  0.10617018923E+04  0.10617018923E+04  0.25500000000E-02 0.  1.
          2   -1    0    0  501    0  0.00000000000E+00 -0.00000000000E+00 -0.21042288343E+04  0.21042288343E+04  0.25500000000E-02 0. -1.
    8880022    1    1    2    0    0  0.32598908509E+03 -0.17563420295E+03 -0.20463043980E+04  0.20851545744E+04  0.15294330000E+03 0.  0.
    8880022    1    1    2    0    0 -0.32598908509E+03  0.17563420295E+03  0.10037774560E+04  0.10807761522E+04  0.15294330000E+03 0.  1.
<mgrwt>
<rscale>  0 0.40063438E+03</rscale>
<asrwt>0</asrwt>
<pdfrwt beam="1">  1        2 0.32372751E+00 0.40063438E+03</pdfrwt>
<pdfrwt beam="2">  1       -2 0.16333875E+00 0.40063438E+03</pdfrwt>
<totfact> 0.15923544E+00</totfact>
</mgrwt>
</event>
<event>
 4    1  0.3365401E-008  0.1225620E+04  0.7818608E-02  0.9090722E-01
          2   -1    0    0  501    0  0.00000000000E+00  0.00000000000E+00  0.41554028267E+04  0.41554028267E+04  0.25500000000E-02 0. -1.
         -2   -1    0    0    0  501 -0.00000000000E+00 -0.00000000000E+00 -0.70847045618E+03  0.70847045619E+03  0.25500000000E-02 0.  1.
    8880022    1    1    2    0    0 -0.10600116042E+04  0.59592653755E+03  0.34254000004E+04  0.36380640257E+04  0.15294330000E+03 0.  0.
    8880022    1    1    2    0    0  0.10600116042E+04 -0.59592653755E+03  0.21532370127E+02  0.12258092572E+04  0.15294330000E+03 0.  0.
<mgrwt>
<rscale>  0 0.12256201E+04</rscale>
<asrwt>0</asrwt>
<pdfrwt beam="1">  1        2 0.63929273E+00 0.12256201E+04</pdfrwt>
<pdfrwt beam="2">  1       -2 0.10899546E+00 0.12256201E+04</pdfrwt>
<totfact> 0.17279347E-01</totfact>
</mgrwt>
</event>
<event>
 4    1  0.3365401E-008  0.1609969E+03  0.7818608E-02  0.1187576E+00
          2   -1    0    0  501    0  0.00000000000E+00  0.00000000000E+00  0.48277554051E+02  0.48277554118E+02  0.25500000000E-02 0. -1.
         -2   -1    0    0    0  501 -0.00000000000E+00 -0.00000000000E+00 -0.19219740499E+04  0.19219740499E+04  0.25500000000E-02 0.  1.
    8880022    1    1    2    0    0 -0.44548585403E+02 -0.23318778638E+02 -0.17731348855E+04  0.17804289700E+04  0.15294330000E+03 0.  0.
    8880022    1    1    2    0    0  0.44548585403E+02  0.23318778638E+02 -0.10056161029E+03  0.18982263400E+03  0.15294330000E+03 0. -1.
<mgrwt>
<rscale>  0 0.16099688E+03</rscale>
<asrwt>0</asrwt>
<pdfrwt beam="1">  1        2 0.74273175E-02 0.16099688E+03</pdfrwt>
<pdfrwt beam="2">  1       -2 0.29568826E+00 0.16099688E+03</pdfrwt>
<totfact> 0.37103605E+01</totfact>
</mgrwt>
</event>
<event>
 4    1  0.3365401E-008  0.1211085E+04  0.7818608E-02  0.9103209E-01
          2   -1    0    0  501    0  0.00000000000E+00  0.00000000000E+00  0.82077058715E+03  0.82077058716E+03  0.25500000000E-02 0. -1.
         -2   -1    0    0    0  501 -0.00000000000E+00 -0.00000000000E+00 -0.24345297431E+04  0.24345297431E+04  0.25500000000E-02 0.  1.
    8880022    1    1    2    0    0  0.58415808860E+03  0.10498072648E+04 -0.16462990948E+04  0.20437779548E+04  0.15294330000E+03 0.  0.
    8880022    1    1    2    0    0 -0.58415808860E+03 -0.10498072648E+04  0.32539938859E+02  0.12115223755E+04  0.15294330000E+03 0.  0.
<mgrwt>
<rscale>  0 0.12110853E+04</rscale>
<asrwt>0</asrwt>
<pdfrwt beam="1">  1        2 0.12627240E+00 0.12110853E+04</pdfrwt>
<pdfrwt beam="2">  1       -2 0.37454303E+00 0.12110853E+04</pdfrwt>
<totfact> 0.35604737E-01</totfact>
</mgrwt>
</event>
<event>
 4    1  0.3365401E-008  0.1049365E+04  0.7818608E-02  0.9256000E-01
          2   -1    0    0  501    0  0.00000000000E+00  0.00000000000E+00  0.21160172990E+04  0.21160172990E+04  0.25500000000E-02 0. -1.
         -2   -1    0    0    0  501 -0.00000000000E+00 -0.00000000000E+00 -0.70150133901E+03  0.70150133901E+03  0.25500000000E-02 0.  1.
    8880022    1    1    2    0    0  0.77058863115E+03  0.69567765527E+03 -0.85372001659E+01  0.10493992449E+04  0.15294330000E+03 0.  0.
    8880022    1    1    2    0    0 -0.77058863115E+03 -0.69567765527E+03  0.14230531602E+04  0.17681193931E+04  0.15294330000E+03 0.  0.
<mgrwt>
<rscale>  0 0.10493645E+04</rscale>
<asrwt>0</asrwt>
<pdfrwt beam="1">  1        2 0.32554112E+00 0.10493645E+04</pdfrwt>
<pdfrwt beam="2">  1       -2 0.10792328E+00 0.10493645E+04</pdfrwt>
<totfact> 0.39417491E+00</totfact>
</mgrwt>
</event>
<event>
 4    1  0.3365401E-008  0.1027236E+04  0.7818608E-02  0.9279167E-01
          2   -1    0    0  501    0  0.00000000000E+00  0.00000000000E+00  0.14824215194E+04  0.14824215194E+04  0.25500000000E-02 0. -1.
         -2   -1    0    0    0  501 -0.00000000000E+00 -0.00000000000E+00 -0.11440321426E+04  0.11440321426E+04  0.25500000000E-02 0.  1.
    8880022    1    1    2    0    0 -0.90641277365E+03  0.45851644869E+03 -0.63798557387E+03  0.12092306213E+04  0.15294330000E+03 0.  0.
    8880022    1    1    2    0    0  0.90641277365E+03 -0.45851644869E+03  0.97637495065E+03  0.14172230408E+04  0.15294330000E+03 0.  0.
<mgrwt>
<rscale>  0 0.10272357E+04</rscale>
<asrwt>0</asrwt>
<pdfrwt beam="1">  1        2 0.22806485E+00 0.10272357E+04</pdfrwt>
<pdfrwt beam="2">  1       -2 0.17600495E+00 0.10272357E+04</pdfrwt>
<totfact> 0.24837782E+00</totfact>
</mgrwt>
</event>
<event>
 4    1  0.3365401E-008  0.8298799E+03  0.7818608E-02  0.9517747E-01
          2   -1    0    0  501    0  0.00000000000E+00  0.00000000000E+00  0.68286677859E+03  0.68286677859E+03  0.25500000000E-02 0. -1.
         -2   -1    0    0    0  501 -0.00000000000E+00 -0.00000000000E+00 -0.14065884936E+04  0.14065884936E+04  0.25500000000E-02 0.  1.
    8880022    1    1    2    0    0  0.21797730240E+01  0.81566182856E+03 -0.91761897924E+03  0.12372248034E+04  0.15294330000E+03 0.  0.
    8880022    1    1    2    0    0 -0.21797730240E+01 -0.81566182856E+03  0.19389726420E+03  0.85223046886E+03  0.15294330000E+03 0.  0.
<mgrwt>
<rscale>  0 0.82987988E+03</rscale>
<asrwt>0</asrwt>
<pdfrwt beam="1">  1        2 0.10505643E+00 0.82987988E+03</pdfrwt>
<pdfrwt beam="2">  1       -2 0.21639823E+00 0.82987988E+03</pdfrwt>
<totfact> 0.44634968E+00</totfact>
</mgrwt>
</event>
<event>
 4    1  0.6684730E-008  0.1338586E+04  0.7818608E-02  0.8999513E-01
          2   -1    0    0  501    0  0.00000000000E+00  0.00000000000E+00  0.29019935055E+04  0.29019935056E+04  0.25500000000E-02 0. -1.
         -2   -1    0    0    0  501 -0.00000000000E+00 -0.00000000000E+00 -0.16959872974E+04  0.16959872974E+04  0.25500000000E-02 0.  1.
    8880022    1    1    2    0    0  0.17547613167E+02  0.13297044730E+04 -0.12303452541E+04  0.18181207335E+04  0.15294330000E+03 0.  0.
    8880022    1    1    2    0    0 -0.17547613167E+02 -0.13297044730E+04  0.24363514623E+04  0.27798600694E+04  0.15294330000E+03 0.  0.
<mgrwt>
<rscale>  0 0.13385864E+04</rscale>
<asrwt>0</asrwt>
<pdfrwt beam="1">  1        2 0.44646053E+00 0.13385864E+04</pdfrwt>
<pdfrwt beam="2">  1       -2 0.26092113E+00 0.13385864E+04</pdfrwt>
<totfact> 0.10613229E-01</totfact>
</mgrwt>
</event>
<event>
 4    1  0.3365401E-008  0.4144156E+03  0.7818608E-02  0.1038899E+00
         -2   -1    0    0    0  501 -0.00000000000E+00  0.00000000000E+00  0.19561850962E+03  0.19561850964E+03  0.25500000000E-02 0.  1.
          2   -1    0    0  501    0  0.00000000000E+00 -0.00000000000E+00 -0.17071869009E+04  0.17071869009E+04  0.25500000000E-02 0. -1.
    8880022    1    1    2    0    0 -0.32502571745E+03  0.20665646147E+03 -0.14188661104E+04  0.14781479298E+04  0.15294330000E+03 0.  0.
    8880022    1    1    2    0    0  0.32502571745E+03 -0.20665646147E+03 -0.92702280890E+02  0.42465748076E+03  0.15294330000E+03 0.  0.
<mgrwt>
<rscale>  0 0.41441557E+03</rscale>
<asrwt>0</asrwt>
<pdfrwt beam="1">  1        2 0.26264413E+00 0.41441557E+03</pdfrwt>
<pdfrwt beam="2">  1       -2 0.30095156E-01 0.41441557E+03</pdfrwt>
<totfact> 0.10554564E+02</totfact>
</mgrwt>
</event>
<event>
 4    1  0.3365401E-008  0.6056634E+03  0.7818608E-02  0.9893726E-01
          2   -1    0    0  501    0  0.00000000000E+00  0.00000000000E+00  0.12587314031E+04  0.12587314031E+04  0.25500000000E-02 0. -1.
         -2   -1    0    0    0  501 -0.00000000000E+00 -0.00000000000E+00 -0.46630888134E+03  0.46630888135E+03  0.25500000000E-02 0.  1.
    8880022    1    1    2    0    0  0.10504768040E+03 -0.57654264884E+03  0.92441932849E+03  0.11051602549E+04  0.15294330000E+03 0. -1.
    8880022    1    1    2    0    0 -0.10504768040E+03  0.57654264884E+03 -0.13199680670E+03  0.61988002959E+03  0.15294330000E+03 0.  0.
<mgrwt>
<rscale>  0 0.60566335E+03</rscale>
<asrwt>0</asrwt>
<pdfrwt beam="1">  1        2 0.19365098E+00 0.60566335E+03</pdfrwt>
<pdfrwt beam="2">  1       -2 0.71739831E-01 0.60566335E+03</pdfrwt>
<totfact> 0.31923049E+01</totfact>
</mgrwt>
</event>
<event>
 4    1  0.3365401E-008  0.4795941E+03  0.7818608E-02  0.1019247E+00
         -2   -1    0    0    0  501 -0.00000000000E+00  0.00000000000E+00  0.42549449373E+03  0.42549449374E+03  0.25500000000E-02 0.  1.
          2   -1    0    0  501    0  0.00000000000E+00 -0.00000000000E+00 -0.11397863562E+04  0.11397863562E+04  0.25500000000E-02 0. -1.
    8880022    1    1    2    0    0  0.45054135596E+03 -0.60260905986E+02 -0.92461414554E+03  0.10415958244E+04  0.15294330000E+03 0. -1.
    8880022    1    1    2    0    0 -0.45054135596E+03  0.60260905986E+02  0.21032228307E+03  0.52368502556E+03  0.15294330000E+03 0.  0.
<mgrwt>
<rscale>  0 0.47959414E+03</rscale>
<asrwt>0</asrwt>
<pdfrwt beam="1">  1        2 0.17535175E+00 0.47959414E+03</pdfrwt>
<pdfrwt beam="2">  1       -2 0.65460692E-01 0.47959414E+03</pdfrwt>
<totfact> 0.46491451E+01</totfact>
</mgrwt>
</event>
<event>
 4    1  0.3365401E-008  0.3406046E+03  0.7818608E-02  0.1066539E+00
         -2   -1    0    0    0  501 -0.00000000000E+00  0.00000000000E+00  0.18335690515E+03  0.18335690517E+03  0.25500000000E-02 0.  1.
          2   -1    0    0  501    0  0.00000000000E+00 -0.00000000000E+00 -0.14555691692E+04  0.14555691692E+04  0.25500000000E-02 0. -1.
    8880022    1    1    2    0    0  0.18151294109E+03  0.24428039930E+03 -0.19970909165E+02  0.34118961223E+03  0.15294330000E+03 0.  0.
    8880022    1    1    2    0    0 -0.18151294109E+03 -0.24428039930E+03 -0.12522413549E+04  0.12977364622E+04  0.15294330000E+03 0.  0.
<mgrwt>
<rscale>  0 0.34060463E+03</rscale>
<asrwt>0</asrwt>
<pdfrwt beam="1">  1        2 0.22393371E+00 0.34060463E+03</pdfrwt>
<pdfrwt beam="2">  1       -2 0.28208756E-01 0.34060463E+03</pdfrwt>
<totfact> 0.16443133E+02</totfact>
</mgrwt>
</event>
<event>
 4    1  0.3365401E-008  0.4368645E+03  0.7818608E-02  0.1031713E+00
         -2   -1    0    0    0  501 -0.00000000000E+00  0.00000000000E+00  0.17954794419E+03  0.17954794421E+03  0.25500000000E-02 0.  1.
          2   -1    0    0  501    0  0.00000000000E+00 -0.00000000000E+00 -0.14489824061E+04  0.14489824061E+04  0.25500000000E-02 0. -1.
    8880022    1    1    2    0    0  0.33964254833E+03 -0.22825830805E+03 -0.21443025571E+03  0.48665275445E+03  0.15294330000E+03 0.  1.
    8880022    1    1    2    0    0 -0.33964254833E+03  0.22825830805E+03 -0.10550042062E+04  0.11418775959E+04  0.15294330000E+03 0.  0.
<mgrwt>
<rscale>  0 0.43686447E+03</rscale>
<asrwt>0</asrwt>
<pdfrwt beam="1">  1        2 0.22292036E+00 0.43686447E+03</pdfrwt>
<pdfrwt beam="2">  1       -2 0.27622762E-01 0.43686447E+03</pdfrwt>
<totfact> 0.16977330E+02</totfact>
</mgrwt>
</event>
<event>
 4    1  0.3365401E-008  0.3263146E+03  0.7818608E-02  0.1072779E+00
          2   -1    0    0  501    0  0.00000000000E+00  0.00000000000E+00  0.69213816857E+03  0.69213816857E+03  0.25500000000E-02 0. -1.
         -2   -1    0    0    0  501 -0.00000000000E+00 -0.00000000000E+00 -0.32622173228E+03  0.32622173229E+03  0.25500000000E-02 0.  1.
    8880022    1    1    2    0    0 -0.14181130833E+03  0.25095635438E+03  0.55308936748E+03  0.64217524120E+03  0.15294330000E+03 0. -1.
    8880022    1    1    2    0    0  0.14181130833E+03 -0.25095635438E+03 -0.18717293119E+03  0.37618465966E+03  0.15294330000E+03 0.  0.
<mgrwt>
<rscale>  0 0.32631456E+03</rscale>
<asrwt>0</asrwt>
<pdfrwt beam="1">  1        2 0.10648279E+00 0.32631456E+03</pdfrwt>
<pdfrwt beam="2">  1       -2 0.50187959E-01 0.32631456E+03</pdfrwt>
<totfact> 0.16277395E+02</totfact>
</mgrwt>
</event>
<event>
 4    1  0.3365401E-008  0.8630113E+03  0.7818608E-02  0.9473038E-01
          2   -1    0    0  501    0  0.00000000000E+00  0.00000000000E+00  0.91994976847E+03  0.91994976847E+03  0.25500000000E-02 0. -1.
         -2   -1    0    0    0  501 -0.00000000000E+00 -0.00000000000E+00 -0.10518830974E+04  0.10518830974E+04  0.25500000000E-02 0.  1.
    8880022    1    1    2    0    0  0.24494948105E+03 -0.81326293880E+03  0.40720712155E+03  0.95425685680E+03  0.15294330000E+03 0.  0.
    8880022    1    1    2    0    0 -0.24494948105E+03  0.81326293880E+03 -0.53914045051E+03  0.10175760091E+04  0.15294330000E+03 0.  0.
<mgrwt>
<rscale>  0 0.86301130E+03</rscale>
<asrwt>0</asrwt>
<pdfrwt beam="1">  1        2 0.14153073E+00 0.86301130E+03</pdfrwt>
<pdfrwt beam="2">  1       -2 0.16182817E+00 0.86301130E+03</pdfrwt>
<totfact> 0.69771325E+00</totfact>
</mgrwt>
</event>
<event>
 4    1  0.3365401E-008  0.8264985E+03  0.7818608E-02  0.9522434E-01
          2   -1    0    0  501    0  0.00000000000E+00  0.00000000000E+00  0.31407058836E+03  0.31407058838E+03  0.25500000000E-02 0. -1.
         -2   -1    0    0    0  501 -0.00000000000E+00 -0.00000000000E+00 -0.24828873955E+04  0.24828873955E+04  0.25500000000E-02 0.  1.
    8880022    1    1    2    0    0 -0.81157335189E+03  0.32507773834E+02 -0.15768808744E+04  0.17803519332E+04  0.15294330000E+03 0.  0.
    8880022    1    1    2    0    0  0.81157335189E+03 -0.32507773834E+02 -0.59193593272E+03  0.10166060507E+04  0.15294330000E+03 0.  0.
<mgrwt>
<rscale>  0 0.82649847E+03</rscale>
<asrwt>0</asrwt>
<pdfrwt beam="1">  1        2 0.48318554E-01 0.82649847E+03</pdfrwt>
<pdfrwt beam="2">  1       -2 0.38198266E+00 0.82649847E+03</pdfrwt>
<totfact> 0.10606580E+00</totfact>
</mgrwt>
</event>
<event>
 4    1  0.3365401E-008  0.8433085E+03  0.7818608E-02  0.9499362E-01
         -2   -1    0    0    0  501 -0.00000000000E+00  0.00000000000E+00  0.11821547268E+04  0.11821547268E+04  0.25500000000E-02 0.  1.
          2   -1    0    0  501    0  0.00000000000E+00 -0.00000000000E+00 -0.74912497613E+03  0.74912497613E+03  0.25500000000E-02 0. -1.
    8880022    1    1    2    0    0  0.65377732514E+03 -0.51024769073E+03 -0.21202344340E+03  0.86955338556E+03  0.15294330000E+03 0.  0.
    8880022    1    1    2    0    0 -0.65377732514E+03  0.51024769073E+03  0.64505319403E+03  0.10617263173E+04  0.15294330000E+03 0.  0.
<mgrwt>
<rscale>  0 0.84330845E+03</rscale>
<asrwt>0</asrwt>
<pdfrwt beam="1">  1        2 0.11525000E+00 0.84330845E+03</pdfrwt>
<pdfrwt beam="2">  1       -2 0.18186996E+00 0.84330845E+03</pdfrwt>
<totfact> 0.66633748E+00</totfact>
</mgrwt>
</event>
<event>
 4    1  0.3365401E-008  0.6108475E+03  0.7818608E-02  0.9883153E-01
         -2   -1    0    0    0  501 -0.00000000000E+00  0.00000000000E+00  0.36579129618E+03  0.36579129619E+03  0.25500000000E-02 0.  1.
          2   -1    0    0  501    0  0.00000000000E+00 -0.00000000000E+00 -0.15229271911E+04  0.15229271911E+04  0.25500000000E-02 0. -1.
    8880022    1    1    2    0    0  0.54548151785E+03  0.22845768422E+03 -0.11212153455E+04  0.12768157674E+04  0.15294330000E+03 0. -1.
    8880022    1    1    2    0    0 -0.54548151785E+03 -0.22845768422E+03 -0.35920549450E+02  0.61190271995E+03  0.15294330000E+03 0.  0.
<mgrwt>
<rscale>  0 0.61084749E+03</rscale>
<asrwt>0</asrwt>
<pdfrwt beam="1">  1        2 0.23429649E+00 0.61084749E+03</pdfrwt>
<pdfrwt beam="2">  1       -2 0.56275585E-01 0.61084749E+03</pdfrwt>
<totfact> 0.38004287E+01</totfact>
</mgrwt>
</event>
<event>
 4    1  0.3365401E-008  0.4008989E+03  0.7818608E-02  0.1043469E+00
         -2   -1    0    0    0  501 -0.00000000000E+00  0.00000000000E+00  0.64926432004E+03  0.64926432005E+03  0.25500000000E-02 0.  1.
          2   -1    0    0  501    0  0.00000000000E+00 -0.00000000000E+00 -0.29928499519E+03  0.29928499520E+03  0.25500000000E-02 0. -1.
    8880022    1    1    2    0    0  0.17337018728E+02 -0.37017255596E+03  0.37219324169E+03  0.54703542443E+03  0.15294330000E+03 0.  0.
    8880022    1    1    2    0    0 -0.17337018728E+02  0.37017255596E+03 -0.22213916834E+02  0.40151389082E+03  0.15294330000E+03 0.  0.
<mgrwt>
<rscale>  0 0.40089892E+03</rscale>
<asrwt>0</asrwt>
<pdfrwt beam="1">  1        2 0.46043846E-01 0.40089892E+03</pdfrwt>
<pdfrwt beam="2">  1       -2 0.99886818E-01 0.40089892E+03</pdfrwt>
<totfact> 0.93987553E+01</totfact>
</mgrwt>
</event>
<event>
 4    1  0.3365401E-008  0.6200411E+03  0.7818608E-02  0.9864678E-01
         -2   -1    0    0    0  501 -0.00000000000E+00  0.00000000000E+00  0.78191618047E+03  0.78191618048E+03  0.25500000000E-02 0.  1.
          2   -1    0    0  501    0  0.00000000000E+00 -0.00000000000E+00 -0.84699648110E+03  0.84699648111E+03  0.25500000000E-02 0. -1.
    8880022    1    1    2    0    0  0.57430844306E+03  0.17671781165E+03  0.49497612834E+03  0.79338035857E+03  0.15294330000E+03 0.  1.
    8880022    1    1    2    0    0 -0.57430844306E+03 -0.17671781165E+03 -0.56005642897E+03  0.83553230301E+03  0.15294330000E+03 0.  0.
<mgrwt>
<rscale>  0 0.62004115E+03</rscale>
<asrwt>0</asrwt>
<pdfrwt beam="1">  1        2 0.13030715E+00 0.62004115E+03</pdfrwt>
<pdfrwt beam="2">  1       -2 0.12029480E+00 0.62004115E+03</pdfrwt>
<totfact> 0.17338990E+01</totfact>
</mgrwt>
</event>
<event>
 4    1  0.3365401E-008  0.9465829E+03  0.7818608E-02  0.9369154E-01
         -2   -1    0    0    0  501 -0.00000000000E+00  0.00000000000E+00  0.20123846713E+04  0.20123846713E+04  0.25500000000E-02 0.  1.
          2   -1    0    0  501    0  0.00000000000E+00 -0.00000000000E+00 -0.11178630950E+04  0.11178630950E+04  0.25500000000E-02 0. -1.
    8880022    1    1    2    0    0  0.52593678445E+03 -0.77202201018E+03  0.16613099912E+04  0.19120591062E+04  0.15294330000E+03 0.  0.
    8880022    1    1    2    0    0 -0.52593678445E+03  0.77202201018E+03 -0.76678841489E+03  0.12181886601E+04  0.15294330000E+03 0.  0.
<mgrwt>
<rscale>  0 0.94658287E+03</rscale>
<asrwt>0</asrwt>
<pdfrwt beam="1">  1        2 0.17197894E+00 0.94658287E+03</pdfrwt>
<pdfrwt beam="2">  1       -2 0.30959764E+00 0.94658287E+03</pdfrwt>
<totfact> 0.59761089E-01</totfact>
</mgrwt>
</event>
<event>
 4    1  0.3365401E-008  0.7729819E+03  0.7818608E-02  0.9599970E-01
         -2   -1    0    0    0  501 -0.00000000000E+00  0.00000000000E+00  0.35379076876E+03  0.35379076877E+03  0.25500000000E-02 0.  1.
          2   -1    0    0  501    0  0.00000000000E+00 -0.00000000000E+00 -0.21776858794E+04  0.21776858794E+04  0.25500000000E-02 0. -1.
    8880022    1    1    2    0    0  0.70100204350E+03  0.28758568836E+03 -0.15116363835E+04  0.16978061144E+04  0.15294330000E+03 0.  0.
    8880022    1    1    2    0    0 -0.70100204350E+03 -0.28758568836E+03 -0.31225872709E+03  0.83367053372E+03  0.15294330000E+03 0.  0.
<mgrwt>
<rscale>  0 0.77298192E+03</rscale>
<asrwt>0</asrwt>
<pdfrwt beam="1">  1        2 0.33502859E+00 0.77298192E+03</pdfrwt>
<pdfrwt beam="2">  1       -2 0.54429350E-01 0.77298192E+03</pdfrwt>
<totfact> 0.17479535E+01</totfact>
</mgrwt>
</event>
<event>
 4    1  0.3365401E-008  0.8077485E+03  0.7818608E-02  0.9548869E-01
          2   -1    0    0  501    0  0.00000000000E+00  0.00000000000E+00  0.16959810749E+04  0.16959810749E+04  0.25500000000E-02 0. -1.
         -2   -1    0    0    0  501 -0.00000000000E+00 -0.00000000000E+00 -0.50753632734E+03  0.50753632735E+03  0.25500000000E-02 0.  1.
    8880022    1    1    2    0    0 -0.23867270311E+03  0.75637383519E+03  0.52219012924E+02  0.80943468921E+03  0.15294330000E+03 0.  0.
    8880022    1    1    2    0    0  0.23867270311E+03 -0.75637383519E+03  0.11362257347E+04  0.13940827131E+04  0.15294330000E+03 0.  0.
<mgrwt>
<rscale>  0 0.80774853E+03</rscale>
<asrwt>0</asrwt>
<pdfrwt beam="1">  1        2 0.26092017E+00 0.80774853E+03</pdfrwt>
<pdfrwt beam="2">  1       -2 0.78082510E-01 0.80774853E+03</pdfrwt>
<totfact> 0.14683432E+01</totfact>
</mgrwt>
</event>
<event>
 4    1  0.3365401E-008  0.6775574E+03  0.7818608E-02  0.9756401E-01
          2   -1    0    0  501    0  0.00000000000E+00  0.00000000000E+00  0.24205342800E+04  0.24205342800E+04  0.25500000000E-02 0. -1.
         -2   -1    0    0    0  501 -0.00000000000E+00 -0.00000000000E+00 -0.62759001056E+03  0.62759001057E+03  0.25500000000E-02 0.  1.
    8880022    1    1    2    0    0 -0.62534309723E+03  0.21127792725E+03 -0.37663777218E+03  0.77520320964E+03  0.15294330000E+03 0.  0.
    8880022    1    1    2    0    0  0.62534309723E+03 -0.21127792725E+03  0.21695820416E+04  0.22729210809E+04  0.15294330000E+03 0.  0.
<mgrwt>
<rscale>  0 0.67755738E+03</rscale>
<asrwt>0</asrwt>
<pdfrwt beam="1">  1        2 0.37238989E+00 0.67755738E+03</pdfrwt>
<pdfrwt beam="2">  1       -2 0.96552310E-01 0.67755738E+03</pdfrwt>
<totfact> 0.36888983E+00</totfact>
</mgrwt>
</event>
<event>
 4    1  0.3365401E-008  0.3194810E+03  0.7818608E-02  0.1075888E+00
          2   -1    0    0  501    0  0.00000000000E+00  0.00000000000E+00  0.62984108575E+03  0.62984108575E+03  0.25500000000E-02 0. -1.
         -2   -1    0    0    0  501 -0.00000000000E+00 -0.00000000000E+00 -0.20912265101E+03  0.20912265102E+03  0.25500000000E-02 0.  1.
    8880022    1    1    2    0    0 -0.98780464154E+02  0.26252408666E+03  0.11347089463E+02  0.31968247626E+03  0.15294330000E+03 0.  1.
    8880022    1    1    2    0    0  0.98780464154E+02 -0.26252408666E+03  0.40937134528E+03  0.51928126051E+03  0.15294330000E+03 0. -1.
<mgrwt>
<rscale>  0 0.31948103E+03</rscale>
<asrwt>0</asrwt>
<pdfrwt beam="1">  1        2 0.96898629E-01 0.31948103E+03</pdfrwt>
<pdfrwt beam="2">  1       -2 0.32172716E-01 0.31948103E+03</pdfrwt>
<totfact> 0.42985441E+02</totfact>
</mgrwt>
</event>
<event>
 4    1  0.3365401E-008  0.3501078E+03  0.7818608E-02  0.1062571E+00
         -2   -1    0    0    0  501 -0.00000000000E+00  0.00000000000E+00  0.79219672432E+02  0.79219672473E+02  0.25500000000E-02 0.  1.
          2   -1    0    0  501    0  0.00000000000E+00 -0.00000000000E+00 -0.16607125583E+04  0.16607125583E+04  0.25500000000E-02 0. -1.
    8880022    1    1    2    0    0 -0.31524571445E+02 -0.31335290963E+03 -0.56338736511E+03  0.66331050102E+03  0.15294330000E+03 0.  1.
    8880022    1    1    2    0    0  0.31524571445E+02  0.31335290963E+03 -0.10181055208E+04  0.10766217298E+04  0.15294330000E+03 0. -1.
<mgrwt>
<rscale>  0 0.35010784E+03</rscale>
<asrwt>0</asrwt>
<pdfrwt beam="1">  1        2 0.25549421E+00 0.35010784E+03</pdfrwt>
<pdfrwt beam="2">  1       -2 0.12187643E-01 0.35010784E+03</pdfrwt>
<totfact> 0.53641072E+02</totfact>
</mgrwt>
</event>
<event>
 4    1  0.3365401E-008  0.7046598E+03  0.7818608E-02  0.9709296E-01
         -2   -1    0    0    0  501 -0.00000000000E+00  0.00000000000E+00  0.55513346147E+03  0.55513346147E+03  0.25500000000E-02 0.  1.
          2   -1    0    0  501    0  0.00000000000E+00 -0.00000000000E+00 -0.13898928713E+04  0.13898928713E+04  0.25500000000E-02 0. -1.
    8880022    1    1    2    0    0  0.40409635189E+03 -0.55665062139E+03 -0.99800592052E+03  0.12217042385E+04  0.15294330000E+03 0.  0.
    8880022    1    1    2    0    0 -0.40409635189E+03  0.55665062139E+03  0.16324651065E+03  0.72332209434E+03  0.15294330000E+03 0.  0.
<mgrwt>
<rscale>  0 0.70465980E+03</rscale>
<asrwt>0</asrwt>
<pdfrwt beam="1">  1        2 0.21382967E+00 0.70465980E+03</pdfrwt>
<pdfrwt beam="2">  1       -2 0.85405148E-01 0.70465980E+03</pdfrwt>
<totfact> 0.17968246E+01</totfact>
</mgrwt>
</event>
<event>
 4    1  0.3365401E-008  0.1228151E+04  0.7818608E-02  0.9088567E-01
          2   -1    0    0  501    0  0.00000000000E+00  0.00000000000E+00  0.16121664127E+04  0.16121664127E+04  0.25500000000E-02 0. -1.
         -2   -1    0    0    0  501 -0.00000000000E+00 -0.00000000000E+00 -0.12084116482E+04  0.12084116482E+04  0.25500000000E-02 0.  1.
    8880022    1    1    2    0    0  0.10382146443E+04 -0.63802272557E+03 -0.46820237918E+03  0.13143697223E+04  0.15294330000E+03 0.  0.
    8880022    1    1    2    0    0 -0.10382146443E+04  0.63802272557E+03  0.87195714359E+03  0.15062083386E+04  0.15294330000E+03 0.  0.
<mgrwt>
<rscale>  0 0.12281508E+04</rscale>
<asrwt>0</asrwt>
<pdfrwt beam="1">  1        2 0.24802560E+00 0.12281508E+04</pdfrwt>
<pdfrwt beam="2">  1       -2 0.18590948E+00 0.12281508E+04</pdfrwt>
<totfact> 0.17541138E+00</totfact>
</mgrwt>
</event>
<event>
 4    1  0.3365401E-008  0.9333057E+03  0.7818608E-02  0.9384879E-01
          2   -1    0    0  501    0  0.00000000000E+00  0.00000000000E+00  0.99048751679E+03  0.99048751679E+03  0.25500000000E-02 0. -1.
         -2   -1    0    0    0  501 -0.00000000000E+00 -0.00000000000E+00 -0.21878834695E+04  0.21878834695E+04  0.25500000000E-02 0.  1.
    8880022    1    1    2    0    0 -0.60775305096E+03  0.69159528586E+03 -0.18276713488E+04  0.20521798222E+04  0.15294330000E+03 0.  0.
    8880022    1    1    2    0    0  0.60775305096E+03 -0.69159528586E+03  0.63027539602E+03  0.11261911642E+04  0.15294330000E+03 0.  0.
<mgrwt>
<rscale>  0 0.93330566E+03</rscale>
<asrwt>0</asrwt>
<pdfrwt beam="1">  1        2 0.15238270E+00 0.93330566E+03</pdfrwt>
<pdfrwt beam="2">  1       -2 0.33659746E+00 0.93330566E+03</pdfrwt>
<totfact> 0.49221389E-01</totfact>
</mgrwt>
</event>
<event>
 4    1  0.3365401E-008  0.1007531E+04  0.7818608E-02  0.9300323E-01
         -2   -1    0    0    0  501 -0.00000000000E+00  0.00000000000E+00  0.75460593664E+03  0.75460593664E+03  0.25500000000E-02 0.  1.
          2   -1    0    0  501    0  0.00000000000E+00 -0.00000000000E+00 -0.15168471455E+04  0.15168471455E+04  0.25500000000E-02 0. -1.
    8880022    1    1    2    0    0  0.32328661247E+03  0.94191970742E+03 -0.76313794080E+03  0.12639217297E+04  0.15294330000E+03 0.  0.
    8880022    1    1    2    0    0 -0.32328661247E+03 -0.94191970742E+03  0.89673196062E+00  0.10075313525E+04  0.15294330000E+03 0.  0.
<mgrwt>
<rscale>  0 0.10075310E+04</rscale>
<asrwt>0</asrwt>
<pdfrwt beam="1">  1        2 0.23336110E+00 0.10075310E+04</pdfrwt>
<pdfrwt beam="2">  1       -2 0.11609322E+00 0.10075310E+04</pdfrwt>
<totfact> 0.71094025E+00</totfact>
</mgrwt>
</event>
<event>
 4    1  0.3365401E-008  0.4936097E+03  0.7818608E-02  0.1015460E+00
         -2   -1    0    0    0  501 -0.00000000000E+00  0.00000000000E+00  0.96128281133E+03  0.96128281134E+03  0.25500000000E-02 0.  1.
          2   -1    0    0  501    0  0.00000000000E+00 -0.00000000000E+00 -0.26178216899E+03  0.26178216900E+03  0.25500000000E-02 0. -1.
    8880022    1    1    2    0    0 -0.10188373253E+03  0.45812506973E+03  0.24074066323E+03  0.54918721254E+03  0.15294330000E+03 0.  1.
    8880022    1    1    2    0    0  0.10188373253E+03 -0.45812506973E+03  0.45875997912E+03  0.67387776779E+03  0.15294330000E+03 0.  0.
<mgrwt>
<rscale>  0 0.49360969E+03</rscale>
<asrwt>0</asrwt>
<pdfrwt beam="1">  1        2 0.40274180E-01 0.49360969E+03</pdfrwt>
<pdfrwt beam="2">  1       -2 0.14788966E+00 0.49360969E+03</pdfrwt>
<totfact> 0.40988281E+01</totfact>
</mgrwt>
</event>
<event>
 4    1  0.3365401E-008  0.1642902E+04  0.7818608E-02  0.8794617E-01
         -2   -1    0    0    0  501 -0.00000000000E+00  0.00000000000E+00  0.10414757308E+04  0.10414757308E+04  0.25500000000E-02 0.  1.
          2   -1    0    0  501    0  0.00000000000E+00 -0.00000000000E+00 -0.32778944035E+04  0.32778944035E+04  0.25500000000E-02 0. -1.
    8880022    1    1    2    0    0  0.83158226411E+03 -0.14086182456E+04 -0.13002774432E+03  0.16480392262E+04  0.15294330000E+03 0.  0.
    8880022    1    1    2    0    0 -0.83158226411E+03  0.14086182456E+04 -0.21063909285E+04  0.26713309081E+04  0.15294330000E+03 0.  0.
<mgrwt>
<rscale>  0 0.16429017E+04</rscale>
<asrwt>0</asrwt>
<pdfrwt beam="1">  1        2 0.50429144E+00 0.16429017E+04</pdfrwt>
<pdfrwt beam="2">  1       -2 0.16022704E+00 0.16429017E+04</pdfrwt>
<totfact> 0.26986822E-01</totfact>
</mgrwt>
</event>
<event>
 4    1  0.3365401E-008  0.2446585E+03  0.7818608E-02  0.1116728E+00
         -2   -1    0    0    0  501 -0.00000000000E+00  0.00000000000E+00  0.16339337596E+03  0.16339337598E+03  0.25500000000E-02 0.  1.
          2   -1    0    0  501    0  0.00000000000E+00 -0.00000000000E+00 -0.11451178238E+04  0.11451178238E+04  0.25500000000E-02 0. -1.
    8880022    1    1    2    0    0 -0.17074863430E+03 -0.85504648128E+02 -0.10304084980E+04  0.10590559318E+04  0.15294330000E+03 0. -1.
    8880022    1    1    2    0    0  0.17074863430E+03  0.85504648128E+02  0.48684050148E+02  0.24945526797E+03  0.15294330000E+03 0.  0.
<mgrwt>
<rscale>  0 0.24465853E+03</rscale>
<asrwt>0</asrwt>
<pdfrwt beam="1">  1        2 0.17617197E+00 0.24465853E+03</pdfrwt>
<pdfrwt beam="2">  1       -2 0.25137443E-01 0.24465853E+03</pdfrwt>
<totfact> 0.30605186E+02</totfact>
</mgrwt>
</event>
<event>
 4    1  0.3365401E-008  0.4940877E+03  0.7818608E-02  0.1015334E+00
          2   -1    0    0  501    0  0.00000000000E+00  0.00000000000E+00  0.81134403660E+03  0.81134403661E+03  0.25500000000E-02 0. -1.
         -2   -1    0    0    0  501 -0.00000000000E+00 -0.00000000000E+00 -0.38972690840E+03  0.38972690841E+03  0.25500000000E-02 0.  1.
    8880022    1    1    2    0    0 -0.39917358255E+03 -0.24777296532E+03  0.49753201138E+03  0.70118524422E+03  0.15294330000E+03 0.  0.
    8880022    1    1    2    0    0  0.39917358255E+03  0.24777296532E+03 -0.75914883174E+02  0.49988570079E+03  0.15294330000E+03 0.  0.
<mgrwt>
<rscale>  0 0.49408769E+03</rscale>
<asrwt>0</asrwt>
<pdfrwt beam="1">  1        2 0.12482216E+00 0.49408769E+03</pdfrwt>
<pdfrwt beam="2">  1       -2 0.59957986E-01 0.49408769E+03</pdfrwt>
<totfact> 0.90705821E+01</totfact>
</mgrwt>
</event>
<event>
 4    1  0.3365401E-008  0.8555546E+03  0.7818608E-02  0.9482912E-01
         -2   -1    0    0    0  501 -0.00000000000E+00  0.00000000000E+00  0.12926324058E+04  0.12926324058E+04  0.25500000000E-02 0.  1.
          2   -1    0    0  501    0  0.00000000000E+00 -0.00000000000E+00 -0.59470879742E+03  0.59470879743E+03  0.25500000000E-02 0. -1.
    8880022    1    1    2    0    0  0.43005088712E+03 -0.72362853959E+03  0.55533580762E+03  0.10199860494E+04  0.15294330000E+03 0.  0.
    8880022    1    1    2    0    0 -0.43005088712E+03  0.72362853959E+03  0.14258780072E+03  0.86735515375E+03  0.15294330000E+03 0.  0.
<mgrwt>
<rscale>  0 0.85555460E+03</rscale>
<asrwt>0</asrwt>
<pdfrwt beam="1">  1        2 0.91493661E-01 0.85555460E+03</pdfrwt>
<pdfrwt beam="2">  1       -2 0.19886652E+00 0.85555460E+03</pdfrwt>
<totfact> 0.68378648E+00</totfact>
</mgrwt>
</event>
<event>
 4    1  0.3365401E-008  0.9117955E+03  0.7818608E-02  0.9410955E-01
         -2   -1    0    0    0  501 -0.00000000000E+00  0.00000000000E+00  0.10514876603E+04  0.10514876603E+04  0.25500000000E-02 0.  1.
          2   -1    0    0  501    0  0.00000000000E+00 -0.00000000000E+00 -0.95969190759E+03  0.95969190759E+03  0.25500000000E-02 0. -1.
    8880022    1    1    2    0    0  0.58984479434E+03  0.67827908685E+03  0.46792178767E+03  0.10248521130E+04  0.15294330000E+03 0.  0.
    8880022    1    1    2    0    0 -0.58984479434E+03 -0.67827908685E+03 -0.37612603498E+03  0.98632745490E+03  0.15294330000E+03 0.  0.
<mgrwt>
<rscale>  0 0.91179551E+03</rscale>
<asrwt>0</asrwt>
<pdfrwt beam="1">  1        2 0.14764491E+00 0.91179551E+03</pdfrwt>
<pdfrwt beam="2">  1       -2 0.16176733E+00 0.91179551E+03</pdfrwt>
<totfact> 0.65399936E+00</totfact>
</mgrwt>
</event>
<event>
 4    1  0.3365401E-008  0.6428094E+03  0.7818608E-02  0.9820366E-01
         -2   -1    0    0    0  501 -0.00000000000E+00  0.00000000000E+00  0.52875079525E+03  0.52875079526E+03  0.25500000000E-02 0.  1.
          2   -1    0    0  501    0  0.00000000000E+00 -0.00000000000E+00 -0.17414941778E+04  0.17414941778E+04  0.25500000000E-02 0. -1.
    8880022    1    1    2    0    0 -0.45029883409E+03  0.43248489501E+03  0.23642413069E+03  0.68490893335E+03  0.15294330000E+03 0.  0.
    8880022    1    1    2    0    0  0.45029883409E+03 -0.43248489501E+03 -0.14491675132E+04  0.15853360397E+04  0.15294330000E+03 0. -1.
<mgrwt>
<rscale>  0 0.64280936E+03</rscale>
<asrwt>0</asrwt>
<pdfrwt beam="1">  1        2 0.26792218E+00 0.64280936E+03</pdfrwt>
<pdfrwt beam="2">  1       -2 0.81346277E-01 0.64280936E+03</pdfrwt>
<totfact> 0.12948756E+01</totfact>
</mgrwt>
</event>
<event>
 4    1  0.3365401E-008  0.8536224E+03  0.7818608E-02  0.9485488E-01
         -2   -1    0    0    0  501 -0.00000000000E+00  0.00000000000E+00  0.52449607060E+03  0.52449607060E+03  0.25500000000E-02 0.  1.
          2   -1    0    0  501    0  0.00000000000E+00 -0.00000000000E+00 -0.15218292087E+04  0.15218292087E+04  0.25500000000E-02 0. -1.
    8880022    1    1    2    0    0  0.40439598836E+03  0.73603227942E+03 -0.80062851139E+03  0.11703321315E+04  0.15294330000E+03 0. -1.
    8880022    1    1    2    0    0 -0.40439598836E+03 -0.73603227942E+03 -0.19670462667E+03  0.87599314776E+03  0.15294330000E+03 0.  0.
<mgrwt>
<rscale>  0 0.85362245E+03</rscale>
<asrwt>0</asrwt>
<pdfrwt beam="1">  1        2 0.23412757E+00 0.85362245E+03</pdfrwt>
<pdfrwt beam="2">  1       -2 0.80691704E-01 0.85362245E+03</pdfrwt>
<totfact> 0.16930634E+01</totfact>
</mgrwt>
</event>
<event>
 4    1  0.3365401E-008  0.3949628E+03  0.7818608E-02  0.1045538E+00
         -2   -1    0    0    0  501 -0.00000000000E+00  0.00000000000E+00  0.24799680352E+04  0.24799680352E+04  0.25500000000E-02 0.  1.
          2   -1    0    0  501    0  0.00000000000E+00 -0.00000000000E+00 -0.11297827657E+04  0.11297827657E+04  0.25500000000E-02 0. -1.
    8880022    1    1    2    0    0 -0.69710523173E+02 -0.35741344044E+03  0.24290040077E+04  0.24609055339E+04  0.15294330000E+03 0.  0.
    8880022    1    1    2    0    0  0.69710523173E+02  0.35741344044E+03 -0.10788187382E+04  0.11488452669E+04  0.15294330000E+03 0.  0.
<mgrwt>
<rscale>  0 0.39496275E+03</rscale>
<asrwt>0</asrwt>
<pdfrwt beam="1">  1        2 0.17381273E+00 0.39496275E+03</pdfrwt>
<pdfrwt beam="2">  1       -2 0.38153354E+00 0.39496275E+03</pdfrwt>
<totfact> 0.24512234E-01</totfact>
</mgrwt>
</event>
<event>
 4    1  0.3365401E-008  0.9912064E+03  0.7818608E-02  0.9318242E-01
         -2   -1    0    0    0  501 -0.00000000000E+00  0.00000000000E+00  0.59698364316E+03  0.59698364316E+03  0.25500000000E-02 0.  1.
          2   -1    0    0  501    0  0.00000000000E+00 -0.00000000000E+00 -0.22567184010E+04  0.22567184010E+04  0.25500000000E-02 0. -1.
    8880022    1    1    2    0    0  0.53032657704E+03  0.82331777427E+03 -0.15722824598E+04  0.18586452653E+04  0.15294330000E+03 0.  0.
    8880022    1    1    2    0    0 -0.53032657704E+03 -0.82331777427E+03 -0.87452298042E+02  0.99505677888E+03  0.15294330000E+03 0.  0.
<mgrwt>
<rscale>  0 0.99120638E+03</rscale>
<asrwt>0</asrwt>
<pdfrwt beam="1">  1        2 0.34718744E+00 0.99120638E+03</pdfrwt>
<pdfrwt beam="2">  1       -2 0.91843639E-01 0.99120638E+03</pdfrwt>
<totfact> 0.48665295E+00</totfact>
</mgrwt>
</event>
<event>
 4    1  0.3365401E-008  0.6523566E+03  0.7818608E-02  0.9802367E-01
          2   -1    0    0  501    0  0.00000000000E+00  0.00000000000E+00  0.36603013169E+03  0.36603013170E+03  0.25500000000E-02 0. -1.
         -2   -1    0    0    0  501 -0.00000000000E+00 -0.00000000000E+00 -0.18294996906E+04  0.18294996906E+04  0.25500000000E-02 0.  1.
    8880022    1    1    2    0    0 -0.12287813869E+03 -0.62215626124E+03 -0.13944904332E+04  0.15395365120E+04  0.15294330000E+03 0.  0.
    8880022    1    1    2    0    0  0.12287813869E+03  0.62215626124E+03 -0.68979125682E+02  0.65599331031E+03  0.15294330000E+03 0.  0.
<mgrwt>
<rscale>  0 0.65235658E+03</rscale>
<asrwt>0</asrwt>
<pdfrwt beam="1">  1        2 0.56312329E-01 0.65235658E+03</pdfrwt>
<pdfrwt beam="2">  1       -2 0.28146148E+00 0.65235658E+03</pdfrwt>
<totfact> 0.38085421E+00</totfact>
</mgrwt>
</event>
<event>
 4    1  0.3365401E-008  0.9298793E+03  0.7818608E-02  0.9388983E-01
          2   -1    0    0  501    0  0.00000000000E+00  0.00000000000E+00  0.23199735374E+04  0.23199735374E+04  0.25500000000E-02 0. -1.
         -2   -1    0    0    0  501 -0.00000000000E+00 -0.00000000000E+00 -0.41808730925E+03  0.41808730926E+03  0.25500000000E-02 0.  1.
    8880022    1    1    2    0    0  0.89077287448E+03 -0.21864942692E+03  0.14019702648E+04  0.16823186862E+04  0.15294330000E+03 0.  0.
    8880022    1    1    2    0    0 -0.89077287448E+03  0.21864942692E+03  0.49991596339E+03  0.10557421604E+04  0.15294330000E+03 0.  0.
<mgrwt>
<rscale>  0 0.92987931E+03</rscale>
<asrwt>0</asrwt>
<pdfrwt beam="1">  1        2 0.35691901E+00 0.92987931E+03</pdfrwt>
<pdfrwt beam="2">  1       -2 0.64321124E-01 0.92987931E+03</pdfrwt>
<totfact> 0.10029994E+01</totfact>
</mgrwt>
</event>
<event>
 4    1  0.3365401E-008  0.2032052E+03  0.7818608E-02  0.1147063E+00
          2   -1    0    0  501    0  0.00000000000E+00  0.00000000000E+00  0.23404009286E+04  0.23404009286E+04  0.25500000000E-02 0. -1.
         -2   -1    0    0    0  501 -0.00000000000E+00 -0.00000000000E+00 -0.41458629325E+03  0.41458629326E+03  0.25500000000E-02 0.  1.
    8880022    1    1    2    0    0 -0.84629202283E+01 -0.13352557696E+03  0.23107717192E+04  0.23196892663E+04  0.15294330000E+03 0.  0.
    8880022    1    1    2    0    0  0.84629202283E+01  0.13352557696E+03 -0.38495708386E+03  0.43529795560E+03  0.15294330000E+03 0.  1.
<mgrwt>
<rscale>  0 0.20320520E+03</rscale>
<asrwt>0</asrwt>
<pdfrwt beam="1">  1        2 0.36006167E+00 0.20320520E+03</pdfrwt>
<pdfrwt beam="2">  1       -2 0.63782509E-01 0.20320520E+03</pdfrwt>
<totfact> 0.12021506E+01</totfact>
</mgrwt>
</event>
<event>
 4    1  0.3365401E-008  0.3714661E+03  0.7818608E-02  0.1054134E+00
          2   -1    0    0  501    0  0.00000000000E+00  0.00000000000E+00  0.40806942403E+03  0.40806942404E+03  0.25500000000E-02 0. -1.
         -2   -1    0    0    0  501 -0.00000000000E+00 -0.00000000000E+00 -0.61667299254E+03  0.61667299255E+03  0.25500000000E-02 0.  1.
    8880022    1    1    2    0    0 -0.33812190449E+03  0.16400664439E+02 -0.44864447746E+03  0.58246795986E+03  0.15294330000E+03 0.  0.
    8880022    1    1    2    0    0  0.33812190449E+03 -0.16400664439E+02  0.24004090895E+03  0.44227445673E+03  0.15294330000E+03 0. -1.
<mgrwt>
<rscale>  0 0.37146609E+03</rscale>
<asrwt>0</asrwt>
<pdfrwt beam="1">  1        2 0.62779911E-01 0.37146609E+03</pdfrwt>
<pdfrwt beam="2">  1       -2 0.94872768E-01 0.37146609E+03</pdfrwt>
<totfact> 0.75575909E+01</totfact>
</mgrwt>
</event>
<event>
 4    1  0.3365401E-008  0.6457608E+03  0.7818608E-02  0.9814766E-01
          2   -1    0    0  501    0  0.00000000000E+00  0.00000000000E+00  0.16107502408E+04  0.16107502408E+04  0.25500000000E-02 0. -1.
         -2   -1    0    0    0  501 -0.00000000000E+00 -0.00000000000E+00 -0.32809602104E+03  0.32809602105E+03  0.25500000000E-02 0.  1.
    8880022    1    1    2    0    0 -0.16458787287E+02  0.62717182994E+03  0.19609652121E+03  0.67487842949E+03  0.15294330000E+03 0.  0.
    8880022    1    1    2    0    0  0.16458787287E+02 -0.62717182994E+03  0.10865576986E+04  0.12639678324E+04  0.15294330000E+03 0.  0.
<mgrwt>
<rscale>  0 0.64576083E+03</rscale>
<asrwt>0</asrwt>
<pdfrwt beam="1">  1        2 0.24780773E+00 0.64576083E+03</pdfrwt>
<pdfrwt beam="2">  1       -2 0.50476312E-01 0.64576083E+03</pdfrwt>
<totfact> 0.42334175E+01</totfact>
</mgrwt>
</event>
<event>
 4    1  0.3365401E-008  0.8387280E+03  0.7818608E-02  0.9505592E-01
          2   -1    0    0  501    0  0.00000000000E+00  0.00000000000E+00  0.17779234979E+04  0.17779234979E+04  0.25500000000E-02 0. -1.
         -2   -1    0    0    0  501 -0.00000000000E+00 -0.00000000000E+00 -0.12652737678E+04  0.12652737678E+04  0.25500000000E-02 0.  1.
    8880022    1    1    2    0    0 -0.12131988040E+03  0.81569269412E+03 -0.10051233945E+04  0.13090980772E+04  0.15294330000E+03 0.  0.
    8880022    1    1    2    0    0  0.12131988040E+03 -0.81569269412E+03  0.15177731246E+04  0.17340991884E+04  0.15294330000E+03 0.  0.
<mgrwt>
<rscale>  0 0.83872805E+03</rscale>
<asrwt>0</asrwt>
<pdfrwt beam="1">  1        2 0.27352669E+00 0.83872805E+03</pdfrwt>
<pdfrwt beam="2">  1       -2 0.19465750E+00 0.83872805E+03</pdfrwt>
<totfact> 0.13074125E+00</totfact>
</mgrwt>
</event>
<event>
 4    1  0.3558114E-008  0.7962414E+03  0.7818608E-02  0.9565474E-01
          2   -1    0    0  501    0  0.00000000000E+00  0.00000000000E+00  0.13294571119E+04  0.13294571119E+04  0.25500000000E-02 0. -1.
         -2   -1    0    0    0  501 -0.00000000000E+00 -0.00000000000E+00 -0.14490301511E+04  0.14490301511E+04  0.25500000000E-02 0.  1.
    8880022    1    1    2    0    0 -0.67513911047E+03 -0.39344102668E+03  0.10781155780E+04  0.13402736708E+04  0.15294330000E+03 0.  0.
    8880022    1    1    2    0    0  0.67513911047E+03  0.39344102668E+03 -0.11976886172E+04  0.14382135922E+04  0.15294330000E+03 0.  0.
<mgrwt>
<rscale>  0 0.79624137E+03</rscale>
<asrwt>0</asrwt>
<pdfrwt beam="1">  1        2 0.20453186E+00 0.79624137E+03</pdfrwt>
<pdfrwt beam="2">  1       -2 0.22292772E+00 0.79624137E+03</pdfrwt>
<totfact> 0.15427810E+00</totfact>
</mgrwt>
</event>
<event>
 4    1  0.3365401E-008  0.2620562E+03  0.7818608E-02  0.1105914E+00
          2   -1    0    0  501    0  0.00000000000E+00  0.00000000000E+00  0.99356101212E+03  0.99356101212E+03  0.25500000000E-02 0. -1.
         -2   -1    0    0    0  501 -0.00000000000E+00 -0.00000000000E+00 -0.64568659938E+03  0.64568659938E+03  0.25500000000E-02 0.  1.
    8880022    1    1    2    0    0 -0.20763533025E+03  0.46576459182E+02 -0.60057627407E+03  0.65525972782E+03  0.15294330000E+03 0.  0.
    8880022    1    1    2    0    0  0.20763533025E+03 -0.46576459182E+02  0.94845068680E+03  0.98398788368E+03  0.15294330000E+03 0. -1.
<mgrwt>
<rscale>  0 0.26205620E+03</rscale>
<asrwt>0</asrwt>
<pdfrwt beam="1">  1        2 0.15285554E+00 0.26205620E+03</pdfrwt>
<pdfrwt beam="2">  1       -2 0.99336401E-01 0.26205620E+03</pdfrwt>
<totfact> 0.23529742E+01</totfact>
</mgrwt>
</event>
<event>
 4    1  0.3365401E-008  0.2012946E+03  0.7818608E-02  0.1148651E+00
          2   -1    0    0  501    0  0.00000000000E+00  0.00000000000E+00  0.29249610964E+04  0.29249610965E+04  0.25500000000E-02 0. -1.
         -2   -1    0    0    0  501 -0.00000000000E+00 -0.00000000000E+00 -0.18265865030E+02  0.18265865208E+02  0.25500000000E-02 0.  1.
    8880022    1    1    2    0    0  0.33109901542E+02  0.12661588039E+03  0.21766730404E+04  0.21859608927E+04  0.15294330000E+03 0.  0.
    8880022    1    1    2    0    0 -0.33109901542E+02 -0.12661588039E+03  0.73002219105E+03  0.75726606895E+03  0.15294330000E+03 0.  0.
<mgrwt>
<rscale>  0 0.20129456E+03</rscale>
<asrwt>0</asrwt>
<pdfrwt beam="1">  1        2 0.44999384E+00 0.20129456E+03</pdfrwt>
<pdfrwt beam="2">  1       -2 0.28101342E-02 0.20129456E+03</pdfrwt>
<totfact> 0.10916259E+03</totfact>
</mgrwt>
</event>
<event>
 4    1  0.3365401E-008  0.3357402E+03  0.7818608E-02  0.1068625E+00
         -2   -1    0    0    0  501 -0.00000000000E+00  0.00000000000E+00  0.15520766005E+04  0.15520766005E+04  0.25500000000E-02 0.  1.
          2   -1    0    0  501    0  0.00000000000E+00 -0.00000000000E+00 -0.19011597032E+03  0.19011597034E+03  0.25500000000E-02 0. -1.
    8880022    1    1    2    0    0 -0.22384588439E+03 -0.19804759831E+03 -0.38087538760E+01  0.33576180661E+03  0.15294330000E+03 0.  0.
    8880022    1    1    2    0    0  0.22384588439E+03  0.19804759831E+03  0.13657693840E+04  0.14064307642E+04  0.15294330000E+03 0.  1.
<mgrwt>
<rscale>  0 0.33574020E+03</rscale>
<asrwt>0</asrwt>
<pdfrwt beam="1">  1        2 0.29248610E-01 0.33574020E+03</pdfrwt>
<pdfrwt beam="2">  1       -2 0.23878102E+00 0.33574020E+03</pdfrwt>
<totfact> 0.14937569E+01</totfact>
</mgrwt>
</event>
<event>
 4    1  0.3365401E-008  0.4420466E+03  0.7818608E-02  0.1030121E+00
         -2   -1    0    0    0  501 -0.00000000000E+00  0.00000000000E+00  0.18017892855E+03  0.18017892857E+03  0.25500000000E-02 0.  1.
          2   -1    0    0  501    0  0.00000000000E+00 -0.00000000000E+00 -0.11739743324E+04  0.11739743324E+04  0.25500000000E-02 0. -1.
    8880022    1    1    2    0    0 -0.39959063101E+03 -0.11108945622E+03 -0.68381191987E+03  0.81425053543E+03  0.15294330000E+03 0.  0.
    8880022    1    1    2    0    0  0.39959063101E+03  0.11108945622E+03 -0.30998348393E+03  0.53990272550E+03  0.15294330000E+03 0.  0.
<mgrwt>
<rscale>  0 0.44204660E+03</rscale>
<asrwt>0</asrwt>
<pdfrwt beam="1">  1        2 0.18061143E+00 0.44204660E+03</pdfrwt>
<pdfrwt beam="2">  1       -2 0.27719836E-01 0.44204660E+03</pdfrwt>
<totfact> 0.24118806E+02</totfact>
</mgrwt>
</event>
<event>
 4    1  0.3365401E-008  0.4023036E+03  0.7818608E-02  0.1042985E+00
         -2   -1    0    0    0  501 -0.00000000000E+00  0.00000000000E+00  0.34890084572E+03  0.34890084573E+03  0.25500000000E-02 0.  1.
          2   -1    0    0  501    0  0.00000000000E+00 -0.00000000000E+00 -0.22042499581E+04  0.22042499581E+04  0.25500000000E-02 0. -1.
    8880022    1    1    2    0    0 -0.11761437597E+02  0.37191153829E+03 -0.20619977740E+04  0.21008767209E+04  0.15294330000E+03 0.  0.
    8880022    1    1    2    0    0  0.11761437597E+02 -0.37191153829E+03  0.20664866157E+03  0.45227408291E+03  0.15294330000E+03 0.  1.
<mgrwt>
<rscale>  0 0.40230359E+03</rscale>
<asrwt>0</asrwt>
<pdfrwt beam="1">  1        2 0.33911537E+00 0.40230359E+03</pdfrwt>
<pdfrwt beam="2">  1       -2 0.53677055E-01 0.40230359E+03</pdfrwt>
<totfact> 0.18710184E+01</totfact>
</mgrwt>
</event>
<event>
 4    1  0.3365401E-008  0.1070258E+04  0.7818608E-02  0.9234675E-01
         -2   -1    0    0    0  501 -0.00000000000E+00  0.00000000000E+00  0.60153543667E+03  0.60153543668E+03  0.25500000000E-02 0.  1.
          2   -1    0    0  501    0  0.00000000000E+00 -0.00000000000E+00 -0.25058363862E+04  0.25058363862E+04  0.25500000000E-02 0. -1.
    8880022    1    1    2    0    0  0.99221198538E+03 -0.37091318226E+03 -0.17134375675E+04  0.20202279978E+04  0.15294330000E+03 0.  0.
    8880022    1    1    2    0    0 -0.99221198538E+03  0.37091318226E+03 -0.19086338209E+03  0.10871438251E+04  0.15294330000E+03 0.  0.
<mgrwt>
<rscale>  0 0.10702583E+04</rscale>
<asrwt>0</asrwt>
<pdfrwt beam="1">  1        2 0.38551329E+00 0.10702583E+04</pdfrwt>
<pdfrwt beam="2">  1       -2 0.92543914E-01 0.10702583E+04</pdfrwt>
<totfact> 0.34218133E+00</totfact>
</mgrwt>
</event>
<event>
 4    1  0.3365401E-008  0.3510597E+03  0.7818608E-02  0.1062181E+00
         -2   -1    0    0    0  501 -0.00000000000E+00  0.00000000000E+00  0.33713776071E+03  0.33713776072E+03  0.25500000000E-02 0.  1.
          2   -1    0    0  501    0  0.00000000000E+00 -0.00000000000E+00 -0.19276135633E+04  0.19276135633E+04  0.25500000000E-02 0. -1.
    8880022    1    1    2    0    0  0.25161751611E+03  0.19115402790E+03  0.22412539345E+03  0.41650339950E+03  0.15294330000E+03 0.  0.
    8880022    1    1    2    0    0 -0.25161751611E+03 -0.19115402790E+03 -0.18146011960E+04  0.18482479245E+04  0.15294330000E+03 0. -1.
<mgrwt>
<rscale>  0 0.35105967E+03</rscale>
<asrwt>0</asrwt>
<pdfrwt beam="1">  1        2 0.29655593E+00 0.35105967E+03</pdfrwt>
<pdfrwt beam="2">  1       -2 0.51867349E-01 0.35105967E+03</pdfrwt>
<totfact> 0.28619404E+01</totfact>
</mgrwt>
</event>
<event>
 4    1  0.3365401E-008  0.5592876E+03  0.7818608E-02  0.9993668E-01
          2   -1    0    0  501    0  0.00000000000E+00  0.00000000000E+00  0.79337985465E+03  0.79337985465E+03  0.25500000000E-02 0. -1.
         -2   -1    0    0    0  501 -0.00000000000E+00 -0.00000000000E+00 -0.65163836511E+03  0.65163836512E+03  0.25500000000E-02 0.  1.
    8880022    1    1    2    0    0  0.77874544286E+02  0.53230305159E+03  0.52493888531E+03  0.76704854455E+03  0.15294330000E+03 0.  0.
    8880022    1    1    2    0    0 -0.77874544286E+02 -0.53230305159E+03 -0.38319739577E+03  0.67796967522E+03  0.15294330000E+03 0.  0.
<mgrwt>
<rscale>  0 0.55928762E+03</rscale>
<asrwt>0</asrwt>
<pdfrwt beam="1">  1        2 0.12205844E+00 0.55928762E+03</pdfrwt>
<pdfrwt beam="2">  1       -2 0.10025206E+00 0.55928762E+03</pdfrwt>
<totfact> 0.29578748E+01</totfact>
</mgrwt>
</event>
<event>
 4    1  0.3365401E-008  0.7118712E+03  0.7818608E-02  0.9697143E-01
         -2   -1    0    0    0  501 -0.00000000000E+00  0.00000000000E+00  0.31172695291E+03  0.31172695292E+03  0.25500000000E-02 0.  1.
          2   -1    0    0  501    0  0.00000000000E+00 -0.00000000000E+00 -0.25043088239E+04  0.25043088239E+04  0.25500000000E-02 0. -1.
    8880022    1    1    2    0    0  0.66892531442E+03 -0.18949388665E+03 -0.26227761436E+03  0.75865025497E+03  0.15294330000E+03 0.  0.
    8880022    1    1    2    0    0 -0.66892531442E+03  0.18949388665E+03 -0.19303042567E+04  0.20573855219E+04  0.15294330000E+03 0.  0.
<mgrwt>
<rscale>  0 0.71187124E+03</rscale>
<asrwt>0</asrwt>
<pdfrwt beam="1">  1        2 0.38527827E+00 0.71187124E+03</pdfrwt>
<pdfrwt beam="2">  1       -2 0.47957994E-01 0.71187124E+03</pdfrwt>
<totfact> 0.15023928E+01</totfact>
</mgrwt>
</event>
<event>
 4    1  0.3365401E-008  0.5185241E+03  0.7818608E-02  0.1009054E+00
          2   -1    0    0  501    0  0.00000000000E+00  0.00000000000E+00  0.10129161872E+04  0.10129161872E+04  0.25500000000E-02 0. -1.
         -2   -1    0    0    0  501 -0.00000000000E+00 -0.00000000000E+00 -0.30820151389E+03  0.30820151390E+03  0.25500000000E-02 0.  1.
    8880022    1    1    2    0    0  0.20898426631E+03  0.44922280300E+03  0.59840941183E+03  0.79180870637E+03  0.15294330000E+03 0.  0.
    8880022    1    1    2    0    0 -0.20898426631E+03 -0.44922280300E+03  0.10630526151E+03  0.52930899477E+03  0.15294330000E+03 0. -1.
<mgrwt>
<rscale>  0 0.51852406E+03</rscale>
<asrwt>0</asrwt>
<pdfrwt beam="1">  1        2 0.15583326E+00 0.51852406E+03</pdfrwt>
<pdfrwt beam="2">  1       -2 0.47415618E-01 0.51852406E+03</pdfrwt>
<totfact> 0.10770418E+02</totfact>
</mgrwt>
</event>
<event>
 4    1  0.3365401E-008  0.1118011E+04  0.7818608E-02  0.9187813E-01
          2   -1    0    0  501    0  0.00000000000E+00  0.00000000000E+00  0.44110480883E+04  0.44110480883E+04  0.25500000000E-02 0. -1.
         -2   -1    0    0    0  501 -0.00000000000E+00 -0.00000000000E+00 -0.82133825728E+03  0.82133825729E+03  0.25500000000E-02 0.  1.
    8880022    1    1    2    0    0  0.88888154439E+03 -0.66064080064E+03  0.39121825061E+04  0.40687983830E+04  0.15294330000E+03 0.  0.
    8880022    1    1    2    0    0 -0.88888154439E+03  0.66064080064E+03 -0.32247267511E+03  0.11635879626E+04  0.15294330000E+03 0.  0.
<mgrwt>
<rscale>  0 0.11180109E+04</rscale>
<asrwt>0</asrwt>
<pdfrwt beam="1">  1        2 0.67862281E+00 0.11180109E+04</pdfrwt>
<pdfrwt beam="2">  1       -2 0.12635973E+00 0.11180109E+04</pdfrwt>
<totfact> 0.72697033E-02</totfact>
</mgrwt>
</event>
<event>
 4    1  0.3365401E-008  0.4044782E+03  0.7818608E-02  0.1042240E+00
          2   -1    0    0  501    0  0.00000000000E+00  0.00000000000E+00  0.87013813454E+03  0.87013813454E+03  0.25500000000E-02 0. -1.
         -2   -1    0    0    0  501 -0.00000000000E+00 -0.00000000000E+00 -0.23461731700E+03  0.23461731701E+03  0.25500000000E-02 0.  1.
    8880022    1    1    2    0    0 -0.11318247837E+03  0.35693229959E+03  0.56393359914E+03  0.69399113622E+03  0.15294330000E+03 0.  0.
    8880022    1    1    2    0    0  0.11318247837E+03 -0.35693229959E+03  0.71587218396E+02  0.41076431533E+03  0.15294330000E+03 0.  0.
<mgrwt>
<rscale>  0 0.40447817E+03</rscale>
<asrwt>0</asrwt>
<pdfrwt beam="1">  1        2 0.13386741E+00 0.40447817E+03</pdfrwt>
<pdfrwt beam="2">  1       -2 0.36094972E-01 0.40447817E+03</pdfrwt>
<totfact> 0.22922970E+02</totfact>
</mgrwt>
</event>
<event>
 4    1  0.3365401E-008  0.1583088E+03  0.7818608E-02  0.1190619E+00
         -2   -1    0    0    0  501 -0.00000000000E+00  0.00000000000E+00  0.54725324236E+03  0.54725324237E+03  0.25500000000E-02 0.  1.
          2   -1    0    0  501    0  0.00000000000E+00 -0.00000000000E+00 -0.14133818927E+03  0.14133818930E+03  0.25500000000E-02 0. -1.
    8880022    1    1    2    0    0  0.34516413692E+02 -0.21878074758E+02 -0.80117003486E+02  0.17742722517E+03  0.15294330000E+03 0. -1.
    8880022    1    1    2    0    0 -0.34516413692E+02  0.21878074758E+02  0.48603205657E+03  0.51116420649E+03  0.15294330000E+03 0.  0.
<mgrwt>
<rscale>  0 0.15830883E+03</rscale>
<asrwt>0</asrwt>
<pdfrwt beam="1">  1        2 0.21744337E-01 0.15830883E+03</pdfrwt>
<pdfrwt beam="2">  1       -2 0.84192806E-01 0.15830883E+03</pdfrwt>
<totfact> 0.32106264E+02</totfact>
</mgrwt>
</event>
<event>
 4    1  0.3365401E-008  0.3703009E+03  0.7818608E-02  0.1054578E+00
         -2   -1    0    0    0  501 -0.00000000000E+00  0.00000000000E+00  0.57972455528E+03  0.57972455528E+03  0.25500000000E-02 0.  1.
          2   -1    0    0  501    0  0.00000000000E+00 -0.00000000000E+00 -0.10249046865E+04  0.10249046865E+04  0.25500000000E-02 0. -1.
    8880022    1    1    2    0    0 -0.62123803971E+01  0.33718318917E+03  0.48107998135E+03  0.60709200143E+03  0.15294330000E+03 0.  0.
    8880022    1    1    2    0    0  0.62123803971E+01 -0.33718318917E+03 -0.92626011260E+03  0.99753724038E+03  0.15294330000E+03 0.  0.
<mgrwt>
<rscale>  0 0.37030089E+03</rscale>
<asrwt>0</asrwt>
<pdfrwt beam="1">  1        2 0.15767764E+00 0.37030089E+03</pdfrwt>
<pdfrwt beam="2">  1       -2 0.89188393E-01 0.37030089E+03</pdfrwt>
<totfact> 0.28087173E+01</totfact>
</mgrwt>
</event>
<event>
 4    1  0.3365401E-008  0.4761310E+03  0.7818608E-02  0.1020204E+00
         -2   -1    0    0    0  501 -0.00000000000E+00  0.00000000000E+00  0.49372061497E+03  0.49372061498E+03  0.25500000000E-02 0.  1.
          2   -1    0    0  501    0  0.00000000000E+00 -0.00000000000E+00 -0.71942524169E+03  0.71942524170E+03  0.25500000000E-02 0. -1.
    8880022    1    1    2    0    0 -0.26752461700E+03  0.36295953147E+03  0.25197859103E+03  0.53869648740E+03  0.15294330000E+03 0.  0.
    8880022    1    1    2    0    0  0.26752461700E+03 -0.36295953147E+03 -0.47768321775E+03  0.67444936928E+03  0.15294330000E+03 0.  0.
<mgrwt>
<rscale>  0 0.47613096E+03</rscale>
<asrwt>0</asrwt>
<pdfrwt beam="1">  1        2 0.11068081E+00 0.47613096E+03</pdfrwt>
<pdfrwt beam="2">  1       -2 0.75957017E-01 0.47613096E+03</pdfrwt>
<totfact> 0.63741920E+01</totfact>
</mgrwt>
</event>
<event>
 4    1  0.3365401E-008  0.1888471E+03  0.7818608E-02  0.1159505E+00
          2   -1    0    0  501    0  0.00000000000E+00  0.00000000000E+00  0.33888067918E+02  0.33888068014E+02  0.25500000000E-02 0. -1.
         -2   -1    0    0    0  501 -0.00000000000E+00 -0.00000000000E+00 -0.16657875912E+04  0.16657875912E+04  0.25500000000E-02 0.  1.
    8880022    1    1    2    0    0  0.10513667099E+03  0.34897509038E+02 -0.30024641937E+03  0.35469863418E+03  0.15294330000E+03 0.  0.
    8880022    1    1    2    0    0 -0.10513667099E+03 -0.34897509038E+02 -0.13316531039E+04  0.13449770250E+04  0.15294330000E+03 0.  1.
<mgrwt>
<rscale>  0 0.18884705E+03</rscale>
<asrwt>0</asrwt>
<pdfrwt beam="1">  1        2 0.52135502E-02 0.18884705E+03</pdfrwt>
<pdfrwt beam="2">  1       -2 0.25627495E+00 0.18884705E+03</pdfrwt>
<totfact> 0.98431950E+01</totfact>
</mgrwt>
</event>
<event>
 4    1  0.3365401E-008  0.1221441E+04  0.7818608E-02  0.9094293E-01
          2   -1    0    0  501    0  0.00000000000E+00  0.00000000000E+00  0.13413374462E+04  0.13413374462E+04  0.25500000000E-02 0. -1.
         -2   -1    0    0    0  501 -0.00000000000E+00 -0.00000000000E+00 -0.13964530661E+04  0.13964530661E+04  0.25500000000E-02 0.  1.
    8880022    1    1    2    0    0  0.11794229840E+04  0.27836689343E+03  0.58997841213E+03  0.13564633730E+04  0.15294330000E+03 0.  0.
    8880022    1    1    2    0    0 -0.11794229840E+04 -0.27836689343E+03 -0.64509403207E+03  0.13813271393E+04  0.15294330000E+03 0.  0.
<mgrwt>
<rscale>  0 0.12214411E+04</rscale>
<asrwt>0</asrwt>
<pdfrwt beam="1">  1        2 0.20635961E+00 0.12214411E+04</pdfrwt>
<pdfrwt beam="2">  1       -2 0.21483893E+00 0.12214411E+04</pdfrwt>
<totfact> 0.16146340E+00</totfact>
</mgrwt>
</event>
<event>
 4    1  0.3365401E-008  0.6718648E+03  0.7818608E-02  0.9766595E-01
          2   -1    0    0  501    0  0.00000000000E+00  0.00000000000E+00  0.16258101101E+04  0.16258101102E+04  0.25500000000E-02 0. -1.
         -2   -1    0    0    0  501 -0.00000000000E+00 -0.00000000000E+00 -0.73417170143E+03  0.73417170143E+03  0.25500000000E-02 0.  1.
    8880022    1    1    2    0    0  0.25618052505E+03 -0.60198192412E+03  0.13763091243E+04  0.15315446963E+04  0.15294330000E+03 0.  0.
    8880022    1    1    2    0    0 -0.25618052505E+03  0.60198192412E+03 -0.48467071554E+03  0.82843711523E+03  0.15294330000E+03 0.  0.
<mgrwt>
<rscale>  0 0.67186483E+03</rscale>
<asrwt>0</asrwt>
<pdfrwt beam="1">  1        2 0.25012463E+00 0.67186483E+03</pdfrwt>
<pdfrwt beam="2">  1       -2 0.11294949E+00 0.67186483E+03</pdfrwt>
<totfact> 0.69127173E+00</totfact>
</mgrwt>
</event>
<event>
 4    1  0.3365401E-008  0.1206452E+04  0.7818608E-02  0.9107228E-01
         -2   -1    0    0    0  501 -0.00000000000E+00  0.00000000000E+00  0.95458626158E+03  0.95458626158E+03  0.25500000000E-02 0.  1.
          2   -1    0    0  501    0  0.00000000000E+00 -0.00000000000E+00 -0.20351724109E+04  0.20351724109E+04  0.25500000000E-02 0. -1.
    8880022    1    1    2    0    0  0.49478654494E+03 -0.10896426538E+04 -0.12889123478E+04  0.17654522173E+04  0.15294330000E+03 0.  0.
    8880022    1    1    2    0    0 -0.49478654494E+03  0.10896426538E+04  0.20832619853E+03  0.12243064552E+04  0.15294330000E+03 0.  0.
<mgrwt>
<rscale>  0 0.12064520E+04</rscale>
<asrwt>0</asrwt>
<pdfrwt beam="1">  1        2 0.31310345E+00 0.12064520E+04</pdfrwt>
<pdfrwt beam="2">  1       -2 0.14685943E+00 0.12064520E+04</pdfrwt>
<totfact> 0.19692559E+00</totfact>
</mgrwt>
</event>
<event>
 4    1  0.3365401E-008  0.1670706E+03  0.7818608E-02  0.1180938E+00
          2   -1    0    0  501    0  0.00000000000E+00  0.00000000000E+00  0.11852866614E+03  0.11852866617E+03  0.25500000000E-02 0. -1.
         -2   -1    0    0    0  501 -0.00000000000E+00 -0.00000000000E+00 -0.25553819515E+03  0.25553819516E+03  0.25500000000E-02 0.  1.
    8880022    1    1    2    0    0 -0.15140501388E+02 -0.65511040392E+02 -0.16120069294E+02  0.16784647999E+03  0.15294330000E+03 0.  0.
    8880022    1    1    2    0    0  0.15140501388E+02  0.65511040392E+02 -0.12088945971E+03  0.20622038134E+03  0.15294330000E+03 0.  0.
<mgrwt>
<rscale>  0 0.16707060E+03</rscale>
<asrwt>0</asrwt>
<pdfrwt beam="1">  1        2 0.18235179E-01 0.16707060E+03</pdfrwt>
<pdfrwt beam="2">  1       -2 0.39313568E-01 0.16707060E+03</pdfrwt>
<totfact> 0.18670355E+03</totfact>
</mgrwt>
</event>
<event>
 4    1  0.3365401E-008  0.8612904E+03  0.7818608E-02  0.9475307E-01
         -2   -1    0    0    0  501 -0.00000000000E+00  0.00000000000E+00  0.10366513669E+04  0.10366513669E+04  0.25500000000E-02 0.  1.
          2   -1    0    0  501    0  0.00000000000E+00 -0.00000000000E+00 -0.23110172794E+04  0.23110172794E+04  0.25500000000E-02 0. -1.
    8880022    1    1    2    0    0 -0.84270228336E+03  0.91007020424E+02  0.75356647646E+03  0.11444140438E+04  0.15294330000E+03 0.  1.
    8880022    1    1    2    0    0  0.84270228336E+03 -0.91007020424E+02 -0.20279323890E+04  0.22032546025E+04  0.15294330000E+03 0.  0.
<mgrwt>
<rscale>  0 0.86129035E+03</rscale>
<asrwt>0</asrwt>
<pdfrwt beam="1">  1        2 0.35554112E+00 0.86129035E+03</pdfrwt>
<pdfrwt beam="2">  1       -2 0.15948483E+00 0.86129035E+03</pdfrwt>
<totfact> 0.11642740E+00</totfact>
</mgrwt>
</event>
<event>
 4    1  0.3365401E-008  0.9641381E+03  0.7818608E-02  0.9348776E-01
          2   -1    0    0  501    0  0.00000000000E+00  0.00000000000E+00  0.21472054510E+04  0.21472054510E+04  0.25500000000E-02 0. -1.
         -2   -1    0    0    0  501 -0.00000000000E+00 -0.00000000000E+00 -0.93947862002E+03  0.93947862002E+03  0.25500000000E-02 0.  1.
    8880022    1    1    2    0    0  0.84128196845E+03 -0.44543822610E+03  0.17371370389E+04  0.19867579895E+04  0.15294330000E+03 0.  0.
    8880022    1    1    2    0    0 -0.84128196845E+03  0.44543822610E+03 -0.52941020791E+03  0.10999260816E+04  0.15294330000E+03 0.  0.
<mgrwt>
<rscale>  0 0.96413807E+03</rscale>
<asrwt>0</asrwt>
<pdfrwt beam="1">  1        2 0.33033930E+00 0.96413807E+03</pdfrwt>
<pdfrwt beam="2">  1       -2 0.14453517E+00 0.96413807E+03</pdfrwt>
<totfact> 0.18363627E+00</totfact>
</mgrwt>
</event>
<event>
 4    1  0.3365401E-008  0.7236614E+03  0.7818608E-02  0.9677602E-01
          2   -1    0    0  501    0  0.00000000000E+00  0.00000000000E+00  0.18675361957E+04  0.18675361957E+04  0.25500000000E-02 0. -1.
         -2   -1    0    0    0  501 -0.00000000000E+00 -0.00000000000E+00 -0.37540179529E+03  0.37540179530E+03  0.25500000000E-02 0.  1.
    8880022    1    1    2    0    0  0.33466475597E+03 -0.62313212382E+03  0.13101851792E+04  0.14967534865E+04  0.15294330000E+03 0.  0.
    8880022    1    1    2    0    0 -0.33466475597E+03  0.62313212382E+03  0.18194922124E+03  0.74618450450E+03  0.15294330000E+03 0.  0.
<mgrwt>
<rscale>  0 0.72366138E+03</rscale>
<asrwt>0</asrwt>
<pdfrwt beam="1">  1        2 0.28731326E+00 0.72366138E+03</pdfrwt>
<pdfrwt beam="2">  1       -2 0.57754123E-01 0.72366138E+03</pdfrwt>
<totfact> 0.22982386E+01</totfact>
</mgrwt>
</event>
<event>
 4    1  0.3365401E-008  0.3068334E+03  0.7818608E-02  0.1081874E+00
          2   -1    0    0  501    0  0.00000000000E+00  0.00000000000E+00  0.18111967965E+04  0.18111967965E+04  0.25500000000E-02 0. -1.
         -2   -1    0    0    0  501 -0.00000000000E+00 -0.00000000000E+00 -0.18709861025E+03  0.18709861027E+03  0.25500000000E-02 0.  1.
    8880022    1    1    2    0    0 -0.19586025278E+01 -0.26599100681E+03 -0.37036322976E+02  0.30906050227E+03  0.15294330000E+03 0.  0.
    8880022    1    1    2    0    0  0.19586025278E+01  0.26599100681E+03  0.16611345093E+04  0.16892349045E+04  0.15294330000E+03 0.  0.
<mgrwt>
<rscale>  0 0.30683335E+03</rscale>
<asrwt>0</asrwt>
<pdfrwt beam="1">  1        2 0.27864567E+00 0.30683335E+03</pdfrwt>
<pdfrwt beam="2">  1       -2 0.28784401E-01 0.30683335E+03</pdfrwt>
<totfact> 0.10306931E+02</totfact>
</mgrwt>
</event>
<event>
 4    1  0.3365401E-008  0.9972497E+03  0.7818608E-02  0.9311566E-01
         -2   -1    0    0    0  501 -0.00000000000E+00  0.00000000000E+00  0.43340499483E+03  0.43340499484E+03  0.25500000000E-02 0.  1.
          2   -1    0    0  501    0  0.00000000000E+00 -0.00000000000E+00 -0.25707258368E+04  0.25707258368E+04  0.25500000000E-02 0. -1.
    8880022    1    1    2    0    0  0.95711153301E+03 -0.23463345642E+03 -0.15609103257E+04  0.18522818478E+04  0.15294330000E+03 0.  0.
    8880022    1    1    2    0    0 -0.95711153301E+03  0.23463345642E+03 -0.57641051626E+03  0.11518489839E+04  0.15294330000E+03 0.  0.
<mgrwt>
<rscale>  0 0.99724972E+03</rscale>
<asrwt>0</asrwt>
<pdfrwt beam="1">  1        2 0.39549627E+00 0.99724972E+03</pdfrwt>
<pdfrwt beam="2">  1       -2 0.66677693E-01 0.99724972E+03</pdfrwt>
<totfact> 0.66274242E+00</totfact>
</mgrwt>
</event>
<event>
 4    1  0.3365401E-008  0.4474620E+03  0.7818608E-02  0.1028482E+00
         -2   -1    0    0    0  501 -0.00000000000E+00  0.00000000000E+00  0.33350693775E+03  0.33350693776E+03  0.25500000000E-02 0.  1.
          2   -1    0    0  501    0  0.00000000000E+00 -0.00000000000E+00 -0.92437906464E+03  0.92437906464E+03  0.25500000000E-02 0. -1.
    8880022    1    1    2    0    0 -0.36647346413E+03  0.20622276638E+03 -0.66780669748E+03  0.80385823844E+03  0.15294330000E+03 0. -1.
    8880022    1    1    2    0    0  0.36647346413E+03 -0.20622276638E+03  0.76934570599E+02  0.45402776397E+03  0.15294330000E+03 0.  1.
<mgrwt>
<rscale>  0 0.44746205E+03</rscale>
<asrwt>0</asrwt>
<pdfrwt beam="1">  1        2 0.14221216E+00 0.44746205E+03</pdfrwt>
<pdfrwt beam="2">  1       -2 0.51308760E-01 0.44746205E+03</pdfrwt>
<totfact> 0.10544790E+02</totfact>
</mgrwt>
</event>
<event>
 4    1  0.3365401E-008  0.2790606E+03  0.7818608E-02  0.1096203E+00
         -2   -1    0    0    0  501 -0.00000000000E+00  0.00000000000E+00  0.55911848762E+03  0.55911848762E+03  0.25500000000E-02 0.  1.
          2   -1    0    0  501    0  0.00000000000E+00 -0.00000000000E+00 -0.80435293513E+03  0.80435293514E+03  0.25500000000E-02 0. -1.
    8880022    1    1    2    0    0  0.89567434555E+01  0.23324433981E+03  0.49729029431E+03  0.57023892812E+03  0.15294330000E+03 0.  0.
    8880022    1    1    2    0    0 -0.89567434555E+01 -0.23324433981E+03 -0.74252474183E+03  0.79323249464E+03  0.15294330000E+03 0. -1.
<mgrwt>
<rscale>  0 0.27906056E+03</rscale>
<asrwt>0</asrwt>
<pdfrwt beam="1">  1        2 0.12374661E+00 0.27906056E+03</pdfrwt>
<pdfrwt beam="2">  1       -2 0.86018229E-01 0.27906056E+03</pdfrwt>
<totfact> 0.43227576E+01</totfact>
</mgrwt>
</event>
<event>
 4    1  0.3365401E-008  0.1634932E+03  0.7818608E-02  0.1184809E+00
         -2   -1    0    0    0  501 -0.00000000000E+00  0.00000000000E+00  0.73001717914E+03  0.73001717915E+03  0.25500000000E-02 0.  1.
          2   -1    0    0  501    0  0.00000000000E+00 -0.00000000000E+00 -0.28386892179E+03  0.28386892180E+03  0.25500000000E-02 0. -1.
    8880022    1    1    2    0    0 -0.36127779698E+02  0.45090401319E+02 -0.25004588650E+03  0.29875233744E+03  0.15294330000E+03 0. -1.
    8880022    1    1    2    0    0  0.36127779698E+02 -0.45090401319E+02  0.69619414385E+03  0.71513376351E+03  0.15294330000E+03 0.  0.
<mgrwt>
<rscale>  0 0.16349316E+03</rscale>
<asrwt>0</asrwt>
<pdfrwt beam="1">  1        2 0.43672143E-01 0.16349316E+03</pdfrwt>
<pdfrwt beam="2">  1       -2 0.11231033E+00 0.16349316E+03</pdfrwt>
<totfact> 0.77501214E+01</totfact>
</mgrwt>
</event>
<event>
 4    1  0.3365401E-008  0.5709838E+03  0.7818608E-02  0.9967504E-01
         -2   -1    0    0    0  501 -0.00000000000E+00  0.00000000000E+00  0.84854660916E+03  0.84854660916E+03  0.25500000000E-02 0.  1.
          2   -1    0    0  501    0  0.00000000000E+00 -0.00000000000E+00 -0.88614742973E+03  0.88614742973E+03  0.25500000000E-02 0. -1.
    8880022    1    1    2    0    0 -0.11059448520E+03  0.53888748686E+03  0.63397450150E+03  0.85319762377E+03  0.15294330000E+03 0.  0.
    8880022    1    1    2    0    0  0.11059448520E+03 -0.53888748686E+03 -0.67157532206E+03  0.88149641512E+03  0.15294330000E+03 0. -1.
<mgrwt>
<rscale>  0 0.57098381E+03</rscale>
<asrwt>0</asrwt>
<pdfrwt beam="1">  1        2 0.13633037E+00 0.57098381E+03</pdfrwt>
<pdfrwt beam="2">  1       -2 0.13054563E+00 0.57098381E+03</pdfrwt>
<totfact> 0.13379486E+01</totfact>
</mgrwt>
</event>
<event>
 4    1  0.3365401E-008  0.3240788E+03  0.7818608E-02  0.1073787E+00
         -2   -1    0    0    0  501 -0.00000000000E+00  0.00000000000E+00  0.14498480458E+04  0.14498480458E+04  0.25500000000E-02 0.  1.
          2   -1    0    0  501    0  0.00000000000E+00 -0.00000000000E+00 -0.82125563795E+03  0.82125563795E+03  0.25500000000E-02 0. -1.
    8880022    1    1    2    0    0  0.38837620593E+02  0.28306722309E+03  0.13986105953E+04  0.14356666270E+04  0.15294330000E+03 0.  0.
    8880022    1    1    2    0    0 -0.38837620593E+02 -0.28306722309E+03 -0.77001818752E+03  0.83543705669E+03  0.15294330000E+03 0.  0.
<mgrwt>
<rscale>  0 0.32407880E+03</rscale>
<asrwt>0</asrwt>
<pdfrwt beam="1">  1        2 0.12634702E+00 0.32407880E+03</pdfrwt>
<pdfrwt beam="2">  1       -2 0.22305355E+00 0.32407880E+03</pdfrwt>
<totfact> 0.35427991E+00</totfact>
</mgrwt>
</event>
<event>
 4    1  0.3365401E-008  0.8474270E+03  0.7818608E-02  0.9493797E-01
          2   -1    0    0  501    0  0.00000000000E+00  0.00000000000E+00  0.83943077434E+03  0.83943077435E+03  0.25500000000E-02 0. -1.
         -2   -1    0    0    0  501 -0.00000000000E+00 -0.00000000000E+00 -0.11735776696E+04  0.11735776696E+04  0.25500000000E-02 0.  1.
    8880022    1    1    2    0    0 -0.31945239745E+03 -0.76986434928E+03  0.35692091840E+03  0.91952441269E+03  0.15294330000E+03 0.  0.
    8880022    1    1    2    0    0  0.31945239745E+03  0.76986434928E+03 -0.69106781367E+03  0.10934840313E+04  0.15294330000E+03 0.  0.
<mgrwt>
<rscale>  0 0.84742705E+03</rscale>
<asrwt>0</asrwt>
<pdfrwt beam="1">  1        2 0.12914320E+00 0.84742705E+03</pdfrwt>
<pdfrwt beam="2">  1       -2 0.18055041E+00 0.84742705E+03</pdfrwt>
<totfact> 0.58476347E+00</totfact>
</mgrwt>
</event>
<event>
 4    1  0.3365401E-008  0.1602004E+03  0.7818608E-02  0.1188471E+00
         -2   -1    0    0    0  501 -0.00000000000E+00  0.00000000000E+00  0.29565922049E+03  0.29565922050E+03  0.25500000000E-02 0.  1.
          2   -1    0    0  501    0  0.00000000000E+00 -0.00000000000E+00 -0.42357748445E+03  0.42357748446E+03  0.25500000000E-02 0. -1.
    8880022    1    1    2    0    0 -0.47457755763E+02  0.45041026671E+01  0.25670091238E+03  0.30258806479E+03  0.15294330000E+03 0.  1.
    8880022    1    1    2    0    0  0.47457755763E+02 -0.45041026671E+01 -0.38461917634E+03  0.41664864016E+03  0.15294330000E+03 0.  0.
<mgrwt>
<rscale>  0 0.16020043E+03</rscale>
<asrwt>0</asrwt>
<pdfrwt beam="1">  1        2 0.65165767E-01 0.16020043E+03</pdfrwt>
<pdfrwt beam="2">  1       -2 0.45486034E-01 0.16020043E+03</pdfrwt>
<totfact> 0.35169991E+02</totfact>
</mgrwt>
</event>
<event>
 4    1  0.3365401E-008  0.2556827E+03  0.7818608E-02  0.1109765E+00
          2   -1    0    0  501    0  0.00000000000E+00  0.00000000000E+00  0.35728465908E+04  0.35728465908E+04  0.25500000000E-02 0. -1.
         -2   -1    0    0    0  501 -0.00000000000E+00 -0.00000000000E+00 -0.83103697540E+02  0.83103697579E+02  0.25500000000E-02 0.  1.
    8880022    1    1    2    0    0 -0.15675800886E+03  0.13194291770E+03  0.33591142248E+04  0.33688309597E+04  0.15294330000E+03 0.  0.
    8880022    1    1    2    0    0  0.15675800886E+03 -0.13194291770E+03  0.13062866852E+03  0.28711932872E+03  0.15294330000E+03 0.  0.
<mgrwt>
<rscale>  0 0.25568273E+03</rscale>
<asrwt>0</asrwt>
<pdfrwt beam="1">  1        2 0.54966869E+00 0.25568273E+03</pdfrwt>
<pdfrwt beam="2">  1       -2 0.12785185E-01 0.25568273E+03</pdfrwt>
<totfact> 0.40885345E+01</totfact>
</mgrwt>
</event>
<event>
 4    1  0.3365401E-008  0.1287999E+04  0.7818608E-02  0.9039136E-01
          2   -1    0    0  501    0  0.00000000000E+00  0.00000000000E+00  0.16857972024E+04  0.16857972024E+04  0.25500000000E-02 0. -1.
         -2   -1    0    0    0  501 -0.00000000000E+00 -0.00000000000E+00 -0.15603538953E+04  0.15603538953E+04  0.25500000000E-02 0.  1.
    8880022    1    1    2    0    0 -0.66819961869E+03 -0.10904402960E+04 -0.92366100608E+03  0.15849580678E+04  0.15294330000E+03 0.  0.
    8880022    1    1    2    0    0  0.66819961869E+03  0.10904402960E+04  0.10491043131E+04  0.16611930298E+04  0.15294330000E+03 0.  0.
<mgrwt>
<rscale>  0 0.12879994E+04</rscale>
<asrwt>0</asrwt>
<pdfrwt beam="1">  1        2 0.25935342E+00 0.12879994E+04</pdfrwt>
<pdfrwt beam="2">  1       -2 0.24005445E+00 0.12879994E+04</pdfrwt>
<totfact> 0.71028251E-01</totfact>
</mgrwt>
</event>
<event>
 4    1  0.3365401E-008  0.5527176E+03  0.7818608E-02  0.1000867E+00
         -2   -1    0    0    0  501 -0.00000000000E+00  0.00000000000E+00  0.23738182342E+03  0.23738182344E+03  0.25500000000E-02 0.  1.
          2   -1    0    0  501    0  0.00000000000E+00 -0.00000000000E+00 -0.15463426204E+04  0.15463426204E+04  0.25500000000E-02 0. -1.
    8880022    1    1    2    0    0  0.51555570358E+03  0.12770045927E+03 -0.28919691196E+03  0.62380413408E+03  0.15294330000E+03 0.  0.
    8880022    1    1    2    0    0 -0.51555570358E+03 -0.12770045927E+03 -0.10197638851E+04  0.11599203098E+04  0.15294330000E+03 0. -1.
<mgrwt>
<rscale>  0 0.55271760E+03</rscale>
<asrwt>0</asrwt>
<pdfrwt beam="1">  1        2 0.23789886E+00 0.55271760E+03</pdfrwt>
<pdfrwt beam="2">  1       -2 0.36520282E-01 0.55271760E+03</pdfrwt>
<totfact> 0.87930499E+01</totfact>
</mgrwt>
</event>
<event>
 4    1  0.3365401E-008  0.8621469E+03  0.7818608E-02  0.9474177E-01
          2   -1    0    0  501    0  0.00000000000E+00  0.00000000000E+00  0.17374842380E+04  0.17374842380E+04  0.25500000000E-02 0. -1.
         -2   -1    0    0    0  501 -0.00000000000E+00 -0.00000000000E+00 -0.83524774250E+03  0.83524774250E+03  0.25500000000E-02 0.  1.
    8880022    1    1    2    0    0 -0.61610470530E+03  0.58337007929E+03  0.13495650673E+04  0.16014440924E+04  0.15294330000E+03 0.  0.
    8880022    1    1    2    0    0  0.61610470530E+03 -0.58337007929E+03 -0.44732857182E+03  0.97128788805E+03  0.15294330000E+03 0.  0.
<mgrwt>
<rscale>  0 0.86214692E+03</rscale>
<asrwt>0</asrwt>
<pdfrwt beam="1">  1        2 0.26730526E+00 0.86214692E+03</pdfrwt>
<pdfrwt beam="2">  1       -2 0.12849965E+00 0.86214692E+03</pdfrwt>
<totfact> 0.42359759E+00</totfact>
</mgrwt>
</event>
<event>
 4    1  0.3630548E-008  0.1165028E+04  0.7818608E-02  0.9144031E-01
          2   -1    0    0  501    0  0.00000000000E+00  0.00000000000E+00  0.18294122897E+04  0.18294122897E+04  0.25500000000E-02 0. -1.
         -2   -1    0    0    0  501 -0.00000000000E+00 -0.00000000000E+00 -0.16120188741E+04  0.16120188741E+04  0.25500000000E-02 0.  1.
    8880022    1    1    2    0    0  0.13528170004E+02 -0.11548658231E+04  0.13728701829E+04  0.18005727624E+04  0.15294330000E+03 0.  0.
    8880022    1    1    2    0    0 -0.13528170004E+02  0.11548658231E+04 -0.11554767673E+04  0.16408584014E+04  0.15294330000E+03 0.  0.
<mgrwt>
<rscale>  0 0.11650278E+04</rscale>
<asrwt>0</asrwt>
<pdfrwt beam="1">  1        2 0.28144804E+00 0.11650278E+04</pdfrwt>
<pdfrwt beam="2">  1       -2 0.24800291E+00 0.11650278E+04</pdfrwt>
<totfact> 0.53657353E-01</totfact>
</mgrwt>
</event>
<event>
 4    1  0.3365401E-008  0.8705578E+03  0.7818608E-02  0.9463153E-01
         -2   -1    0    0    0  501 -0.00000000000E+00  0.00000000000E+00  0.94398148485E+03  0.94398148485E+03  0.25500000000E-02 0.  1.
          2   -1    0    0  501    0  0.00000000000E+00 -0.00000000000E+00 -0.11388676288E+04  0.11388676288E+04  0.25500000000E-02 0. -1.
    8880022    1    1    2    0    0 -0.11448713855E+03  0.84933616168E+03 -0.66312904822E+03  0.10943541511E+04  0.15294330000E+03 0.  0.
    8880022    1    1    2    0    0  0.11448713855E+03 -0.84933616168E+03  0.46824290431E+03  0.98849496250E+03  0.15294330000E+03 0.  0.
<mgrwt>
<rscale>  0 0.87055779E+03</rscale>
<asrwt>0</asrwt>
<pdfrwt beam="1">  1        2 0.17521041E+00 0.87055779E+03</pdfrwt>
<pdfrwt beam="2">  1       -2 0.14522792E+00 0.87055779E+03</pdfrwt>
<totfact> 0.67633609E+00</totfact>
</mgrwt>
</event>
<event>
 4    1  0.3365401E-008  0.8798910E+03  0.7818608E-02  0.9451074E-01
         -2   -1    0    0    0  501 -0.00000000000E+00  0.00000000000E+00  0.24392615057E+03  0.24392615058E+03  0.25500000000E-02 0.  1.
          2   -1    0    0  501    0  0.00000000000E+00 -0.00000000000E+00 -0.37037092194E+04  0.37037092194E+04  0.25500000000E-02 0. -1.
    8880022    1    1    2    0    0 -0.61144861282E+03  0.61396023793E+03 -0.98339150885E+03  0.13195707986E+04  0.15294330000E+03 0.  0.
    8880022    1    1    2    0    0  0.61144861282E+03 -0.61396023793E+03 -0.24763915600E+04  0.26280645714E+04  0.15294330000E+03 0.  0.
<mgrwt>
<rscale>  0 0.87989103E+03</rscale>
<asrwt>0</asrwt>
<pdfrwt beam="1">  1        2 0.56980138E+00 0.87989103E+03</pdfrwt>
<pdfrwt beam="2">  1       -2 0.37527103E-01 0.87989103E+03</pdfrwt>
<totfact> 0.41371591E+00</totfact>
</mgrwt>
</event>
<event>
 4    1  0.3365401E-008  0.3642885E+03  0.7818608E-02  0.1056899E+00
         -2   -1    0    0    0  501 -0.00000000000E+00  0.00000000000E+00  0.15712477898E+03  0.15712477901E+03  0.25500000000E-02 0.  1.
          2   -1    0    0  501    0  0.00000000000E+00 -0.00000000000E+00 -0.12991227613E+04  0.12991227613E+04  0.25500000000E-02 0. -1.
    8880022    1    1    2    0    0 -0.17814256197E+03  0.27853127279E+03 -0.14031128912E+03  0.39037591265E+03  0.15294330000E+03 0.  1.
    8880022    1    1    2    0    0  0.17814256197E+03 -0.27853127279E+03 -0.10016866932E+04  0.10658716277E+04  0.15294330000E+03 0.  1.
<mgrwt>
<rscale>  0 0.36428848E+03</rscale>
<asrwt>0</asrwt>
<pdfrwt beam="1">  1        2 0.19986503E+00 0.36428848E+03</pdfrwt>
<pdfrwt beam="2">  1       -2 0.24173044E-01 0.36428848E+03</pdfrwt>
<totfact> 0.26369500E+02</totfact>
</mgrwt>
</event>
<event>
 4    1  0.3365401E-008  0.9370832E+03  0.7818608E-02  0.9380377E-01
          2   -1    0    0  501    0  0.00000000000E+00  0.00000000000E+00  0.14164785066E+04  0.14164785066E+04  0.25500000000E-02 0. -1.
         -2   -1    0    0    0  501 -0.00000000000E+00 -0.00000000000E+00 -0.11293552553E+04  0.11293552553E+04  0.25500000000E-02 0.  1.
    8880022    1    1    2    0    0 -0.75673928550E+03 -0.53111096159E+03  0.99847632981E+03  0.13693355447E+04  0.15294330000E+03 0.  0.
    8880022    1    1    2    0    0  0.75673928550E+03  0.53111096159E+03 -0.71135307848E+03  0.11764982172E+04  0.15294330000E+03 0.  0.
<mgrwt>
<rscale>  0 0.93708316E+03</rscale>
<asrwt>0</asrwt>
<pdfrwt beam="1">  1        2 0.21791977E+00 0.93708316E+03</pdfrwt>
<pdfrwt beam="2">  1       -2 0.17374696E+00 0.93708316E+03</pdfrwt>
<totfact> 0.28389483E+00</totfact>
</mgrwt>
</event>
<event>
 4    1  0.3365401E-008  0.5531758E+03  0.7818608E-02  0.1000762E+00
         -2   -1    0    0    0  501 -0.00000000000E+00  0.00000000000E+00  0.21097204586E+03  0.21097204587E+03  0.25500000000E-02 0.  1.
          2   -1    0    0  501    0  0.00000000000E+00 -0.00000000000E+00 -0.19455724148E+04  0.19455724148E+04  0.25500000000E-02 0. -1.
    8880022    1    1    2    0    0 -0.45048336273E+03 -0.28227044912E+03 -0.32334533501E+03  0.64074622529E+03  0.15294330000E+03 0.  0.
    8880022    1    1    2    0    0  0.45048336273E+03  0.28227044912E+03 -0.14112550340E+04  0.15157982354E+04  0.15294330000E+03 0. -1.
<mgrwt>
<rscale>  0 0.55317585E+03</rscale>
<asrwt>0</asrwt>
<pdfrwt beam="1">  1        2 0.29931882E+00 0.55317585E+03</pdfrwt>
<pdfrwt beam="2">  1       -2 0.32457239E-01 0.55317585E+03</pdfrwt>
<totfact> 0.66783254E+01</totfact>
</mgrwt>
</event>
<event>
 4    1  0.3365401E-008  0.1140548E+04  0.7818608E-02  0.9166548E-01
          2   -1    0    0  501    0  0.00000000000E+00  0.00000000000E+00  0.22579934180E+04  0.22579934180E+04  0.25500000000E-02 0. -1.
         -2   -1    0    0    0  501 -0.00000000000E+00 -0.00000000000E+00 -0.74634003952E+03  0.74634003953E+03  0.25500000000E-02 0.  1.
    8880022    1    1    2    0    0  0.17896613227E+03 -0.11159881727E+04  0.14732397122E+04  0.18631385833E+04  0.15294330000E+03 0.  0.
    8880022    1    1    2    0    0 -0.17896613227E+03  0.11159881727E+04  0.38413666320E+02  0.11411948742E+04  0.15294330000E+03 0.  0.
<mgrwt>
<rscale>  0 0.11405482E+04</rscale>
<asrwt>0</asrwt>
<pdfrwt beam="1">  1        2 0.34738360E+00 0.11405482E+04</pdfrwt>
<pdfrwt beam="2">  1       -2 0.11482154E+00 0.11405482E+04</pdfrwt>
<totfact> 0.27937389E+00</totfact>
</mgrwt>
</event>
<event>
 4    1  0.3365401E-008  0.5379251E+03  0.7818608E-02  0.1004328E+00
         -2   -1    0    0    0  501 -0.00000000000E+00  0.00000000000E+00  0.23013303902E+03  0.23013303903E+03  0.25500000000E-02 0.  1.
          2   -1    0    0  501    0  0.00000000000E+00 -0.00000000000E+00 -0.15428709790E+04  0.15428709790E+04  0.25500000000E-02 0. -1.
    8880022    1    1    2    0    0 -0.26987282230E+03  0.43947746750E+03 -0.10377114811E+04  0.11688492442E+04  0.15294330000E+03 0.  0.
    8880022    1    1    2    0    0  0.26987282230E+03 -0.43947746750E+03 -0.27502645891E+03  0.60415477386E+03  0.15294330000E+03 0.  0.
<mgrwt>
<rscale>  0 0.53792512E+03</rscale>
<asrwt>0</asrwt>
<pdfrwt beam="1">  1        2 0.23736476E+00 0.53792512E+03</pdfrwt>
<pdfrwt beam="2">  1       -2 0.35405084E-01 0.53792512E+03</pdfrwt>
<totfact> 0.93867054E+01</totfact>
</mgrwt>
</event>
<event>
 4    1  0.3365401E-008  0.5527038E+03  0.7818608E-02  0.1000870E+00
          2   -1    0    0  501    0  0.00000000000E+00  0.00000000000E+00  0.10465912180E+04  0.10465912180E+04  0.25500000000E-02 0. -1.
         -2   -1    0    0    0  501 -0.00000000000E+00 -0.00000000000E+00 -0.34760536480E+03  0.34760536481E+03  0.25500000000E-02 0.  1.
    8880022    1    1    2    0    0 -0.12075233464E+03 -0.51721243696E+03  0.70387577574E+02  0.55716774436E+03  0.15294330000E+03 0.  0.
    8880022    1    1    2    0    0  0.12075233464E+03  0.51721243696E+03  0.62859827564E+03  0.83702883846E+03  0.15294330000E+03 0.  0.
<mgrwt>
<rscale>  0 0.55270379E+03</rscale>
<asrwt>0</asrwt>
<pdfrwt beam="1">  1        2 0.16101403E+00 0.55270379E+03</pdfrwt>
<pdfrwt beam="2">  1       -2 0.53477749E-01 0.55270379E+03</pdfrwt>
<totfact> 0.80118282E+01</totfact>
</mgrwt>
</event>
<event>
 4    1  0.3365401E-008  0.5565614E+03  0.7818608E-02  0.9999865E-01
         -2   -1    0    0    0  501 -0.00000000000E+00  0.00000000000E+00  0.39644141630E+03  0.39644141631E+03  0.25500000000E-02 0.  1.
          2   -1    0    0  501    0  0.00000000000E+00 -0.00000000000E+00 -0.12140226271E+04  0.12140226271E+04  0.25500000000E-02 0. -1.
    8880022    1    1    2    0    0  0.21855515936E+03  0.48846962645E+03  0.71922521870E+02  0.56118930479E+03  0.15294330000E+03 0.  0.
    8880022    1    1    2    0    0 -0.21855515936E+03 -0.48846962645E+03 -0.88950373265E+03  0.10492747386E+04  0.15294330000E+03 0.  0.
<mgrwt>
<rscale>  0 0.55656140E+03</rscale>
<asrwt>0</asrwt>
<pdfrwt beam="1">  1        2 0.18677271E+00 0.55656140E+03</pdfrwt>
<pdfrwt beam="2">  1       -2 0.60990988E-01 0.55656140E+03</pdfrwt>
<totfact> 0.48339638E+01</totfact>
</mgrwt>
</event>
<event>
 4    1  0.3365401E-008  0.3565374E+03  0.7818608E-02  0.1059963E+00
          2   -1    0    0  501    0  0.00000000000E+00  0.00000000000E+00  0.27658259728E+04  0.27658259728E+04  0.25500000000E-02 0. -1.
         -2   -1    0    0    0  501 -0.00000000000E+00 -0.00000000000E+00 -0.74502084934E+02  0.74502084978E+02  0.25500000000E-02 0.  1.
    8880022    1    1    2    0    0 -0.20726884506E+03  0.24650946915E+03  0.46665402932E+03  0.58726904278E+03  0.15294330000E+03 0.  0.
    8880022    1    1    2    0    0  0.20726884506E+03 -0.24650946915E+03  0.22246698586E+04  0.22530590150E+04  0.15294330000E+03 0. -1.
<mgrwt>
<rscale>  0 0.35653744E+03</rscale>
<asrwt>0</asrwt>
<pdfrwt beam="1">  1        2 0.42551172E+00 0.35653744E+03</pdfrwt>
<pdfrwt beam="2">  1       -2 0.11461858E-01 0.35653744E+03</pdfrwt>
<totfact> 0.14863990E+02</totfact>
</mgrwt>
</event>
<event>
 4    1  0.3365401E-008  0.6461577E+03  0.7818608E-02  0.9814016E-01
         -2   -1    0    0    0  501 -0.00000000000E+00  0.00000000000E+00  0.61719852242E+03  0.61719852243E+03  0.25500000000E-02 0.  1.
          2   -1    0    0  501    0  0.00000000000E+00 -0.00000000000E+00 -0.34408725035E+04  0.34408725035E+04  0.25500000000E-02 0. -1.
    8880022    1    1    2    0    0 -0.62755693909E+03 -0.17333999144E+02 -0.32305138677E+04  0.32945014314E+04  0.15294330000E+03 0.  0.
    8880022    1    1    2    0    0  0.62755693909E+03  0.17333999144E+02  0.40683988660E+03  0.76356959452E+03  0.15294330000E+03 0.  1.
<mgrwt>
<rscale>  0 0.64615775E+03</rscale>
<asrwt>0</asrwt>
<pdfrwt beam="1">  1        2 0.52936499E+00 0.64615775E+03</pdfrwt>
<pdfrwt beam="2">  1       -2 0.94953621E-01 0.64615775E+03</pdfrwt>
<totfact> 0.93019853E-01</totfact>
</mgrwt>
</event>
<event>
 4    1  0.3365401E-008  0.9933979E+03  0.7818608E-02  0.9315816E-01
         -2   -1    0    0    0  501 -0.00000000000E+00  0.00000000000E+00  0.93152004500E+03  0.93152004501E+03  0.25500000000E-02 0.  1.
          2   -1    0    0  501    0  0.00000000000E+00 -0.00000000000E+00 -0.24723720258E+04  0.24723720258E+04  0.25500000000E-02 0. -1.
    8880022    1    1    2    0    0  0.95789486459E+03 -0.21420802777E+03 -0.20570682358E+04  0.22843749759E+04  0.15294330000E+03 0.  0.
    8880022    1    1    2    0    0 -0.95789486459E+03  0.21420802777E+03  0.51621625503E+03  0.11195170949E+04  0.15294330000E+03 0.  0.
<mgrwt>
<rscale>  0 0.99339786E+03</rscale>
<asrwt>0</asrwt>
<pdfrwt beam="1">  1        2 0.38036492E+00 0.99339786E+03</pdfrwt>
<pdfrwt beam="2">  1       -2 0.14331078E+00 0.99339786E+03</pdfrwt>
<totfact> 0.12283621E+00</totfact>
</mgrwt>
</event>
<event>
 4    1  0.3365401E-008  0.1682083E+03  0.7818608E-02  0.1179729E+00
          2   -1    0    0  501    0  0.00000000000E+00  0.00000000000E+00  0.25434162202E+04  0.25434162202E+04  0.25500000000E-02 0. -1.
         -2   -1    0    0    0  501 -0.00000000000E+00 -0.00000000000E+00 -0.15680471772E+03  0.15680471775E+03  0.25500000000E-02 0.  1.
    8880022    1    1    2    0    0  0.69679041354E+02  0.68718833263E+01  0.24946438485E+04  0.25003083761E+04  0.15294330000E+03 0. -1.
    8880022    1    1    2    0    0 -0.69679041354E+02 -0.68718833263E+01 -0.10803234604E+03  0.19991256186E+03  0.15294330000E+03 0.  0.
<mgrwt>
<rscale>  0 0.16820834E+03</rscale>
<asrwt>0</asrwt>
<pdfrwt beam="1">  1        2 0.39129476E+00 0.16820834E+03</pdfrwt>
<pdfrwt beam="2">  1       -2 0.24123805E-01 0.16820834E+03</pdfrwt>
<totfact> 0.60949548E+01</totfact>
</mgrwt>
</event>
<event>
 4    1  0.3365401E-008  0.1698430E+03  0.7818608E-02  0.1178012E+00
          2   -1    0    0  501    0  0.00000000000E+00  0.00000000000E+00  0.14669712746E+04  0.14669712746E+04  0.25500000000E-02 0. -1.
         -2   -1    0    0    0  501 -0.00000000000E+00 -0.00000000000E+00 -0.20503643119E+02  0.20503643277E+02  0.25500000000E-02 0.  1.
    8880022    1    1    2    0    0 -0.42034310160E+02  0.60729829377E+02  0.87373136864E+03  0.89008603683E+03  0.15294330000E+03 0.  1.
    8880022    1    1    2    0    0  0.42034310160E+02 -0.60729829377E+02  0.57273626281E+03  0.59738888101E+03  0.15294330000E+03 0.  0.
<mgrwt>
<rscale>  0 0.16984301E+03</rscale>
<asrwt>0</asrwt>
<pdfrwt beam="1">  1        2 0.22568788E+00 0.16984301E+03</pdfrwt>
<pdfrwt beam="2">  1       -2 0.31544068E-02 0.16984301E+03</pdfrwt>
<totfact> 0.55278423E+03</totfact>
</mgrwt>
</event>
<event>
 4    1  0.3365401E-008  0.4738689E+03  0.7818608E-02  0.1020834E+00
         -2   -1    0    0    0  501 -0.00000000000E+00  0.00000000000E+00  0.84840010057E+03  0.84840010058E+03  0.25500000000E-02 0.  1.
          2   -1    0    0  501    0  0.00000000000E+00 -0.00000000000E+00 -0.73837074062E+03  0.73837074062E+03  0.25500000000E-02 0. -1.
    8880022    1    1    2    0    0  0.34435800659E+03  0.28736318966E+03  0.69048601026E+03  0.83745007185E+03  0.15294330000E+03 0.  1.
    8880022    1    1    2    0    0 -0.34435800659E+03 -0.28736318966E+03 -0.58045665030E+03  0.74932076934E+03  0.15294330000E+03 0.  0.
<mgrwt>
<rscale>  0 0.47386886E+03</rscale>
<asrwt>0</asrwt>
<pdfrwt beam="1">  1        2 0.11359550E+00 0.47386886E+03</pdfrwt>
<pdfrwt beam="2">  1       -2 0.13052309E+00 0.47386886E+03</pdfrwt>
<totfact> 0.17269665E+01</totfact>
</mgrwt>
</event>
<event>
 4    1  0.3365401E-008  0.1090087E+04  0.7818608E-02  0.9214908E-01
         -2   -1    0    0    0  501 -0.00000000000E+00  0.00000000000E+00  0.57005486685E+03  0.57005486685E+03  0.25500000000E-02 0.  1.
          2   -1    0    0  501    0  0.00000000000E+00 -0.00000000000E+00 -0.22706582479E+04  0.22706582479E+04  0.25500000000E-02 0. -1.
    8880022    1    1    2    0    0  0.48762902200E+03 -0.96286845730E+03 -0.44363168044E+03  0.11769020563E+04  0.15294330000E+03 0.  0.
    8880022    1    1    2    0    0 -0.48762902200E+03  0.96286845730E+03 -0.12569717006E+04  0.16638110585E+04  0.15294330000E+03 0.  0.
<mgrwt>
<rscale>  0 0.10900869E+04</rscale>
<asrwt>0</asrwt>
<pdfrwt beam="1">  1        2 0.34933203E+00 0.10900869E+04</pdfrwt>
<pdfrwt beam="2">  1       -2 0.87700750E-01 0.10900869E+04</pdfrwt>
<totfact> 0.52556571E+00</totfact>
</mgrwt>
</event>
<event>
 4    1  0.3365401E-008  0.3704960E+03  0.7818608E-02  0.1054503E+00
          2   -1    0    0  501    0  0.00000000000E+00  0.00000000000E+00  0.32636655343E+03  0.32636655344E+03  0.25500000000E-02 0. -1.
         -2   -1    0    0    0  501 -0.00000000000E+00 -0.00000000000E+00 -0.65956888388E+03  0.65956888388E+03  0.25500000000E-02 0.  1.
    8880022    1    1    2    0    0 -0.27869731422E+03 -0.19027208973E+03  0.13013188677E+03  0.39268514366E+03  0.15294330000E+03 0.  0.
    8880022    1    1    2    0    0  0.27869731422E+03  0.19027208973E+03 -0.46333421721E+03  0.59325029367E+03  0.15294330000E+03 0.  0.
<mgrwt>
<rscale>  0 0.37049604E+03</rscale>
<asrwt>0</asrwt>
<pdfrwt beam="1">  1        2 0.50210239E-01 0.37049604E+03</pdfrwt>
<pdfrwt beam="2">  1       -2 0.10147214E+00 0.37049604E+03</pdfrwt>
<totfact> 0.82593368E+01</totfact>
</mgrwt>
</event>
<event>
 4    1  0.3365401E-008  0.1059104E+04  0.7818608E-02  0.9245995E-01
         -2   -1    0    0    0  501 -0.00000000000E+00  0.00000000000E+00  0.10356145828E+04  0.10356145828E+04  0.25500000000E-02 0.  1.
          2   -1    0    0  501    0  0.00000000000E+00 -0.00000000000E+00 -0.12385306916E+04  0.12385306916E+04  0.25500000000E-02 0. -1.
    8880022    1    1    2    0    0  0.39470055191E+03  0.97083497566E+03  0.30132144687E+03  0.11011336626E+04  0.15294330000E+03 0.  0.
    8880022    1    1    2    0    0 -0.39470055191E+03 -0.97083497566E+03 -0.50423755571E+03  0.11730116117E+04  0.15294330000E+03 0.  0.
<mgrwt>
<rscale>  0 0.10591037E+04</rscale>
<asrwt>0</asrwt>
<pdfrwt beam="1">  1        2 0.19054318E+00 0.10591037E+04</pdfrwt>
<pdfrwt beam="2">  1       -2 0.15932532E+00 0.10591037E+04</pdfrwt>
<totfact> 0.45102679E+00</totfact>
</mgrwt>
</event>
<event>
 4    1  0.3365401E-008  0.4549703E+03  0.7818608E-02  0.1026250E+00
         -2   -1    0    0    0  501 -0.00000000000E+00  0.00000000000E+00  0.13459339478E+04  0.13459339478E+04  0.25500000000E-02 0.  1.
          2   -1    0    0  501    0  0.00000000000E+00 -0.00000000000E+00 -0.71576020313E+03  0.71576020313E+03  0.25500000000E-02 0. -1.
    8880022    1    1    2    0    0  0.36970468038E+03  0.21662119847E+03  0.12284956305E+04  0.13100379619E+04  0.15294330000E+03 0.  0.
    8880022    1    1    2    0    0 -0.36970468038E+03 -0.21662119847E+03 -0.59832188590E+03  0.75165618901E+03  0.15294330000E+03 0.  0.
<mgrwt>
<rscale>  0 0.45497027E+03</rscale>
<asrwt>0</asrwt>
<pdfrwt beam="1">  1        2 0.11011696E+00 0.45497027E+03</pdfrwt>
<pdfrwt beam="2">  1       -2 0.20706676E+00 0.45497027E+03</pdfrwt>
<totfact> 0.51175891E+00</totfact>
</mgrwt>
</event>
<event>
 4    1  0.3365401E-008  0.5015573E+03  0.7818608E-02  0.1013373E+00
          2   -1    0    0  501    0  0.00000000000E+00  0.00000000000E+00  0.34866480814E+04  0.34866480814E+04  0.25500000000E-02 0. -1.
         -2   -1    0    0    0  501 -0.00000000000E+00 -0.00000000000E+00 -0.50093961557E+03  0.50093961558E+03  0.25500000000E-02 0.  1.
    8880022    1    1    2    0    0 -0.42071347500E+03 -0.22620388375E+03 -0.35177879310E+03  0.61262386287E+03  0.15294330000E+03 0.  0.
    8880022    1    1    2    0    0  0.42071347500E+03  0.22620388375E+03  0.33374872589E+04  0.33749638341E+04  0.15294330000E+03 0.  0.
<mgrwt>
<rscale>  0 0.50155725E+03</rscale>
<asrwt>0</asrwt>
<pdfrwt beam="1">  1        2 0.53640741E+00 0.50155725E+03</pdfrwt>
<pdfrwt beam="2">  1       -2 0.77067632E-01 0.50155725E+03</pdfrwt>
<totfact> 0.14573564E+00</totfact>
</mgrwt>
</event>
<event>
 4    1  0.3365401E-008  0.8798822E+03  0.7818608E-02  0.9451085E-01
         -2   -1    0    0    0  501 -0.00000000000E+00  0.00000000000E+00  0.86496980839E+03  0.86496980839E+03  0.25500000000E-02 0.  1.
          2   -1    0    0  501    0  0.00000000000E+00 -0.00000000000E+00 -0.10321368341E+04  0.10321368341E+04  0.25500000000E-02 0. -1.
    8880022    1    1    2    0    0 -0.73606346586E+03 -0.45717788311E+03 -0.42927468915E+03  0.97901453224E+03  0.15294330000E+03 0. -1.
    8880022    1    1    2    0    0  0.73606346586E+03  0.45717788311E+03  0.26210766347E+03  0.91809211022E+03  0.15294330000E+03 0.  0.
<mgrwt>
<rscale>  0 0.87988221E+03</rscale>
<asrwt>0</asrwt>
<pdfrwt beam="1">  1        2 0.15879028E+00 0.87988221E+03</pdfrwt>
<pdfrwt beam="2">  1       -2 0.13307228E+00 0.87988221E+03</pdfrwt>
<totfact> 0.98651860E+00</totfact>
</mgrwt>
</event>
<event>
 4    1  0.3365401E-008  0.8642459E+03  0.7818608E-02  0.9471414E-01
         -2   -1    0    0    0  501 -0.00000000000E+00  0.00000000000E+00  0.11584411759E+04  0.11584411759E+04  0.25500000000E-02 0.  1.
          2   -1    0    0  501    0  0.00000000000E+00 -0.00000000000E+00 -0.66627578450E+03  0.66627578451E+03  0.25500000000E-02 0. -1.
    8880022    1    1    2    0    0  0.28196816960E+03  0.80251065822E+03  0.41001995096E+03  0.95657588221E+03  0.15294330000E+03 0.  0.
    8880022    1    1    2    0    0 -0.28196816960E+03 -0.80251065822E+03  0.82145440414E+02  0.86814107818E+03  0.15294330000E+03 0.  0.
<mgrwt>
<rscale>  0 0.86424595E+03</rscale>
<asrwt>0</asrwt>
<pdfrwt beam="1">  1        2 0.10250397E+00 0.86424595E+03</pdfrwt>
<pdfrwt beam="2">  1       -2 0.17822172E+00 0.86424595E+03</pdfrwt>
<totfact> 0.81770362E+00</totfact>
</mgrwt>
</event>
<event>
 4    1  0.3365401E-008  0.1681245E+04  0.7818608E-02  0.8772134E-01
          2   -1    0    0  501    0  0.00000000000E+00  0.00000000000E+00  0.26340208675E+04  0.26340208675E+04  0.25500000000E-02 0. -1.
         -2   -1    0    0    0  501 -0.00000000000E+00 -0.00000000000E+00 -0.11580157678E+04  0.11580157678E+04  0.25500000000E-02 0.  1.
    8880022    1    1    2    0    0  0.73162984656E+03 -0.15059582911E+04  0.12514115475E+04  0.20958566556E+04  0.15294330000E+03 0.  0.
    8880022    1    1    2    0    0 -0.73162984656E+03  0.15059582911E+04  0.22459355219E+03  0.16961799797E+04  0.15294330000E+03 0.  0.
<mgrwt>
<rscale>  0 0.16812449E+04</rscale>
<asrwt>0</asrwt>
<pdfrwt beam="1">  1        2 0.40523398E+00 0.16812449E+04</pdfrwt>
<pdfrwt beam="2">  1       -2 0.17815627E+00 0.16812449E+04</pdfrwt>
<totfact> 0.50171825E-01</totfact>
</mgrwt>
</event>
<event>
 4    1  0.3365401E-008  0.4206458E+03  0.7818608E-02  0.1036856E+00
         -2   -1    0    0    0  501 -0.00000000000E+00  0.00000000000E+00  0.47298910608E+03  0.47298910609E+03  0.25500000000E-02 0.  1.
          2   -1    0    0  501    0  0.00000000000E+00 -0.00000000000E+00 -0.11152445055E+04  0.11152445055E+04  0.25500000000E-02 0. -1.
    8880022    1    1    2    0    0  0.87616900464E+02  0.38193523152E+03  0.32624179444E+03  0.53233129137E+03  0.15294330000E+03 0.  1.
    8880022    1    1    2    0    0 -0.87616900464E+02 -0.38193523152E+03 -0.96849719387E+03  0.10559023202E+04  0.15294330000E+03 0.  0.
<mgrwt>
<rscale>  0 0.42064581E+03</rscale>
<asrwt>0</asrwt>
<pdfrwt beam="1">  1        2 0.17157608E+00 0.42064581E+03</pdfrwt>
<pdfrwt beam="2">  1       -2 0.72767555E-01 0.42064581E+03</pdfrwt>
<totfact> 0.38619098E+01</totfact>
</mgrwt>
</event>
<event>
 4    1  0.3365401E-008  0.8323812E+03  0.7818608E-02  0.9514294E-01
         -2   -1    0    0    0  501 -0.00000000000E+00  0.00000000000E+00  0.96516234338E+03  0.96516234338E+03  0.25500000000E-02 0.  1.
          2   -1    0    0  501    0  0.00000000000E+00 -0.00000000000E+00 -0.97697986782E+03  0.97697986782E+03  0.25500000000E-02 0. -1.
    8880022    1    1    2    0    0 -0.81120793190E+03  0.10681031642E+03  0.49418626161E+03  0.96802813319E+03  0.15294330000E+03 0.  0.
    8880022    1    1    2    0    0  0.81120793190E+03 -0.10681031642E+03 -0.50600378604E+03  0.97411407801E+03  0.15294330000E+03 0.  0.
<mgrwt>
<rscale>  0 0.83238117E+03</rscale>
<asrwt>0</asrwt>
<pdfrwt beam="1">  1        2 0.15030460E+00 0.83238117E+03</pdfrwt>
<pdfrwt beam="2">  1       -2 0.14848651E+00 0.83238117E+03</pdfrwt>
<totfact> 0.80894081E+00</totfact>
</mgrwt>
</event>
<event>
 4    1  0.3365401E-008  0.3585325E+03  0.7818608E-02  0.1059166E+00
          2   -1    0    0  501    0  0.00000000000E+00  0.00000000000E+00  0.36441902088E+03  0.36441902089E+03  0.25500000000E-02 0. -1.
         -2   -1    0    0    0  501 -0.00000000000E+00 -0.00000000000E+00 -0.87446859402E+03  0.87446859402E+03  0.25500000000E-02 0.  1.
    8880022    1    1    2    0    0  0.32427269724E+03 -0.10660346739E+01  0.22344185363E+03  0.42245926854E+03  0.15294330000E+03 0. -1.
    8880022    1    1    2    0    0 -0.32427269724E+03  0.10660346739E+01 -0.73349142677E+03  0.81642834637E+03  0.15294330000E+03 0.  0.
<mgrwt>
<rscale>  0 0.35853253E+03</rscale>
<asrwt>0</asrwt>
<pdfrwt beam="1">  1        2 0.56064465E-01 0.35853253E+03</pdfrwt>
<pdfrwt beam="2">  1       -2 0.13453363E+00 0.35853253E+03</pdfrwt>
<totfact> 0.36909713E+01</totfact>
</mgrwt>
</event>
<event>
 4    1  0.3365401E-008  0.1028015E+04  0.7818608E-02  0.9278341E-01
          2   -1    0    0  501    0  0.00000000000E+00  0.00000000000E+00  0.30759402346E+04  0.30759402346E+04  0.25500000000E-02 0. -1.
         -2   -1    0    0    0  501 -0.00000000000E+00 -0.00000000000E+00 -0.42507967243E+03  0.42507967243E+03  0.25500000000E-02 0.  1.
    8880022    1    1    2    0    0 -0.92994323136E+03  0.41064344817E+03  0.20919484468E+04  0.23308930503E+04  0.15294330000E+03 0.  0.
    8880022    1    1    2    0    0  0.92994323136E+03 -0.41064344817E+03  0.55891211544E+03  0.11701268567E+04  0.15294330000E+03 0.  0.
<mgrwt>
<rscale>  0 0.10280146E+04</rscale>
<asrwt>0</asrwt>
<pdfrwt beam="1">  1        2 0.47322158E+00 0.10280146E+04</pdfrwt>
<pdfrwt beam="2">  1       -2 0.65396872E-01 0.10280146E+04</pdfrwt>
<totfact> 0.34266424E+00</totfact>
</mgrwt>
</event>
<event>
 4    1  0.3365401E-008  0.3501645E+03  0.7818608E-02  0.1062548E+00
          2   -1    0    0  501    0  0.00000000000E+00  0.00000000000E+00  0.14150094759E+04  0.14150094759E+04  0.25500000000E-02 0. -1.
         -2   -1    0    0    0  501 -0.00000000000E+00 -0.00000000000E+00 -0.19601853517E+03  0.19601853519E+03  0.25500000000E-02 0.  1.
    8880022    1    1    2    0    0  0.29999806229E+03 -0.96045239120E+02  0.78172942383E+01  0.35025175009E+03  0.15294330000E+03 0.  0.
    8880022    1    1    2    0    0 -0.29999806229E+03  0.96045239120E+02  0.12111736465E+04  0.12607762610E+04  0.15294330000E+03 0. -1.
<mgrwt>
<rscale>  0 0.35016450E+03</rscale>
<asrwt>0</asrwt>
<pdfrwt beam="1">  1        2 0.21769376E+00 0.35016450E+03</pdfrwt>
<pdfrwt beam="2">  1       -2 0.30156698E-01 0.35016450E+03</pdfrwt>
<totfact> 0.15295783E+02</totfact>
</mgrwt>
</event>
<event>
 4    1  0.3365401E-008  0.8762717E+03  0.7818608E-02  0.9455739E-01
          2   -1    0    0  501    0  0.00000000000E+00  0.00000000000E+00  0.73789300189E+03  0.73789300189E+03  0.25500000000E-02 0. -1.
         -2   -1    0    0    0  501 -0.00000000000E+00 -0.00000000000E+00 -0.14009352102E+04  0.14009352102E+04  0.25500000000E-02 0.  1.
    8880022    1    1    2    0    0 -0.70314665147E+03 -0.50004529655E+03 -0.87388360669E+03  0.12375478670E+04  0.15294330000E+03 0.  0.
    8880022    1    1    2    0    0  0.70314665147E+03  0.50004529655E+03  0.21084139842E+03  0.90128034505E+03  0.15294330000E+03 0.  0.
<mgrwt>
<rscale>  0 0.87627174E+03</rscale>
<asrwt>0</asrwt>
<pdfrwt beam="1">  1        2 0.11352200E+00 0.87627174E+03</pdfrwt>
<pdfrwt beam="2">  1       -2 0.21552849E+00 0.87627174E+03</pdfrwt>
<totfact> 0.40729709E+00</totfact>
</mgrwt>
</event>
<event>
 4    1  0.7890506E-008  0.9210703E+03  0.7818608E-02  0.9399619E-01
          2   -1    0    0  501    0  0.00000000000E+00  0.00000000000E+00  0.18819726054E+04  0.18819726054E+04  0.25500000000E-02 0. -1.
         -2   -1    0    0    0  501 -0.00000000000E+00 -0.00000000000E+00 -0.20178375759E+04  0.20178375759E+04  0.25500000000E-02 0.  1.
    8880022    1    1    2    0    0 -0.55278645604E+03  0.72069832049E+03 -0.17862829490E+04  0.20097704750E+04  0.15294330000E+03 0.  0.
    8880022    1    1    2    0    0  0.55278645604E+03 -0.72069832049E+03  0.16504179784E+04  0.18900397064E+04  0.15294330000E+03 0.  0.
<mgrwt>
<rscale>  0 0.92107035E+03</rscale>
<asrwt>0</asrwt>
<pdfrwt beam="1">  1        2 0.28953424E+00 0.92107035E+03</pdfrwt>
<pdfrwt beam="2">  1       -2 0.31043655E+00 0.92107035E+03</pdfrwt>
<totfact> 0.21865078E-01</totfact>
</mgrwt>
</event>
<event>
 4    1  0.3365401E-008  0.4846588E+03  0.7818608E-02  0.1017863E+00
          2   -1    0    0  501    0  0.00000000000E+00  0.00000000000E+00  0.27380262782E+04  0.27380262782E+04  0.25500000000E-02 0. -1.
         -2   -1    0    0    0  501 -0.00000000000E+00 -0.00000000000E+00 -0.18690763378E+03  0.18690763380E+03  0.25500000000E-02 0.  1.
    8880022    1    1    2    0    0  0.16222972112E+02  0.45960779371E+03  0.19986998393E+03  0.52425391973E+03  0.15294330000E+03 0.  1.
    8880022    1    1    2    0    0 -0.16222972112E+02 -0.45960779371E+03  0.23512486605E+04  0.24006799922E+04  0.15294330000E+03 0.  0.
<mgrwt>
<rscale>  0 0.48465881E+03</rscale>
<asrwt>0</asrwt>
<pdfrwt beam="1">  1        2 0.42123477E+00 0.48465881E+03</pdfrwt>
<pdfrwt beam="2">  1       -2 0.28755023E-01 0.48465881E+03</pdfrwt>
<totfact> 0.30838891E+01</totfact>
</mgrwt>
</event>
<event>
 4    1  0.3365401E-008  0.3816859E+03  0.7818608E-02  0.1050312E+00
          2   -1    0    0  501    0  0.00000000000E+00  0.00000000000E+00  0.58253694707E+03  0.58253694707E+03  0.25500000000E-02 0. -1.
         -2   -1    0    0    0  501 -0.00000000000E+00 -0.00000000000E+00 -0.58599147805E+03  0.58599147805E+03  0.25500000000E-02 0.  1.
    8880022    1    1    2    0    0  0.67415420121E+02  0.34314370401E+03 -0.44408379968E+03  0.58557195512E+03  0.15294330000E+03 0.  0.
    8880022    1    1    2    0    0 -0.67415420121E+02 -0.34314370401E+03  0.44062926870E+03  0.58295647001E+03  0.15294330000E+03 0. -1.
<mgrwt>
<rscale>  0 0.38168586E+03</rscale>
<asrwt>0</asrwt>
<pdfrwt beam="1">  1        2 0.89621069E-01 0.38168586E+03</pdfrwt>
<pdfrwt beam="2">  1       -2 0.90152535E-01 0.38168586E+03</pdfrwt>
<totfact> 0.56664714E+01</totfact>
</mgrwt>
</event>
<event>
 4    1  0.3365401E-008  0.4984099E+03  0.7818608E-02  0.1014195E+00
         -2   -1    0    0    0  501 -0.00000000000E+00  0.00000000000E+00  0.60943781844E+03  0.60943781845E+03  0.25500000000E-02 0.  1.
          2   -1    0    0  501    0  0.00000000000E+00 -0.00000000000E+00 -0.10605529260E+04  0.10605529260E+04  0.25500000000E-02 0. -1.
    8880022    1    1    2    0    0 -0.11607075367E+03 -0.45994388188E+03  0.42961512642E+03  0.65801337692E+03  0.15294330000E+03 0.  0.
    8880022    1    1    2    0    0  0.11607075367E+03  0.45994388188E+03 -0.88073023396E+03  0.10119773675E+04  0.15294330000E+03 0.  0.
<mgrwt>
<rscale>  0 0.49840992E+03</rscale>
<asrwt>0</asrwt>
<pdfrwt beam="1">  1        2 0.16316199E+00 0.49840992E+03</pdfrwt>
<pdfrwt beam="2">  1       -2 0.93759664E-01 0.49840992E+03</pdfrwt>
<totfact> 0.23270965E+01</totfact>
</mgrwt>
</event>
<event>
 4    1  0.3365401E-008  0.6726670E+03  0.7818608E-02  0.9765152E-01
         -2   -1    0    0    0  501 -0.00000000000E+00  0.00000000000E+00  0.85158210334E+03  0.85158210334E+03  0.25500000000E-02 0.  1.
          2   -1    0    0  501    0  0.00000000000E+00 -0.00000000000E+00 -0.15118017276E+04  0.15118017276E+04  0.25500000000E-02 0. -1.
    8880022    1    1    2    0    0 -0.53605146498E+03  0.37648118434E+03 -0.12817479473E+04  0.14475353912E+04  0.15294330000E+03 0.  0.
    8880022    1    1    2    0    0  0.53605146498E+03 -0.37648118434E+03  0.62152832305E+03  0.91584843977E+03  0.15294330000E+03 0.  0.
<mgrwt>
<rscale>  0 0.67266701E+03</rscale>
<asrwt>0</asrwt>
<pdfrwt beam="1">  1        2 0.23258488E+00 0.67266701E+03</pdfrwt>
<pdfrwt beam="2">  1       -2 0.13101263E+00 0.67266701E+03</pdfrwt>
<totfact> 0.55272123E+00</totfact>
</mgrwt>
</event>
<event>
 4    1  0.3365401E-008  0.5362505E+03  0.7818608E-02  0.1004727E+00
         -2   -1    0    0    0  501 -0.00000000000E+00  0.00000000000E+00  0.60792486750E+03  0.60792486751E+03  0.25500000000E-02 0.  1.
          2   -1    0    0  501    0  0.00000000000E+00 -0.00000000000E+00 -0.11597185176E+04  0.11597185176E+04  0.25500000000E-02 0. -1.
    8880022    1    1    2    0    0 -0.26283977503E+03 -0.44168793845E+03 -0.95599142669E+03  0.10961223669E+04  0.15294330000E+03 0.  0.
    8880022    1    1    2    0    0  0.26283977503E+03  0.44168793845E+03  0.40419777658E+03  0.67152101822E+03  0.15294330000E+03 0.  0.
<mgrwt>
<rscale>  0 0.53625053E+03</rscale>
<asrwt>0</asrwt>
<pdfrwt beam="1">  1        2 0.17841823E+00 0.53625053E+03</pdfrwt>
<pdfrwt beam="2">  1       -2 0.93526903E-01 0.53625053E+03</pdfrwt>
<totfact> 0.20278984E+01</totfact>
</mgrwt>
</event>
<event>
 4    1  0.3365401E-008  0.3264668E+03  0.7818608E-02  0.1072711E+00
          2   -1    0    0  501    0  0.00000000000E+00  0.00000000000E+00  0.19950412564E+04  0.19950412564E+04  0.25500000000E-02 0. -1.
         -2   -1    0    0    0  501 -0.00000000000E+00 -0.00000000000E+00 -0.26157471771E+03  0.26157471772E+03  0.25500000000E-02 0.  1.
    8880022    1    1    2    0    0  0.27803134695E+03  0.76730002542E+02  0.18732477965E+04  0.19014830747E+04  0.15294330000E+03 0.  0.
    8880022    1    1    2    0    0 -0.27803134695E+03 -0.76730002542E+02 -0.13978125785E+03  0.35513289940E+03  0.15294330000E+03 0.  1.
<mgrwt>
<rscale>  0 0.32646681E+03</rscale>
<asrwt>0</asrwt>
<pdfrwt beam="1">  1        2 0.30692943E+00 0.32646681E+03</pdfrwt>
<pdfrwt beam="2">  1       -2 0.40242264E-01 0.32646681E+03</pdfrwt>
<totfact> 0.43818733E+01</totfact>
</mgrwt>
</event>
<event>
 4    1  0.3365401E-008  0.6022115E+03  0.7818608E-02  0.9900828E-01
         -2   -1    0    0    0  501 -0.00000000000E+00  0.00000000000E+00  0.44011795726E+03  0.44011795727E+03  0.25500000000E-02 0.  1.
          2   -1    0    0  501    0  0.00000000000E+00 -0.00000000000E+00 -0.14634773227E+04  0.14634773227E+04  0.25500000000E-02 0. -1.
    8880022    1    1    2    0    0 -0.58243754182E+03  0.57937088760E+01  0.11748310978E+03  0.61356417047E+03  0.15294330000E+03 0.  0.
    8880022    1    1    2    0    0  0.58243754182E+03 -0.57937088760E+01 -0.11408424752E+04  0.12900311095E+04  0.15294330000E+03 0.  0.
<mgrwt>
<rscale>  0 0.60221152E+03</rscale>
<asrwt>0</asrwt>
<pdfrwt beam="1">  1        2 0.22515036E+00 0.60221152E+03</pdfrwt>
<pdfrwt beam="2">  1       -2 0.67710455E-01 0.60221152E+03</pdfrwt>
<totfact> 0.27738010E+01</totfact>
</mgrwt>
</event>
<event>
 4    1  0.3365401E-008  0.6079559E+03  0.7818608E-02  0.9889036E-01
          2   -1    0    0  501    0  0.00000000000E+00  0.00000000000E+00  0.15600909809E+04  0.15600909809E+04  0.25500000000E-02 0. -1.
         -2   -1    0    0    0  501 -0.00000000000E+00 -0.00000000000E+00 -0.30497763011E+03  0.30497763012E+03  0.25500000000E-02 0.  1.
    8880022    1    1    2    0    0 -0.34327032151E+03  0.47789557207E+03  0.10680936312E+04  0.12289972943E+04  0.15294330000E+03 0.  0.
    8880022    1    1    2    0    0  0.34327032151E+03 -0.47789557207E+03  0.18701971964E+03  0.63607131674E+03  0.15294330000E+03 0.  0.
<mgrwt>
<rscale>  0 0.60795587E+03</rscale>
<asrwt>0</asrwt>
<pdfrwt beam="1">  1        2 0.24001400E+00 0.60795587E+03</pdfrwt>
<pdfrwt beam="2">  1       -2 0.46919636E-01 0.60795587E+03</pdfrwt>
<totfact> 0.52563785E+01</totfact>
</mgrwt>
</event>
<event>
 4    1  0.3365401E-008  0.8840408E+03  0.7818608E-02  0.9445754E-01
          2   -1    0    0  501    0  0.00000000000E+00  0.00000000000E+00  0.34888018100E+04  0.34888018100E+04  0.25500000000E-02 0. -1.
         -2   -1    0    0    0  501 -0.00000000000E+00 -0.00000000000E+00 -0.22686251421E+03  0.22686251422E+03  0.25500000000E-02 0.  1.
    8880022    1    1    2    0    0 -0.61033463275E+02  0.86856859582E+03  0.18392762501E+04  0.20407021503E+04  0.15294330000E+03 0.  0.
    8880022    1    1    2    0    0  0.61033463275E+02 -0.86856859582E+03  0.14226630457E+04  0.16749621739E+04  0.15294330000E+03 0.  0.
<mgrwt>
<rscale>  0 0.88404080E+03</rscale>
<asrwt>0</asrwt>
<pdfrwt beam="1">  1        2 0.53673870E+00 0.88404080E+03</pdfrwt>
<pdfrwt beam="2">  1       -2 0.34901928E-01 0.88404080E+03</pdfrwt>
<totfact> 0.67283046E+00</totfact>
</mgrwt>
</event>
<event>
 4    1  0.3365401E-008  0.3317383E+03  0.7818608E-02  0.1070370E+00
          2   -1    0    0  501    0  0.00000000000E+00  0.00000000000E+00  0.18971828293E+04  0.18971828293E+04  0.25500000000E-02 0. -1.
         -2   -1    0    0    0  501 -0.00000000000E+00 -0.00000000000E+00 -0.50289989714E+03  0.50289989715E+03  0.25500000000E-02 0.  1.
    8880022    1    1    2    0    0 -0.15579266551E+03 -0.24977450513E+03 -0.43157034222E+03  0.54433746090E+03  0.15294330000E+03 0.  0.
    8880022    1    1    2    0    0  0.15579266551E+03  0.24977450513E+03  0.18258532744E+04  0.18557452655E+04  0.15294330000E+03 0.  0.
<mgrwt>
<rscale>  0 0.33173832E+03</rscale>
<asrwt>0</asrwt>
<pdfrwt beam="1">  1        2 0.29187429E+00 0.33173832E+03</pdfrwt>
<pdfrwt beam="2">  1       -2 0.77369214E-01 0.33173832E+03</pdfrwt>
<totfact> 0.12838628E+01</totfact>
</mgrwt>
</event>
<event>
 4    1  0.3365401E-008  0.1699530E+03  0.7818608E-02  0.1177897E+00
          2   -1    0    0  501    0  0.00000000000E+00  0.00000000000E+00  0.35867151651E+03  0.35867151652E+03  0.25500000000E-02 0. -1.
         -2   -1    0    0    0  501 -0.00000000000E+00 -0.00000000000E+00 -0.59849354025E+03  0.59849354025E+03  0.25500000000E-02 0.  1.
    8880022    1    1    2    0    0 -0.68063782237E+02 -0.29320724086E+02 -0.56513283668E+03  0.59013486545E+03  0.15294330000E+03 0.  1.
    8880022    1    1    2    0    0  0.68063782237E+02  0.29320724086E+02  0.32531081293E+03  0.36703019132E+03  0.15294330000E+03 0.  0.
<mgrwt>
<rscale>  0 0.16995304E+03</rscale>
<asrwt>0</asrwt>
<pdfrwt beam="1">  1        2 0.55180233E-01 0.16995304E+03</pdfrwt>
<pdfrwt beam="2">  1       -2 0.92075929E-01 0.16995304E+03</pdfrwt>
<totfact> 0.95623103E+01</totfact>
</mgrwt>
</event>
<event>
 4    1  0.3365401E-008  0.1791650E+03  0.7818608E-02  0.1168614E+00
         -2   -1    0    0    0  501 -0.00000000000E+00  0.00000000000E+00  0.88478233463E+02  0.88478233499E+02  0.25500000000E-02 0.  1.
          2   -1    0    0  501    0  0.00000000000E+00 -0.00000000000E+00 -0.14041081069E+04  0.14041081069E+04  0.25500000000E-02 0. -1.
    8880022    1    1    2    0    0  0.77586885276E+02  0.51852873639E+02 -0.15129648618E+02  0.17980268228E+03  0.15294330000E+03 0.  1.
    8880022    1    1    2    0    0 -0.77586885276E+02 -0.51852873639E+02 -0.13005002248E+04  0.13127836581E+04  0.15294330000E+03 0.  0.
<mgrwt>
<rscale>  0 0.17916500E+03</rscale>
<asrwt>0</asrwt>
<pdfrwt beam="1">  1        2 0.21601662E+00 0.17916500E+03</pdfrwt>
<pdfrwt beam="2">  1       -2 0.13612037E-01 0.17916500E+03</pdfrwt>
<totfact> 0.62782850E+02</totfact>
</mgrwt>
</event>
<event>
 4    1  0.3365401E-008  0.2440212E+03  0.7818608E-02  0.1117143E+00
         -2   -1    0    0    0  501 -0.00000000000E+00  0.00000000000E+00  0.21661048953E+03  0.21661048954E+03  0.25500000000E-02 0.  1.
          2   -1    0    0  501    0  0.00000000000E+00 -0.00000000000E+00 -0.14240635289E+04  0.14240635289E+04  0.25500000000E-02 0. -1.
    8880022    1    1    2    0    0 -0.18966900764E+03 -0.13429446501E+02 -0.13406432942E+04  0.13626704583E+04  0.15294330000E+03 0. -1.
    8880022    1    1    2    0    0  0.18966900764E+03  0.13429446501E+02  0.13319025482E+03  0.27800356020E+03  0.15294330000E+03 0.  0.
<mgrwt>
<rscale>  0 0.24402118E+03</rscale>
<asrwt>0</asrwt>
<pdfrwt beam="1">  1        2 0.21908669E+00 0.24402118E+03</pdfrwt>
<pdfrwt beam="2">  1       -2 0.33324692E-01 0.24402118E+03</pdfrwt>
<totfact> 0.12856337E+02</totfact>
</mgrwt>
</event>
<event>
 4    1  0.3365401E-008  0.2126645E+03  0.7818608E-02  0.1139473E+00
          2   -1    0    0  501    0  0.00000000000E+00  0.00000000000E+00  0.11638426381E+04  0.11638426381E+04  0.25500000000E-02 0. -1.
         -2   -1    0    0    0  501 -0.00000000000E+00 -0.00000000000E+00 -0.54721021858E+02  0.54721021917E+02  0.25500000000E-02 0.  1.
    8880022    1    1    2    0    0 -0.14769524640E+03  0.45442289624E+01  0.88259217080E+03  0.90785193110E+03  0.15294330000E+03 0. -1.
    8880022    1    1    2    0    0  0.14769524640E+03 -0.45442289624E+01  0.22652944546E+03  0.31071172894E+03  0.15294330000E+03 0.  0.
<mgrwt>
<rscale>  0 0.21266450E+03</rscale>
<asrwt>0</asrwt>
<pdfrwt beam="1">  1        2 0.17905272E+00 0.21266450E+03</pdfrwt>
<pdfrwt beam="2">  1       -2 0.84186185E-02 0.21266450E+03</pdfrwt>
<totfact> 0.18285227E+03</totfact>
</mgrwt>
</event>
<event>
 4    1  0.3365401E-008  0.2548949E+03  0.7818608E-02  0.1110250E+00
          2   -1    0    0  501    0  0.00000000000E+00  0.00000000000E+00  0.26077747694E+03  0.26077747696E+03  0.25500000000E-02 0. -1.
         -2   -1    0    0    0  501 -0.00000000000E+00 -0.00000000000E+00 -0.78577640195E+03  0.78577640195E+03  0.25500000000E-02 0.  1.
    8880022    1    1    2    0    0  0.59222133281E+02  0.19512179479E+03  0.16993481182E+03  0.30634828081E+03  0.15294330000E+03 0.  0.
    8880022    1    1    2    0    0 -0.59222133281E+02 -0.19512179479E+03 -0.69493373683E+03  0.74020559810E+03  0.15294330000E+03 0.  1.
<mgrwt>
<rscale>  0 0.25489494E+03</rscale>
<asrwt>0</asrwt>
<pdfrwt beam="1">  1        2 0.40119612E-01 0.25489494E+03</pdfrwt>
<pdfrwt beam="2">  1       -2 0.12088868E+00 0.25489494E+03</pdfrwt>
<totfact> 0.70200515E+01</totfact>
</mgrwt>
</event>
<event>
 4    1  0.3365401E-008  0.8437855E+03  0.7818608E-02  0.9498716E-01
         -2   -1    0    0    0  501 -0.00000000000E+00  0.00000000000E+00  0.71312219975E+03  0.71312219975E+03  0.25500000000E-02 0.  1.
          2   -1    0    0  501    0  0.00000000000E+00 -0.00000000000E+00 -0.16354299902E+04  0.16354299902E+04  0.25500000000E-02 0. -1.
    8880022    1    1    2    0    0  0.76757573975E+03 -0.31529318909E+03  0.27173415600E+03  0.88646117562E+03  0.15294330000E+03 0.  0.
    8880022    1    1    2    0    0 -0.76757573975E+03  0.31529318909E+03 -0.11940419465E+04  0.14620910144E+04  0.15294330000E+03 0.  0.
<mgrwt>
<rscale>  0 0.84378550E+03</rscale>
<asrwt>0</asrwt>
<pdfrwt beam="1">  1        2 0.25160461E+00 0.84378550E+03</pdfrwt>
<pdfrwt beam="2">  1       -2 0.10971111E+00 0.84378550E+03</pdfrwt>
<totfact> 0.71464156E+00</totfact>
</mgrwt>
</event>
<event>
 4    1  0.3365401E-008  0.9201005E+03  0.7818608E-02  0.9400798E-01
         -2   -1    0    0    0  501 -0.00000000000E+00  0.00000000000E+00  0.43295250088E+03  0.43295250089E+03  0.25500000000E-02 0.  1.
          2   -1    0    0  501    0  0.00000000000E+00 -0.00000000000E+00 -0.22406564714E+04  0.22406564714E+04  0.25500000000E-02 0. -1.
    8880022    1    1    2    0    0 -0.44819488123E+03 -0.78886915179E+03 -0.42685412721E+03  0.10142925067E+04  0.15294330000E+03 0.  0.
    8880022    1    1    2    0    0  0.44819488123E+03  0.78886915179E+03 -0.13808498433E+04  0.16593164656E+04  0.15294330000E+03 0.  0.
<mgrwt>
<rscale>  0 0.92010045E+03</rscale>
<asrwt>0</asrwt>
<pdfrwt beam="1">  1        2 0.34471637E+00 0.92010045E+03</pdfrwt>
<pdfrwt beam="2">  1       -2 0.66608079E-01 0.92010045E+03</pdfrwt>
<totfact> 0.10312860E+01</totfact>
</mgrwt>
</event>
<event>
 4    1  0.3365401E-008  0.4625658E+03  0.7818608E-02  0.1024040E+00
          2   -1    0    0  501    0  0.00000000000E+00  0.00000000000E+00  0.22762655372E+04  0.22762655372E+04  0.25500000000E-02 0. -1.
         -2   -1    0    0    0  501 -0.00000000000E+00 -0.00000000000E+00 -0.13433915234E+03  0.13433915236E+03  0.25500000000E-02 0.  1.
    8880022    1    1    2    0    0 -0.27264154103E+03 -0.34094285573E+03  0.41047889333E+03  0.61843351757E+03  0.15294330000E+03 0.  0.
    8880022    1    1    2    0    0  0.27264154103E+03  0.34094285573E+03  0.17314474915E+04  0.17921711720E+04  0.15294330000E+03 0.  0.
<mgrwt>
<rscale>  0 0.46256577E+03</rscale>
<asrwt>0</asrwt>
<pdfrwt beam="1">  1        2 0.35019466E+00 0.46256577E+03</pdfrwt>
<pdfrwt beam="2">  1       -2 0.20667564E-01 0.46256577E+03</pdfrwt>
<totfact> 0.10132076E+02</totfact>
</mgrwt>
</event>
<event>
 4    1  0.4193892E-008  0.9732739E+03  0.7818608E-02  0.9338353E-01
          2   -1    0    0  501    0  0.00000000000E+00  0.00000000000E+00  0.15637190627E+04  0.15637190627E+04  0.25500000000E-02 0. -1.
         -2   -1    0    0    0  501 -0.00000000000E+00 -0.00000000000E+00 -0.12762571092E+04  0.12762571092E+04  0.25500000000E-02 0.  1.
    8880022    1    1    2    0    0 -0.33312881897E+03 -0.90160719977E+03 -0.88549133309E+03  0.13158103612E+04  0.15294330000E+03 0.  0.
    8880022    1    1    2    0    0  0.33312881897E+03  0.90160719977E+03  0.11729532866E+04  0.15241658106E+04  0.15294330000E+03 0.  0.
<mgrwt>
<rscale>  0 0.97327386E+03</rscale>
<asrwt>0</asrwt>
<pdfrwt beam="1">  1        2 0.24057216E+00 0.97327386E+03</pdfrwt>
<pdfrwt beam="2">  1       -2 0.19634725E+00 0.97327386E+03</pdfrwt>
<totfact> 0.16389317E+00</totfact>
</mgrwt>
</event>
<event>
 4    1  0.3365401E-008  0.2141281E+03  0.7818608E-02  0.1138338E+00
         -2   -1    0    0    0  501 -0.00000000000E+00  0.00000000000E+00  0.26806596724E+03  0.26806596725E+03  0.25500000000E-02 0.  1.
          2   -1    0    0  501    0  0.00000000000E+00 -0.00000000000E+00 -0.63085134284E+03  0.63085134285E+03  0.25500000000E-02 0. -1.
    8880022    1    1    2    0    0  0.13744008791E+03 -0.59744452980E+02 -0.56511284573E+03  0.60432057622E+03  0.15294330000E+03 0.  0.
    8880022    1    1    2    0    0 -0.13744008791E+03  0.59744452980E+02  0.20232747013E+03  0.29459673387E+03  0.15294330000E+03 0.  0.
<mgrwt>
<rscale>  0 0.21412807E+03</rscale>
<asrwt>0</asrwt>
<pdfrwt beam="1">  1        2 0.97054053E-01 0.21412807E+03</pdfrwt>
<pdfrwt beam="2">  1       -2 0.41240918E-01 0.21412807E+03</pdfrwt>
<totfact> 0.27086576E+02</totfact>
</mgrwt>
</event>
<event>
 4    1  0.3365401E-008  0.7323376E+03  0.7818608E-02  0.9663475E-01
          2   -1    0    0  501    0  0.00000000000E+00  0.00000000000E+00  0.33934982212E+04  0.33934982212E+04  0.25500000000E-02 0. -1.
         -2   -1    0    0    0  501 -0.00000000000E+00 -0.00000000000E+00 -0.26516180997E+03  0.26516180998E+03  0.25500000000E-02 0.  1.
    8880022    1    1    2    0    0 -0.71616648850E+03  0.56741403031E+01  0.40146290494E+03  0.83515911788E+03  0.15294330000E+03 0.  0.
    8880022    1    1    2    0    0  0.71616648850E+03 -0.56741403031E+01  0.27268735063E+04  0.28235009133E+04  0.15294330000E+03 0.  0.
<mgrwt>
<rscale>  0 0.73233755E+03</rscale>
<asrwt>0</asrwt>
<pdfrwt beam="1">  1        2 0.52207661E+00 0.73233755E+03</pdfrwt>
<pdfrwt beam="2">  1       -2 0.40794128E-01 0.73233755E+03</pdfrwt>
<totfact> 0.59349703E+00</totfact>
</mgrwt>
</event>
<event>
 4    1  0.3365401E-008  0.1451072E+04  0.7818608E-02  0.8917658E-01
          2   -1    0    0  501    0  0.00000000000E+00  0.00000000000E+00  0.26216189206E+04  0.26216189206E+04  0.25500000000E-02 0. -1.
         -2   -1    0    0    0  501 -0.00000000000E+00 -0.00000000000E+00 -0.16012796774E+04  0.16012796774E+04  0.25500000000E-02 0.  1.
    8880022    1    1    2    0    0  0.14378264881E+04 -0.12195591761E+03  0.20008272600E+04  0.24716228744E+04  0.15294330000E+03 0.  0.
    8880022    1    1    2    0    0 -0.14378264881E+04  0.12195591761E+03 -0.98048801682E+03  0.17512757236E+04  0.15294330000E+03 0.  0.
<mgrwt>
<rscale>  0 0.14510720E+04</rscale>
<asrwt>0</asrwt>
<pdfrwt beam="1">  1        2 0.40332599E+00 0.14510720E+04</pdfrwt>
<pdfrwt beam="2">  1       -2 0.24635072E+00 0.14510720E+04</pdfrwt>
<totfact> 0.18885515E-01</totfact>
</mgrwt>
</event>
<event>
 4    1  0.3365401E-008  0.6560386E+03  0.7818608E-02  0.9795514E-01
          2   -1    0    0  501    0  0.00000000000E+00  0.00000000000E+00  0.10452398835E+04  0.10452398835E+04  0.25500000000E-02 0. -1.
         -2   -1    0    0    0  501 -0.00000000000E+00 -0.00000000000E+00 -0.66080341351E+03  0.66080341352E+03  0.25500000000E-02 0.  1.
    8880022    1    1    2    0    0 -0.44867395078E+03 -0.45352693250E+03  0.71589409294E+03  0.97102574525E+03  0.15294330000E+03 0.  0.
    8880022    1    1    2    0    0  0.44867395078E+03  0.45352693250E+03 -0.33145762294E+03  0.73501755179E+03  0.15294330000E+03 0.  1.
<mgrwt>
<rscale>  0 0.65603860E+03</rscale>
<asrwt>0</asrwt>
<pdfrwt beam="1">  1        2 0.16080613E+00 0.65603860E+03</pdfrwt>
<pdfrwt beam="2">  1       -2 0.10166206E+00 0.65603860E+03</pdfrwt>
<totfact> 0.19246809E+01</totfact>
</mgrwt>
</event>
<event>
 4    1  0.3365401E-008  0.3302822E+03  0.7818608E-02  0.1071012E+00
         -2   -1    0    0    0  501 -0.00000000000E+00  0.00000000000E+00  0.16639901816E+03  0.16639901818E+03  0.25500000000E-02 0.  1.
          2   -1    0    0  501    0  0.00000000000E+00 -0.00000000000E+00 -0.14978666355E+04  0.14978666355E+04  0.25500000000E-02 0. -1.
    8880022    1    1    2    0    0  0.28993895618E+03  0.40374467695E+02 -0.12897392694E+04  0.13313578527E+04  0.15294330000E+03 0. -1.
    8880022    1    1    2    0    0 -0.28993895618E+03 -0.40374467695E+02 -0.41728348021E+02  0.33290780104E+03  0.15294330000E+03 0.  0.
<mgrwt>
<rscale>  0 0.33028223E+03</rscale>
<asrwt>0</asrwt>
<pdfrwt beam="1">  1        2 0.23044101E+00 0.33028223E+03</pdfrwt>
<pdfrwt beam="2">  1       -2 0.25599850E-01 0.33028223E+03</pdfrwt>
<totfact> 0.18604167E+02</totfact>
</mgrwt>
</event>
<event>
 4    1  0.3365401E-008  0.3780279E+03  0.7818608E-02  0.1051665E+00
         -2   -1    0    0    0  501 -0.00000000000E+00  0.00000000000E+00  0.38256494409E+03  0.38256494409E+03  0.25500000000E-02 0.  1.
          2   -1    0    0  501    0  0.00000000000E+00 -0.00000000000E+00 -0.63858322234E+03  0.63858322234E+03  0.25500000000E-02 0. -1.
    8880022    1    1    2    0    0  0.15072332230E+03 -0.31112036929E+03  0.20092172234E+03  0.42810582290E+03  0.15294330000E+03 0.  1.
    8880022    1    1    2    0    0 -0.15072332230E+03  0.31112036929E+03 -0.45694000060E+03  0.59304234354E+03  0.15294330000E+03 0.  0.
<mgrwt>
<rscale>  0 0.37802785E+03</rscale>
<asrwt>0</asrwt>
<pdfrwt beam="1">  1        2 0.98243572E-01 0.37802785E+03</pdfrwt>
<pdfrwt beam="2">  1       -2 0.58856145E-01 0.37802785E+03</pdfrwt>
<totfact> 0.12882963E+02</totfact>
</mgrwt>
</event>
<event>
 4    1  0.3365401E-008  0.5138678E+03  0.7818608E-02  0.1010221E+00
          2   -1    0    0  501    0  0.00000000000E+00  0.00000000000E+00  0.12477216134E+04  0.12477216134E+04  0.25500000000E-02 0. -1.
         -2   -1    0    0    0  501 -0.00000000000E+00 -0.00000000000E+00 -0.26734501934E+03  0.26734501936E+03  0.25500000000E-02 0.  1.
    8880022    1    1    2    0    0 -0.27063313276E+03 -0.40917745973E+03  0.83599769671E+03  0.98130132376E+03  0.15294330000E+03 0.  0.
    8880022    1    1    2    0    0  0.27063313276E+03  0.40917745973E+03  0.14437889738E+03  0.53376530903E+03  0.15294330000E+03 0.  0.
<mgrwt>
<rscale>  0 0.51386782E+03</rscale>
<asrwt>0</asrwt>
<pdfrwt beam="1">  1        2 0.19195717E+00 0.51386782E+03</pdfrwt>
<pdfrwt beam="2">  1       -2 0.41130003E-01 0.51386782E+03</pdfrwt>
<totfact> 0.10325008E+02</totfact>
</mgrwt>
</event>
<event>
 4    1  0.3365401E-008  0.4109676E+03  0.7818608E-02  0.1040047E+00
          2   -1    0    0  501    0  0.00000000000E+00  0.00000000000E+00  0.27621212273E+04  0.27621212273E+04  0.25500000000E-02 0. -1.
         -2   -1    0    0    0  501 -0.00000000000E+00 -0.00000000000E+00 -0.15156337048E+03  0.15156337050E+03  0.25500000000E-02 0.  1.
    8880022    1    1    2    0    0 -0.15766235249E+03  0.34734027585E+03  0.18005257009E+03  0.44867946870E+03  0.15294330000E+03 0.  0.
    8880022    1    1    2    0    0  0.15766235249E+03 -0.34734027585E+03  0.24305052868E+04  0.24650051291E+04  0.15294330000E+03 0.  0.
<mgrwt>
<rscale>  0 0.41096756E+03</rscale>
<asrwt>0</asrwt>
<pdfrwt beam="1">  1        2 0.42494171E+00 0.41096756E+03</pdfrwt>
<pdfrwt beam="2">  1       -2 0.23317443E-01 0.41096756E+03</pdfrwt>
<totfact> 0.44353947E+01</totfact>
</mgrwt>
</event>
<event>
 4    1  0.3365401E-008  0.2520395E+03  0.7818608E-02  0.1112023E+00
         -2   -1    0    0    0  501 -0.00000000000E+00  0.00000000000E+00  0.18599307431E+04  0.18599307431E+04  0.25500000000E-02 0.  1.
          2   -1    0    0  501    0  0.00000000000E+00 -0.00000000000E+00 -0.20845925947E+03  0.20845925949E+03  0.25500000000E-02 0. -1.
    8880022    1    1    2    0    0  0.18632597005E+03 -0.73585895668E+02  0.17714222627E+04  0.17892626238E+04  0.15294330000E+03 0.  0.
    8880022    1    1    2    0    0 -0.18632597005E+03  0.73585895668E+02 -0.11995077909E+03  0.27912737876E+03  0.15294330000E+03 0.  0.
<mgrwt>
<rscale>  0 0.25203949E+03</rscale>
<asrwt>0</asrwt>
<pdfrwt beam="1">  1        2 0.32070656E-01 0.25203949E+03</pdfrwt>
<pdfrwt beam="2">  1       -2 0.28614319E+00 0.25203949E+03</pdfrwt>
<totfact> 0.72695125E+00</totfact>
</mgrwt>
</event>
<event>
 4    1  0.3365401E-008  0.7190668E+03  0.7818608E-02  0.9685170E-01
         -2   -1    0    0    0  501 -0.00000000000E+00  0.00000000000E+00  0.10856825112E+04  0.10856825112E+04  0.25500000000E-02 0.  1.
          2   -1    0    0  501    0  0.00000000000E+00 -0.00000000000E+00 -0.59052904671E+03  0.59052904671E+03  0.25500000000E-02 0. -1.
    8880022    1    1    2    0    0  0.69241856803E+03 -0.11925552369E+03 -0.12111233893E+03  0.72919490189E+03  0.15294330000E+03 0.  0.
    8880022    1    1    2    0    0 -0.69241856803E+03  0.11925552369E+03  0.61626580339E+03  0.94701665600E+03  0.15294330000E+03 0.  0.
<mgrwt>
<rscale>  0 0.71906676E+03</rscale>
<asrwt>0</asrwt>
<pdfrwt beam="1">  1        2 0.90850623E-01 0.71906676E+03</pdfrwt>
<pdfrwt beam="2">  1       -2 0.16702808E+00 0.71906676E+03</pdfrwt>
<totfact> 0.11533770E+01</totfact>
</mgrwt>
</event>
<event>
 4    1  0.3365401E-008  0.1931388E+03  0.7818608E-02  0.1155660E+00
          2   -1    0    0  501    0  0.00000000000E+00  0.00000000000E+00  0.89030609163E+03  0.89030609163E+03  0.25500000000E-02 0. -1.
         -2   -1    0    0    0  501 -0.00000000000E+00 -0.00000000000E+00 -0.52370221609E+03  0.52370221609E+03  0.25500000000E-02 0.  1.
    8880022    1    1    2    0    0  0.26731558744E+02  0.11487539726E+03  0.86143478865E+03  0.88282075261E+03  0.15294330000E+03 0. -1.
    8880022    1    1    2    0    0 -0.26731558744E+02 -0.11487539726E+03 -0.49483091311E+03  0.53118755512E+03  0.15294330000E+03 0.  0.
<mgrwt>
<rscale>  0 0.19313877E+03</rscale>
<asrwt>0</asrwt>
<pdfrwt beam="1">  1        2 0.13697017E+00 0.19313877E+03</pdfrwt>
<pdfrwt beam="2">  1       -2 0.80569571E-01 0.19313877E+03</pdfrwt>
<totfact> 0.44834287E+01</totfact>
</mgrwt>
</event>
<event>
 4    1  0.3365401E-008  0.1136858E+04  0.7818608E-02  0.9169994E-01
         -2   -1    0    0    0  501 -0.00000000000E+00  0.00000000000E+00  0.89087361652E+03  0.89087361653E+03  0.25500000000E-02 0.  1.
          2   -1    0    0  501    0  0.00000000000E+00 -0.00000000000E+00 -0.37572248924E+04  0.37572248924E+04  0.25500000000E-02 0. -1.
    8880022    1    1    2    0    0 -0.34562410165E+03  0.10721934959E+04 -0.32540704784E+04  0.34469437541E+04  0.15294330000E+03 0.  0.
    8880022    1    1    2    0    0  0.34562410165E+03 -0.10721934959E+04  0.38771920251E+03  0.12011547549E+04  0.15294330000E+03 0.  0.
<mgrwt>
<rscale>  0 0.11368582E+04</rscale>
<asrwt>0</asrwt>
<pdfrwt beam="1">  1        2 0.57803459E+00 0.11368582E+04</pdfrwt>
<pdfrwt beam="2">  1       -2 0.13705748E+00 0.11368582E+04</pdfrwt>
<totfact> 0.20343042E-01</totfact>
</mgrwt>
</event>
<event>
 4    1  0.3365401E-008  0.7631515E+03  0.7818608E-02  0.9614941E-01
         -2   -1    0    0    0  501 -0.00000000000E+00  0.00000000000E+00  0.45561668667E+03  0.45561668668E+03  0.25500000000E-02 0.  1.
          2   -1    0    0  501    0  0.00000000000E+00 -0.00000000000E+00 -0.18892284285E+04  0.18892284286E+04  0.25500000000E-02 0. -1.
    8880022    1    1    2    0    0  0.49612662567E+03 -0.55934505084E+03 -0.50078138143E+02  0.76479277424E+03  0.15294330000E+03 0.  0.
    8880022    1    1    2    0    0 -0.49612662567E+03  0.55934505084E+03 -0.13835336037E+04  0.15800523410E+04  0.15294330000E+03 0.  0.
<mgrwt>
<rscale>  0 0.76315147E+03</rscale>
<asrwt>0</asrwt>
<pdfrwt beam="1">  1        2 0.29065052E+00 0.76315147E+03</pdfrwt>
<pdfrwt beam="2">  1       -2 0.70094876E-01 0.76315147E+03</pdfrwt>
<totfact> 0.14702535E+01</totfact>
</mgrwt>
</event>
<event>
 4    1  0.3365401E-008  0.7285270E+03  0.7818608E-02  0.9669654E-01
         -2   -1    0    0    0  501 -0.00000000000E+00  0.00000000000E+00  0.31600221177E+03  0.31600221178E+03  0.25500000000E-02 0.  1.
          2   -1    0    0  501    0  0.00000000000E+00 -0.00000000000E+00 -0.23861122604E+04  0.23861122604E+04  0.25500000000E-02 0. -1.
    8880022    1    1    2    0    0  0.70880663114E+03 -0.70378248158E+02 -0.17702351024E+04  0.19142841767E+04  0.15294330000E+03 0.  0.
    8880022    1    1    2    0    0 -0.70880663114E+03  0.70378248158E+02 -0.29987494621E+03  0.78783029552E+03  0.15294330000E+03 0.  0.
<mgrwt>
<rscale>  0 0.72852700E+03</rscale>
<asrwt>0</asrwt>
<pdfrwt beam="1">  1        2 0.36709418E+00 0.72852700E+03</pdfrwt>
<pdfrwt beam="2">  1       -2 0.48615726E-01 0.72852700E+03</pdfrwt>
<totfact> 0.16989506E+01</totfact>
</mgrwt>
</event>
<event>
 4    1  0.3365401E-008  0.4162248E+03  0.7818608E-02  0.1038302E+00
          2   -1    0    0  501    0  0.00000000000E+00  0.00000000000E+00  0.16417090233E+04  0.16417090233E+04  0.25500000000E-02 0. -1.
         -2   -1    0    0    0  501 -0.00000000000E+00 -0.00000000000E+00 -0.28599168426E+03  0.28599168427E+03  0.25500000000E-02 0.  1.
    8880022    1    1    2    0    0  0.38696043057E+03 -0.10633224078E+02  0.14435084218E+04  0.15023180945E+04  0.15294330000E+03 0.  0.
    8880022    1    1    2    0    0 -0.38696043057E+03  0.10633224078E+02 -0.87791082736E+02  0.42538261307E+03  0.15294330000E+03 0.  0.
<mgrwt>
<rscale>  0 0.41622481E+03</rscale>
<asrwt>0</asrwt>
<pdfrwt beam="1">  1        2 0.25257062E+00 0.41622481E+03</pdfrwt>
<pdfrwt beam="2">  1       -2 0.43998721E-01 0.41622481E+03</pdfrwt>
<totfact> 0.55593981E+01</totfact>
</mgrwt>
</event>
<event>
 4    1  0.3365401E-008  0.1846491E+03  0.7818608E-02  0.1163378E+00
         -2   -1    0    0    0  501 -0.00000000000E+00  0.00000000000E+00  0.10315289276E+04  0.10315289276E+04  0.25500000000E-02 0.  1.
          2   -1    0    0  501    0  0.00000000000E+00 -0.00000000000E+00 -0.94932911537E+02  0.94932911571E+02  0.25500000000E-02 0. -1.
    8880022    1    1    2    0    0  0.68036347662E+02 -0.77940227954E+02  0.92302676091E+03  0.94131486661E+03  0.15294330000E+03 0.  1.
    8880022    1    1    2    0    0 -0.68036347662E+02  0.77940227954E+02  0.13569255120E+02  0.18514697253E+03  0.15294330000E+03 0.  0.
<mgrwt>
<rscale>  0 0.18464906E+03</rscale>
<asrwt>0</asrwt>
<pdfrwt beam="1">  1        2 0.14605062E-01 0.18464906E+03</pdfrwt>
<pdfrwt beam="2">  1       -2 0.15869677E+00 0.18464906E+03</pdfrwt>
<totfact> 0.11097856E+02</totfact>
</mgrwt>
</event>
<event>
 4    1  0.3365401E-008  0.5594723E+03  0.7818608E-02  0.9993249E-01
         -2   -1    0    0    0  501 -0.00000000000E+00  0.00000000000E+00  0.84001997513E+03  0.84001997514E+03  0.25500000000E-02 0.  1.
          2   -1    0    0  501    0  0.00000000000E+00 -0.00000000000E+00 -0.81252994771E+03  0.81252994772E+03  0.25500000000E-02 0. -1.
    8880022    1    1    2    0    0 -0.35366915285E+03  0.40562999041E+03  0.62172072051E+03  0.83638858560E+03  0.15294330000E+03 0.  0.
    8880022    1    1    2    0    0  0.35366915285E+03 -0.40562999041E+03 -0.59423069309E+03  0.81616133725E+03  0.15294330000E+03 0.  0.
<mgrwt>
<rscale>  0 0.55947226E+03</rscale>
<asrwt>0</asrwt>
<pdfrwt beam="1">  1        2 0.12500461E+00 0.55947226E+03</pdfrwt>
<pdfrwt beam="2">  1       -2 0.12923384E+00 0.55947226E+03</pdfrwt>
<totfact> 0.15448084E+01</totfact>
</mgrwt>
</event>
<event>
 4    1  0.3365401E-008  0.7488730E+03  0.7818608E-02  0.9637120E-01
          2   -1    0    0  501    0  0.00000000000E+00  0.00000000000E+00  0.73753459609E+03  0.73753459609E+03  0.25500000000E-02 0. -1.
         -2   -1    0    0    0  501 -0.00000000000E+00 -0.00000000000E+00 -0.77920011807E+03  0.77920011807E+03  0.25500000000E-02 0.  1.
    8880022    1    1    2    0    0  0.55944179255E+03  0.47375518858E+03 -0.13867491292E+03  0.76160454466E+03  0.15294330000E+03 0.  0.
    8880022    1    1    2    0    0 -0.55944179255E+03 -0.47375518858E+03  0.97009390940E+02  0.75513016951E+03  0.15294330000E+03 0.  0.
<mgrwt>
<rscale>  0 0.74887299E+03</rscale>
<asrwt>0</asrwt>
<pdfrwt beam="1">  1        2 0.11346686E+00 0.74887299E+03</pdfrwt>
<pdfrwt beam="2">  1       -2 0.11987694E+00 0.74887299E+03</pdfrwt>
<totfact> 0.20691044E+01</totfact>
</mgrwt>
</event>
<event>
 4    1  0.3365401E-008  0.8480324E+03  0.7818608E-02  0.9492982E-01
         -2   -1    0    0    0  501 -0.00000000000E+00  0.00000000000E+00  0.12365295339E+04  0.12365295339E+04  0.25500000000E-02 0.  1.
          2   -1    0    0  501    0  0.00000000000E+00 -0.00000000000E+00 -0.99133052855E+03  0.99133052855E+03  0.25500000000E-02 0. -1.
    8880022    1    1    2    0    0  0.47501439382E+03  0.68565921064E+03 -0.59354506880E+03  0.10351109260E+04  0.15294330000E+03 0.  0.
    8880022    1    1    2    0    0 -0.47501439382E+03 -0.68565921064E+03  0.83874407411E+03  0.11927491364E+04  0.15294330000E+03 0.  0.
<mgrwt>
<rscale>  0 0.84803236E+03</rscale>
<asrwt>0</asrwt>
<pdfrwt beam="1">  1        2 0.15251239E+00 0.84803236E+03</pdfrwt>
<pdfrwt beam="2">  1       -2 0.19023531E+00 0.84803236E+03</pdfrwt>
<totfact> 0.39768852E+00</totfact>
</mgrwt>
</event>
<event>
 4    1  0.3365401E-008  0.6568993E+03  0.7818608E-02  0.9793919E-01
          2   -1    0    0  501    0  0.00000000000E+00  0.00000000000E+00  0.11822689626E+04  0.11822689626E+04  0.25500000000E-02 0. -1.
         -2   -1    0    0    0  501 -0.00000000000E+00 -0.00000000000E+00 -0.79564302352E+03  0.79564302352E+03  0.25500000000E-02 0.  1.
    8880022    1    1    2    0    0  0.43815881222E+03 -0.46491057448E+03  0.92089416008E+03  0.11311775696E+04  0.15294330000E+03 0.  0.
    8880022    1    1    2    0    0 -0.43815881222E+03  0.46491057448E+03 -0.53426822102E+03  0.84673441645E+03  0.15294330000E+03 0.  0.
<mgrwt>
<rscale>  0 0.65689926E+03</rscale>
<asrwt>0</asrwt>
<pdfrwt beam="1">  1        2 0.18188753E+00 0.65689926E+03</pdfrwt>
<pdfrwt beam="2">  1       -2 0.12240662E+00 0.65689926E+03</pdfrwt>
<totfact> 0.10127178E+01</totfact>
</mgrwt>
</event>
<event>
 4    1  0.3365401E-008  0.2105146E+03  0.7818608E-02  0.1141159E+00
          2   -1    0    0  501    0  0.00000000000E+00  0.00000000000E+00  0.14947010025E+04  0.14947010025E+04  0.25500000000E-02 0. -1.
         -2   -1    0    0    0  501 -0.00000000000E+00 -0.00000000000E+00 -0.26153819864E+03  0.26153819865E+03  0.25500000000E-02 0.  1.
    8880022    1    1    2    0    0  0.11753936862E+03 -0.84316274260E+02  0.14434307090E+04  0.14587009982E+04  0.15294330000E+03 0. -1.
    8880022    1    1    2    0    0 -0.11753936862E+03  0.84316274260E+02 -0.21026790516E+03  0.29753820299E+03  0.15294330000E+03 0.  0.
<mgrwt>
<rscale>  0 0.21051458E+03</rscale>
<asrwt>0</asrwt>
<pdfrwt beam="1">  1        2 0.22995400E+00 0.21051458E+03</pdfrwt>
<pdfrwt beam="2">  1       -2 0.40236645E-01 0.21051458E+03</pdfrwt>
<totfact> 0.83487167E+01</totfact>
</mgrwt>
</event>
<event>
 4    1  0.3365401E-008  0.3846848E+03  0.7818608E-02  0.1049216E+00
         -2   -1    0    0    0  501 -0.00000000000E+00  0.00000000000E+00  0.11927565117E+03  0.11927565120E+03  0.25500000000E-02 0.  1.
          2   -1    0    0  501    0  0.00000000000E+00 -0.00000000000E+00 -0.24418714331E+04  0.24418714331E+04  0.25500000000E-02 0. -1.
    8880022    1    1    2    0    0  0.24911848865E+03 -0.25006142309E+03 -0.26314548706E+03  0.46607717932E+03  0.15294330000E+03 0.  0.
    8880022    1    1    2    0    0 -0.24911848865E+03  0.25006142309E+03 -0.20594502949E+04  0.20950699050E+04  0.15294330000E+03 0.  0.
<mgrwt>
<rscale>  0 0.38468479E+03</rscale>
<asrwt>0</asrwt>
<pdfrwt beam="1">  1        2 0.37567249E+00 0.38468479E+03</pdfrwt>
<pdfrwt beam="2">  1       -2 0.18350102E-01 0.38468479E+03</pdfrwt>
<totfact> 0.10257546E+02</totfact>
</mgrwt>
</event>
<event>
 4    1  0.3365401E-008  0.3244185E+03  0.7818608E-02  0.1073634E+00
          2   -1    0    0  501    0  0.00000000000E+00  0.00000000000E+00  0.10766852316E+04  0.10766852316E+04  0.25500000000E-02 0. -1.
         -2   -1    0    0    0  501 -0.00000000000E+00 -0.00000000000E+00 -0.34816983593E+03  0.34816983594E+03  0.25500000000E-02 0.  1.
    8880022    1    1    2    0    0 -0.21211028598E+02  0.28531699095E+03  0.96845445286E+03  0.10213478219E+04  0.15294330000E+03 0.  0.
    8880022    1    1    2    0    0  0.21211028598E+02 -0.28531699095E+03 -0.23993905722E+03  0.40350724560E+03  0.15294330000E+03 0.  0.
<mgrwt>
<rscale>  0 0.32441847E+03</rscale>
<asrwt>0</asrwt>
<pdfrwt beam="1">  1        2 0.16564388E+00 0.32441847E+03</pdfrwt>
<pdfrwt beam="2">  1       -2 0.53564591E-01 0.32441847E+03</pdfrwt>
<totfact> 0.79043660E+01</totfact>
</mgrwt>
</event>
<event>
 4    1  0.3365401E-008  0.1298473E+04  0.7818608E-02  0.9030777E-01
          2   -1    0    0  501    0  0.00000000000E+00  0.00000000000E+00  0.15141872911E+04  0.15141872911E+04  0.25500000000E-02 0. -1.
         -2   -1    0    0    0  501 -0.00000000000E+00 -0.00000000000E+00 -0.12952727565E+04  0.12952727565E+04  0.25500000000E-02 0.  1.
    8880022    1    1    2    0    0  0.83894093722E+03  0.97919326480E+03 -0.41678790464E+03  0.13637247363E+04  0.15294330000E+03 0.  0.
    8880022    1    1    2    0    0 -0.83894093722E+03 -0.97919326480E+03  0.63570243929E+03  0.14457353113E+04  0.15294330000E+03 0.  0.
<mgrwt>
<rscale>  0 0.12984733E+04</rscale>
<asrwt>0</asrwt>
<pdfrwt beam="1">  1        2 0.23295189E+00 0.12984733E+04</pdfrwt>
<pdfrwt beam="2">  1       -2 0.19927273E+00 0.12984733E+04</pdfrwt>
<totfact> 0.16088926E+00</totfact>
</mgrwt>
</event>
<event>
 4    1  0.3365401E-008  0.4421640E+03  0.7818608E-02  0.1030085E+00
          2   -1    0    0  501    0  0.00000000000E+00  0.00000000000E+00  0.17130045568E+04  0.17130045568E+04  0.25500000000E-02 0. -1.
         -2   -1    0    0    0  501 -0.00000000000E+00 -0.00000000000E+00 -0.28557261205E+03  0.28557261206E+03  0.25500000000E-02 0.  1.
    8880022    1    1    2    0    0 -0.41387977529E+02  0.41280065195E+03 -0.60548331614E+02  0.44629037230E+03  0.15294330000E+03 0.  0.
    8880022    1    1    2    0    0  0.41387977529E+02 -0.41280065195E+03  0.14879802764E+04  0.15522867966E+04  0.15294330000E+03 0.  0.
<mgrwt>
<rscale>  0 0.44216399E+03</rscale>
<asrwt>0</asrwt>
<pdfrwt beam="1">  1        2 0.26353916E+00 0.44216399E+03</pdfrwt>
<pdfrwt beam="2">  1       -2 0.43934248E-01 0.44216399E+03</pdfrwt>
<totfact> 0.50791047E+01</totfact>
</mgrwt>
</event>
<event>
 4    1  0.3365401E-008  0.8589165E+03  0.7818608E-02  0.9478447E-01
          2   -1    0    0  501    0  0.00000000000E+00  0.00000000000E+00  0.11471080376E+04  0.11471080376E+04  0.25500000000E-02 0. -1.
         -2   -1    0    0    0  501 -0.00000000000E+00 -0.00000000000E+00 -0.70003278748E+03  0.70003278749E+03  0.25500000000E-02 0.  1.
    8880022    1    1    2    0    0  0.76600863630E+03 -0.35717867293E+03 -0.39782826089E+02  0.85983728784E+03  0.15294330000E+03 0.  0.
    8880022    1    1    2    0    0 -0.76600863630E+03  0.35717867293E+03  0.48685807620E+03  0.98730353725E+03  0.15294330000E+03 0.  0.
<mgrwt>
<rscale>  0 0.85891646E+03</rscale>
<asrwt>0</asrwt>
<pdfrwt beam="1">  1        2 0.17647816E+00 0.85891646E+03</pdfrwt>
<pdfrwt beam="2">  1       -2 0.10769735E+00 0.85891646E+03</pdfrwt>
<totfact> 0.14190768E+01</totfact>
</mgrwt>
</event>
<event>
 4    1  0.3365401E-008  0.5221385E+03  0.7818608E-02  0.1008157E+00
         -2   -1    0    0    0  501 -0.00000000000E+00  0.00000000000E+00  0.33970653960E+03  0.33970653961E+03  0.25500000000E-02 0.  1.
          2   -1    0    0  501    0  0.00000000000E+00 -0.00000000000E+00 -0.13175645327E+04  0.13175645327E+04  0.25500000000E-02 0. -1.
    8880022    1    1    2    0    0 -0.49900679136E+03  0.15137858647E+02  0.29143986622E+02  0.52295119998E+03  0.15294330000E+03 0.  0.
    8880022    1    1    2    0    0  0.49900679136E+03 -0.15137858647E+02 -0.10070019797E+04  0.11343198723E+04  0.15294330000E+03 0.  0.
<mgrwt>
<rscale>  0 0.52213847E+03</rscale>
<asrwt>0</asrwt>
<pdfrwt beam="1">  1        2 0.20270223E+00 0.52213847E+03</pdfrwt>
<pdfrwt beam="2">  1       -2 0.52262545E-01 0.52213847E+03</pdfrwt>
<totfact> 0.58346064E+01</totfact>
</mgrwt>
</event>
<event>
 4    1  0.3365401E-008  0.4929784E+03  0.7818608E-02  0.1015628E+00
          2   -1    0    0  501    0  0.00000000000E+00  0.00000000000E+00  0.28269342140E+04  0.28269342140E+04  0.25500000000E-02 0. -1.
         -2   -1    0    0    0  501 -0.00000000000E+00 -0.00000000000E+00 -0.13682318262E+03  0.13682318265E+03  0.25500000000E-02 0.  1.
    8880022    1    1    2    0    0  0.18468469890E+03 -0.43072916793E+03  0.44161895629E+03  0.66185724268E+03  0.15294330000E+03 0.  0.
    8880022    1    1    2    0    0 -0.18468469890E+03  0.43072916793E+03  0.22484920750E+04  0.23019001539E+04  0.15294330000E+03 0.  0.
<mgrwt>
<rscale>  0 0.49297840E+03</rscale>
<asrwt>0</asrwt>
<pdfrwt beam="1">  1        2 0.43491294E+00 0.49297840E+03</pdfrwt>
<pdfrwt beam="2">  1       -2 0.21049721E-01 0.49297840E+03</pdfrwt>
<totfact> 0.47722314E+01</totfact>
</mgrwt>
</event>
<event>
 4    1  0.3365401E-008  0.7287202E+03  0.7818608E-02  0.9669339E-01
         -2   -1    0    0    0  501 -0.00000000000E+00  0.00000000000E+00  0.11982191893E+04  0.11982191893E+04  0.25500000000E-02 0.  1.
          2   -1    0    0  501    0  0.00000000000E+00 -0.00000000000E+00 -0.92447094593E+03  0.92447094593E+03  0.25500000000E-02 0. -1.
    8880022    1    1    2    0    0 -0.67299036138E+03 -0.23393467534E+03  0.90266719600E+03  0.11601039516E+04  0.15294330000E+03 0.  0.
    8880022    1    1    2    0    0  0.67299036138E+03  0.23393467534E+03 -0.62891895264E+03  0.96258618359E+03  0.15294330000E+03 0.  0.
<mgrwt>
<rscale>  0 0.72872019E+03</rscale>
<asrwt>0</asrwt>
<pdfrwt beam="1">  1        2 0.14222630E+00 0.72872019E+03</pdfrwt>
<pdfrwt beam="2">  1       -2 0.18434141E+00 0.72872019E+03</pdfrwt>
<totfact> 0.48938187E+00</totfact>
</mgrwt>
</event>
<event>
 4    1  0.3365401E-008  0.6095143E+03  0.7818608E-02  0.9885861E-01
         -2   -1    0    0    0  501 -0.00000000000E+00  0.00000000000E+00  0.33404390499E+03  0.33404390500E+03  0.25500000000E-02 0.  1.
          2   -1    0    0  501    0  0.00000000000E+00 -0.00000000000E+00 -0.15189465482E+04  0.15189465482E+04  0.25500000000E-02 0. -1.
    8880022    1    1    2    0    0 -0.16967917917E+03  0.56508847444E+03 -0.10719190711E+04  0.12330929226E+04  0.15294330000E+03 0.  0.
    8880022    1    1    2    0    0  0.16967917917E+03 -0.56508847444E+03 -0.11298357204E+03  0.61989753053E+03  0.15294330000E+03 0.  0.
<mgrwt>
<rscale>  0 0.60951428E+03</rscale>
<asrwt>0</asrwt>
<pdfrwt beam="1">  1        2 0.23368408E+00 0.60951428E+03</pdfrwt>
<pdfrwt beam="2">  1       -2 0.51391371E-01 0.60951428E+03</pdfrwt>
<totfact> 0.46058299E+01</totfact>
</mgrwt>
</event>
<event>
 4    1  0.3365401E-008  0.4979408E+03  0.7818608E-02  0.1014318E+00
         -2   -1    0    0    0  501 -0.00000000000E+00  0.00000000000E+00  0.29643961572E+03  0.29643961573E+03  0.25500000000E-02 0.  1.
          2   -1    0    0  501    0  0.00000000000E+00 -0.00000000000E+00 -0.12344021146E+04  0.12344021146E+04  0.25500000000E-02 0. -1.
    8880022    1    1    2    0    0  0.38908426401E+03 -0.27049361814E+03 -0.34361674151E+02  0.49912497395E+03  0.15294330000E+03 0.  0.
    8880022    1    1    2    0    0 -0.38908426401E+03  0.27049361814E+03 -0.90360082472E+03  0.10317167564E+04  0.15294330000E+03 0.  0.
<mgrwt>
<rscale>  0 0.49794077E+03</rscale>
<asrwt>0</asrwt>
<pdfrwt beam="1">  1        2 0.18990801E+00 0.49794077E+03</pdfrwt>
<pdfrwt beam="2">  1       -2 0.45606096E-01 0.49794077E+03</pdfrwt>
<totfact> 0.85933908E+01</totfact>
</mgrwt>
</event>
<event>
 4    1  0.3365401E-008  0.6683567E+03  0.7818608E-02  0.9772931E-01
          2   -1    0    0  501    0  0.00000000000E+00  0.00000000000E+00  0.96713590072E+03  0.96713590072E+03  0.25500000000E-02 0. -1.
         -2   -1    0    0    0  501 -0.00000000000E+00 -0.00000000000E+00 -0.49864563598E+03  0.49864563599E+03  0.25500000000E-02 0.  1.
    8880022    1    1    2    0    0  0.58200661393E+03  0.29082170657E+03  0.43325058336E+03  0.79649650638E+03  0.15294330000E+03 0.  0.
    8880022    1    1    2    0    0 -0.58200661393E+03 -0.29082170657E+03  0.35239681375E+02  0.66928503034E+03  0.15294330000E+03 0.  0.
<mgrwt>
<rscale>  0 0.66835665E+03</rscale>
<asrwt>0</asrwt>
<pdfrwt beam="1">  1        2 0.14879014E+00 0.66835665E+03</pdfrwt>
<pdfrwt beam="2">  1       -2 0.76714713E-01 0.66835665E+03</pdfrwt>
<totfact> 0.41109569E+01</totfact>
</mgrwt>
</event>
<event>
 4    1  0.3365401E-008  0.6084500E+03  0.7818608E-02  0.9888028E-01
          2   -1    0    0  501    0  0.00000000000E+00  0.00000000000E+00  0.25172414349E+04  0.25172414349E+04  0.25500000000E-02 0. -1.
         -2   -1    0    0    0  501 -0.00000000000E+00 -0.00000000000E+00 -0.17122681544E+03  0.17122681546E+03  0.25500000000E-02 0.  1.
    8880022    1    1    2    0    0  0.15043559539E+03  0.56937591224E+03  0.16779082487E+04  0.17848214314E+04  0.15294330000E+03 0.  0.
    8880022    1    1    2    0    0 -0.15043559539E+03 -0.56937591224E+03  0.66810637076E+03  0.90364681899E+03  0.15294330000E+03 0.  0.
<mgrwt>
<rscale>  0 0.60845004E+03</rscale>
<asrwt>0</asrwt>
<pdfrwt beam="1">  1        2 0.38726788E+00 0.60845004E+03</pdfrwt>
<pdfrwt beam="2">  1       -2 0.26342589E-01 0.60845004E+03</pdfrwt>
<totfact> 0.47170661E+01</totfact>
</mgrwt>
</event>
<event>
 4    1  0.3365401E-008  0.2629598E+03  0.7818608E-02  0.1105378E+00
         -2   -1    0    0    0  501 -0.00000000000E+00  0.00000000000E+00  0.13601466855E+03  0.13601466858E+03  0.25500000000E-02 0.  1.
          2   -1    0    0  501    0  0.00000000000E+00 -0.00000000000E+00 -0.86555442731E+03  0.86555442731E+03  0.25500000000E-02 0. -1.
    8880022    1    1    2    0    0 -0.28558188725E+02  0.21199201859E+03 -0.68646225661E+03  0.73510425713E+03  0.15294330000E+03 0.  0.
    8880022    1    1    2    0    0  0.28558188725E+02 -0.21199201859E+03 -0.43077502143E+02  0.26646483876E+03  0.15294330000E+03 0.  0.
<mgrwt>
<rscale>  0 0.26295977E+03</rscale>
<asrwt>0</asrwt>
<pdfrwt beam="1">  1        2 0.13316222E+00 0.26295977E+03</pdfrwt>
<pdfrwt beam="2">  1       -2 0.20925334E-01 0.26295977E+03</pdfrwt>
<totfact> 0.62508027E+02</totfact>
</mgrwt>
</event>
<event>
 4    1  0.3365401E-008  0.2674390E+03  0.7818608E-02  0.1102754E+00
         -2   -1    0    0    0  501 -0.00000000000E+00  0.00000000000E+00  0.55627470284E+03  0.55627470285E+03  0.25500000000E-02 0.  1.
          2   -1    0    0  501    0  0.00000000000E+00 -0.00000000000E+00 -0.19390257761E+04  0.19390257761E+04  0.25500000000E-02 0. -1.
    8880022    1    1    2    0    0  0.19441481279E+03  0.10166052705E+03 -0.18969506969E+04  0.19157102029E+04  0.15294330000E+03 0.  0.
    8880022    1    1    2    0    0 -0.19441481279E+03 -0.10166052705E+03  0.51419962359E+03  0.57959027606E+03  0.15294330000E+03 0.  0.
<mgrwt>
<rscale>  0 0.26743903E+03</rscale>
<asrwt>0</asrwt>
<pdfrwt beam="1">  1        2 0.29831165E+00 0.26743903E+03</pdfrwt>
<pdfrwt beam="2">  1       -2 0.85580724E-01 0.26743903E+03</pdfrwt>
<totfact> 0.99968457E+00</totfact>
</mgrwt>
</event>
<event>
 4    1  0.3365401E-008  0.1190532E+04  0.7818608E-02  0.9121185E-01
         -2   -1    0    0    0  501 -0.00000000000E+00  0.00000000000E+00  0.54571022330E+03  0.54571022331E+03  0.25500000000E-02 0.  1.
          2   -1    0    0  501    0  0.00000000000E+00 -0.00000000000E+00 -0.34348025761E+04  0.34348025761E+04  0.25500000000E-02 0. -1.
    8880022    1    1    2    0    0  0.46987998941E+01  0.11806575537E+04 -0.46176999479E+03  0.12769485186E+04  0.15294330000E+03 0.  0.
    8880022    1    1    2    0    0 -0.46987998941E+01 -0.11806575537E+04 -0.24273223580E+04  0.27035642808E+04  0.15294330000E+03 0.  0.
<mgrwt>
<rscale>  0 0.11905318E+04</rscale>
<asrwt>0</asrwt>
<pdfrwt beam="1">  1        2 0.52843115E+00 0.11905318E+04</pdfrwt>
<pdfrwt beam="2">  1       -2 0.83955421E-01 0.11905318E+04</pdfrwt>
<totfact> 0.11213907E+00</totfact>
</mgrwt>
</event>
<event>
 4    1  0.3365401E-008  0.3312361E+03  0.7818608E-02  0.1070591E+00
         -2   -1    0    0    0  501 -0.00000000000E+00  0.00000000000E+00  0.17176954442E+04  0.17176954442E+04  0.25500000000E-02 0.  1.
          2   -1    0    0  501    0  0.00000000000E+00 -0.00000000000E+00 -0.29066375701E+03  0.29066375702E+03  0.25500000000E-02 0. -1.
    8880022    1    1    2    0    0  0.69778556882E+01  0.29372946313E+03  0.16005226809E+04  0.16344388007E+04  0.15294330000E+03 0.  0.
    8880022    1    1    2    0    0 -0.69778556882E+01 -0.29372946313E+03 -0.17349099378E+03  0.37392040051E+03  0.15294330000E+03 0.  0.
<mgrwt>
<rscale>  0 0.33123608E+03</rscale>
<asrwt>0</asrwt>
<pdfrwt beam="1">  1        2 0.44717502E-01 0.33123608E+03</pdfrwt>
<pdfrwt beam="2">  1       -2 0.26426083E+00 0.33123608E+03</pdfrwt>
<totfact> 0.66271741E+00</totfact>
</mgrwt>
</event>
<event>
 4    1  0.3365401E-008  0.6276709E+03  0.7818608E-02  0.9849604E-01
          2   -1    0    0  501    0  0.00000000000E+00  0.00000000000E+00  0.28458610602E+04  0.28458610602E+04  0.25500000000E-02 0. -1.
         -2   -1    0    0    0  501 -0.00000000000E+00 -0.00000000000E+00 -0.85722088097E+03  0.85722088098E+03  0.25500000000E-02 0.  1.
    8880022    1    1    2    0    0 -0.46122469127E+03  0.39730452717E+03  0.26897752250E+04  0.27620393765E+04  0.15294330000E+03 0.  0.
    8880022    1    1    2    0    0  0.46122469127E+03 -0.39730452717E+03 -0.70113504578E+03  0.94104256470E+03  0.15294330000E+03 0.  0.
<mgrwt>
<rscale>  0 0.62767090E+03</rscale>
<asrwt>0</asrwt>
<pdfrwt beam="1">  1        2 0.43782478E+00 0.62767090E+03</pdfrwt>
<pdfrwt beam="2">  1       -2 0.13188013E+00 0.62767090E+03</pdfrwt>
<totfact> 0.99467186E-01</totfact>
</mgrwt>
</event>
<event>
 4    1  0.3365401E-008  0.2842293E+03  0.7818608E-02  0.1093401E+00
          2   -1    0    0  501    0  0.00000000000E+00  0.00000000000E+00  0.74679832046E+03  0.74679832047E+03  0.25500000000E-02 0. -1.
         -2   -1    0    0    0  501 -0.00000000000E+00 -0.00000000000E+00 -0.35075884149E+03  0.35075884150E+03  0.25500000000E-02 0.  1.
    8880022    1    1    2    0    0 -0.19279202699E+03  0.14221769726E+03 -0.25835554300E+03  0.38410139117E+03  0.15294330000E+03 0.  0.
    8880022    1    1    2    0    0  0.19279202699E+03 -0.14221769726E+03  0.65439502197E+03  0.71345577080E+03  0.15294330000E+03 0. -1.
<mgrwt>
<rscale>  0 0.28422929E+03</rscale>
<asrwt>0</asrwt>
<pdfrwt beam="1">  1        2 0.11489205E+00 0.28422929E+03</pdfrwt>
<pdfrwt beam="2">  1       -2 0.53962900E-01 0.28422929E+03</pdfrwt>
<totfact> 0.12864810E+02</totfact>
</mgrwt>
</event>
<event>
 4    1  0.3365401E-008  0.2218868E+03  0.7818608E-02  0.1132484E+00
          2   -1    0    0  501    0  0.00000000000E+00  0.00000000000E+00  0.14110913270E+03  0.14110913272E+03  0.25500000000E-02 0. -1.
         -2   -1    0    0    0  501 -0.00000000000E+00 -0.00000000000E+00 -0.12798198452E+04  0.12798198452E+04  0.25500000000E-02 0.  1.
    8880022    1    1    2    0    0 -0.15852964461E+03  0.26653937284E+02 -0.11752859044E+04  0.11960479466E+04  0.15294330000E+03 0.  0.
    8880022    1    1    2    0    0  0.15852964461E+03 -0.26653937284E+02  0.36575191810E+02  0.22488103136E+03  0.15294330000E+03 0.  0.
<mgrwt>
<rscale>  0 0.22188676E+03</rscale>
<asrwt>0</asrwt>
<pdfrwt beam="1">  1        2 0.21709098E-01 0.22188676E+03</pdfrwt>
<pdfrwt beam="2">  1       -2 0.19689535E+00 0.22188676E+03</pdfrwt>
<totfact> 0.38606769E+01</totfact>
</mgrwt>
</event>
<event>
 4    1  0.3365401E-008  0.5335349E+03  0.7818608E-02  0.1005378E+00
         -2   -1    0    0    0  501 -0.00000000000E+00  0.00000000000E+00  0.40765532960E+03  0.40765532960E+03  0.25500000000E-02 0.  1.
          2   -1    0    0  501    0  0.00000000000E+00 -0.00000000000E+00 -0.17304495700E+04  0.17304495700E+04  0.25500000000E-02 0. -1.
    8880022    1    1    2    0    0 -0.50993137310E+03 -0.35183121713E+02 -0.14870434607E+04  0.15798600458E+04  0.15294330000E+03 0.  0.
    8880022    1    1    2    0    0  0.50993137310E+03  0.35183121713E+02  0.16424922035E+03  0.55824485374E+03  0.15294330000E+03 0.  0.
<mgrwt>
<rscale>  0 0.53353492E+03</rscale>
<asrwt>0</asrwt>
<pdfrwt beam="1">  1        2 0.26622301E+00 0.53353492E+03</pdfrwt>
<pdfrwt beam="2">  1       -2 0.62716206E-01 0.53353492E+03</pdfrwt>
<totfact> 0.23616898E+01</totfact>
</mgrwt>
</event>
<event>
 4    1  0.3365401E-008  0.6602434E+03  0.7818608E-02  0.9787746E-01
         -2   -1    0    0    0  501 -0.00000000000E+00  0.00000000000E+00  0.49265048553E+03  0.49265048554E+03  0.25500000000E-02 0.  1.
          2   -1    0    0  501    0  0.00000000000E+00 -0.00000000000E+00 -0.22351791199E+04  0.22351791199E+04  0.25500000000E-02 0. -1.
    8880022    1    1    2    0    0  0.46177071255E+02  0.64062265681E+03 -0.19313745591E+04  0.20411097597E+04  0.15294330000E+03 0.  0.
    8880022    1    1    2    0    0 -0.46177071255E+02 -0.64062265681E+03  0.18884592472E+03  0.68671984581E+03  0.15294330000E+03 0.  0.
<mgrwt>
<rscale>  0 0.66024341E+03</rscale>
<asrwt>0</asrwt>
<pdfrwt beam="1">  1        2 0.34387371E+00 0.66024341E+03</pdfrwt>
<pdfrwt beam="2">  1       -2 0.75792383E-01 0.66024341E+03</pdfrwt>
<totfact> 0.81430152E+00</totfact>
</mgrwt>
</event>
<event>
 4    1  0.3365401E-008  0.8126363E+03  0.7818608E-02  0.9541905E-01
          2   -1    0    0  501    0  0.00000000000E+00  0.00000000000E+00  0.16778198499E+04  0.16778198499E+04  0.25500000000E-02 0. -1.
         -2   -1    0    0    0  501 -0.00000000000E+00 -0.00000000000E+00 -0.78929390431E+03  0.78929390431E+03  0.25500000000E-02 0.  1.
    8880022    1    1    2    0    0  0.71758235869E+03 -0.34937333766E+03 -0.42915762975E+03  0.91899624306E+03  0.15294330000E+03 0.  0.
    8880022    1    1    2    0    0 -0.71758235869E+03  0.34937333766E+03  0.13176835753E+04  0.15481175111E+04  0.15294330000E+03 0.  0.
<mgrwt>
<rscale>  0 0.81263634E+03</rscale>
<asrwt>0</asrwt>
<pdfrwt beam="1">  1        2 0.25812613E+00 0.81263634E+03</pdfrwt>
<pdfrwt beam="2">  1       -2 0.12142983E+00 0.81263634E+03</pdfrwt>
<totfact> 0.53025437E+00</totfact>
</mgrwt>
</event>
<event>
 4    1  0.3365401E-008  0.5120938E+03  0.7818608E-02  0.1010670E+00
          2   -1    0    0  501    0  0.00000000000E+00  0.00000000000E+00  0.59746239386E+03  0.59746239387E+03  0.25500000000E-02 0. -1.
         -2   -1    0    0    0  501 -0.00000000000E+00 -0.00000000000E+00 -0.78824866837E+03  0.78824866838E+03  0.25500000000E-02 0.  1.
    8880022    1    1    2    0    0  0.67856119990E+02 -0.48398759083E+03 -0.55663232921E+03  0.75635946747E+03  0.15294330000E+03 0.  0.
    8880022    1    1    2    0    0 -0.67856119990E+02  0.48398759083E+03  0.36584605470E+03  0.62935159478E+03  0.15294330000E+03 0.  0.
<mgrwt>
<rscale>  0 0.51209383E+03</rscale>
<asrwt>0</asrwt>
<pdfrwt beam="1">  1        2 0.91917292E-01 0.51209383E+03</pdfrwt>
<pdfrwt beam="2">  1       -2 0.12126903E+00 0.51209383E+03</pdfrwt>
<totfact> 0.26755541E+01</totfact>
</mgrwt>
</event>
<event>
 4    1  0.3365401E-008  0.3187176E+03  0.7818608E-02  0.1076241E+00
          2   -1    0    0  501    0  0.00000000000E+00  0.00000000000E+00  0.93349762798E+03  0.93349762798E+03  0.25500000000E-02 0. -1.
         -2   -1    0    0    0  501 -0.00000000000E+00 -0.00000000000E+00 -0.12967698387E+03  0.12967698389E+03  0.25500000000E-02 0.  1.
    8880022    1    1    2    0    0  0.23193428679E+02 -0.27865983571E+03  0.18870660410E+03  0.37039313522E+03  0.15294330000E+03 0.  0.
    8880022    1    1    2    0    0 -0.23193428679E+02  0.27865983571E+03  0.61511404001E+03  0.69278147666E+03  0.15294330000E+03 0.  0.
<mgrwt>
<rscale>  0 0.31871757E+03</rscale>
<asrwt>0</asrwt>
<pdfrwt beam="1">  1        2 0.14361502E+00 0.31871757E+03</pdfrwt>
<pdfrwt beam="2">  1       -2 0.19950305E-01 0.31871757E+03</pdfrwt>
<totfact> 0.61096064E+02</totfact>
</mgrwt>
</event>
<event>
 4    1  0.3365401E-008  0.9106254E+03  0.7818608E-02  0.9412396E-01
         -2   -1    0    0    0  501 -0.00000000000E+00  0.00000000000E+00  0.45305330311E+03  0.45305330311E+03  0.25500000000E-02 0.  1.
          2   -1    0    0  501    0  0.00000000000E+00 -0.00000000000E+00 -0.23807763260E+04  0.23807763260E+04  0.25500000000E-02 0. -1.
    8880022    1    1    2    0    0 -0.65443992979E+03  0.61445538358E+03 -0.16451648285E+04  0.18803739006E+04  0.15294330000E+03 0.  0.
    8880022    1    1    2    0    0  0.65443992979E+03 -0.61445538358E+03 -0.28255819448E+03  0.95345572860E+03  0.15294330000E+03 0.  0.
<mgrwt>
<rscale>  0 0.91062544E+03</rscale>
<asrwt>0</asrwt>
<pdfrwt beam="1">  1        2 0.36627327E+00 0.91062544E+03</pdfrwt>
<pdfrwt beam="2">  1       -2 0.69700510E-01 0.91062544E+03</pdfrwt>
<totfact> 0.78094442E+00</totfact>
</mgrwt>
</event>
<event>
 4    1  0.3365401E-008  0.6754190E+03  0.7818608E-02  0.9760218E-01
         -2   -1    0    0    0  501 -0.00000000000E+00  0.00000000000E+00  0.38701647287E+03  0.38701647288E+03  0.25500000000E-02 0.  1.
          2   -1    0    0  501    0  0.00000000000E+00 -0.00000000000E+00 -0.12847008121E+04  0.12847008121E+04  0.25500000000E-02 0. -1.
    8880022    1    1    2    0    0  0.21140431679E+03  0.62298263966E+03 -0.20878774353E+03  0.70695341384E+03  0.15294330000E+03 0.  0.
    8880022    1    1    2    0    0 -0.21140431679E+03 -0.62298263966E+03 -0.68889659570E+03  0.96476387114E+03  0.15294330000E+03 0.  0.
<mgrwt>
<rscale>  0 0.67541899E+03</rscale>
<asrwt>0</asrwt>
<pdfrwt beam="1">  1        2 0.19764628E+00 0.67541899E+03</pdfrwt>
<pdfrwt beam="2">  1       -2 0.59540996E-01 0.67541899E+03</pdfrwt>
<totfact> 0.45622941E+01</totfact>
</mgrwt>
</event>
<event>
 4    1  0.3365401E-008  0.2729135E+03  0.7818608E-02  0.1099624E+00
         -2   -1    0    0    0  501 -0.00000000000E+00  0.00000000000E+00  0.88081246035E+02  0.88081246072E+02  0.25500000000E-02 0.  1.
          2   -1    0    0  501    0  0.00000000000E+00 -0.00000000000E+00 -0.10003707717E+04  0.10003707717E+04  0.25500000000E-02 0. -1.
    8880022    1    1    2    0    0  0.15502282987E+03 -0.16449337236E+03 -0.24208328845E+03  0.36480970230E+03  0.15294330000E+03 0.  0.
    8880022    1    1    2    0    0 -0.15502282987E+03  0.16449337236E+03 -0.67020623726E+03  0.72364231551E+03  0.15294330000E+03 0.  1.
<mgrwt>
<rscale>  0 0.27291354E+03</rscale>
<asrwt>0</asrwt>
<pdfrwt beam="1">  1        2 0.15390319E+00 0.27291354E+03</pdfrwt>
<pdfrwt beam="2">  1       -2 0.13550962E-01 0.27291354E+03</pdfrwt>
<totfact> 0.10646883E+03</totfact>
</mgrwt>
</event>
<event>
 4    1  0.3365401E-008  0.1884876E+03  0.7818608E-02  0.1159833E+00
          2   -1    0    0  501    0  0.00000000000E+00  0.00000000000E+00  0.59212353408E+03  0.59212353408E+03  0.25500000000E-02 0. -1.
         -2   -1    0    0    0  501 -0.00000000000E+00 -0.00000000000E+00 -0.59545808338E+03  0.59545808338E+03  0.25500000000E-02 0.  1.
    8880022    1    1    2    0    0  0.86379951720E+02 -0.68369841559E+02  0.56141323480E+03  0.59220976395E+03  0.15294330000E+03 0.  0.
    8880022    1    1    2    0    0 -0.86379951720E+02  0.68369841559E+02 -0.56474778410E+03  0.59537185351E+03  0.15294330000E+03 0.  1.
<mgrwt>
<rscale>  0 0.18848762E+03</rscale>
<asrwt>0</asrwt>
<pdfrwt beam="1">  1        2 0.91095928E-01 0.18848762E+03</pdfrwt>
<pdfrwt beam="2">  1       -2 0.91608936E-01 0.18848762E+03</pdfrwt>
<totfact> 0.55498227E+01</totfact>
</mgrwt>
</event>
<event>
 4    1  0.3365401E-008  0.2235956E+03  0.7818608E-02  0.1131230E+00
          2   -1    0    0  501    0  0.00000000000E+00  0.00000000000E+00  0.10101958850E+04  0.10101958850E+04  0.25500000000E-02 0. -1.
         -2   -1    0    0    0  501 -0.00000000000E+00 -0.00000000000E+00 -0.58561769342E+02  0.58561769397E+02  0.25500000000E-02 0.  1.
    8880022    1    1    2    0    0  0.13140869337E+03  0.96618270796E+02  0.68613620934E+03  0.72164942023E+03  0.15294330000E+03 0.  1.
    8880022    1    1    2    0    0 -0.13140869337E+03 -0.96618270796E+02  0.26549790628E+03  0.34710823413E+03  0.15294330000E+03 0.  1.
<mgrwt>
<rscale>  0 0.22359559E+03</rscale>
<asrwt>0</asrwt>
<pdfrwt beam="1">  1        2 0.15541476E+00 0.22359559E+03</pdfrwt>
<pdfrwt beam="2">  1       -2 0.90095027E-02 0.22359559E+03</pdfrwt>
<totfact> 0.20240333E+03</totfact>
</mgrwt>
</event>
<event>
 4    1  0.3365401E-008  0.5233205E+03  0.7818608E-02  0.1007865E+00
          2   -1    0    0  501    0  0.00000000000E+00  0.00000000000E+00  0.15351753266E+04  0.15351753266E+04  0.25500000000E-02 0. -1.
         -2   -1    0    0    0  501 -0.00000000000E+00 -0.00000000000E+00 -0.64665204166E+03  0.64665204167E+03  0.25500000000E-02 0.  1.
    8880022    1    1    2    0    0 -0.35230428700E+03 -0.35546358739E+03  0.13725827200E+04  0.14689614185E+04  0.15294330000E+03 0. -1.
    8880022    1    1    2    0    0  0.35230428700E+03  0.35546358739E+03 -0.48405943512E+03  0.71286594977E+03  0.15294330000E+03 0.  0.
<mgrwt>
<rscale>  0 0.52332048E+03</rscale>
<asrwt>0</asrwt>
<pdfrwt beam="1">  1        2 0.23618081E+00 0.52332048E+03</pdfrwt>
<pdfrwt beam="2">  1       -2 0.99484932E-01 0.52332048E+03</pdfrwt>
<totfact> 0.10788672E+01</totfact>
</mgrwt>
</event>
<event>
 4    1  0.3365401E-008  0.4733180E+03  0.7818608E-02  0.1020988E+00
          2   -1    0    0  501    0  0.00000000000E+00  0.00000000000E+00  0.81397373294E+03  0.81397373294E+03  0.25500000000E-02 0. -1.
         -2   -1    0    0    0  501 -0.00000000000E+00 -0.00000000000E+00 -0.46028264847E+03  0.46028264847E+03  0.25500000000E-02 0.  1.
    8880022    1    1    2    0    0  0.34242645560E+03  0.28876015828E+03 -0.22713664581E+03  0.52499620512E+03  0.15294330000E+03 0.  0.
    8880022    1    1    2    0    0 -0.34242645560E+03 -0.28876015828E+03  0.58082773028E+03  0.74926017629E+03  0.15294330000E+03 0.  0.
<mgrwt>
<rscale>  0 0.47331803E+03</rscale>
<asrwt>0</asrwt>
<pdfrwt beam="1">  1        2 0.12522673E+00 0.47331803E+03</pdfrwt>
<pdfrwt beam="2">  1       -2 0.70812715E-01 0.47331803E+03</pdfrwt>
<totfact> 0.63453604E+01</totfact>
</mgrwt>
</event>
<event>
 4    1  0.3365401E-008  0.2619805E+03  0.7818608E-02  0.1105959E+00
          2   -1    0    0  501    0  0.00000000000E+00  0.00000000000E+00  0.14945661000E+04  0.14945661000E+04  0.25500000000E-02 0. -1.
         -2   -1    0    0    0  501 -0.00000000000E+00 -0.00000000000E+00 -0.60323258172E+03  0.60323258172E+03  0.25500000000E-02 0.  1.
    8880022    1    1    2    0    0  0.16276775745E+03 -0.13692619967E+03 -0.56251765561E+03  0.62053194350E+03  0.15294330000E+03 0.  1.
    8880022    1    1    2    0    0 -0.16276775745E+03  0.13692619967E+03  0.14538511739E+04  0.14772667382E+04  0.15294330000E+03 0.  0.
<mgrwt>
<rscale>  0 0.26198050E+03</rscale>
<asrwt>0</asrwt>
<pdfrwt beam="1">  1        2 0.22993325E+00 0.26198050E+03</pdfrwt>
<pdfrwt beam="2">  1       -2 0.92805013E-01 0.26198050E+03</pdfrwt>
<totfact> 0.14313924E+01</totfact>
</mgrwt>
</event>
<event>
 4    1  0.3365401E-008  0.9602405E+03  0.7818608E-02  0.9353260E-01
         -2   -1    0    0    0  501 -0.00000000000E+00  0.00000000000E+00  0.10910795480E+04  0.10910795480E+04  0.25500000000E-02 0.  1.
          2   -1    0    0  501    0  0.00000000000E+00 -0.00000000000E+00 -0.12761400457E+04  0.12761400457E+04  0.25500000000E-02 0. -1.
    8880022    1    1    2    0    0 -0.92935026408E+03 -0.18702494628E+03  0.59536537444E+03  0.11298326540E+04  0.15294330000E+03 0.  0.
    8880022    1    1    2    0    0  0.92935026408E+03  0.18702494628E+03 -0.78042587215E+03  0.12373869398E+04  0.15294330000E+03 0.  0.
<mgrwt>
<rscale>  0 0.96024054E+03</rscale>
<asrwt>0</asrwt>
<pdfrwt beam="1">  1        2 0.19632924E+00 0.96024054E+03</pdfrwt>
<pdfrwt beam="2">  1       -2 0.16785839E+00 0.96024054E+03</pdfrwt>
<totfact> 0.37539697E+00</totfact>
</mgrwt>
</event>
<event>
 4    1  0.3365401E-008  0.6025397E+03  0.7818608E-02  0.9900151E-01
         -2   -1    0    0    0  501 -0.00000000000E+00  0.00000000000E+00  0.49664249197E+03  0.49664249198E+03  0.25500000000E-02 0.  1.
          2   -1    0    0  501    0  0.00000000000E+00 -0.00000000000E+00 -0.15544506263E+04  0.15544506263E+04  0.25500000000E-02 0. -1.
    8880022    1    1    2    0    0 -0.55743441999E+03  0.17008604302E+03  0.21751245665E+03  0.64059793664E+03  0.15294330000E+03 0.  1.
    8880022    1    1    2    0    0  0.55743441999E+03 -0.17008604302E+03 -0.12753205910E+04  0.14104951816E+04  0.15294330000E+03 0.  0.
<mgrwt>
<rscale>  0 0.60253966E+03</rscale>
<asrwt>0</asrwt>
<pdfrwt beam="1">  1        2 0.23914625E+00 0.60253966E+03</pdfrwt>
<pdfrwt beam="2">  1       -2 0.76406538E-01 0.60253966E+03</pdfrwt>
<totfact> 0.18964227E+01</totfact>
</mgrwt>
</event>
<event>
 4    1  0.3365401E-008  0.4564712E+03  0.7818608E-02  0.1025810E+00
         -2   -1    0    0    0  501 -0.00000000000E+00  0.00000000000E+00  0.15241867921E+04  0.15241867921E+04  0.25500000000E-02 0.  1.
          2   -1    0    0  501    0  0.00000000000E+00 -0.00000000000E+00 -0.31655447521E+03  0.31655447522E+03  0.25500000000E-02 0. -1.
    8880022    1    1    2    0    0  0.15128126604E+03  0.40260186980E+03  0.12975478579E+04  0.13754985945E+04  0.15294330000E+03 0.  1.
    8880022    1    1    2    0    0 -0.15128126604E+03 -0.40260186980E+03 -0.89915541046E+02  0.46524267276E+03  0.15294330000E+03 0.  0.
<mgrwt>
<rscale>  0 0.45647118E+03</rscale>
<asrwt>0</asrwt>
<pdfrwt beam="1">  1        2 0.48700688E-01 0.45647118E+03</pdfrwt>
<pdfrwt beam="2">  1       -2 0.23449028E+00 0.45647118E+03</pdfrwt>
<totfact> 0.88368934E+00</totfact>
</mgrwt>
</event>
<event>
 4    1  0.3365401E-008  0.4962910E+03  0.7818608E-02  0.1014752E+00
          2   -1    0    0  501    0  0.00000000000E+00  0.00000000000E+00  0.16798745487E+04  0.16798745487E+04  0.25500000000E-02 0. -1.
         -2   -1    0    0    0  501 -0.00000000000E+00 -0.00000000000E+00 -0.16361668778E+03  0.16361668780E+03  0.25500000000E-02 0.  1.
    8880022    1    1    2    0    0  0.36957809959E+03  0.29381135394E+03  0.46105277499E+03  0.67740268507E+03  0.15294330000E+03 0.  0.
    8880022    1    1    2    0    0 -0.36957809959E+03 -0.29381135394E+03  0.10552050859E+04  0.11660885514E+04  0.15294330000E+03 0.  0.
<mgrwt>
<rscale>  0 0.49629098E+03</rscale>
<asrwt>0</asrwt>
<pdfrwt beam="1">  1        2 0.25844224E+00 0.49629098E+03</pdfrwt>
<pdfrwt beam="2">  1       -2 0.25171798E-01 0.49629098E+03</pdfrwt>
<totfact> 0.14913801E+02</totfact>
</mgrwt>
</event>
<event>
 4    1  0.3365401E-008  0.6294188E+03  0.7818608E-02  0.9846184E-01
         -2   -1    0    0    0  501 -0.00000000000E+00  0.00000000000E+00  0.15681807964E+04  0.15681807964E+04  0.25500000000E-02 0.  1.
          2   -1    0    0  501    0  0.00000000000E+00 -0.00000000000E+00 -0.11634680172E+04  0.11634680172E+04  0.25500000000E-02 0. -1.
    8880022    1    1    2    0    0  0.21654548557E+03  0.57086289476E+03  0.14108335378E+04  0.15448687052E+04  0.15294330000E+03 0.  0.
    8880022    1    1    2    0    0 -0.21654548557E+03 -0.57086289476E+03 -0.10061207586E+04  0.11867801085E+04  0.15294330000E+03 0.  0.
<mgrwt>
<rscale>  0 0.62941882E+03</rscale>
<asrwt>0</asrwt>
<pdfrwt beam="1">  1        2 0.17899508E+00 0.62941882E+03</pdfrwt>
<pdfrwt beam="2">  1       -2 0.24125858E+00 0.62941882E+03</pdfrwt>
<totfact> 0.15350950E+00</totfact>
</mgrwt>
</event>
<event>
 4    1  0.3365401E-008  0.8227192E+03  0.7818608E-02  0.9527702E-01
          2   -1    0    0  501    0  0.00000000000E+00  0.00000000000E+00  0.22982448072E+04  0.22982448072E+04  0.25500000000E-02 0. -1.
         -2   -1    0    0    0  501 -0.00000000000E+00 -0.00000000000E+00 -0.50666174095E+03  0.50666174096E+03  0.25500000000E-02 0.  1.
    8880022    1    1    2    0    0 -0.72980427791E+03 -0.34765067279E+03  0.18032939979E+04  0.19821039757E+04  0.15294330000E+03 0.  0.
    8880022    1    1    2    0    0  0.72980427791E+03  0.34765067279E+03 -0.11710931692E+02  0.82280257248E+03  0.15294330000E+03 0.  0.
<mgrwt>
<rscale>  0 0.82271923E+03</rscale>
<asrwt>0</asrwt>
<pdfrwt beam="1">  1        2 0.35357613E+00 0.82271923E+03</pdfrwt>
<pdfrwt beam="2">  1       -2 0.77947958E-01 0.82271923E+03</pdfrwt>
<totfact> 0.68686094E+00</totfact>
</mgrwt>
</event>
<event>
 4    1  0.3365401E-008  0.4116224E+03  0.7818608E-02  0.1039828E+00
         -2   -1    0    0    0  501 -0.00000000000E+00  0.00000000000E+00  0.65640354241E+03  0.65640354241E+03  0.25500000000E-02 0.  1.
          2   -1    0    0  501    0  0.00000000000E+00 -0.00000000000E+00 -0.13843658989E+04  0.13843658989E+04  0.25500000000E-02 0. -1.
    8880022    1    1    2    0    0 -0.36637692719E+03  0.10867044373E+03 -0.12843343179E+04  0.13486836587E+04  0.15294330000E+03 0.  0.
    8880022    1    1    2    0    0  0.36637692719E+03 -0.10867044373E+03  0.55637196137E+03  0.69208578264E+03  0.15294330000E+03 0.  0.
<mgrwt>
<rscale>  0 0.41162236E+03</rscale>
<asrwt>0</asrwt>
<pdfrwt beam="1">  1        2 0.21297937E+00 0.41162236E+03</pdfrwt>
<pdfrwt beam="2">  1       -2 0.10098516E+00 0.41162236E+03</pdfrwt>
<totfact> 0.12918493E+01</totfact>
</mgrwt>
</event>
<event>
 4    1  0.3365401E-008  0.2867401E+03  0.7818608E-02  0.1092064E+00
          2   -1    0    0  501    0  0.00000000000E+00  0.00000000000E+00  0.19395261410E+04  0.19395261411E+04  0.25500000000E-02 0. -1.
         -2   -1    0    0    0  501 -0.00000000000E+00 -0.00000000000E+00 -0.18751103808E+03  0.18751103810E+03  0.25500000000E-02 0.  1.
    8880022    1    1    2    0    0 -0.27870000213E+02  0.24093879393E+03  0.18116162428E+04  0.18341682866E+04  0.15294330000E+03 0. -1.
    8880022    1    1    2    0    0  0.27870000213E+02 -0.24093879393E+03 -0.59601139861E+02  0.29286889254E+03  0.15294330000E+03 0.  0.
<mgrwt>
<rscale>  0 0.28674011E+03</rscale>
<asrwt>0</asrwt>
<pdfrwt beam="1">  1        2 0.29838866E+00 0.28674011E+03</pdfrwt>
<pdfrwt beam="2">  1       -2 0.28847850E-01 0.28674011E+03</pdfrwt>
<totfact> 0.88314113E+01</totfact>
</mgrwt>
</event>
<event>
 4    1  0.3806006E-008  0.9777693E+03  0.7818608E-02  0.9333269E-01
          2   -1    0    0  501    0  0.00000000000E+00  0.00000000000E+00  0.36155967963E+04  0.36155967963E+04  0.25500000000E-02 0. -1.
         -2   -1    0    0    0  501 -0.00000000000E+00 -0.00000000000E+00 -0.11564702247E+04  0.11564702247E+04  0.25500000000E-02 0.  1.
    8880022    1    1    2    0    0  0.40753343768E+03  0.87553275611E+03  0.33251430183E+04  0.34659210687E+04  0.15294330000E+03 0.  0.
    8880022    1    1    2    0    0 -0.40753343768E+03 -0.87553275611E+03 -0.86601644661E+03  0.13061459523E+04  0.15294330000E+03 0.  0.
<mgrwt>
<rscale>  0 0.97776928E+03</rscale>
<asrwt>0</asrwt>
<pdfrwt beam="1">  1        2 0.55624566E+00 0.97776928E+03</pdfrwt>
<pdfrwt beam="2">  1       -2 0.17791850E+00 0.97776928E+03</pdfrwt>
<totfact> 0.13106669E-01</totfact>
</mgrwt>
</event>
<event>
 4    1  0.3365401E-008  0.6589766E+03  0.7818608E-02  0.9790080E-01
          2   -1    0    0  501    0  0.00000000000E+00  0.00000000000E+00  0.29980938982E+04  0.29980938982E+04  0.25500000000E-02 0. -1.
         -2   -1    0    0    0  501 -0.00000000000E+00 -0.00000000000E+00 -0.48242966216E+03  0.48242966217E+03  0.25500000000E-02 0.  1.
    8880022    1    1    2    0    0 -0.63794979072E+03  0.62277760183E+02 -0.19793137101E+03  0.68806027028E+03  0.15294330000E+03 0.  0.
    8880022    1    1    2    0    0  0.63794979072E+03 -0.62277760183E+02  0.27135956071E+04  0.27924632901E+04  0.15294330000E+03 0.  0.
<mgrwt>
<rscale>  0 0.65897656E+03</rscale>
<asrwt>0</asrwt>
<pdfrwt beam="1">  1        2 0.46124521E+00 0.65897656E+03</pdfrwt>
<pdfrwt beam="2">  1       -2 0.74219948E-01 0.65897656E+03</pdfrwt>
<totfact> 0.31053764E+00</totfact>
</mgrwt>
</event>
<event>
 4    1  0.3365401E-008  0.3678271E+03  0.7818608E-02  0.1055527E+00
         -2   -1    0    0    0  501 -0.00000000000E+00  0.00000000000E+00  0.79622013241E+02  0.79622013282E+02  0.25500000000E-02 0.  1.
          2   -1    0    0  501    0  0.00000000000E+00 -0.00000000000E+00 -0.26186654175E+04  0.26186654175E+04  0.25500000000E-02 0. -1.
    8880022    1    1    2    0    0  0.20098652631E+03  0.26741268798E+03 -0.47009833451E+03  0.59689967882E+03  0.15294330000E+03 0.  0.
    8880022    1    1    2    0    0 -0.20098652631E+03 -0.26741268798E+03 -0.20689450698E+04  0.21013877520E+04  0.15294330000E+03 0. -1.
<mgrwt>
<rscale>  0 0.36782711E+03</rscale>
<asrwt>0</asrwt>
<pdfrwt beam="1">  1        2 0.40287154E+00 0.36782711E+03</pdfrwt>
<pdfrwt beam="2">  1       -2 0.12249543E-01 0.36782711E+03</pdfrwt>
<totfact> 0.16128150E+02</totfact>
</mgrwt>
</event>
<event>
 4    1  0.3365401E-008  0.4270418E+03  0.7818608E-02  0.1034799E+00
          2   -1    0    0  501    0  0.00000000000E+00  0.00000000000E+00  0.64980245711E+03  0.64980245712E+03  0.25500000000E-02 0. -1.
         -2   -1    0    0    0  501 -0.00000000000E+00 -0.00000000000E+00 -0.57807663307E+03  0.57807663307E+03  0.25500000000E-02 0.  1.
    8880022    1    1    2    0    0 -0.11163335964E+03  0.38276761071E+03 -0.40451494621E+03  0.58821513540E+03  0.15294330000E+03 0.  0.
    8880022    1    1    2    0    0  0.11163335964E+03 -0.38276761071E+03  0.47624077025E+03  0.63966395479E+03  0.15294330000E+03 0.  0.
<mgrwt>
<rscale>  0 0.42704181E+03</rscale>
<asrwt>0</asrwt>
<pdfrwt beam="1">  1        2 0.99969609E-01 0.42704181E+03</pdfrwt>
<pdfrwt beam="2">  1       -2 0.88934867E-01 0.42704181E+03</pdfrwt>
<totfact> 0.51015343E+01</totfact>
</mgrwt>
</event>
<event>
 4    1  0.3365401E-008  0.3974876E+03  0.7818608E-02  0.1044653E+00
          2   -1    0    0  501    0  0.00000000000E+00  0.00000000000E+00  0.10489174174E+04  0.10489174174E+04  0.25500000000E-02 0. -1.
         -2   -1    0    0    0  501 -0.00000000000E+00 -0.00000000000E+00 -0.26650826877E+03  0.26650826878E+03  0.25500000000E-02 0.  1.
    8880022    1    1    2    0    0  0.29473327568E+03 -0.21848813663E+03 -0.42491573434E+02  0.39975236893E+03  0.15294330000E+03 0.  0.
    8880022    1    1    2    0    0 -0.29473327568E+03  0.21848813663E+03  0.82490072211E+03  0.91567331729E+03  0.15294330000E+03 0.  0.
<mgrwt>
<rscale>  0 0.39748764E+03</rscale>
<asrwt>0</asrwt>
<pdfrwt beam="1">  1        2 0.16137191E+00 0.39748764E+03</pdfrwt>
<pdfrwt beam="2">  1       -2 0.41001272E-01 0.39748764E+03</pdfrwt>
<totfact> 0.13816903E+02</totfact>
</mgrwt>
</event>
<event>
 4    1  0.3365401E-008  0.4059513E+03  0.7818608E-02  0.1041738E+00
         -2   -1    0    0    0  501 -0.00000000000E+00  0.00000000000E+00  0.75699209991E+03  0.75699209992E+03  0.25500000000E-02 0.  1.
          2   -1    0    0  501    0  0.00000000000E+00 -0.00000000000E+00 -0.78042453217E+03  0.78042453218E+03  0.25500000000E-02 0. -1.
    8880022    1    1    2    0    0 -0.73459967632E+02 -0.36879317397E+03  0.64103010429E+03  0.75875952688E+03  0.15294330000E+03 0.  1.
    8880022    1    1    2    0    0  0.73459967632E+02  0.36879317397E+03 -0.66446253655E+03  0.77865710522E+03  0.15294330000E+03 0.  0.
<mgrwt>
<rscale>  0 0.40595126E+03</rscale>
<asrwt>0</asrwt>
<pdfrwt beam="1">  1        2 0.12006531E+00 0.40595126E+03</pdfrwt>
<pdfrwt beam="2">  1       -2 0.11646032E+00 0.40595126E+03</pdfrwt>
<totfact> 0.21577412E+01</totfact>
</mgrwt>
</event>
<event>
 4    1  0.3365401E-008  0.2475282E+03  0.7818608E-02  0.1114877E+00
         -2   -1    0    0    0  501 -0.00000000000E+00  0.00000000000E+00  0.12326546527E+03  0.12326546530E+03  0.25500000000E-02 0.  1.
          2   -1    0    0  501    0  0.00000000000E+00 -0.00000000000E+00 -0.10411903380E+04  0.10411903380E+04  0.25500000000E-02 0. -1.
    8880022    1    1    2    0    0  0.19199932216E+03  0.31856318777E+02 -0.38061598734E+02  0.25043742346E+03  0.15294330000E+03 0.  0.
    8880022    1    1    2    0    0 -0.19199932216E+03 -0.31856318777E+02 -0.87986327395E+03  0.91401837980E+03  0.15294330000E+03 0. -1.
<mgrwt>
<rscale>  0 0.24752822E+03</rscale>
<asrwt>0</asrwt>
<pdfrwt beam="1">  1        2 0.16018312E+00 0.24752822E+03</pdfrwt>
<pdfrwt beam="2">  1       -2 0.18963918E-01 0.24752822E+03</pdfrwt>
<totfact> 0.57437689E+02</totfact>
</mgrwt>
</event>
<event>
 4    1  0.3365401E-008  0.2639915E+03  0.7818608E-02  0.1104769E+00
         -2   -1    0    0    0  501 -0.00000000000E+00  0.00000000000E+00  0.49009778455E+03  0.49009778456E+03  0.25500000000E-02 0.  1.
          2   -1    0    0  501    0  0.00000000000E+00 -0.00000000000E+00 -0.43030461328E+03  0.43030461329E+03  0.25500000000E-02 0. -1.
    8880022    1    1    2    0    0  0.18070688137E+03  0.11681120235E+03  0.40645772012E+03  0.48466417779E+03  0.15294330000E+03 0.  0.
    8880022    1    1    2    0    0 -0.18070688137E+03 -0.11681120235E+03 -0.34666454885E+03  0.43573822005E+03  0.15294330000E+03 0.  0.
<mgrwt>
<rscale>  0 0.26399145E+03</rscale>
<asrwt>0</asrwt>
<pdfrwt beam="1">  1        2 0.66200710E-01 0.26399145E+03</pdfrwt>
<pdfrwt beam="2">  1       -2 0.75399659E-01 0.26399145E+03</pdfrwt>
<totfact> 0.12083250E+02</totfact>
</mgrwt>
</event>
<event>
 4    1  0.3365401E-008  0.3511502E+03  0.7818608E-02  0.1062144E+00
         -2   -1    0    0    0  501 -0.00000000000E+00  0.00000000000E+00  0.12383579803E+03  0.12383579805E+03  0.25500000000E-02 0.  1.
          2   -1    0    0  501    0  0.00000000000E+00 -0.00000000000E+00 -0.17616379759E+04  0.17616379759E+04  0.25500000000E-02 0. -1.
    8880022    1    1    2    0    0  0.39239891248E+02 -0.31364798399E+03 -0.14405163941E+04  0.14826982032E+04  0.15294330000E+03 0.  0.
    8880022    1    1    2    0    0 -0.39239891248E+02  0.31364798399E+03 -0.19728578371E+03  0.40277557075E+03  0.15294330000E+03 0.  0.
<mgrwt>
<rscale>  0 0.35115022E+03</rscale>
<asrwt>0</asrwt>
<pdfrwt beam="1">  1        2 0.27102121E+00 0.35115022E+03</pdfrwt>
<pdfrwt beam="2">  1       -2 0.19051663E-01 0.35115022E+03</pdfrwt>
<totfact> 0.22456658E+02</totfact>
</mgrwt>
</event>
<event>
 4    1  0.3365401E-008  0.3766084E+03  0.7818608E-02  0.1052194E+00
         -2   -1    0    0    0  501 -0.00000000000E+00  0.00000000000E+00  0.75033003663E+02  0.75033003706E+02  0.25500000000E-02 0.  1.
          2   -1    0    0  501    0  0.00000000000E+00 -0.00000000000E+00 -0.29066784941E+04  0.29066784941E+04  0.25500000000E-02 0. -1.
    8880022    1    1    2    0    0 -0.31235879577E+03 -0.14447916941E+03 -0.53423069111E+03  0.65363317849E+03  0.15294330000E+03 0.  0.
    8880022    1    1    2    0    0  0.31235879577E+03  0.14447916941E+03 -0.22974147994E+04  0.23280783194E+04  0.15294330000E+03 0.  0.
<mgrwt>
<rscale>  0 0.37660842E+03</rscale>
<asrwt>0</asrwt>
<pdfrwt beam="1">  1        2 0.44718122E+00 0.37660842E+03</pdfrwt>
<pdfrwt beam="2">  1       -2 0.11543541E-01 0.37660842E+03</pdfrwt>
<totfact> 0.12107609E+02</totfact>
</mgrwt>
</event>
<event>
 4    1  0.3365401E-008  0.1037795E+04  0.7818608E-02  0.9268036E-01
          2   -1    0    0  501    0  0.00000000000E+00  0.00000000000E+00  0.10783071899E+04  0.10783071899E+04  0.25500000000E-02 0. -1.
         -2   -1    0    0    0  501 -0.00000000000E+00 -0.00000000000E+00 -0.22224319977E+04  0.22224319977E+04  0.25500000000E-02 0.  1.
    8880022    1    1    2    0    0  0.69811423711E+03  0.75250512910E+03  0.65252959171E+03  0.12258931350E+04  0.15294330000E+03 0.  0.
    8880022    1    1    2    0    0 -0.69811423711E+03 -0.75250512910E+03 -0.17966543995E+04  0.20748460525E+04  0.15294330000E+03 0.  0.
<mgrwt>
<rscale>  0 0.10377953E+04</rscale>
<asrwt>0</asrwt>
<pdfrwt beam="1">  1        2 0.16589341E+00 0.10377953E+04</pdfrwt>
<pdfrwt beam="2">  1       -2 0.34191261E+00 0.10377953E+04</pdfrwt>
<totfact> 0.39469715E-01</totfact>
</mgrwt>
</event>
<event>
 4    1  0.3365401E-008  0.3745562E+03  0.7818608E-02  0.1052964E+00
          2   -1    0    0  501    0  0.00000000000E+00  0.00000000000E+00  0.88661200118E+03  0.88661200118E+03  0.25500000000E-02 0. -1.
         -2   -1    0    0    0  501 -0.00000000000E+00 -0.00000000000E+00 -0.13755661456E+04  0.13755661456E+04  0.25500000000E-02 0.  1.
    8880022    1    1    2    0    0 -0.27040994317E+03  0.20923474495E+03 -0.13085234840E+04  0.13610753385E+04  0.15294330000E+03 0.  0.
    8880022    1    1    2    0    0  0.27040994317E+03 -0.20923474495E+03  0.81956933953E+03  0.90110280833E+03  0.15294330000E+03 0.  0.
<mgrwt>
<rscale>  0 0.37455623E+03</rscale>
<asrwt>0</asrwt>
<pdfrwt beam="1">  1        2 0.13640185E+00 0.37455623E+03</pdfrwt>
<pdfrwt beam="2">  1       -2 0.21162556E+00 0.37455623E+03</pdfrwt>
<totfact> 0.37040493E+00</totfact>
</mgrwt>
</event>
<event>
 4    1  0.3365401E-008  0.3962163E+03  0.7818608E-02  0.1045098E+00
          2   -1    0    0  501    0  0.00000000000E+00  0.00000000000E+00  0.10260995293E+04  0.10260995293E+04  0.25500000000E-02 0. -1.
         -2   -1    0    0    0  501 -0.00000000000E+00 -0.00000000000E+00 -0.22837234381E+03  0.22837234382E+03  0.25500000000E-02 0.  1.
    8880022    1    1    2    0    0  0.34792684282E+03 -0.11199378582E+03  0.75921954016E+03  0.85638873135E+03  0.15294330000E+03 0.  0.
    8880022    1    1    2    0    0 -0.34792684282E+03  0.11199378582E+03  0.38507645357E+02  0.39808314180E+03  0.15294330000E+03 0.  0.
<mgrwt>
<rscale>  0 0.39621629E+03</rscale>
<asrwt>0</asrwt>
<pdfrwt beam="1">  1        2 0.15786147E+00 0.39621629E+03</pdfrwt>
<pdfrwt beam="2">  1       -2 0.35134207E-01 0.39621629E+03</pdfrwt>
<totfact> 0.19173594E+02</totfact>
</mgrwt>
</event>
<event>
 4    1  0.3365401E-008  0.7590358E+03  0.7818608E-02  0.9621280E-01
          2   -1    0    0  501    0  0.00000000000E+00  0.00000000000E+00  0.98412808101E+03  0.98412808101E+03  0.25500000000E-02 0. -1.
         -2   -1    0    0    0  501 -0.00000000000E+00 -0.00000000000E+00 -0.11138561522E+04  0.11138561522E+04  0.25500000000E-02 0.  1.
    8880022    1    1    2    0    0  0.69556217146E+03 -0.26255858648E+03 -0.78738582841E+03  0.10936689817E+04  0.15294330000E+03 0.  0.
    8880022    1    1    2    0    0 -0.69556217146E+03  0.26255858648E+03  0.65765775726E+03  0.10043152515E+04  0.15294330000E+03 0.  0.
<mgrwt>
<rscale>  0 0.75903583E+03</rscale>
<asrwt>0</asrwt>
<pdfrwt beam="1">  1        2 0.15140432E+00 0.75903583E+03</pdfrwt>
<pdfrwt beam="2">  1       -2 0.17136249E+00 0.75903583E+03</pdfrwt>
<totfact> 0.54774413E+00</totfact>
</mgrwt>
</event>
<event>
 4    1  0.3365401E-008  0.5519712E+03  0.7818608E-02  0.1001039E+00
         -2   -1    0    0    0  501 -0.00000000000E+00  0.00000000000E+00  0.21206902006E+03  0.21206902008E+03  0.25500000000E-02 0.  1.
          2   -1    0    0  501    0  0.00000000000E+00 -0.00000000000E+00 -0.21936621910E+04  0.21936621910E+04  0.25500000000E-02 0. -1.
    8880022    1    1    2    0    0  0.44939020742E+03 -0.28165401399E+03 -0.16974057888E+04  0.17848973659E+04  0.15294330000E+03 0.  0.
    8880022    1    1    2    0    0 -0.44939020742E+03  0.28165401399E+03 -0.28418738220E+03  0.62083384519E+03  0.15294330000E+03 0.  0.
<mgrwt>
<rscale>  0 0.55197119E+03</rscale>
<asrwt>0</asrwt>
<pdfrwt beam="1">  1        2 0.33748648E+00 0.55197119E+03</pdfrwt>
<pdfrwt beam="2">  1       -2 0.32626005E-01 0.55197119E+03</pdfrwt>
<totfact> 0.48537850E+01</totfact>
</mgrwt>
</event>
<event>
 4    1  0.3365401E-008  0.6305751E+03  0.7818608E-02  0.9843927E-01
         -2   -1    0    0    0  501 -0.00000000000E+00  0.00000000000E+00  0.21258752800E+03  0.21258752801E+03  0.25500000000E-02 0.  1.
          2   -1    0    0  501    0  0.00000000000E+00 -0.00000000000E+00 -0.19342883430E+04  0.19342883430E+04  0.25500000000E-02 0. -1.
    8880022    1    1    2    0    0  0.60718260401E+03  0.74582541577E+02 -0.10559281791E+04  0.12298818002E+04  0.15294330000E+03 0.  0.
    8880022    1    1    2    0    0 -0.60718260401E+03 -0.74582541577E+02 -0.66577263591E+03  0.91699407078E+03  0.15294330000E+03 0.  0.
<mgrwt>
<rscale>  0 0.63057507E+03</rscale>
<asrwt>0</asrwt>
<pdfrwt beam="1">  1        2 0.29758281E+00 0.63057507E+03</pdfrwt>
<pdfrwt beam="2">  1       -2 0.32705775E-01 0.63057507E+03</pdfrwt>
<totfact> 0.66028716E+01</totfact>
</mgrwt>
</event>
<event>
 4    1  0.3365401E-008  0.7367278E+03  0.7818608E-02  0.9656405E-01
          2   -1    0    0  501    0  0.00000000000E+00  0.00000000000E+00  0.18905971829E+04  0.18905971829E+04  0.25500000000E-02 0. -1.
         -2   -1    0    0    0  501 -0.00000000000E+00 -0.00000000000E+00 -0.56306254330E+03  0.56306254330E+03  0.25500000000E-02 0.  1.
    8880022    1    1    2    0    0 -0.63234499100E+03 -0.34571095455E+03 -0.19512846857E+03  0.76213058199E+03  0.15294330000E+03 0.  0.
    8880022    1    1    2    0    0  0.63234499100E+03  0.34571095455E+03  0.15226631082E+04  0.16915291443E+04  0.15294330000E+03 0.  0.
<mgrwt>
<rscale>  0 0.73672784E+03</rscale>
<asrwt>0</asrwt>
<pdfrwt beam="1">  1        2 0.29086110E+00 0.73672784E+03</pdfrwt>
<pdfrwt beam="2">  1       -2 0.86625008E-01 0.73672784E+03</pdfrwt>
<totfact> 0.91780561E+00</totfact>
</mgrwt>
</event>
<event>
 4    1  0.3365401E-008  0.6095772E+03  0.7818608E-02  0.9885733E-01
          2   -1    0    0  501    0  0.00000000000E+00  0.00000000000E+00  0.87827707714E+03  0.87827707714E+03  0.25500000000E-02 0. -1.
         -2   -1    0    0    0  501 -0.00000000000E+00 -0.00000000000E+00 -0.67131661081E+03  0.67131661081E+03  0.25500000000E-02 0.  1.
    8880022    1    1    2    0    0  0.37240045591E+03  0.45772332306E+03 -0.36766429039E+03  0.71187177461E+03  0.15294330000E+03 0.  0.
    8880022    1    1    2    0    0 -0.37240045591E+03 -0.45772332306E+03  0.57462475673E+03  0.83772191335E+03  0.15294330000E+03 0.  0.
<mgrwt>
<rscale>  0 0.60957722E+03</rscale>
<asrwt>0</asrwt>
<pdfrwt beam="1">  1        2 0.13511955E+00 0.60957722E+03</pdfrwt>
<pdfrwt beam="2">  1       -2 0.10327948E+00 0.60957722E+03</pdfrwt>
<totfact> 0.23911436E+01</totfact>
</mgrwt>
</event>
<event>
 4    1  0.3365401E-008  0.2282643E+03  0.7818608E-02  0.1127867E+00
          2   -1    0    0  501    0  0.00000000000E+00  0.00000000000E+00  0.72945258801E+03  0.72945258801E+03  0.25500000000E-02 0. -1.
         -2   -1    0    0    0  501 -0.00000000000E+00 -0.00000000000E+00 -0.93228422951E+02  0.93228422986E+02  0.25500000000E-02 0.  1.
    8880022    1    1    2    0    0 -0.16823683714E+03 -0.20231656803E+02  0.11920856264E+03  0.25751754839E+03  0.15294330000E+03 0.  0.
    8880022    1    1    2    0    0  0.16823683714E+03  0.20231656803E+02  0.51701560242E+03  0.56516346261E+03  0.15294330000E+03 0.  0.
<mgrwt>
<rscale>  0 0.22826433E+03</rscale>
<asrwt>0</asrwt>
<pdfrwt beam="1">  1        2 0.11222348E+00 0.22826433E+03</pdfrwt>
<pdfrwt beam="2">  1       -2 0.14342834E-01 0.22826433E+03</pdfrwt>
<totfact> 0.14686012E+03</totfact>
</mgrwt>
</event>
<event>
 4    1  0.3365401E-008  0.9913586E+03  0.7818608E-02  0.9318074E-01
         -2   -1    0    0    0  501 -0.00000000000E+00  0.00000000000E+00  0.98006908071E+03  0.98006908071E+03  0.25500000000E-02 0.  1.
          2   -1    0    0  501    0  0.00000000000E+00 -0.00000000000E+00 -0.14116980245E+04  0.14116980245E+04  0.25500000000E-02 0. -1.
    8880022    1    1    2    0    0 -0.63573712768E+03  0.74514322987E+03 -0.85944575012E+03  0.13120361195E+04  0.15294330000E+03 0.  0.
    8880022    1    1    2    0    0  0.63573712768E+03 -0.74514322987E+03  0.42781680637E+03  0.10797309856E+04  0.15294330000E+03 0.  0.
<mgrwt>
<rscale>  0 0.99135855E+03</rscale>
<asrwt>0</asrwt>
<pdfrwt beam="1">  1        2 0.21718431E+00 0.99135855E+03</pdfrwt>
<pdfrwt beam="2">  1       -2 0.15077986E+00 0.99135855E+03</pdfrwt>
<totfact> 0.41820172E+00</totfact>
</mgrwt>
</event>
<event>
 4    1  0.3365401E-008  0.2599861E+03  0.7818608E-02  0.1107152E+00
          2   -1    0    0  501    0  0.00000000000E+00  0.00000000000E+00  0.52830803087E+03  0.52830803087E+03  0.25500000000E-02 0. -1.
         -2   -1    0    0    0  501 -0.00000000000E+00 -0.00000000000E+00 -0.10747403327E+04  0.10747403327E+04  0.25500000000E-02 0.  1.
    8880022    1    1    2    0    0 -0.16657707878E+03 -0.12827010127E+03  0.47908823563E+03  0.54508561951E+03  0.15294330000E+03 0. -1.
    8880022    1    1    2    0    0  0.16657707878E+03  0.12827010127E+03 -0.10255205374E+04  0.10579627440E+04  0.15294330000E+03 0.  0.
<mgrwt>
<rscale>  0 0.25998614E+03</rscale>
<asrwt>0</asrwt>
<pdfrwt beam="1">  1        2 0.81278159E-01 0.25998614E+03</pdfrwt>
<pdfrwt beam="2">  1       -2 0.16534467E+00 0.25998614E+03</pdfrwt>
<totfact> 0.14577087E+01</totfact>
</mgrwt>
</event>
<event>
 4    1  0.3365401E-008  0.4420654E+03  0.7818608E-02  0.1030115E+00
         -2   -1    0    0    0  501 -0.00000000000E+00  0.00000000000E+00  0.73352497418E+03  0.73352497418E+03  0.25500000000E-02 0.  1.
          2   -1    0    0  501    0  0.00000000000E+00 -0.00000000000E+00 -0.60494972594E+03  0.60494972594E+03  0.25500000000E-02 0. -1.
    8880022    1    1    2    0    0  0.99569926355E+02  0.40263635763E+03 -0.43634864850E+03  0.62114571783E+03  0.15294330000E+03 0.  0.
    8880022    1    1    2    0    0 -0.99569926355E+02 -0.40263635763E+03  0.56492389674E+03  0.71732898230E+03  0.15294330000E+03 0.  0.
<mgrwt>
<rscale>  0 0.44206545E+03</rscale>
<asrwt>0</asrwt>
<pdfrwt beam="1">  1        2 0.93069189E-01 0.44206545E+03</pdfrwt>
<pdfrwt beam="2">  1       -2 0.11285000E+00 0.44206545E+03</pdfrwt>
<totfact> 0.31703983E+01</totfact>
</mgrwt>
</event>
<event>
 4    1  0.3365401E-008  0.2679605E+03  0.7818608E-02  0.1102453E+00
          2   -1    0    0  501    0  0.00000000000E+00  0.00000000000E+00  0.44479897372E+03  0.44479897372E+03  0.25500000000E-02 0. -1.
         -2   -1    0    0    0  501 -0.00000000000E+00 -0.00000000000E+00 -0.37417106467E+03  0.37417106468E+03  0.25500000000E-02 0.  1.
    8880022    1    1    2    0    0  0.19845474560E+03  0.95009872755E+02 -0.27345318064E+03  0.38285696675E+03  0.15294330000E+03 0.  1.
    8880022    1    1    2    0    0 -0.19845474560E+03 -0.95009872755E+02  0.34408108969E+03  0.43611307165E+03  0.15294330000E+03 0.  0.
<mgrwt>
<rscale>  0 0.26796047E+03</rscale>
<asrwt>0</asrwt>
<pdfrwt beam="1">  1        2 0.68430611E-01 0.26796047E+03</pdfrwt>
<pdfrwt beam="2">  1       -2 0.57564779E-01 0.26796047E+03</pdfrwt>
<totfact> 0.20640994E+02</totfact>
</mgrwt>
</event>
<event>
 4    1  0.3365401E-008  0.4874661E+03  0.7818608E-02  0.1017103E+00
          2   -1    0    0  501    0  0.00000000000E+00  0.00000000000E+00  0.10630500364E+04  0.10630500364E+04  0.25500000000E-02 0. -1.
         -2   -1    0    0    0  501 -0.00000000000E+00 -0.00000000000E+00 -0.36068577125E+03  0.36068577126E+03  0.25500000000E-02 0.  1.
    8880022    1    1    2    0    0 -0.38644349903E+03 -0.25474095515E+03 -0.87795639987E+02  0.49530925651E+03  0.15294330000E+03 0.  0.
    8880022    1    1    2    0    0  0.38644349903E+03  0.25474095515E+03  0.79015990517E+03  0.92842655118E+03  0.15294330000E+03 0.  0.
<mgrwt>
<rscale>  0 0.48746609E+03</rscale>
<asrwt>0</asrwt>
<pdfrwt beam="1">  1        2 0.16354616E+00 0.48746609E+03</pdfrwt>
<pdfrwt beam="2">  1       -2 0.55490119E-01 0.48746609E+03</pdfrwt>
<totfact> 0.73091788E+01</totfact>
</mgrwt>
</event>
<event>
 4    1  0.3365401E-008  0.2287925E+03  0.7818608E-02  0.1127493E+00
          2   -1    0    0  501    0  0.00000000000E+00  0.00000000000E+00  0.15121667187E+04  0.15121667187E+04  0.25500000000E-02 0. -1.
         -2   -1    0    0    0  501 -0.00000000000E+00 -0.00000000000E+00 -0.35547861685E+03  0.35547861686E+03  0.25500000000E-02 0.  1.
    8880022    1    1    2    0    0  0.11096687467E+03 -0.12899886922E+03 -0.30884638877E+03  0.38435933760E+03  0.15294330000E+03 0.  1.
    8880022    1    1    2    0    0 -0.11096687467E+03  0.12899886922E+03  0.14655344906E+04  0.14832859980E+04  0.15294330000E+03 0.  0.
<mgrwt>
<rscale>  0 0.22879250E+03</rscale>
<asrwt>0</asrwt>
<pdfrwt beam="1">  1        2 0.23264103E+00 0.22879250E+03</pdfrwt>
<pdfrwt beam="2">  1       -2 0.54689019E-01 0.22879250E+03</pdfrwt>
<totfact> 0.44349178E+01</totfact>
</mgrwt>
</event>
<event>
 4    1  0.3365401E-008  0.5671413E+03  0.7818608E-02  0.9976024E-01
          2   -1    0    0  501    0  0.00000000000E+00  0.00000000000E+00  0.16515886891E+04  0.16515886891E+04  0.25500000000E-02 0. -1.
         -2   -1    0    0    0  501 -0.00000000000E+00 -0.00000000000E+00 -0.20272501996E+03  0.20272501998E+03  0.25500000000E-02 0.  1.
    8880022    1    1    2    0    0 -0.32994378476E+03  0.43519506072E+03  0.90830819253E+03  0.10708282157E+04  0.15294330000E+03 0.  0.
    8880022    1    1    2    0    0  0.32994378476E+03 -0.43519506072E+03  0.54055547662E+03  0.78348549335E+03  0.15294330000E+03 0.  0.
<mgrwt>
<rscale>  0 0.56714134E+03</rscale>
<asrwt>0</asrwt>
<pdfrwt beam="1">  1        2 0.25409057E+00 0.56714134E+03</pdfrwt>
<pdfrwt beam="2">  1       -2 0.31188464E-01 0.56714134E+03</pdfrwt>
<totfact> 0.10352060E+02</totfact>
</mgrwt>
</event>
<event>
 4    1  0.3365401E-008  0.2301269E+03  0.7818608E-02  0.1126550E+00
          2   -1    0    0  501    0  0.00000000000E+00  0.00000000000E+00  0.18364255527E+04  0.18364255527E+04  0.25500000000E-02 0. -1.
         -2   -1    0    0    0  501 -0.00000000000E+00 -0.00000000000E+00 -0.99602369645E+02  0.99602369678E+02  0.25500000000E-02 0.  1.
    8880022    1    1    2    0    0  0.52975682473E+02  0.16358579309E+03  0.16843452763E+04  0.16999933522E+04  0.15294330000E+03 0.  0.
    8880022    1    1    2    0    0 -0.52975682473E+02 -0.16358579309E+03  0.52477906797E+02  0.23603457025E+03  0.15294330000E+03 0.  0.
<mgrwt>
<rscale>  0 0.23012689E+03</rscale>
<asrwt>0</asrwt>
<pdfrwt beam="1">  1        2 0.28252699E+00 0.23012689E+03</pdfrwt>
<pdfrwt beam="2">  1       -2 0.15323442E-01 0.23012689E+03</pdfrwt>
<totfact> 0.30327498E+02</totfact>
</mgrwt>
</event>
<event>
 4    1  0.3365401E-008  0.2967351E+03  0.7818608E-02  0.1086884E+00
          2   -1    0    0  501    0  0.00000000000E+00  0.00000000000E+00  0.52658117630E+03  0.52658117631E+03  0.25500000000E-02 0. -1.
         -2   -1    0    0    0  501 -0.00000000000E+00 -0.00000000000E+00 -0.20419743359E+03  0.20419743360E+03  0.25500000000E-02 0.  1.
    8880022    1    1    2    0    0  0.57670927626E+02  0.24765734047E+03  0.56904798582E+01  0.29678970460E+03  0.15294330000E+03 0.  0.
    8880022    1    1    2    0    0 -0.57670927626E+02 -0.24765734047E+03  0.31669326286E+03  0.43398890531E+03  0.15294330000E+03 0. -1.
<mgrwt>
<rscale>  0 0.29673515E+03</rscale>
<asrwt>0</asrwt>
<pdfrwt beam="1">  1        2 0.81012487E-01 0.29673515E+03</pdfrwt>
<pdfrwt beam="2">  1       -2 0.31414991E-01 0.29673515E+03</pdfrwt>
<totfact> 0.55366346E+02</totfact>
</mgrwt>
</event>
<event>
 4    1  0.3365401E-008  0.3923411E+03  0.7818608E-02  0.1046464E+00
         -2   -1    0    0    0  501 -0.00000000000E+00  0.00000000000E+00  0.86788480941E+02  0.86788480979E+02  0.25500000000E-02 0.  1.
          2   -1    0    0  501    0  0.00000000000E+00 -0.00000000000E+00 -0.30547695415E+04  0.30547695415E+04  0.25500000000E-02 0. -1.
    8880022    1    1    2    0    0 -0.32120184750E+03  0.16543652864E+03 -0.25012280722E+04  0.25318122747E+04  0.15294330000E+03 0.  0.
    8880022    1    1    2    0    0  0.32120184750E+03 -0.16543652864E+03 -0.46675298834E+03  0.60974574782E+03  0.15294330000E+03 0.  0.
<mgrwt>
<rscale>  0 0.39234108E+03</rscale>
<asrwt>0</asrwt>
<pdfrwt beam="1">  1        2 0.46996446E+00 0.39234108E+03</pdfrwt>
<pdfrwt beam="2">  1       -2 0.13352076E-01 0.39234108E+03</pdfrwt>
<totfact> 0.77481618E+01</totfact>
</mgrwt>
</event>
<event>
 4    1  0.3365401E-008  0.3526646E+03  0.7818608E-02  0.1061527E+00
         -2   -1    0    0    0  501 -0.00000000000E+00  0.00000000000E+00  0.22790582031E+03  0.22790582032E+03  0.25500000000E-02 0.  1.
          2   -1    0    0  501    0  0.00000000000E+00 -0.00000000000E+00 -0.81824709195E+03  0.81824709195E+03  0.25500000000E-02 0. -1.
    8880022    1    1    2    0    0 -0.14325438556E+03  0.28365265897E+03  0.67059234504E+01  0.35272832654E+03  0.15294330000E+03 0.  0.
    8880022    1    1    2    0    0  0.14325438556E+03 -0.28365265897E+03 -0.59704719509E+03  0.69342458573E+03  0.15294330000E+03 0.  0.
<mgrwt>
<rscale>  0 0.35266458E+03</rscale>
<asrwt>0</asrwt>
<pdfrwt beam="1">  1        2 0.12588417E+00 0.35266458E+03</pdfrwt>
<pdfrwt beam="2">  1       -2 0.35062434E-01 0.35266458E+03</pdfrwt>
<totfact> 0.26391236E+02</totfact>
</mgrwt>
</event>
<event>
 4    1  0.3365401E-008  0.1034505E+04  0.7818608E-02  0.9271489E-01
          2   -1    0    0  501    0  0.00000000000E+00  0.00000000000E+00  0.16206203796E+04  0.16206203796E+04  0.25500000000E-02 0. -1.
         -2   -1    0    0    0  501 -0.00000000000E+00 -0.00000000000E+00 -0.68329620124E+03  0.68329620124E+03  0.25500000000E-02 0.  1.
    8880022    1    1    2    0    0  0.11519396777E+03 -0.10166314587E+04  0.67969322489E+03  0.12378140838E+04  0.15294330000E+03 0.  0.
    8880022    1    1    2    0    0 -0.11519396777E+03  0.10166314587E+04  0.25763095350E+03  0.10661024971E+04  0.15294330000E+03 0.  0.
<mgrwt>
<rscale>  0 0.10345051E+04</rscale>
<asrwt>0</asrwt>
<pdfrwt beam="1">  1        2 0.24932621E+00 0.10345051E+04</pdfrwt>
<pdfrwt beam="2">  1       -2 0.10512249E+00 0.10345051E+04</pdfrwt>
<totfact> 0.78997320E+00</totfact>
</mgrwt>
</event>
<event>
 4    1  0.3365401E-008  0.3110106E+03  0.7818608E-02  0.1079862E+00
          2   -1    0    0  501    0  0.00000000000E+00  0.00000000000E+00  0.18769253511E+03  0.18769253512E+03  0.25500000000E-02 0. -1.
         -2   -1    0    0    0  501 -0.00000000000E+00 -0.00000000000E+00 -0.66890492604E+03  0.66890492605E+03  0.25500000000E-02 0.  1.
    8880022    1    1    2    0    0  0.21604924312E+03  0.16327486513E+03 -0.44581429206E+03  0.54357887473E+03  0.15294330000E+03 0.  1.
    8880022    1    1    2    0    0 -0.21604924312E+03 -0.16327486513E+03 -0.35398098875E+02  0.31301858644E+03  0.15294330000E+03 0.  0.
<mgrwt>
<rscale>  0 0.31101063E+03</rscale>
<asrwt>0</asrwt>
<pdfrwt beam="1">  1        2 0.28875775E-01 0.31101063E+03</pdfrwt>
<pdfrwt beam="2">  1       -2 0.10290845E+00 0.31101063E+03</pdfrwt>
<totfact> 0.14727091E+02</totfact>
</mgrwt>
</event>
<event>
 4    1  0.3365401E-008  0.3835217E+03  0.7818608E-02  0.1049640E+00
          2   -1    0    0  501    0  0.00000000000E+00  0.00000000000E+00  0.11529466676E+04  0.11529466676E+04  0.25500000000E-02 0. -1.
         -2   -1    0    0    0  501 -0.00000000000E+00 -0.00000000000E+00 -0.33310993132E+03  0.33310993133E+03  0.25500000000E-02 0.  1.
    8880022    1    1    2    0    0 -0.30457329538E+03 -0.17587601259E+03 -0.17373202937E+03  0.42103650092E+03  0.15294330000E+03 0.  1.
    8880022    1    1    2    0    0  0.30457329538E+03  0.17587601259E+03  0.99356876561E+03  0.10650200980E+04  0.15294330000E+03 0.  0.
<mgrwt>
<rscale>  0 0.38352173E+03</rscale>
<asrwt>0</asrwt>
<pdfrwt beam="1">  1        2 0.17737641E+00 0.38352173E+03</pdfrwt>
<pdfrwt beam="2">  1       -2 0.51247682E-01 0.38352173E+03</pdfrwt>
<totfact> 0.77125025E+01</totfact>
</mgrwt>
</event>
<event>
 4    1  0.3365401E-008  0.6419985E+03  0.7818608E-02  0.9821910E-01
         -2   -1    0    0    0  501 -0.00000000000E+00  0.00000000000E+00  0.34617368282E+03  0.34617368283E+03  0.25500000000E-02 0.  1.
          2   -1    0    0  501    0  0.00000000000E+00 -0.00000000000E+00 -0.16925334170E+04  0.16925334170E+04  0.25500000000E-02 0. -1.
    8880022    1    1    2    0    0  0.27267331833E+03 -0.56073140114E+03 -0.11808190289E+03  0.65276751724E+03  0.15294330000E+03 0.  0.
    8880022    1    1    2    0    0 -0.27267331833E+03  0.56073140114E+03 -0.12282778313E+04  0.13859395826E+04  0.15294330000E+03 0.  0.
<mgrwt>
<rscale>  0 0.64199852E+03</rscale>
<asrwt>0</asrwt>
<pdfrwt beam="1">  1        2 0.26038975E+00 0.64199852E+03</pdfrwt>
<pdfrwt beam="2">  1       -2 0.53257491E-01 0.64199852E+03</pdfrwt>
<totfact> 0.34244801E+01</totfact>
</mgrwt>
</event>
<event>
 4    1  0.3365401E-008  0.5691924E+03  0.7818608E-02  0.9971467E-01
          2   -1    0    0  501    0  0.00000000000E+00  0.00000000000E+00  0.22513748426E+04  0.22513748426E+04  0.25500000000E-02 0. -1.
         -2   -1    0    0    0  501 -0.00000000000E+00 -0.00000000000E+00 -0.30659641655E+03  0.30659641656E+03  0.25500000000E-02 0.  1.
    8880022    1    1    2    0    0  0.44023884639E+03  0.32676922614E+03  0.19040694077E+04  0.19873249184E+04  0.15294330000E+03 0.  0.
    8880022    1    1    2    0    0 -0.44023884639E+03 -0.32676922614E+03  0.40709018358E+02  0.57064634076E+03  0.15294330000E+03 0.  1.
<mgrwt>
<rscale>  0 0.56919243E+03</rscale>
<asrwt>0</asrwt>
<pdfrwt beam="1">  1        2 0.34636537E+00 0.56919243E+03</pdfrwt>
<pdfrwt beam="2">  1       -2 0.47168678E-01 0.56919243E+03</pdfrwt>
<totfact> 0.22042881E+01</totfact>
</mgrwt>
</event>
<event>
 4    1  0.3365401E-008  0.3839400E+03  0.7818608E-02  0.1049487E+00
          2   -1    0    0  501    0  0.00000000000E+00  0.00000000000E+00  0.19621142851E+04  0.19621142851E+04  0.25500000000E-02 0. -1.
         -2   -1    0    0    0  501 -0.00000000000E+00 -0.00000000000E+00 -0.91325964550E+02  0.91325964585E+02  0.25500000000E-02 0.  1.
    8880022    1    1    2    0    0 -0.26861904815E+02 -0.35113628761E+03  0.13677923791E+04  0.14206568551E+04  0.15294330000E+03 0.  0.
    8880022    1    1    2    0    0  0.26861904815E+02  0.35113628761E+03  0.50299594138E+03  0.63278339459E+03  0.15294330000E+03 0.  0.
<mgrwt>
<rscale>  0 0.38393998E+03</rscale>
<asrwt>0</asrwt>
<pdfrwt beam="1">  1        2 0.30186373E+00 0.38393998E+03</pdfrwt>
<pdfrwt beam="2">  1       -2 0.14050149E-01 0.38393998E+03</pdfrwt>
<totfact> 0.29204063E+02</totfact>
</mgrwt>
</event>
<event>
 4    1  0.3365401E-008  0.1909818E+03  0.7818608E-02  0.1157579E+00
         -2   -1    0    0    0  501 -0.00000000000E+00  0.00000000000E+00  0.48555090485E+03  0.48555090486E+03  0.25500000000E-02 0.  1.
          2   -1    0    0  501    0  0.00000000000E+00 -0.00000000000E+00 -0.16943144832E+03  0.16943144834E+03  0.25500000000E-02 0. -1.
    8880022    1    1    2    0    0 -0.49466754922E+02  0.10312817589E+03  0.40239569982E+03  0.44541703240E+03  0.15294330000E+03 0.  0.
    8880022    1    1    2    0    0  0.49466754922E+02 -0.10312817589E+03 -0.86276243292E+02  0.20956532079E+03  0.15294330000E+03 0.  0.
<mgrwt>
<rscale>  0 0.19098176E+03</rscale>
<asrwt>0</asrwt>
<pdfrwt beam="1">  1        2 0.26066377E-01 0.19098176E+03</pdfrwt>
<pdfrwt beam="2">  1       -2 0.74700139E-01 0.19098176E+03</pdfrwt>
<totfact> 0.34117818E+02</totfact>
</mgrwt>
</event>
<event>
 4    1  0.3365401E-008  0.2697161E+03  0.7818608E-02  0.1101442E+00
          2   -1    0    0  501    0  0.00000000000E+00  0.00000000000E+00  0.27108540024E+03  0.27108540025E+03  0.25500000000E-02 0. -1.
         -2   -1    0    0    0  501 -0.00000000000E+00 -0.00000000000E+00 -0.75432784005E+03  0.75432784006E+03  0.25500000000E-02 0.  1.
    8880022    1    1    2    0    0  0.52307714303E+02 -0.21591439156E+03  0.16990302789E+03  0.31876921645E+03  0.15294330000E+03 0.  0.
    8880022    1    1    2    0    0 -0.52307714303E+02  0.21591439156E+03 -0.65314546770E+03  0.70664402385E+03  0.15294330000E+03 0.  1.
<mgrwt>
<rscale>  0 0.26971610E+03</rscale>
<asrwt>0</asrwt>
<pdfrwt beam="1">  1        2 0.41705447E-01 0.26971610E+03</pdfrwt>
<pdfrwt beam="2">  1       -2 0.11605044E+00 0.26971610E+03</pdfrwt>
<totfact> 0.74185058E+01</totfact>
</mgrwt>
</event>
<event>
 4    1  0.3365401E-008  0.1067918E+04  0.7818608E-02  0.9237038E-01
          2   -1    0    0  501    0  0.00000000000E+00  0.00000000000E+00  0.17388583122E+04  0.17388583122E+04  0.25500000000E-02 0. -1.
         -2   -1    0    0    0  501 -0.00000000000E+00 -0.00000000000E+00 -0.79309262241E+03  0.79309262241E+03  0.25500000000E-02 0.  1.
    8880022    1    1    2    0    0  0.10569088639E+04  0.18382845457E+00  0.99949591428E+03  0.14626825069E+04  0.15294330000E+03 0.  0.
    8880022    1    1    2    0    0 -0.10569088639E+04 -0.18382845457E+00 -0.53730224491E+02  0.10692684277E+04  0.15294330000E+03 0.  0.
<mgrwt>
<rscale>  0 0.10679176E+04</rscale>
<asrwt>0</asrwt>
<pdfrwt beam="1">  1        2 0.26751666E+00 0.10679176E+04</pdfrwt>
<pdfrwt beam="2">  1       -2 0.12201425E+00 0.10679176E+04</pdfrwt>
<totfact> 0.46973987E+00</totfact>
</mgrwt>
</event>
<event>
 4    1  0.3365401E-008  0.5744649E+03  0.7818608E-02  0.9959847E-01
         -2   -1    0    0    0  501 -0.00000000000E+00  0.00000000000E+00  0.69106630413E+03  0.69106630413E+03  0.25500000000E-02 0.  1.
          2   -1    0    0  501    0  0.00000000000E+00 -0.00000000000E+00 -0.71000453909E+03  0.71000453910E+03  0.25500000000E-02 0. -1.
    8880022    1    1    2    0    0  0.36212339801E+03  0.41890919596E+03 -0.41031777649E+03  0.70595368160E+03  0.15294330000E+03 0.  0.
    8880022    1    1    2    0    0 -0.36212339801E+03 -0.41890919596E+03  0.39137954153E+03  0.69511716163E+03  0.15294330000E+03 0.  0.
<mgrwt>
<rscale>  0 0.57446490E+03</rscale>
<asrwt>0</asrwt>
<pdfrwt beam="1">  1        2 0.10923147E+00 0.57446490E+03</pdfrwt>
<pdfrwt beam="2">  1       -2 0.10631789E+00 0.57446490E+03</pdfrwt>
<totfact> 0.29599184E+01</totfact>
</mgrwt>
</event>
<event>
 4    1  0.3365401E-008  0.4921780E+03  0.7818608E-02  0.1015841E+00
         -2   -1    0    0    0  501 -0.00000000000E+00  0.00000000000E+00  0.63940829103E+03  0.63940829103E+03  0.25500000000E-02 0.  1.
          2   -1    0    0  501    0  0.00000000000E+00 -0.00000000000E+00 -0.39345893264E+04  0.39345893264E+04  0.25500000000E-02 0. -1.
    8880022    1    1    2    0    0 -0.10427109710E+03  0.45604278837E+03 -0.38216992341E+04  0.38532614985E+04  0.15294330000E+03 0.  0.
    8880022    1    1    2    0    0  0.10427109710E+03 -0.45604278837E+03  0.52651819876E+03  0.72073611895E+03  0.15294330000E+03 0.  1.
<mgrwt>
<rscale>  0 0.49217796E+03</rscale>
<asrwt>0</asrwt>
<pdfrwt beam="1">  1        2 0.60532142E+00 0.49217796E+03</pdfrwt>
<pdfrwt beam="2">  1       -2 0.98370509E-01 0.49217796E+03</pdfrwt>
<totfact> 0.40129083E-01</totfact>
</mgrwt>
</event>
<event>
 4    1  0.3365401E-008  0.6476318E+03  0.7818608E-02  0.9811233E-01
          2   -1    0    0  501    0  0.00000000000E+00  0.00000000000E+00  0.43635881381E+04  0.43635881381E+04  0.25500000000E-02 0. -1.
         -2   -1    0    0    0  501 -0.00000000000E+00 -0.00000000000E+00 -0.17285321050E+03  0.17285321052E+03  0.25500000000E-02 0.  1.
    8880022    1    1    2    0    0  0.30744969653E+03 -0.54909926595E+03  0.36066267757E+04  0.36643121691E+04  0.15294330000E+03 0.  0.
    8880022    1    1    2    0    0 -0.30744969653E+03  0.54909926595E+03  0.58410815183E+03  0.87212917954E+03  0.15294330000E+03 0.  0.
<mgrwt>
<rscale>  0 0.64763182E+03</rscale>
<asrwt>0</asrwt>
<pdfrwt beam="1">  1        2 0.67132122E+00 0.64763182E+03</pdfrwt>
<pdfrwt beam="2">  1       -2 0.26592803E-01 0.64763182E+03</pdfrwt>
<totfact> 0.24589044E+00</totfact>
</mgrwt>
</event>
<event>
 4    1  0.3365401E-008  0.4907954E+03  0.7818608E-02  0.1016210E+00
          2   -1    0    0  501    0  0.00000000000E+00  0.00000000000E+00  0.22875312252E+04  0.22875312252E+04  0.25500000000E-02 0. -1.
         -2   -1    0    0    0  501 -0.00000000000E+00 -0.00000000000E+00 -0.18698461408E+03  0.18698461410E+03  0.25500000000E-02 0.  1.
    8880022    1    1    2    0    0  0.18529224168E+03 -0.42796640893E+03  0.23251707604E+03  0.54308775134E+03  0.15294330000E+03 0.  0.
    8880022    1    1    2    0    0 -0.18529224168E+03  0.42796640893E+03  0.18680295350E+04  0.19314280879E+04  0.15294330000E+03 0.  0.
<mgrwt>
<rscale>  0 0.49079539E+03</rscale>
<asrwt>0</asrwt>
<pdfrwt beam="1">  1        2 0.35192786E+00 0.49079539E+03</pdfrwt>
<pdfrwt beam="2">  1       -2 0.28766865E-01 0.49079539E+03</pdfrwt>
<totfact> 0.55066479E+01</totfact>
</mgrwt>
</event>
<event>
 4    1  0.3365401E-008  0.6027903E+03  0.7818608E-02  0.9899634E-01
          2   -1    0    0  501    0  0.00000000000E+00  0.00000000000E+00  0.12201319129E+04  0.12201319129E+04  0.25500000000E-02 0. -1.
         -2   -1    0    0    0  501 -0.00000000000E+00 -0.00000000000E+00 -0.34018072717E+03  0.34018072718E+03  0.25500000000E-02 0.  1.
    8880022    1    1    2    0    0  0.10891975465E+03  0.57280095274E+03  0.16461133829E+03  0.62486237695E+03  0.15294330000E+03 0.  0.
    8880022    1    1    2    0    0 -0.10891975465E+03 -0.57280095274E+03  0.71533984739E+03  0.93545026308E+03  0.15294330000E+03 0.  0.
<mgrwt>
<rscale>  0 0.60279026E+03</rscale>
<asrwt>0</asrwt>
<pdfrwt beam="1">  1        2 0.18771260E+00 0.60279026E+03</pdfrwt>
<pdfrwt beam="2">  1       -2 0.52335497E-01 0.60279026E+03</pdfrwt>
<totfact> 0.65534001E+01</totfact>
</mgrwt>
</event>
<event>
 4    1  0.3365401E-008  0.2361006E+03  0.7818608E-02  0.1122418E+00
          2   -1    0    0  501    0  0.00000000000E+00  0.00000000000E+00  0.10815636077E+04  0.10815636077E+04  0.25500000000E-02 0. -1.
         -2   -1    0    0    0  501 -0.00000000000E+00 -0.00000000000E+00 -0.13628508014E+04  0.13628508014E+04  0.25500000000E-02 0.  1.
    8880022    1    1    2    0    0  0.69175141863E+02  0.16603207096E+03  0.10582304138E+04  0.10842486387E+04  0.15294330000E+03 0.  0.
    8880022    1    1    2    0    0 -0.69175141863E+02 -0.16603207096E+03 -0.13395176076E+04  0.13601657703E+04  0.15294330000E+03 0.  0.
<mgrwt>
<rscale>  0 0.23610062E+03</rscale>
<asrwt>0</asrwt>
<pdfrwt beam="1">  1        2 0.16639440E+00 0.23610062E+03</pdfrwt>
<pdfrwt beam="2">  1       -2 0.20966935E+00 0.23610062E+03</pdfrwt>
<totfact> 0.30405068E+00</totfact>
</mgrwt>
</event>
<event>
 4    1  0.3365401E-008  0.5412647E+03  0.7818608E-02  0.1003536E+00
          2   -1    0    0  501    0  0.00000000000E+00  0.00000000000E+00  0.30835536641E+03  0.30835536642E+03  0.25500000000E-02 0. -1.
         -2   -1    0    0    0  501 -0.00000000000E+00 -0.00000000000E+00 -0.21774592280E+04  0.21774592280E+04  0.25500000000E-02 0.  1.
    8880022    1    1    2    0    0 -0.19969385034E+03  0.47926841061E+03 -0.14048412567E+01  0.54126654235E+03  0.15294330000E+03 0.  0.
    8880022    1    1    2    0    0  0.19969385034E+03 -0.47926841061E+03 -0.18676990203E+04  0.19445480521E+04  0.15294330000E+03 0.  0.
<mgrwt>
<rscale>  0 0.54126472E+03</rscale>
<asrwt>0</asrwt>
<pdfrwt beam="1">  1        2 0.47439289E-01 0.54126472E+03</pdfrwt>
<pdfrwt beam="2">  1       -2 0.33499372E+00 0.54126472E+03</pdfrwt>
<totfact> 0.22403559E+00</totfact>
</mgrwt>
</event>
<event>
 4    1  0.5403737E-008  0.9190148E+03  0.7818608E-02  0.9402119E-01
         -2   -1    0    0    0  501 -0.00000000000E+00  0.00000000000E+00  0.12312736879E+04  0.12312736879E+04  0.25500000000E-02 0.  1.
          2   -1    0    0  501    0  0.00000000000E+00 -0.00000000000E+00 -0.17114764419E+04  0.17114764419E+04  0.25500000000E-02 0. -1.
    8880022    1    1    2    0    0  0.17548942262E+02 -0.90602900362E+03  0.89886800752E+03  0.12855161877E+04  0.15294330000E+03 0.  0.
    8880022    1    1    2    0    0 -0.17548942262E+02  0.90602900362E+03 -0.13790707615E+04  0.16572339421E+04  0.15294330000E+03 0.  0.
<mgrwt>
<rscale>  0 0.91901478E+03</rscale>
<asrwt>0</asrwt>
<pdfrwt beam="1">  1        2 0.26330407E+00 0.91901478E+03</pdfrwt>
<pdfrwt beam="2">  1       -2 0.18942672E+00 0.91901478E+03</pdfrwt>
<totfact> 0.15209883E+00</totfact>
</mgrwt>
</event>
<event>
 4    1  0.3365401E-008  0.5511085E+03  0.7818608E-02  0.1001238E+00
          2   -1    0    0  501    0  0.00000000000E+00  0.00000000000E+00  0.18075455767E+04  0.18075455767E+04  0.25500000000E-02 0. -1.
         -2   -1    0    0    0  501 -0.00000000000E+00 -0.00000000000E+00 -0.37511470460E+03  0.37511470461E+03  0.25500000000E-02 0.  1.
    8880022    1    1    2    0    0  0.70085366901E+02  0.52480188347E+03  0.15270809768E+04  0.16234829652E+04  0.15294330000E+03 0.  0.
    8880022    1    1    2    0    0 -0.70085366901E+02 -0.52480188347E+03 -0.94650104682E+02  0.55917731613E+03  0.15294330000E+03 0.  0.
<mgrwt>
<rscale>  0 0.55110855E+03</rscale>
<asrwt>0</asrwt>
<pdfrwt beam="1">  1        2 0.27808393E+00 0.55110855E+03</pdfrwt>
<pdfrwt beam="2">  1       -2 0.57709956E-01 0.55110855E+03</pdfrwt>
<totfact> 0.25481162E+01</totfact>
</mgrwt>
</event>
<event>
 4    1  0.3365401E-008  0.3243867E+03  0.7818608E-02  0.1073648E+00
         -2   -1    0    0    0  501 -0.00000000000E+00  0.00000000000E+00  0.21254831114E+03  0.21254831115E+03  0.25500000000E-02 0.  1.
          2   -1    0    0  501    0  0.00000000000E+00 -0.00000000000E+00 -0.13643452521E+04  0.13643452521E+04  0.25500000000E-02 0. -1.
    8880022    1    1    2    0    0 -0.25120013782E+03  0.13687059875E+03 -0.12052429028E+04  0.12481334776E+04  0.15294330000E+03 0.  0.
    8880022    1    1    2    0    0  0.25120013782E+03 -0.13687059875E+03  0.53445961908E+02  0.32876008562E+03  0.15294330000E+03 0.  1.
<mgrwt>
<rscale>  0 0.32438669E+03</rscale>
<asrwt>0</asrwt>
<pdfrwt beam="1">  1        2 0.20989926E+00 0.32438669E+03</pdfrwt>
<pdfrwt beam="2">  1       -2 0.32699741E-01 0.32438669E+03</pdfrwt>
<totfact> 0.14109976E+02</totfact>
</mgrwt>
</event>
<event>
 4    1  0.3365401E-008  0.3927149E+03  0.7818608E-02  0.1046332E+00
          2   -1    0    0  501    0  0.00000000000E+00  0.00000000000E+00  0.36452106385E+04  0.36452106385E+04  0.25500000000E-02 0. -1.
         -2   -1    0    0    0  501 -0.00000000000E+00 -0.00000000000E+00 -0.42324339545E+02  0.42324339622E+02  0.25500000000E-02 0.  1.
    8880022    1    1    2    0    0  0.27277534309E+03  0.23754359758E+03  0.18366115420E+04  0.18781285786E+04  0.15294330000E+03 0. -1.
    8880022    1    1    2    0    0 -0.27277534309E+03 -0.23754359758E+03  0.17662747569E+04  0.18094063995E+04  0.15294330000E+03 0.  1.
<mgrwt>
<rscale>  0 0.39271491E+03</rscale>
<asrwt>0</asrwt>
<pdfrwt beam="1">  1        2 0.56080196E+00 0.39271491E+03</pdfrwt>
<pdfrwt beam="2">  1       -2 0.65114331E-02 0.39271491E+03</pdfrwt>
<totfact> 0.10146393E+02</totfact>
</mgrwt>
</event>
<event>
 4    1  0.3365401E-008  0.7155674E+03  0.7818608E-02  0.9690974E-01
         -2   -1    0    0    0  501 -0.00000000000E+00  0.00000000000E+00  0.11279210260E+04  0.11279210260E+04  0.25500000000E-02 0.  1.
          2   -1    0    0  501    0  0.00000000000E+00 -0.00000000000E+00 -0.85814140859E+03  0.85814140859E+03  0.25500000000E-02 0. -1.
    8880022    1    1    2    0    0  0.62354421895E+03  0.31597095878E+03  0.81639464267E+03  0.10856043964E+04  0.15294330000E+03 0.  0.
    8880022    1    1    2    0    0 -0.62354421895E+03 -0.31597095878E+03 -0.54661502526E+03  0.90045803824E+03  0.15294330000E+03 0.  0.
<mgrwt>
<rscale>  0 0.71556739E+03</rscale>
<asrwt>0</asrwt>
<pdfrwt beam="1">  1        2 0.13202175E+00 0.71556739E+03</pdfrwt>
<pdfrwt beam="2">  1       -2 0.17352631E+00 0.71556739E+03</pdfrwt>
<totfact> 0.64518263E+00</totfact>
</mgrwt>
</event>
<event>
 4    1  0.3365401E-008  0.5596304E+03  0.7818608E-02  0.9992891E-01
         -2   -1    0    0    0  501 -0.00000000000E+00  0.00000000000E+00  0.24828921623E+03  0.24828921624E+03  0.25500000000E-02 0.  1.
          2   -1    0    0  501    0  0.00000000000E+00 -0.00000000000E+00 -0.15949508977E+04  0.15949508977E+04  0.25500000000E-02 0. -1.
    8880022    1    1    2    0    0  0.33212130679E+03 -0.42366253629E+03 -0.25185307118E+03  0.61369058129E+03  0.15294330000E+03 0.  1.
    8880022    1    1    2    0    0 -0.33212130679E+03  0.42366253629E+03 -0.10948086103E+04  0.12295495327E+04  0.15294330000E+03 0.  0.
<mgrwt>
<rscale>  0 0.55963038E+03</rscale>
<asrwt>0</asrwt>
<pdfrwt beam="1">  1        2 0.24537705E+00 0.55963038E+03</pdfrwt>
<pdfrwt beam="2">  1       -2 0.38198342E-01 0.55963038E+03</pdfrwt>
<totfact> 0.75815570E+01</totfact>
</mgrwt>
</event>
<event>
 4    1  0.3365401E-008  0.4728204E+03  0.7818608E-02  0.1021127E+00
         -2   -1    0    0    0  501 -0.00000000000E+00  0.00000000000E+00  0.32861100715E+03  0.32861100716E+03  0.25500000000E-02 0.  1.
          2   -1    0    0  501    0  0.00000000000E+00 -0.00000000000E+00 -0.90782309093E+03  0.90782309093E+03  0.25500000000E-02 0. -1.
    8880022    1    1    2    0    0  0.43327031709E+03 -0.11155411418E+03 -0.59909016266E+03  0.76319601943E+03  0.15294330000E+03 0. -1.
    8880022    1    1    2    0    0 -0.43327031709E+03  0.11155411418E+03  0.19878078882E+02  0.47323807867E+03  0.15294330000E+03 0.  1.
<mgrwt>
<rscale>  0 0.47282041E+03</rscale>
<asrwt>0</asrwt>
<pdfrwt beam="1">  1        2 0.13966509E+00 0.47282041E+03</pdfrwt>
<pdfrwt beam="2">  1       -2 0.50555540E-01 0.47282041E+03</pdfrwt>
<totfact> 0.11109506E+02</totfact>
</mgrwt>
</event>
<event>
 4    1  0.3365401E-008  0.2363504E+03  0.7818608E-02  0.1122248E+00
         -2   -1    0    0    0  501 -0.00000000000E+00  0.00000000000E+00  0.50649381328E+03  0.50649381328E+03  0.25500000000E-02 0.  1.
          2   -1    0    0  501    0  0.00000000000E+00 -0.00000000000E+00 -0.16084006352E+04  0.16084006352E+04  0.25500000000E-02 0. -1.
    8880022    1    1    2    0    0  0.33316810939E+02 -0.17708710093E+03 -0.15715014224E+04  0.15891753286E+04  0.15294330000E+03 0.  0.
    8880022    1    1    2    0    0 -0.33316810939E+02  0.17708710093E+03  0.46959460051E+03  0.52571911992E+03  0.15294330000E+03 0.  0.
<mgrwt>
<rscale>  0 0.23635038E+03</rscale>
<asrwt>0</asrwt>
<pdfrwt beam="1">  1        2 0.24744625E+00 0.23635038E+03</pdfrwt>
<pdfrwt beam="2">  1       -2 0.77922126E-01 0.23635038E+03</pdfrwt>
<totfact> 0.18612253E+01</totfact>
</mgrwt>
</event>
<event>
 4    1  0.3365401E-008  0.1741821E+03  0.7818608E-02  0.1173555E+00
          2   -1    0    0  501    0  0.00000000000E+00  0.00000000000E+00  0.20267780658E+03  0.20267780660E+03  0.25500000000E-02 0. -1.
         -2   -1    0    0    0  501 -0.00000000000E+00 -0.00000000000E+00 -0.86846856116E+03  0.86846856116E+03  0.25500000000E-02 0.  1.
    8880022    1    1    2    0    0  0.64945688183E+02  0.52247507434E+02  0.15433964863E+03  0.23272327902E+03  0.15294330000E+03 0.  0.
    8880022    1    1    2    0    0 -0.64945688183E+02 -0.52247507434E+02 -0.82013040320E+03  0.83842308873E+03  0.15294330000E+03 0.  1.
<mgrwt>
<rscale>  0 0.17418208E+03</rscale>
<asrwt>0</asrwt>
<pdfrwt beam="1">  1        2 0.31181202E-01 0.17418208E+03</pdfrwt>
<pdfrwt beam="2">  1       -2 0.13361055E+00 0.17418208E+03</pdfrwt>
<totfact> 0.72946241E+01</totfact>
</mgrwt>
</event>
<event>
 4    1  0.3365401E-008  0.3976708E+03  0.7818608E-02  0.1044589E+00
          2   -1    0    0  501    0  0.00000000000E+00  0.00000000000E+00  0.29718816604E+03  0.29718816605E+03  0.25500000000E-02 0. -1.
         -2   -1    0    0    0  501 -0.00000000000E+00 -0.00000000000E+00 -0.61846643524E+03  0.61846643525E+03  0.25500000000E-02 0.  1.
    8880022    1    1    2    0    0  0.36223025300E+03  0.59494876607E+02 -0.33169836296E+03  0.51784732648E+03  0.15294330000E+03 0.  0.
    8880022    1    1    2    0    0 -0.36223025300E+03 -0.59494876607E+02  0.10420093758E+02  0.39780727482E+03  0.15294330000E+03 0.  0.
<mgrwt>
<rscale>  0 0.39767078E+03</rscale>
<asrwt>0</asrwt>
<pdfrwt beam="1">  1        2 0.45721256E-01 0.39767078E+03</pdfrwt>
<pdfrwt beam="2">  1       -2 0.95148682E-01 0.39767078E+03</pdfrwt>
<totfact> 0.10608918E+02</totfact>
</mgrwt>
</event>
<event>
 4    1  0.3365401E-008  0.2417246E+03  0.7818608E-02  0.1118649E+00
          2   -1    0    0  501    0  0.00000000000E+00  0.00000000000E+00  0.26616062691E+03  0.26616062692E+03  0.25500000000E-02 0. -1.
         -2   -1    0    0    0  501 -0.00000000000E+00 -0.00000000000E+00 -0.99443075992E+03  0.99443075992E+03  0.25500000000E-02 0.  1.
    8880022    1    1    2    0    0  0.14579527185E+03  0.11740039894E+03 -0.92052537303E+03  0.95173406494E+03  0.15294330000E+03 0.  1.
    8880022    1    1    2    0    0 -0.14579527185E+03 -0.11740039894E+03  0.19225524002E+03  0.30885732190E+03  0.15294330000E+03 0.  0.
<mgrwt>
<rscale>  0 0.24172457E+03</rscale>
<asrwt>0</asrwt>
<pdfrwt beam="1">  1        2 0.40947789E-01 0.24172457E+03</pdfrwt>
<pdfrwt beam="2">  1       -2 0.15298935E+00 0.24172457E+03</pdfrwt>
<totfact> 0.38047215E+01</totfact>
</mgrwt>
</event>
<event>
 4    1  0.3365401E-008  0.1795841E+04  0.7818608E-02  0.8708514E-01
         -2   -1    0    0    0  501 -0.00000000000E+00  0.00000000000E+00  0.14092003433E+04  0.14092003433E+04  0.25500000000E-02 0.  1.
          2   -1    0    0  501    0  0.00000000000E+00 -0.00000000000E+00 -0.27557904435E+04  0.27557904435E+04  0.25500000000E-02 0. -1.
    8880022    1    1    2    0    0  0.51931142531E+03  0.17122996691E+04  0.18418561199E+03  0.18052618940E+04  0.15294330000E+03 0.  0.
    8880022    1    1    2    0    0 -0.51931142531E+03 -0.17122996691E+04 -0.15307757122E+04  0.23597288928E+04  0.15294330000E+03 0.  0.
<mgrwt>
<rscale>  0 0.17958414E+04</rscale>
<asrwt>0</asrwt>
<pdfrwt beam="1">  1        2 0.42396776E+00 0.17958414E+04</pdfrwt>
<pdfrwt beam="2">  1       -2 0.21680005E+00 0.17958414E+04</pdfrwt>
<totfact> 0.23168531E-01</totfact>
</mgrwt>
</event>
<event>
 4    1  0.3365401E-008  0.1866428E+03  0.7818608E-02  0.1161525E+00
          2   -1    0    0  501    0  0.00000000000E+00  0.00000000000E+00  0.19641370760E+04  0.19641370760E+04  0.25500000000E-02 0. -1.
         -2   -1    0    0    0  501 -0.00000000000E+00 -0.00000000000E+00 -0.14064049733E+03  0.14064049735E+03  0.25500000000E-02 0.  1.
    8880022    1    1    2    0    0  0.51300995553E+02 -0.93872800823E+02 -0.72048160637E+02  0.20006620241E+03  0.15294330000E+03 0.  0.
    8880022    1    1    2    0    0 -0.51300995553E+02  0.93872800823E+02  0.18955447393E+04  0.19047113709E+04  0.15294330000E+03 0.  0.
<mgrwt>
<rscale>  0 0.18664284E+03</rscale>
<asrwt>0</asrwt>
<pdfrwt beam="1">  1        2 0.30217491E+00 0.18664284E+03</pdfrwt>
<pdfrwt beam="2">  1       -2 0.21637001E-01 0.18664284E+03</pdfrwt>
<totfact> 0.14730925E+02</totfact>
</mgrwt>
</event>
<event>
 4    1  0.3365401E-008  0.3979815E+03  0.7818608E-02  0.1044481E+00
          2   -1    0    0  501    0  0.00000000000E+00  0.00000000000E+00  0.11668230733E+04  0.11668230733E+04  0.25500000000E-02 0. -1.
         -2   -1    0    0    0  501 -0.00000000000E+00 -0.00000000000E+00 -0.33620231055E+03  0.33620231056E+03  0.25500000000E-02 0.  1.
    8880022    1    1    2    0    0  0.24421177587E+03 -0.27451447111E+03  0.99560427170E+03  0.10722019890E+04  0.15294330000E+03 0.  0.
    8880022    1    1    2    0    0 -0.24421177587E+03  0.27451447111E+03 -0.16498350896E+03  0.43082339487E+03  0.15294330000E+03 0.  0.
<mgrwt>
<rscale>  0 0.39798146E+03</rscale>
<asrwt>0</asrwt>
<pdfrwt beam="1">  1        2 0.17951124E+00 0.39798146E+03</pdfrwt>
<pdfrwt beam="2">  1       -2 0.51723432E-01 0.39798146E+03</pdfrwt>
<totfact> 0.74116050E+01</totfact>
</mgrwt>
</event>
<event>
 4    1  0.3365401E-008  0.1549573E+04  0.7818608E-02  0.8852140E-01
          2   -1    0    0  501    0  0.00000000000E+00  0.00000000000E+00  0.23859494704E+04  0.23859494704E+04  0.25500000000E-02 0. -1.
         -2   -1    0    0    0  501 -0.00000000000E+00 -0.00000000000E+00 -0.11026173227E+04  0.11026173227E+04  0.25500000000E-02 0.  1.
    8880022    1    1    2    0    0  0.12265952352E+04  0.93447840745E+03  0.11569791005E+04  0.19338505777E+04  0.15294330000E+03 0.  0.
    8880022    1    1    2    0    0 -0.12265952352E+04 -0.93447840745E+03  0.12635304722E+03  0.15547162154E+04  0.15294330000E+03 0.  0.
<mgrwt>
<rscale>  0 0.15495733E+04</rscale>
<asrwt>0</asrwt>
<pdfrwt beam="1">  1        2 0.36706915E+00 0.15495733E+04</pdfrwt>
<pdfrwt beam="2">  1       -2 0.16963344E+00 0.15495733E+04</pdfrwt>
<totfact> 0.81399581E-01</totfact>
</mgrwt>
</event>
<event>
 4    1  0.3365401E-008  0.7275128E+03  0.7818608E-02  0.9671305E-01
          2   -1    0    0  501    0  0.00000000000E+00  0.00000000000E+00  0.17833046068E+04  0.17833046068E+04  0.25500000000E-02 0. -1.
         -2   -1    0    0    0  501 -0.00000000000E+00 -0.00000000000E+00 -0.56348840040E+03  0.56348840041E+03  0.25500000000E-02 0.  1.
    8880022    1    1    2    0    0 -0.60005485330E+03 -0.38186051284E+03  0.14171596244E+04  0.15929897464E+04  0.15294330000E+03 0.  0.
    8880022    1    1    2    0    0  0.60005485330E+03  0.38186051284E+03 -0.19734341804E+03  0.75380326073E+03  0.15294330000E+03 0.  0.
<mgrwt>
<rscale>  0 0.72751284E+03</rscale>
<asrwt>0</asrwt>
<pdfrwt beam="1">  1        2 0.27435455E+00 0.72751284E+03</pdfrwt>
<pdfrwt beam="2">  1       -2 0.86690525E-01 0.72751284E+03</pdfrwt>
<totfact> 0.10496357E+01</totfact>
</mgrwt>
</event>
<event>
 4    1  0.3365401E-008  0.5707579E+03  0.7818608E-02  0.9968003E-01
         -2   -1    0    0    0  501 -0.00000000000E+00  0.00000000000E+00  0.39306027006E+03  0.39306027007E+03  0.25500000000E-02 0.  1.
          2   -1    0    0  501    0  0.00000000000E+00 -0.00000000000E+00 -0.16634169286E+04  0.16634169286E+04  0.25500000000E-02 0. -1.
    8880022    1    1    2    0    0  0.46664984148E+03  0.29087953738E+03 -0.13635271154E+04  0.14781646821E+04  0.15294330000E+03 0.  0.
    8880022    1    1    2    0    0 -0.46664984148E+03 -0.29087953738E+03  0.93170456875E+02  0.57831251661E+03  0.15294330000E+03 0.  0.
<mgrwt>
<rscale>  0 0.57075795E+03</rscale>
<asrwt>0</asrwt>
<pdfrwt beam="1">  1        2 0.25591029E+00 0.57075795E+03</pdfrwt>
<pdfrwt beam="2">  1       -2 0.60470812E-01 0.57075795E+03</pdfrwt>
<totfact> 0.27557235E+01</totfact>
</mgrwt>
</event>
<event>
 4    1  0.3365401E-008  0.7186112E+03  0.7818608E-02  0.9685923E-01
          2   -1    0    0  501    0  0.00000000000E+00  0.00000000000E+00  0.34723121134E+04  0.34723121134E+04  0.25500000000E-02 0. -1.
         -2   -1    0    0    0  501 -0.00000000000E+00 -0.00000000000E+00 -0.25774778652E+03  0.25774778653E+03  0.25500000000E-02 0.  1.
    8880022    1    1    2    0    0  0.37679014506E+03 -0.59248596730E+03  0.39429268689E+03  0.81967604016E+03  0.15294330000E+03 0.  0.
    8880022    1    1    2    0    0 -0.37679014506E+03  0.59248596730E+03  0.28202716400E+04  0.29103838597E+04  0.15294330000E+03 0.  0.
<mgrwt>
<rscale>  0 0.71861122E+03</rscale>
<asrwt>0</asrwt>
<pdfrwt beam="1">  1        2 0.53420186E+00 0.71861122E+03</pdfrwt>
<pdfrwt beam="2">  1       -2 0.39653506E-01 0.71861122E+03</pdfrwt>
<totfact> 0.55697537E+00</totfact>
</mgrwt>
</event>
<event>
 4    1  0.3365401E-008  0.3923657E+03  0.7818608E-02  0.1046456E+00
         -2   -1    0    0    0  501 -0.00000000000E+00  0.00000000000E+00  0.73657545716E+03  0.73657545717E+03  0.25500000000E-02 0.  1.
          2   -1    0    0  501    0  0.00000000000E+00 -0.00000000000E+00 -0.12646304247E+04  0.12646304247E+04  0.25500000000E-02 0. -1.
    8880022    1    1    2    0    0  0.35694647853E+03  0.56110533134E+02  0.65015748984E+03  0.75937842679E+03  0.15294330000E+03 0.  0.
    8880022    1    1    2    0    0 -0.35694647853E+03 -0.56110533134E+02 -0.11782124574E+04  0.12418274551E+04  0.15294330000E+03 0.  0.
<mgrwt>
<rscale>  0 0.39236569E+03</rscale>
<asrwt>0</asrwt>
<pdfrwt beam="1">  1        2 0.19455853E+00 0.39236569E+03</pdfrwt>
<pdfrwt beam="2">  1       -2 0.11331930E+00 0.39236569E+03</pdfrwt>
<totfact> 0.11510206E+01</totfact>
</mgrwt>
</event>
<event>
 4    1  0.3365401E-008  0.5041372E+03  0.7818608E-02  0.1012705E+00
          2   -1    0    0  501    0  0.00000000000E+00  0.00000000000E+00  0.83070188190E+03  0.83070188190E+03  0.25500000000E-02 0. -1.
         -2   -1    0    0    0  501 -0.00000000000E+00 -0.00000000000E+00 -0.43668821479E+03  0.43668821480E+03  0.25500000000E-02 0.  1.
    8880022    1    1    2    0    0 -0.47169343156E+03  0.90928562310E+02 -0.14972493564E+03  0.52590104220E+03  0.15294330000E+03 0.  0.
    8880022    1    1    2    0    0  0.47169343156E+03 -0.90928562310E+02  0.54373860274E+03  0.74148905450E+03  0.15294330000E+03 0.  0.
<mgrwt>
<rscale>  0 0.50413723E+03</rscale>
<asrwt>0</asrwt>
<pdfrwt beam="1">  1        2 0.12780029E+00 0.50413723E+03</pdfrwt>
<pdfrwt beam="2">  1       -2 0.67182803E-01 0.50413723E+03</pdfrwt>
<totfact> 0.68972071E+01</totfact>
</mgrwt>
</event>
<event>
 4    1  0.3365401E-008  0.6301082E+03  0.7818608E-02  0.9844838E-01
          2   -1    0    0  501    0  0.00000000000E+00  0.00000000000E+00  0.25453804430E+04  0.25453804430E+04  0.25500000000E-02 0. -1.
         -2   -1    0    0    0  501 -0.00000000000E+00 -0.00000000000E+00 -0.37453988169E+03  0.37453988170E+03  0.25500000000E-02 0.  1.
    8880022    1    1    2    0    0  0.59615417951E+03  0.13507355648E+03 -0.29834561339E+02  0.63081409740E+03  0.15294330000E+03 0.  0.
    8880022    1    1    2    0    0 -0.59615417951E+03 -0.13507355648E+03  0.22006751226E+04  0.22891062273E+04  0.15294330000E+03 0.  0.
<mgrwt>
<rscale>  0 0.63010818E+03</rscale>
<asrwt>0</asrwt>
<pdfrwt beam="1">  1        2 0.39159698E+00 0.63010818E+03</pdfrwt>
<pdfrwt beam="2">  1       -2 0.57621522E-01 0.63010818E+03</pdfrwt>
<totfact> 0.99173695E+00</totfact>
</mgrwt>
</event>
<event>
 4    1  0.3365401E-008  0.2728097E+03  0.7818608E-02  0.1099682E+00
         -2   -1    0    0    0  501 -0.00000000000E+00  0.00000000000E+00  0.43687569864E+03  0.43687569865E+03  0.25500000000E-02 0.  1.
          2   -1    0    0  501    0  0.00000000000E+00 -0.00000000000E+00 -0.23418063619E+04  0.23418063619E+04  0.25500000000E-02 0. -1.
    8880022    1    1    2    0    0  0.11612285295E+03 -0.19377551930E+03  0.38538693209E+03  0.47217391849E+03  0.15294330000E+03 0.  0.
    8880022    1    1    2    0    0 -0.11612285295E+03  0.19377551930E+03 -0.22903175953E+04  0.23065081420E+04  0.15294330000E+03 0.  0.
<mgrwt>
<rscale>  0 0.27280968E+03</rscale>
<asrwt>0</asrwt>
<pdfrwt beam="1">  1        2 0.36027789E+00 0.27280968E+03</pdfrwt>
<pdfrwt beam="2">  1       -2 0.67211647E-01 0.27280968E+03</pdfrwt>
<totfact> 0.10341491E+01</totfact>
</mgrwt>
</event>
<event>
 4    1  0.3365401E-008  0.5116947E+03  0.7818608E-02  0.1010771E+00
          2   -1    0    0  501    0  0.00000000000E+00  0.00000000000E+00  0.12237374446E+04  0.12237374446E+04  0.25500000000E-02 0. -1.
         -2   -1    0    0    0  501 -0.00000000000E+00 -0.00000000000E+00 -0.72509810755E+03  0.72509810756E+03  0.25500000000E-02 0.  1.
    8880022    1    1    2    0    0 -0.46237638443E+03 -0.15699633097E+03 -0.56879795631E+03  0.76508988814E+03  0.15294330000E+03 0.  0.
    8880022    1    1    2    0    0  0.46237638443E+03  0.15699633097E+03  0.10674372934E+04  0.11837456640E+04  0.15294330000E+03 0.  0.
<mgrwt>
<rscale>  0 0.51169466E+03</rscale>
<asrwt>0</asrwt>
<pdfrwt beam="1">  1        2 0.18826730E+00 0.51169466E+03</pdfrwt>
<pdfrwt beam="2">  1       -2 0.11155356E+00 0.51169466E+03</pdfrwt>
<totfact> 0.12303943E+01</totfact>
</mgrwt>
</event>
<event>
 4    1  0.3365401E-008  0.2464065E+03  0.7818608E-02  0.1115597E+00
         -2   -1    0    0    0  501 -0.00000000000E+00  0.00000000000E+00  0.54943890044E+03  0.54943890045E+03  0.25500000000E-02 0.  1.
          2   -1    0    0  501    0  0.00000000000E+00 -0.00000000000E+00 -0.42566682460E+03  0.42566682461E+03  0.25500000000E-02 0. -1.
    8880022    1    1    2    0    0 -0.19317927287E+03 -0.25029009956E+01  0.48140645917E+03  0.54080340968E+03  0.15294330000E+03 0.  1.
    8880022    1    1    2    0    0  0.19317927287E+03  0.25029009956E+01 -0.35763438333E+03  0.43430231537E+03  0.15294330000E+03 0.  0.
<mgrwt>
<rscale>  0 0.24640647E+03</rscale>
<asrwt>0</asrwt>
<pdfrwt beam="1">  1        2 0.65487203E-01 0.24640647E+03</pdfrwt>
<pdfrwt beam="2">  1       -2 0.84529062E-01 0.24640647E+03</pdfrwt>
<totfact> 0.95191694E+01</totfact>
</mgrwt>
</event>
<event>
 4    1  0.3365401E-008  0.4349648E+03  0.7818608E-02  0.1032303E+00
         -2   -1    0    0    0  501 -0.00000000000E+00  0.00000000000E+00  0.15558147999E+03  0.15558148001E+03  0.25500000000E-02 0.  1.
          2   -1    0    0  501    0  0.00000000000E+00 -0.00000000000E+00 -0.23391679079E+04  0.23391679079E+04  0.25500000000E-02 0. -1.
    8880022    1    1    2    0    0 -0.25700175745E+03 -0.31583669415E+03 -0.22746336885E+03  0.49085023977E+03  0.15294330000E+03 0.  0.
    8880022    1    1    2    0    0  0.25700175745E+03  0.31583669415E+03 -0.19561230591E+04  0.20038991481E+04  0.15294330000E+03 0.  0.
<mgrwt>
<rscale>  0 0.43496480E+03</rscale>
<asrwt>0</asrwt>
<pdfrwt beam="1">  1        2 0.35987196E+00 0.43496480E+03</pdfrwt>
<pdfrwt beam="2">  1       -2 0.23935614E-01 0.43496480E+03</pdfrwt>
<totfact> 0.72699705E+01</totfact>
</mgrwt>
</event>
<event>
 4    1  0.3365401E-008  0.4724771E+03  0.7818608E-02  0.1021223E+00
          2   -1    0    0  501    0  0.00000000000E+00  0.00000000000E+00  0.10946585174E+04  0.10946585174E+04  0.25500000000E-02 0. -1.
         -2   -1    0    0    0  501 -0.00000000000E+00 -0.00000000000E+00 -0.30933059374E+03  0.30933059375E+03  0.25500000000E-02 0.  1.
    8880022    1    1    2    0    0  0.68053676314E+02 -0.44182764659E+03 -0.17107883332E+02  0.47278674351E+03  0.15294330000E+03 0.  1.
    8880022    1    1    2    0    0 -0.68053676314E+02  0.44182764659E+03  0.80243580699E+03  0.93120236765E+03  0.15294330000E+03 0.  0.
<mgrwt>
<rscale>  0 0.47247712E+03</rscale>
<asrwt>0</asrwt>
<pdfrwt beam="1">  1        2 0.16840900E+00 0.47247712E+03</pdfrwt>
<pdfrwt beam="2">  1       -2 0.47589323E-01 0.47247712E+03</pdfrwt>
<totfact> 0.95741183E+01</totfact>
</mgrwt>
</event>
<event>
 4    1  0.3365401E-008  0.1802321E+03  0.7818608E-02  0.1167579E+00
         -2   -1    0    0    0  501 -0.00000000000E+00  0.00000000000E+00  0.55230643859E+02  0.55230643918E+02  0.25500000000E-02 0.  1.
          2   -1    0    0  501    0  0.00000000000E+00 -0.00000000000E+00 -0.12198168237E+04  0.12198168237E+04  0.25500000000E-02 0. -1.
    8880022    1    1    2    0    0 -0.68397562435E+02  0.66435861827E+02 -0.10410630241E+04  0.10565490161E+04  0.15294330000E+03 0.  0.
    8880022    1    1    2    0    0  0.68397562435E+02 -0.66435861827E+02 -0.12352315569E+03  0.21849845146E+03  0.15294330000E+03 0.  1.
<mgrwt>
<rscale>  0 0.18023208E+03</rscale>
<asrwt>0</asrwt>
<pdfrwt beam="1">  1        2 0.18766411E+00 0.18023208E+03</pdfrwt>
<pdfrwt beam="2">  1       -2 0.84970231E-02 0.18023208E+03</pdfrwt>
<totfact> 0.16755227E+03</totfact>
</mgrwt>
</event>
<event>
 4    1  0.3365401E-008  0.9234149E+03  0.7818608E-02  0.9396776E-01
          2   -1    0    0  501    0  0.00000000000E+00  0.00000000000E+00  0.22145890107E+04  0.22145890107E+04  0.25500000000E-02 0. -1.
         -2   -1    0    0    0  501 -0.00000000000E+00 -0.00000000000E+00 -0.49397513190E+03  0.49397513191E+03  0.25500000000E-02 0.  1.
    8880022    1    1    2    0    0  0.29525452021E+03  0.86146860070E+03  0.22431757210E+03  0.95027017624E+03  0.15294330000E+03 0.  0.
    8880022    1    1    2    0    0 -0.29525452021E+03 -0.86146860070E+03  0.14962963067E+04  0.17582939664E+04  0.15294330000E+03 0.  0.
<mgrwt>
<rscale>  0 0.92341488E+03</rscale>
<asrwt>0</asrwt>
<pdfrwt beam="1">  1        2 0.34070600E+00 0.92341488E+03</pdfrwt>
<pdfrwt beam="2">  1       -2 0.75996175E-01 0.92341488E+03</pdfrwt>
<totfact> 0.79772126E+00</totfact>
</mgrwt>
</event>
<event>
 4    1  0.3365401E-008  0.1136312E+04  0.7818608E-02  0.9170505E-01
         -2   -1    0    0    0  501 -0.00000000000E+00  0.00000000000E+00  0.12976455586E+04  0.12976455586E+04  0.25500000000E-02 0.  1.
          2   -1    0    0  501    0  0.00000000000E+00 -0.00000000000E+00 -0.10624158074E+04  0.10624158074E+04  0.25500000000E-02 0. -1.
    8880022    1    1    2    0    0  0.11080651593E+04  0.20001189564E+03 -0.17955790400E+03  0.11504111654E+04  0.15294330000E+03 0.  1.
    8880022    1    1    2    0    0 -0.11080651593E+04 -0.20001189564E+03  0.41478765519E+03  0.12096502005E+04  0.15294330000E+03 0.  0.
<mgrwt>
<rscale>  0 0.11363119E+04</rscale>
<asrwt>0</asrwt>
<pdfrwt beam="1">  1        2 0.16344859E+00 0.11363119E+04</pdfrwt>
<pdfrwt beam="2">  1       -2 0.19963778E+00 0.11363119E+04</pdfrwt>
<totfact> 0.30070868E+00</totfact>
</mgrwt>
</event>
<event>
 4    1  0.3365401E-008  0.9966565E+03  0.7818608E-02  0.9312219E-01
         -2   -1    0    0    0  501 -0.00000000000E+00  0.00000000000E+00  0.93128354540E+03  0.93128354540E+03  0.25500000000E-02 0.  1.
          2   -1    0    0  501    0  0.00000000000E+00 -0.00000000000E+00 -0.13692905896E+04  0.13692905896E+04  0.25500000000E-02 0. -1.
    8880022    1    1    2    0    0  0.46598397815E+03  0.86763560178E+03 -0.75981339678E+03  0.12532520322E+04  0.15294330000E+03 0.  0.
    8880022    1    1    2    0    0 -0.46598397815E+03 -0.86763560178E+03  0.32180635258E+03  0.10473221028E+04  0.15294330000E+03 0.  0.
<mgrwt>
<rscale>  0 0.99665654E+03</rscale>
<asrwt>0</asrwt>
<pdfrwt beam="1">  1        2 0.21066009E+00 0.99665654E+03</pdfrwt>
<pdfrwt beam="2">  1       -2 0.14327439E+00 0.99665654E+03</pdfrwt>
<totfact> 0.50576626E+00</totfact>
</mgrwt>
</event>
<event>
 4    1  0.3365401E-008  0.1832984E+04  0.7818608E-02  0.8688953E-01
         -2   -1    0    0    0  501 -0.00000000000E+00  0.00000000000E+00  0.18082314487E+04  0.18082314487E+04  0.25500000000E-02 0.  1.
          2   -1    0    0  501    0  0.00000000000E+00 -0.00000000000E+00 -0.25529627774E+04  0.25529627774E+04  0.25500000000E-02 0. -1.
    8880022    1    1    2    0    0 -0.13627431728E+04  0.12162933018E+04 -0.15100203672E+04  0.23748666306E+04  0.15294330000E+03 0.  0.
    8880022    1    1    2    0    0  0.13627431728E+04 -0.12162933018E+04  0.76528903852E+03  0.19863275955E+04  0.15294330000E+03 0.  0.
<mgrwt>
<rscale>  0 0.18329839E+04</rscale>
<asrwt>0</asrwt>
<pdfrwt beam="1">  1        2 0.39276350E+00 0.18329839E+04</pdfrwt>
<pdfrwt beam="2">  1       -2 0.27818945E+00 0.18329839E+04</pdfrwt>
<totfact> 0.12640069E-01</totfact>
</mgrwt>
</event>
<event>
 4    1  0.3365401E-008  0.5830445E+03  0.7818608E-02  0.9941221E-01
          2   -1    0    0  501    0  0.00000000000E+00  0.00000000000E+00  0.13191778425E+04  0.13191778425E+04  0.25500000000E-02 0. -1.
         -2   -1    0    0    0  501 -0.00000000000E+00 -0.00000000000E+00 -0.88929787820E+03  0.88929787821E+03  0.25500000000E-02 0.  1.
    8880022    1    1    2    0    0 -0.56167017032E+03 -0.32801124462E+02 -0.71565830983E+03  0.92309683319E+03  0.15294330000E+03 0.  0.
    8880022    1    1    2    0    0  0.56167017032E+03  0.32801124462E+02  0.11455382742E+04  0.12853788876E+04  0.15294330000E+03 0.  0.
<mgrwt>
<rscale>  0 0.58304455E+03</rscale>
<asrwt>0</asrwt>
<pdfrwt beam="1">  1        2 0.20295044E+00 0.58304455E+03</pdfrwt>
<pdfrwt beam="2">  1       -2 0.13681506E+00 0.58304455E+03</pdfrwt>
<totfact> 0.64492497E+00</totfact>
</mgrwt>
</event>
<event>
 4    1  0.3365401E-008  0.5932966E+03  0.7818608E-02  0.9919412E-01
          2   -1    0    0  501    0  0.00000000000E+00  0.00000000000E+00  0.43553183807E+03  0.43553183808E+03  0.25500000000E-02 0. -1.
         -2   -1    0    0    0  501 -0.00000000000E+00 -0.00000000000E+00 -0.13574035916E+04  0.13574035916E+04  0.25500000000E-02 0.  1.
    8880022    1    1    2    0    0  0.47843622102E+03 -0.31576568912E+03 -0.10311568685E+04  0.11896576518E+04  0.15294330000E+03 0.  0.
    8880022    1    1    2    0    0 -0.47843622102E+03  0.31576568912E+03  0.10928511490E+03  0.60327777794E+03  0.15294330000E+03 0. -1.
<mgrwt>
<rscale>  0 0.59329659E+03</rscale>
<asrwt>0</asrwt>
<pdfrwt beam="1">  1        2 0.67004899E-01 0.59329659E+03</pdfrwt>
<pdfrwt beam="2">  1       -2 0.20883132E+00 0.59329659E+03</pdfrwt>
<totfact> 0.87484795E+00</totfact>
</mgrwt>
</event>
<event>
 4    1  0.3365401E-008  0.4302612E+03  0.7818608E-02  0.1033777E+00
         -2   -1    0    0    0  501 -0.00000000000E+00  0.00000000000E+00  0.44765662017E+03  0.44765662018E+03  0.25500000000E-02 0.  1.
          2   -1    0    0  501    0  0.00000000000E+00 -0.00000000000E+00 -0.10003210539E+04  0.10003210539E+04  0.25500000000E-02 0. -1.
    8880022    1    1    2    0    0  0.37847268366E+03 -0.13598339766E+03  0.27816523241E+03  0.51234812994E+03  0.15294330000E+03 0.  0.
    8880022    1    1    2    0    0 -0.37847268366E+03  0.13598339766E+03 -0.83082966613E+03  0.93562954413E+03  0.15294330000E+03 0.  0.
<mgrwt>
<rscale>  0 0.43026121E+03</rscale>
<asrwt>0</asrwt>
<pdfrwt beam="1">  1        2 0.15389555E+00 0.43026121E+03</pdfrwt>
<pdfrwt beam="2">  1       -2 0.68870249E-01 0.43026121E+03</pdfrwt>
<totfact> 0.51065014E+01</totfact>
</mgrwt>
</event>
<event>
 4    1  0.3365401E-008  0.5039964E+03  0.7818608E-02  0.1012741E+00
         -2   -1    0    0    0  501 -0.00000000000E+00  0.00000000000E+00  0.20027135507E+03  0.20027135509E+03  0.25500000000E-02 0.  1.
          2   -1    0    0  501    0  0.00000000000E+00 -0.00000000000E+00 -0.25828676964E+04  0.25828676964E+04  0.25500000000E-02 0. -1.
    8880022    1    1    2    0    0 -0.46478504319E+03 -0.12081206810E+03 -0.19855123426E+03  0.54169635204E+03  0.15294330000E+03 0.  0.
    8880022    1    1    2    0    0  0.46478504319E+03  0.12081206810E+03 -0.21840451071E+04  0.22414426995E+04  0.15294330000E+03 0.  0.
<mgrwt>
<rscale>  0 0.50399637E+03</rscale>
<asrwt>0</asrwt>
<pdfrwt beam="1">  1        2 0.39736424E+00 0.50399637E+03</pdfrwt>
<pdfrwt beam="2">  1       -2 0.30810980E-01 0.50399637E+03</pdfrwt>
<totfact> 0.33161892E+01</totfact>
</mgrwt>
</event>
<event>
 4    1  0.3365401E-008  0.4978297E+03  0.7818608E-02  0.1014347E+00
          2   -1    0    0  501    0  0.00000000000E+00  0.00000000000E+00  0.47394025909E+03  0.47394025910E+03  0.25500000000E-02 0. -1.
         -2   -1    0    0    0  501 -0.00000000000E+00 -0.00000000000E+00 -0.17145047295E+04  0.17145047295E+04  0.25500000000E-02 0.  1.
    8880022    1    1    2    0    0 -0.30231828835E+03 -0.36475523147E+03  0.29193477735E+03  0.57711376140E+03  0.15294330000E+03 0.  0.
    8880022    1    1    2    0    0  0.30231828835E+03  0.36475523147E+03 -0.15324992477E+04  0.16113312272E+04  0.15294330000E+03 0.  0.
<mgrwt>
<rscale>  0 0.49782967E+03</rscale>
<asrwt>0</asrwt>
<pdfrwt beam="1">  1        2 0.72913887E-01 0.49782967E+03</pdfrwt>
<pdfrwt beam="2">  1       -2 0.26376995E+00 0.49782967E+03</pdfrwt>
<totfact> 0.37342514E+00</totfact>
</mgrwt>
</event>
<event>
 4    1  0.3365401E-008  0.1949091E+03  0.7818608E-02  0.1154107E+00
         -2   -1    0    0    0  501 -0.00000000000E+00  0.00000000000E+00  0.21646523843E+03  0.21646523844E+03  0.25500000000E-02 0.  1.
          2   -1    0    0  501    0  0.00000000000E+00 -0.00000000000E+00 -0.16491597637E+04  0.16491597637E+04  0.25500000000E-02 0. -1.
    8880022    1    1    2    0    0 -0.19298115226E+02 -0.11927070971E+03 -0.15981301327E+04  0.16099718921E+04  0.15294330000E+03 0.  0.
    8880022    1    1    2    0    0  0.19298115226E+02  0.11927070971E+03  0.16543560741E+03  0.25565311001E+03  0.15294330000E+03 0.  1.
<mgrwt>
<rscale>  0 0.19490914E+03</rscale>
<asrwt>0</asrwt>
<pdfrwt beam="1">  1        2 0.25371688E+00 0.19490914E+03</pdfrwt>
<pdfrwt beam="2">  1       -2 0.33302345E-01 0.19490914E+03</pdfrwt>
<totfact> 0.99291658E+01</totfact>
</mgrwt>
</event>
<event>
 4    1  0.3365401E-008  0.4202185E+03  0.7818608E-02  0.1036995E+00
          2   -1    0    0  501    0  0.00000000000E+00  0.00000000000E+00  0.14807627606E+04  0.14807627606E+04  0.25500000000E-02 0. -1.
         -2   -1    0    0    0  501 -0.00000000000E+00 -0.00000000000E+00 -0.19172804736E+03  0.19172804738E+03  0.25500000000E-02 0.  1.
    8880022    1    1    2    0    0  0.15602319708E+03  0.35895499048E+03  0.11586662039E+04  0.12325140763E+04  0.15294330000E+03 0. -1.
    8880022    1    1    2    0    0 -0.15602319708E+03 -0.35895499048E+03  0.13036850943E+03  0.43997673175E+03  0.15294330000E+03 0.  1.
<mgrwt>
<rscale>  0 0.42021849E+03</rscale>
<asrwt>0</asrwt>
<pdfrwt beam="1">  1        2 0.22780966E+00 0.42021849E+03</pdfrwt>
<pdfrwt beam="2">  1       -2 0.29496622E-01 0.42021849E+03</pdfrwt>
<totfact> 0.14502333E+02</totfact>
</mgrwt>
</event>
<event>
 4    1  0.3365401E-008  0.5573383E+03  0.7818608E-02  0.9998095E-01
         -2   -1    0    0    0  501 -0.00000000000E+00  0.00000000000E+00  0.27093207745E+03  0.27093207747E+03  0.25500000000E-02 0.  1.
          2   -1    0    0  501    0  0.00000000000E+00 -0.00000000000E+00 -0.19715516834E+04  0.19715516834E+04  0.25500000000E-02 0. -1.
    8880022    1    1    2    0    0 -0.34586499300E+03 -0.40940407524E+03 -0.12498328595E+03  0.57118015108E+03  0.15294330000E+03 0.  0.
    8880022    1    1    2    0    0  0.34586499300E+03  0.40940407524E+03 -0.15756363200E+04  0.16713036098E+04  0.15294330000E+03 0.  0.
<mgrwt>
<rscale>  0 0.55733827E+03</rscale>
<asrwt>0</asrwt>
<pdfrwt beam="1">  1        2 0.30331563E+00 0.55733827E+03</pdfrwt>
<pdfrwt beam="2">  1       -2 0.41681859E-01 0.55733827E+03</pdfrwt>
<totfact> 0.40050253E+01</totfact>
</mgrwt>
</event>
<event>
 4    1  0.3365401E-008  0.3735346E+03  0.7818608E-02  0.1053350E+00
          2   -1    0    0  501    0  0.00000000000E+00  0.00000000000E+00  0.94770935340E+03  0.94770935340E+03  0.25500000000E-02 0. -1.
         -2   -1    0    0    0  501 -0.00000000000E+00 -0.00000000000E+00 -0.25167543635E+03  0.25167543637E+03  0.25500000000E-02 0.  1.
    8880022    1    1    2    0    0  0.30757538963E+03  0.14674405021E+03  0.73434816415E+03  0.82389035422E+03  0.15294330000E+03 0.  0.
    8880022    1    1    2    0    0 -0.30757538963E+03 -0.14674405021E+03 -0.38314247109E+02  0.37549443554E+03  0.15294330000E+03 0.  0.
<mgrwt>
<rscale>  0 0.37353459E+03</rscale>
<asrwt>0</asrwt>
<pdfrwt beam="1">  1        2 0.14580144E+00 0.37353459E+03</pdfrwt>
<pdfrwt beam="2">  1       -2 0.38719298E-01 0.37353459E+03</pdfrwt>
<totfact> 0.17897310E+02</totfact>
</mgrwt>
</event>
<event>
 4    1  0.3365401E-008  0.4161798E+03  0.7818608E-02  0.1038317E+00
          2   -1    0    0  501    0  0.00000000000E+00  0.00000000000E+00  0.42788850668E+04  0.42788850668E+04  0.25500000000E-02 0. -1.
         -2   -1    0    0    0  501 -0.00000000000E+00 -0.00000000000E+00 -0.93242261265E+02  0.93242261300E+02  0.25500000000E-02 0.  1.
    8880022    1    1    2    0    0  0.29689749251E+03  0.24832604143E+03  0.44836775122E+03  0.61175096017E+03  0.15294330000E+03 0.  0.
    8880022    1    1    2    0    0 -0.29689749251E+03 -0.24832604143E+03  0.37372750543E+04  0.37603763680E+04  0.15294330000E+03 0.  0.
<mgrwt>
<rscale>  0 0.41617977E+03</rscale>
<asrwt>0</asrwt>
<pdfrwt beam="1">  1        2 0.65828990E+00 0.41617977E+03</pdfrwt>
<pdfrwt beam="2">  1       -2 0.14344966E-01 0.41617977E+03</pdfrwt>
<totfact> 0.91999578E+00</totfact>
</mgrwt>
</event>
<event>
 4    1  0.3365401E-008  0.5410091E+03  0.7818608E-02  0.1003597E+00
         -2   -1    0    0    0  501 -0.00000000000E+00  0.00000000000E+00  0.48202106247E+03  0.48202106248E+03  0.25500000000E-02 0.  1.
          2   -1    0    0  501    0  0.00000000000E+00 -0.00000000000E+00 -0.67307962056E+03  0.67307962056E+03  0.25500000000E-02 0. -1.
    8880022    1    1    2    0    0 -0.47171488963E+03  0.21629664374E+03  0.85138175512E+02  0.54766717734E+03  0.15294330000E+03 0.  0.
    8880022    1    1    2    0    0  0.47171488963E+03 -0.21629664374E+03 -0.27619673360E+03  0.60743350571E+03  0.15294330000E+03 0.  0.
<mgrwt>
<rscale>  0 0.54100908E+03</rscale>
<asrwt>0</asrwt>
<pdfrwt beam="1">  1        2 0.10355071E+00 0.54100908E+03</pdfrwt>
<pdfrwt beam="2">  1       -2 0.74157087E-01 0.54100908E+03</pdfrwt>
<totfact> 0.72531518E+01</totfact>
</mgrwt>
</event>
<event>
 4    1  0.3365401E-008  0.1998688E+03  0.7818608E-02  0.1149850E+00
         -2   -1    0    0    0  501 -0.00000000000E+00  0.00000000000E+00  0.11315771761E+03  0.11315771764E+03  0.25500000000E-02 0.  1.
          2   -1    0    0  501    0  0.00000000000E+00 -0.00000000000E+00 -0.37972255808E+04  0.37972255808E+04  0.25500000000E-02 0. -1.
    8880022    1    1    2    0    0  0.60747852424E+02 -0.11342662300E+03  0.20054596765E+02  0.20087244770E+03  0.15294330000E+03 0.  0.
    8880022    1    1    2    0    0 -0.60747852424E+02  0.11342662300E+03 -0.37041224599E+04  0.37095108507E+04  0.15294330000E+03 0.  0.
<mgrwt>
<rscale>  0 0.19986884E+03</rscale>
<asrwt>0</asrwt>
<pdfrwt beam="1">  1        2 0.58418845E+00 0.19986884E+03</pdfrwt>
<pdfrwt beam="2">  1       -2 0.17408883E-01 0.19986884E+03</pdfrwt>
<totfact> 0.17772140E+01</totfact>
</mgrwt>
</event>
<event>
 4    1  0.3365401E-008  0.4655396E+03  0.7818608E-02  0.1023187E+00
         -2   -1    0    0    0  501 -0.00000000000E+00  0.00000000000E+00  0.13050623557E+04  0.13050623557E+04  0.25500000000E-02 0.  1.
          2   -1    0    0  501    0  0.00000000000E+00 -0.00000000000E+00 -0.54569880746E+03  0.54569880747E+03  0.25500000000E-02 0. -1.
    8880022    1    1    2    0    0 -0.13028088463E+03 -0.41995513347E+03  0.11515185878E+04  0.12420636594E+04  0.15294330000E+03 0.  0.
    8880022    1    1    2    0    0  0.13028088463E+03  0.41995513347E+03 -0.39215503954E+03  0.60869750375E+03  0.15294330000E+03 0. -1.
<mgrwt>
<rscale>  0 0.46553955E+03</rscale>
<asrwt>0</asrwt>
<pdfrwt beam="1">  1        2 0.83953664E-01 0.46553955E+03</pdfrwt>
<pdfrwt beam="2">  1       -2 0.20077882E+00 0.46553955E+03</pdfrwt>
<totfact> 0.77627537E+00</totfact>
</mgrwt>
</event>
<event>
 4    1  0.3365401E-008  0.5154847E+03  0.7818608E-02  0.1009814E+00
          2   -1    0    0  501    0  0.00000000000E+00  0.00000000000E+00  0.18099166203E+04  0.18099166203E+04  0.25500000000E-02 0. -1.
         -2   -1    0    0    0  501 -0.00000000000E+00 -0.00000000000E+00 -0.71848051888E+03  0.71848051889E+03  0.25500000000E-02 0.  1.
    8880022    1    1    2    0    0 -0.46915177050E+03  0.14909555444E+03  0.16733787803E+04  0.17509771738E+04  0.15294330000E+03 0.  0.
    8880022    1    1    2    0    0  0.46915177050E+03 -0.14909555444E+03 -0.58194267881E+03  0.77741996537E+03  0.15294330000E+03 0.  0.
<mgrwt>
<rscale>  0 0.51548474E+03</rscale>
<asrwt>0</asrwt>
<pdfrwt beam="1">  1        2 0.27844871E+00 0.51548474E+03</pdfrwt>
<pdfrwt beam="2">  1       -2 0.11053546E+00 0.51548474E+03</pdfrwt>
<totfact> 0.59667832E+00</totfact>
</mgrwt>
</event>
<event>
 4    1  0.3365401E-008  0.3451537E+03  0.7818608E-02  0.1064622E+00
          2   -1    0    0  501    0  0.00000000000E+00  0.00000000000E+00  0.39766063483E+03  0.39766063484E+03  0.25500000000E-02 0. -1.
         -2   -1    0    0    0  501 -0.00000000000E+00 -0.00000000000E+00 -0.53469161554E+03  0.53469161554E+03  0.25500000000E-02 0.  1.
    8880022    1    1    2    0    0 -0.74183789745E+01  0.30932890891E+03 -0.37764157110E+03  0.51160943646E+03  0.15294330000E+03 0.  0.
    8880022    1    1    2    0    0  0.74183789745E+01 -0.30932890891E+03  0.24061059040E+03  0.42074281392E+03  0.15294330000E+03 0.  0.
<mgrwt>
<rscale>  0 0.34515367E+03</rscale>
<asrwt>0</asrwt>
<pdfrwt beam="1">  1        2 0.61178559E-01 0.34515367E+03</pdfrwt>
<pdfrwt beam="2">  1       -2 0.82260249E-01 0.34515367E+03</pdfrwt>
<totfact> 0.10781430E+02</totfact>
</mgrwt>
</event>
<event>
 4    1  0.3365401E-008  0.7223070E+03  0.7818608E-02  0.9679827E-01
         -2   -1    0    0    0  501 -0.00000000000E+00  0.00000000000E+00  0.17780657028E+04  0.17780657028E+04  0.25500000000E-02 0.  1.
          2   -1    0    0  501    0  0.00000000000E+00 -0.00000000000E+00 -0.55183337314E+03  0.55183337315E+03  0.25500000000E-02 0. -1.
    8880022    1    1    2    0    0  0.29922225927E+03 -0.63937609691E+03 -0.18406520914E+03  0.74539077534E+03  0.15294330000E+03 0.  0.
    8880022    1    1    2    0    0 -0.29922225927E+03  0.63937609691E+03  0.14102975388E+04  0.15845083006E+04  0.15294330000E+03 0.  0.
<mgrwt>
<rscale>  0 0.72230700E+03</rscale>
<asrwt>0</asrwt>
<pdfrwt beam="1">  1        2 0.84897442E-01 0.72230700E+03</pdfrwt>
<pdfrwt beam="2">  1       -2 0.27354857E+00 0.72230700E+03</pdfrwt>
<totfact> 0.26282401E+00</totfact>
</mgrwt>
</event>
<event>
 4    1  0.3365401E-008  0.5010275E+03  0.7818608E-02  0.1013511E+00
          2   -1    0    0  501    0  0.00000000000E+00  0.00000000000E+00  0.52861174623E+03  0.52861174624E+03  0.25500000000E-02 0. -1.
         -2   -1    0    0    0  501 -0.00000000000E+00 -0.00000000000E+00 -0.12239044452E+04  0.12239044452E+04  0.25500000000E-02 0.  1.
    8880022    1    1    2    0    0  0.13956575684E+03  0.45624372702E+03  0.33785054269E+03  0.60429428356E+03  0.15294330000E+03 0.  0.
    8880022    1    1    2    0    0 -0.13956575684E+03 -0.45624372702E+03 -0.10331432416E+04  0.11482219079E+04  0.15294330000E+03 0.  0.
<mgrwt>
<rscale>  0 0.50102754E+03</rscale>
<asrwt>0</asrwt>
<pdfrwt beam="1">  1        2 0.81324885E-01 0.50102754E+03</pdfrwt>
<pdfrwt beam="2">  1       -2 0.18829299E+00 0.50102754E+03</pdfrwt>
<totfact> 0.96572016E+00</totfact>
</mgrwt>
</event>
<event>
 4    1  0.3365401E-008  0.5172625E+03  0.7818608E-02  0.1009369E+00
          2   -1    0    0  501    0  0.00000000000E+00  0.00000000000E+00  0.10690989391E+04  0.10690989391E+04  0.25500000000E-02 0. -1.
         -2   -1    0    0    0  501 -0.00000000000E+00 -0.00000000000E+00 -0.42734059453E+03  0.42734059454E+03  0.25500000000E-02 0.  1.
    8880022    1    1    2    0    0 -0.10528491151E+03  0.48278767929E+03  0.80251482937E+03  0.95477251754E+03  0.15294330000E+03 0. -1.
    8880022    1    1    2    0    0  0.10528491151E+03 -0.48278767929E+03 -0.16075648484E+03  0.54166701607E+03  0.15294330000E+03 0.  0.
<mgrwt>
<rscale>  0 0.51726251E+03</rscale>
<asrwt>0</asrwt>
<pdfrwt beam="1">  1        2 0.16447676E+00 0.51726251E+03</pdfrwt>
<pdfrwt beam="2">  1       -2 0.65744707E-01 0.51726251E+03</pdfrwt>
<totfact> 0.50543062E+01</totfact>
</mgrwt>
</event>
<event>
 4    1  0.3365401E-008  0.8357308E+03  0.7818608E-02  0.9509691E-01
         -2   -1    0    0    0  501 -0.00000000000E+00  0.00000000000E+00  0.39240680927E+03  0.39240680928E+03  0.25500000000E-02 0.  1.
          2   -1    0    0  501    0  0.00000000000E+00 -0.00000000000E+00 -0.31455145895E+04  0.31455145895E+04  0.25500000000E-02 0. -1.
    8880022    1    1    2    0    0 -0.81887546880E+03 -0.67061904964E+02 -0.21099033789E+03  0.86195296171E+03  0.15294330000E+03 0.  0.
    8880022    1    1    2    0    0  0.81887546880E+03  0.67061904964E+02 -0.25421174423E+04  0.26759684371E+04  0.15294330000E+03 0.  0.
<mgrwt>
<rscale>  0 0.83573081E+03</rscale>
<asrwt>0</asrwt>
<pdfrwt beam="1">  1        2 0.48392531E+00 0.83573081E+03</pdfrwt>
<pdfrwt beam="2">  1       -2 0.60370280E-01 0.83573081E+03</pdfrwt>
<totfact> 0.37922207E+00</totfact>
</mgrwt>
</event>
<event>
 4    1  0.3365401E-008  0.3682718E+03  0.7818608E-02  0.1055356E+00
          2   -1    0    0  501    0  0.00000000000E+00  0.00000000000E+00  0.10809728519E+04  0.10809728519E+04  0.25500000000E-02 0. -1.
         -2   -1    0    0    0  501 -0.00000000000E+00 -0.00000000000E+00 -0.21599280016E+03  0.21599280018E+03  0.25500000000E-02 0.  1.
    8880022    1    1    2    0    0  0.33216918415E+03  0.43544274903E+02  0.12663258499E+02  0.36848945969E+03  0.15294330000E+03 0.  0.
    8880022    1    1    2    0    0 -0.33216918415E+03 -0.43544274903E+02  0.85231679323E+03  0.92847619237E+03  0.15294330000E+03 0. -1.
<mgrwt>
<rscale>  0 0.36827181E+03</rscale>
<asrwt>0</asrwt>
<pdfrwt beam="1">  1        2 0.16630351E+00 0.36827181E+03</pdfrwt>
<pdfrwt beam="2">  1       -2 0.33229662E-01 0.36827181E+03</pdfrwt>
<totfact> 0.19775373E+02</totfact>
</mgrwt>
</event>
<event>
 4    1  0.3365401E-008  0.4197454E+03  0.7818608E-02  0.1037149E+00
         -2   -1    0    0    0  501 -0.00000000000E+00  0.00000000000E+00  0.26448303017E+03  0.26448303018E+03  0.25500000000E-02 0.  1.
          2   -1    0    0  501    0  0.00000000000E+00 -0.00000000000E+00 -0.17872264065E+04  0.17872264065E+04  0.25500000000E-02 0. -1.
    8880022    1    1    2    0    0  0.31580218799E+03  0.23035524681E+03 -0.15738524046E+04  0.16288639005E+04  0.15294330000E+03 0.  0.
    8880022    1    1    2    0    0 -0.31580218799E+03 -0.23035524681E+03  0.51109028337E+02  0.42284553618E+03  0.15294330000E+03 0.  0.
<mgrwt>
<rscale>  0 0.41974542E+03</rscale>
<asrwt>0</asrwt>
<pdfrwt beam="1">  1        2 0.27495790E+00 0.41974542E+03</pdfrwt>
<pdfrwt beam="2">  1       -2 0.40689698E-01 0.41974542E+03</pdfrwt>
<totfact> 0.54078685E+01</totfact>
</mgrwt>
</event>
<event>
 4    1  0.3365401E-008  0.4930246E+03  0.7818608E-02  0.1015616E+00
         -2   -1    0    0    0  501 -0.00000000000E+00  0.00000000000E+00  0.55100292289E+03  0.55100292289E+03  0.25500000000E-02 0.  1.
          2   -1    0    0  501    0  0.00000000000E+00 -0.00000000000E+00 -0.85623984234E+03  0.85623984234E+03  0.25500000000E-02 0. -1.
    8880022    1    1    2    0    0 -0.45389450822E+03  0.11688193997E+03 -0.64252580944E+03  0.80988436292E+03  0.15294330000E+03 0.  0.
    8880022    1    1    2    0    0  0.45389450822E+03 -0.11688193997E+03  0.33728888999E+03  0.59735840231E+03  0.15294330000E+03 0.  0.
<mgrwt>
<rscale>  0 0.49302461E+03</rscale>
<asrwt>0</asrwt>
<pdfrwt beam="1">  1        2 0.13172921E+00 0.49302461E+03</pdfrwt>
<pdfrwt beam="2">  1       -2 0.84769680E-01 0.49302461E+03</pdfrwt>
<totfact> 0.39707093E+01</totfact>
</mgrwt>
</event>
<event>
 4    1  0.3365401E-008  0.7582064E+03  0.7818608E-02  0.9622563E-01
          2   -1    0    0  501    0  0.00000000000E+00  0.00000000000E+00  0.56578162524E+03  0.56578162525E+03  0.25500000000E-02 0. -1.
         -2   -1    0    0    0  501 -0.00000000000E+00 -0.00000000000E+00 -0.12172716768E+04  0.12172716768E+04  0.25500000000E-02 0.  1.
    8880022    1    1    2    0    0 -0.29365169419E+03  0.68209525441E+03 -0.68819687637E+03  0.10239589090E+04  0.15294330000E+03 0.  0.
    8880022    1    1    2    0    0  0.29365169419E+03 -0.68209525441E+03  0.36706824829E+02  0.75909439307E+03  0.15294330000E+03 0.  0.
<mgrwt>
<rscale>  0 0.75820637E+03</rscale>
<asrwt>0</asrwt>
<pdfrwt beam="1">  1        2 0.87043327E-01 0.75820637E+03</pdfrwt>
<pdfrwt beam="2">  1       -2 0.18727257E+00 0.75820637E+03</pdfrwt>
<totfact> 0.87542773E+00</totfact>
</mgrwt>
</event>
<event>
 4    1  0.3365401E-008  0.5979351E+03  0.7818608E-02  0.9909699E-01
         -2   -1    0    0    0  501 -0.00000000000E+00  0.00000000000E+00  0.23514229371E+03  0.23514229372E+03  0.25500000000E-02 0.  1.
          2   -1    0    0  501    0  0.00000000000E+00 -0.00000000000E+00 -0.25594242095E+04  0.25594242095E+04  0.25500000000E-02 0. -1.
    8880022    1    1    2    0    0  0.23067453746E+03 -0.53002257999E+03 -0.27189104386E+03  0.65684935128E+03  0.15294330000E+03 0.  0.
    8880022    1    1    2    0    0 -0.23067453746E+03  0.53002257999E+03 -0.20523908719E+04  0.21377171519E+04  0.15294330000E+03 0.  0.
<mgrwt>
<rscale>  0 0.59793506E+03</rscale>
<asrwt>0</asrwt>
<pdfrwt beam="1">  1        2 0.39375755E+00 0.59793506E+03</pdfrwt>
<pdfrwt beam="2">  1       -2 0.36175739E-01 0.59793506E+03</pdfrwt>
<totfact> 0.24804692E+01</totfact>
</mgrwt>
</event>
<event>
 4    1  0.3365401E-008  0.4733163E+03  0.7818608E-02  0.1020988E+00
         -2   -1    0    0    0  501 -0.00000000000E+00  0.00000000000E+00  0.49986668944E+03  0.49986668944E+03  0.25500000000E-02 0.  1.
          2   -1    0    0  501    0  0.00000000000E+00 -0.00000000000E+00 -0.60881553890E+03  0.60881553890E+03  0.25500000000E-02 0. -1.
    8880022    1    1    2    0    0 -0.70621832255E+02  0.44232255870E+03  0.23027326597E+03  0.52635930614E+03  0.15294330000E+03 0.  0.
    8880022    1    1    2    0    0  0.70621832255E+02 -0.44232255870E+03 -0.33922211543E+03  0.58232292221E+03  0.15294330000E+03 0.  0.
<mgrwt>
<rscale>  0 0.47331632E+03</rscale>
<asrwt>0</asrwt>
<pdfrwt beam="1">  1        2 0.93663929E-01 0.47331632E+03</pdfrwt>
<pdfrwt beam="2">  1       -2 0.76902567E-01 0.47331632E+03</pdfrwt>
<totfact> 0.76098594E+01</totfact>
</mgrwt>
</event>
<event>
 4    1  0.3365401E-008  0.5600439E+03  0.7818608E-02  0.9991955E-01
          2   -1    0    0  501    0  0.00000000000E+00  0.00000000000E+00  0.17293412627E+04  0.17293412627E+04  0.25500000000E-02 0. -1.
         -2   -1    0    0    0  501 -0.00000000000E+00 -0.00000000000E+00 -0.40804831612E+03  0.40804831613E+03  0.25500000000E-02 0.  1.
    8880022    1    1    2    0    0 -0.50756234879E+03  0.18065997657E+03  0.14571792751E+04  0.15610959797E+04  0.15294330000E+03 0.  0.
    8880022    1    1    2    0    0  0.50756234879E+03 -0.18065997657E+03 -0.13588632856E+03  0.57629359909E+03  0.15294330000E+03 0.  0.
<mgrwt>
<rscale>  0 0.56004394E+03</rscale>
<asrwt>0</asrwt>
<pdfrwt beam="1">  1        2 0.26605250E+00 0.56004394E+03</pdfrwt>
<pdfrwt beam="2">  1       -2 0.62776663E-01 0.56004394E+03</pdfrwt>
<totfact> 0.23490882E+01</totfact>
</mgrwt>
</event>
<event>
 4    1  0.3365401E-008  0.7189246E+03  0.7818608E-02  0.9685405E-01
         -2   -1    0    0    0  501 -0.00000000000E+00  0.00000000000E+00  0.11679660358E+04  0.11679660358E+04  0.25500000000E-02 0.  1.
          2   -1    0    0  501    0  0.00000000000E+00 -0.00000000000E+00 -0.78656110333E+03  0.78656110333E+03  0.25500000000E-02 0. -1.
    8880022    1    1    2    0    0 -0.22195465550E+03 -0.66648108391E+03 -0.45561866898E+03  0.85114095710E+03  0.15294330000E+03 0.  0.
    8880022    1    1    2    0    0  0.22195465550E+03  0.66648108391E+03  0.83702360150E+03  0.11033861821E+04  0.15294330000E+03 0.  0.
<mgrwt>
<rscale>  0 0.71892458E+03</rscale>
<asrwt>0</asrwt>
<pdfrwt beam="1">  1        2 0.12100940E+00 0.71892458E+03</pdfrwt>
<pdfrwt beam="2">  1       -2 0.17968708E+00 0.71892458E+03</pdfrwt>
<totfact> 0.65673573E+00</totfact>
</mgrwt>
</event>
<event>
 4    1  0.3365401E-008  0.4686476E+03  0.7818608E-02  0.1022303E+00
          2   -1    0    0  501    0  0.00000000000E+00  0.00000000000E+00  0.10899797951E+04  0.10899797951E+04  0.25500000000E-02 0. -1.
         -2   -1    0    0    0  501 -0.00000000000E+00 -0.00000000000E+00 -0.41073547856E+03  0.41073547856E+03  0.25500000000E-02 0.  1.
    8880022    1    1    2    0    0 -0.19076153489E+03 -0.39981118035E+03  0.87517851428E+03  0.99275778919E+03  0.15294330000E+03 0.  0.
    8880022    1    1    2    0    0  0.19076153489E+03  0.39981118035E+03 -0.19593419777E+03  0.50795748444E+03  0.15294330000E+03 0.  0.
<mgrwt>
<rscale>  0 0.46864762E+03</rscale>
<asrwt>0</asrwt>
<pdfrwt beam="1">  1        2 0.16768920E+00 0.46864762E+03</pdfrwt>
<pdfrwt beam="2">  1       -2 0.63190074E-01 0.46864762E+03</pdfrwt>
<totfact> 0.53768609E+01</totfact>
</mgrwt>
</event>
<event>
 4    1  0.3365401E-008  0.5350999E+03  0.7818608E-02  0.1005003E+00
         -2   -1    0    0    0  501 -0.00000000000E+00  0.00000000000E+00  0.92930152598E+03  0.92930152599E+03  0.25500000000E-02 0.  1.
          2   -1    0    0  501    0  0.00000000000E+00 -0.00000000000E+00 -0.35831521638E+03  0.35831521639E+03  0.25500000000E-02 0. -1.
    8880022    1    1    2    0    0  0.54432628317E+02 -0.50987971227E+03  0.44515867242E+02  0.53694836573E+03  0.15294330000E+03 0.  0.
    8880022    1    1    2    0    0 -0.54432628317E+02  0.50987971227E+03  0.52647044236E+03  0.75066837665E+03  0.15294330000E+03 0.  0.
<mgrwt>
<rscale>  0 0.53509988E+03</rscale>
<asrwt>0</asrwt>
<pdfrwt beam="1">  1        2 0.55125418E-01 0.53509988E+03</pdfrwt>
<pdfrwt beam="2">  1       -2 0.14296947E+00 0.53509988E+03</pdfrwt>
<totfact> 0.31535161E+01</totfact>
</mgrwt>
</event>
<event>
 4    1  0.3365401E-008  0.5554055E+03  0.7818608E-02  0.1000250E+00
          2   -1    0    0  501    0  0.00000000000E+00  0.00000000000E+00  0.31065079506E+04  0.31065079506E+04  0.25500000000E-02 0. -1.
         -2   -1    0    0    0  501 -0.00000000000E+00 -0.00000000000E+00 -0.22374221251E+03  0.22374221252E+03  0.25500000000E-02 0.  1.
    8880022    1    1    2    0    0  0.21914097309E+03  0.48688898151E+03  0.26831989757E+04  0.27400788388E+04  0.15294330000E+03 0.  0.
    8880022    1    1    2    0    0 -0.21914097309E+03 -0.48688898151E+03  0.19956676235E+03  0.59017132432E+03  0.15294330000E+03 0.  0.
<mgrwt>
<rscale>  0 0.55540553E+03</rscale>
<asrwt>0</asrwt>
<pdfrwt beam="1">  1        2 0.47792433E+00 0.55540553E+03</pdfrwt>
<pdfrwt beam="2">  1       -2 0.34421877E-01 0.55540553E+03</pdfrwt>
<totfact> 0.13072859E+01</totfact>
</mgrwt>
</event>
<event>
 4    1  0.3365401E-008  0.7033014E+03  0.7818608E-02  0.9711603E-01
         -2   -1    0    0    0  501 -0.00000000000E+00  0.00000000000E+00  0.62478848173E+03  0.62478848173E+03  0.25500000000E-02 0.  1.
          2   -1    0    0  501    0  0.00000000000E+00 -0.00000000000E+00 -0.12643597455E+04  0.12643597455E+04  0.25500000000E-02 0. -1.
    8880022    1    1    2    0    0  0.65730224743E+03  0.19797705158E+03 -0.89732821462E+03  0.11401011952E+04  0.15294330000E+03 0.  0.
    8880022    1    1    2    0    0 -0.65730224743E+03 -0.19797705158E+03  0.25775695090E+03  0.74904703202E+03  0.15294330000E+03 0.  0.
<mgrwt>
<rscale>  0 0.70330137E+03</rscale>
<asrwt>0</asrwt>
<pdfrwt beam="1">  1        2 0.19451688E+00 0.70330137E+03</pdfrwt>
<pdfrwt beam="2">  1       -2 0.96121305E-01 0.70330137E+03</pdfrwt>
<totfact> 0.16139076E+01</totfact>
</mgrwt>
</event>
<event>
 4    1  0.3365401E-008  0.1670984E+03  0.7818608E-02  0.1180908E+00
         -2   -1    0    0    0  501 -0.00000000000E+00  0.00000000000E+00  0.74140779551E+02  0.74140779595E+02  0.25500000000E-02 0.  1.
          2   -1    0    0  501    0  0.00000000000E+00 -0.00000000000E+00 -0.14066193048E+04  0.14066193048E+04  0.25500000000E-02 0. -1.
    8880022    1    1    2    0    0  0.72821906067E+01  0.66911724930E+02 -0.32679139701E+02  0.17026387879E+03  0.15294330000E+03 0.  0.
    8880022    1    1    2    0    0 -0.72821906067E+01 -0.66911724930E+02 -0.12997993855E+04  0.13104962056E+04  0.15294330000E+03 0. -1.
<mgrwt>
<rscale>  0 0.16709836E+03</rscale>
<asrwt>0</asrwt>
<pdfrwt beam="1">  1        2 0.21640295E+00 0.16709836E+03</pdfrwt>
<pdfrwt beam="2">  1       -2 0.11406275E-01 0.16709836E+03</pdfrwt>
<totfact> 0.83360616E+02</totfact>
</mgrwt>
</event>
<event>
 4    1  0.3365401E-008  0.4314712E+03  0.7818608E-02  0.1033396E+00
          2   -1    0    0  501    0  0.00000000000E+00  0.00000000000E+00  0.45562589124E+03  0.45562589125E+03  0.25500000000E-02 0. -1.
         -2   -1    0    0    0  501 -0.00000000000E+00 -0.00000000000E+00 -0.86376110102E+03  0.86376110103E+03  0.25500000000E-02 0.  1.
    8880022    1    1    2    0    0 -0.22244403109E+03  0.33659238171E+03 -0.68295049490E+03  0.80782969114E+03  0.15294330000E+03 0.  0.
    8880022    1    1    2    0    0  0.22244403109E+03 -0.33659238171E+03  0.27481528512E+03  0.51155730113E+03  0.15294330000E+03 0.  0.
<mgrwt>
<rscale>  0 0.43147124E+03</rscale>
<asrwt>0</asrwt>
<pdfrwt beam="1">  1        2 0.70096291E-01 0.43147124E+03</pdfrwt>
<pdfrwt beam="2">  1       -2 0.13288632E+00 0.43147124E+03</pdfrwt>
<totfact> 0.29425785E+01</totfact>
</mgrwt>
</event>
<event>
 4    1  0.3365401E-008  0.5043502E+03  0.7818608E-02  0.1012650E+00
         -2   -1    0    0    0  501 -0.00000000000E+00  0.00000000000E+00  0.16245686950E+04  0.16245686950E+04  0.25500000000E-02 0.  1.
          2   -1    0    0  501    0  0.00000000000E+00 -0.00000000000E+00 -0.62441505069E+03  0.62441505070E+03  0.25500000000E-02 0. -1.
    8880022    1    1    2    0    0  0.34286880034E+02  0.47937660549E+03  0.14734237738E+04  0.15573524939E+04  0.15294330000E+03 0.  0.
    8880022    1    1    2    0    0 -0.34286880034E+02 -0.47937660549E+03 -0.47327012947E+03  0.69163125182E+03  0.15294330000E+03 0.  0.
<mgrwt>
<rscale>  0 0.50435025E+03</rscale>
<asrwt>0</asrwt>
<pdfrwt beam="1">  1        2 0.96063855E-01 0.50435025E+03</pdfrwt>
<pdfrwt beam="2">  1       -2 0.24993364E+00 0.50435025E+03</pdfrwt>
<totfact> 0.32685879E+00</totfact>
</mgrwt>
</event>
<event>
 4    1  0.3365401E-008  0.6030108E+03  0.7818608E-02  0.9899179E-01
         -2   -1    0    0    0  501 -0.00000000000E+00  0.00000000000E+00  0.62356712899E+03  0.62356712899E+03  0.25500000000E-02 0.  1.
          2   -1    0    0  501    0  0.00000000000E+00 -0.00000000000E+00 -0.79290759806E+03  0.79290759806E+03  0.25500000000E-02 0. -1.
    8880022    1    1    2    0    0  0.29175731636E+03  0.50508226535E+03 -0.44895818721E+03  0.75178822370E+03  0.15294330000E+03 0.  0.
    8880022    1    1    2    0    0 -0.29175731636E+03 -0.50508226535E+03  0.27961771814E+03  0.66468650335E+03  0.15294330000E+03 0.  0.
<mgrwt>
<rscale>  0 0.60301085E+03</rscale>
<asrwt>0</asrwt>
<pdfrwt beam="1">  1        2 0.12198578E+00 0.60301085E+03</pdfrwt>
<pdfrwt beam="2">  1       -2 0.95933405E-01 0.60301085E+03</pdfrwt>
<totfact> 0.32660510E+01</totfact>
</mgrwt>
</event>
<event>
 4    1  0.3365401E-008  0.1343124E+04  0.7818608E-02  0.8996049E-01
          2   -1    0    0  501    0  0.00000000000E+00  0.00000000000E+00  0.22066667145E+04  0.22066667145E+04  0.25500000000E-02 0. -1.
         -2   -1    0    0    0  501 -0.00000000000E+00 -0.00000000000E+00 -0.87478860196E+03  0.87478860197E+03  0.25500000000E-02 0.  1.
    8880022    1    1    2    0    0  0.13113791528E+04 -0.24673097664E+03  0.27170728699E+03  0.13703313322E+04  0.15294330000E+03 0.  0.
    8880022    1    1    2    0    0 -0.13113791528E+04  0.24673097664E+03  0.10601708255E+04  0.17111239842E+04  0.15294330000E+03 0.  0.
<mgrwt>
<rscale>  0 0.13431244E+04</rscale>
<asrwt>0</asrwt>
<pdfrwt beam="1">  1        2 0.33948718E+00 0.13431244E+04</pdfrwt>
<pdfrwt beam="2">  1       -2 0.13458286E+00 0.13431244E+04</pdfrwt>
<totfact> 0.19566333E+00</totfact>
</mgrwt>
</event>
<event>
 4    1  0.3365401E-008  0.6361759E+03  0.7818608E-02  0.9833071E-01
          2   -1    0    0  501    0  0.00000000000E+00  0.00000000000E+00  0.62365000475E+03  0.62365000475E+03  0.25500000000E-02 0. -1.
         -2   -1    0    0    0  501 -0.00000000000E+00 -0.00000000000E+00 -0.20659850986E+04  0.20659850986E+04  0.25500000000E-02 0.  1.
    8880022    1    1    2    0    0 -0.48049315931E+02  0.61564549699E+03  0.39258719124E+03  0.74755900802E+03  0.15294330000E+03 0.  0.
    8880022    1    1    2    0    0  0.48049315931E+02 -0.61564549699E+03 -0.18349222851E+04  0.19420760954E+04  0.15294330000E+03 0.  0.
<mgrwt>
<rscale>  0 0.63617589E+03</rscale>
<asrwt>0</asrwt>
<pdfrwt beam="1">  1        2 0.95946155E-01 0.63617589E+03</pdfrwt>
<pdfrwt beam="2">  1       -2 0.31784386E+00 0.63617589E+03</pdfrwt>
<totfact> 0.12500376E+00</totfact>
</mgrwt>
</event>
<event>
 4    1  0.3365401E-008  0.3499710E+03  0.7818608E-02  0.1062627E+00
         -2   -1    0    0    0  501 -0.00000000000E+00  0.00000000000E+00  0.80140014524E+03  0.80140014524E+03  0.25500000000E-02 0.  1.
          2   -1    0    0  501    0  0.00000000000E+00 -0.00000000000E+00 -0.67547937685E+03  0.67547937686E+03  0.25500000000E-02 0. -1.
    8880022    1    1    2    0    0  0.12118561815E+03 -0.29052043248E+03  0.71251151039E+03  0.79382137864E+03  0.15294330000E+03 0.  0.
    8880022    1    1    2    0    0 -0.12118561815E+03  0.29052043248E+03 -0.58659074200E+03  0.68305814346E+03  0.15294330000E+03 0.  0.
<mgrwt>
<rscale>  0 0.34997104E+03</rscale>
<asrwt>0</asrwt>
<pdfrwt beam="1">  1        2 0.10391990E+00 0.34997104E+03</pdfrwt>
<pdfrwt beam="2">  1       -2 0.12329233E+00 0.34997104E+03</pdfrwt>
<totfact> 0.22712624E+01</totfact>
</mgrwt>
</event>
<event>
 4    1  0.3365401E-008  0.4109649E+03  0.7818608E-02  0.1040048E+00
         -2   -1    0    0    0  501 -0.00000000000E+00  0.00000000000E+00  0.30739504736E+03  0.30739504737E+03  0.25500000000E-02 0.  1.
          2   -1    0    0  501    0  0.00000000000E+00 -0.00000000000E+00 -0.19970438710E+04  0.19970438710E+04  0.25500000000E-02 0. -1.
    8880022    1    1    2    0    0  0.58970429805E+02 -0.37685942023E+03  0.13617265537E+03  0.43293784692E+03  0.15294330000E+03 0.  0.
    8880022    1    1    2    0    0 -0.58970429805E+02  0.37685942023E+03 -0.18258214790E+04  0.18715010715E+04  0.15294330000E+03 0.  0.
<mgrwt>
<rscale>  0 0.41096495E+03</rscale>
<asrwt>0</asrwt>
<pdfrwt beam="1">  1        2 0.30723751E+00 0.41096495E+03</pdfrwt>
<pdfrwt beam="2">  1       -2 0.47291547E-01 0.41096495E+03</pdfrwt>
<totfact> 0.31147815E+01</totfact>
</mgrwt>
</event>
<event>
 4    1  0.3365401E-008  0.4157680E+03  0.7818608E-02  0.1038453E+00
         -2   -1    0    0    0  501 -0.00000000000E+00  0.00000000000E+00  0.77272671618E+03  0.77272671619E+03  0.25500000000E-02 0.  1.
          2   -1    0    0  501    0  0.00000000000E+00 -0.00000000000E+00 -0.49060461571E+03  0.49060461571E+03  0.25500000000E-02 0. -1.
    8880022    1    1    2    0    0 -0.33973191452E+03  0.18453616761E+03  0.60696374968E+03  0.73570919346E+03  0.15294330000E+03 0.  0.
    8880022    1    1    2    0    0  0.33973191452E+03 -0.18453616761E+03 -0.32484164920E+03  0.52762213844E+03  0.15294330000E+03 0. -1.
<mgrwt>
<rscale>  0 0.41576799E+03</rscale>
<asrwt>0</asrwt>
<pdfrwt beam="1">  1        2 0.75477633E-01 0.41576799E+03</pdfrwt>
<pdfrwt beam="2">  1       -2 0.11888103E+00 0.41576799E+03</pdfrwt>
<totfact> 0.35769168E+01</totfact>
</mgrwt>
</event>
<event>
 4    1  0.3365401E-008  0.3594615E+03  0.7818608E-02  0.1058797E+00
         -2   -1    0    0    0  501 -0.00000000000E+00  0.00000000000E+00  0.26721378569E+03  0.26721378571E+03  0.25500000000E-02 0.  1.
          2   -1    0    0  501    0  0.00000000000E+00 -0.00000000000E+00 -0.13714659303E+04  0.13714659303E+04  0.25500000000E-02 0. -1.
    8880022    1    1    2    0    0 -0.77962731953E+01  0.32520779099E+03 -0.12113854102E+04  0.12635929544E+04  0.15294330000E+03 0.  0.
    8880022    1    1    2    0    0  0.77962731953E+01 -0.32520779099E+03  0.10713326557E+03  0.37508676170E+03  0.15294330000E+03 0.  0.
<mgrwt>
<rscale>  0 0.35946146E+03</rscale>
<asrwt>0</asrwt>
<pdfrwt beam="1">  1        2 0.21099476E+00 0.35946146E+03</pdfrwt>
<pdfrwt beam="2">  1       -2 0.41109814E-01 0.35946146E+03</pdfrwt>
<totfact> 0.90031163E+01</totfact>
</mgrwt>
</event>
<event>
 4    1  0.3365401E-008  0.9196441E+03  0.7818608E-02  0.9401353E-01
          2   -1    0    0  501    0  0.00000000000E+00  0.00000000000E+00  0.26558915119E+04  0.26558915119E+04  0.25500000000E-02 0. -1.
         -2   -1    0    0    0  501 -0.00000000000E+00 -0.00000000000E+00 -0.40289191405E+03  0.40289191406E+03  0.25500000000E-02 0.  1.
    8880022    1    1    2    0    0 -0.48707837181E+03 -0.76492375769E+03  0.18267061633E+04  0.20451407667E+04  0.15294330000E+03 0.  0.
    8880022    1    1    2    0    0  0.48707837181E+03  0.76492375769E+03  0.42629343451E+03  0.10136426593E+04  0.15294330000E+03 0.  0.
<mgrwt>
<rscale>  0 0.91964414E+03</rscale>
<asrwt>0</asrwt>
<pdfrwt beam="1">  1        2 0.40859867E+00 0.91964414E+03</pdfrwt>
<pdfrwt beam="2">  1       -2 0.61983374E-01 0.91964414E+03</pdfrwt>
<totfact> 0.69949129E+00</totfact>
</mgrwt>
</event>
<event>
 4    1  0.3365401E-008  0.3076523E+03  0.7818608E-02  0.1081477E+00
         -2   -1    0    0    0  501 -0.00000000000E+00  0.00000000000E+00  0.43474357318E+03  0.43474357319E+03  0.25500000000E-02 0.  1.
          2   -1    0    0  501    0  0.00000000000E+00 -0.00000000000E+00 -0.11334184221E+04  0.11334184221E+04  0.25500000000E-02 0. -1.
    8880022    1    1    2    0    0  0.24630166057E+03 -0.10292612034E+03 -0.10541008374E+04  0.10980794701E+04  0.15294330000E+03 0. -1.
    8880022    1    1    2    0    0 -0.24630166057E+03  0.10292612034E+03  0.35542598844E+03  0.47008252523E+03  0.15294330000E+03 0.  0.
<mgrwt>
<rscale>  0 0.30765232E+03</rscale>
<asrwt>0</asrwt>
<pdfrwt beam="1">  1        2 0.17437206E+00 0.30765232E+03</pdfrwt>
<pdfrwt beam="2">  1       -2 0.66883627E-01 0.30765232E+03</pdfrwt>
<totfact> 0.46222267E+01</totfact>
</mgrwt>
</event>
<event>
 4    1  0.3365401E-008  0.6783628E+03  0.7818608E-02  0.9754967E-01
         -2   -1    0    0    0  501 -0.00000000000E+00  0.00000000000E+00  0.80220424230E+03  0.80220424231E+03  0.25500000000E-02 0.  1.
          2   -1    0    0  501    0  0.00000000000E+00 -0.00000000000E+00 -0.75507130795E+03  0.75507130795E+03  0.25500000000E-02 0. -1.
    8880022    1    1    2    0    0  0.31200096132E+03 -0.58261464864E+03  0.40524535509E+03  0.79018977437E+03  0.15294330000E+03 0.  0.
    8880022    1    1    2    0    0 -0.31200096132E+03  0.58261464864E+03 -0.35811242074E+03  0.76708577589E+03  0.15294330000E+03 0.  0.
<mgrwt>
<rscale>  0 0.67836280E+03</rscale>
<asrwt>0</asrwt>
<pdfrwt beam="1">  1        2 0.11616482E+00 0.67836280E+03</pdfrwt>
<pdfrwt beam="2">  1       -2 0.12341604E+00 0.67836280E+03</pdfrwt>
<totfact> 0.18804434E+01</totfact>
</mgrwt>
</event>
<event>
 4    1  0.3365401E-008  0.4188767E+03  0.7818608E-02  0.1037433E+00
          2   -1    0    0  501    0  0.00000000000E+00  0.00000000000E+00  0.34288021081E+04  0.34288021081E+04  0.25500000000E-02 0. -1.
         -2   -1    0    0    0  501 -0.00000000000E+00 -0.00000000000E+00 -0.15915406210E+03  0.15915406212E+03  0.25500000000E-02 0.  1.
    8880022    1    1    2    0    0 -0.33386419349E+03  0.20149627718E+03  0.15712957855E+03  0.44737837105E+03  0.15294330000E+03 0.  0.
    8880022    1    1    2    0    0  0.33386419349E+03 -0.20149627718E+03  0.31125184675E+04  0.31405777992E+04  0.15294330000E+03 0.  0.
<mgrwt>
<rscale>  0 0.41887672E+03</rscale>
<asrwt>0</asrwt>
<pdfrwt beam="1">  1        2 0.52750803E+00 0.41887672E+03</pdfrwt>
<pdfrwt beam="2">  1       -2 0.24485240E-01 0.41887672E+03</pdfrwt>
<totfact> 0.15804959E+01</totfact>
</mgrwt>
</event>
<event>
 4    1  0.3365401E-008  0.2853658E+03  0.7818608E-02  0.1092794E+00
          2   -1    0    0  501    0  0.00000000000E+00  0.00000000000E+00  0.31261290835E+04  0.31261290835E+04  0.25500000000E-02 0. -1.
         -2   -1    0    0    0  501 -0.00000000000E+00 -0.00000000000E+00 -0.67544527953E+02  0.67544528001E+02  0.25500000000E-02 0.  1.
    8880022    1    1    2    0    0  0.21555123234E+03  0.10760868236E+03  0.27769592136E+03  0.39818166713E+03  0.15294330000E+03 0.  0.
    8880022    1    1    2    0    0 -0.21555123234E+03 -0.10760868236E+03  0.27808886342E+04  0.27954919443E+04  0.15294330000E+03 0.  0.
<mgrwt>
<rscale>  0 0.28536576E+03</rscale>
<asrwt>0</asrwt>
<pdfrwt beam="1">  1        2 0.48094304E+00 0.28536576E+03</pdfrwt>
<pdfrwt beam="2">  1       -2 0.10391464E-01 0.28536576E+03</pdfrwt>
<totfact> 0.10892202E+02</totfact>
</mgrwt>
</event>
<event>
 4    1  0.3365401E-008  0.5605193E+03  0.7818608E-02  0.9990880E-01
         -2   -1    0    0    0  501 -0.00000000000E+00  0.00000000000E+00  0.38114261144E+03  0.38114261144E+03  0.25500000000E-02 0.  1.
          2   -1    0    0  501    0  0.00000000000E+00 -0.00000000000E+00 -0.18193510096E+04  0.18193510096E+04  0.25500000000E-02 0. -1.
    8880022    1    1    2    0    0 -0.45650668767E+03 -0.28703983989E+03  0.94571027339E+02  0.56844134069E+03  0.15294330000E+03 0.  0.
    8880022    1    1    2    0    0  0.45650668767E+03  0.28703983989E+03 -0.15327794255E+04  0.16320522804E+04  0.15294330000E+03 0.  0.
<mgrwt>
<rscale>  0 0.56051929E+03</rscale>
<asrwt>0</asrwt>
<pdfrwt beam="1">  1        2 0.27990015E+00 0.56051929E+03</pdfrwt>
<pdfrwt beam="2">  1       -2 0.58637326E-01 0.56051929E+03</pdfrwt>
<totfact> 0.24247403E+01</totfact>
</mgrwt>
</event>
<event>
 4    1  0.3365401E-008  0.3811299E+03  0.7818608E-02  0.1050517E+00
          2   -1    0    0  501    0  0.00000000000E+00  0.00000000000E+00  0.15483944236E+04  0.15483944236E+04  0.25500000000E-02 0. -1.
         -2   -1    0    0    0  501 -0.00000000000E+00 -0.00000000000E+00 -0.14841421830E+03  0.14841421833E+03  0.25500000000E-02 0.  1.
    8880022    1    1    2    0    0 -0.19622654042E+03  0.28872739669E+03  0.12145844613E+04  0.12729789595E+04  0.15294330000E+03 0.  1.
    8880022    1    1    2    0    0  0.19622654042E+03 -0.28872739669E+03  0.18539574398E+03  0.42382968238E+03  0.15294330000E+03 0.  0.
<mgrwt>
<rscale>  0 0.38112992E+03</rscale>
<asrwt>0</asrwt>
<pdfrwt beam="1">  1        2 0.23821452E+00 0.38112992E+03</pdfrwt>
<pdfrwt beam="2">  1       -2 0.22832957E-01 0.38112992E+03</pdfrwt>
<totfact> 0.21223624E+02</totfact>
</mgrwt>
</event>
<event>
 4    1  0.3365401E-008  0.6543824E+03  0.7818608E-02  0.9798590E-01
         -2   -1    0    0    0  501 -0.00000000000E+00  0.00000000000E+00  0.19569324054E+04  0.19569324054E+04  0.25500000000E-02 0.  1.
          2   -1    0    0  501    0  0.00000000000E+00 -0.00000000000E+00 -0.79725441740E+03  0.79725441741E+03  0.25500000000E-02 0. -1.
    8880022    1    1    2    0    0 -0.57567407094E+03 -0.27096871508E+03  0.17528225466E+04  0.18709899020E+04  0.15294330000E+03 0.  0.
    8880022    1    1    2    0    0  0.57567407094E+03  0.27096871508E+03 -0.59314455860E+03  0.88319692081E+03  0.15294330000E+03 0.  0.
<mgrwt>
<rscale>  0 0.65438241E+03</rscale>
<asrwt>0</asrwt>
<pdfrwt beam="1">  1        2 0.12265453E+00 0.65438241E+03</pdfrwt>
<pdfrwt beam="2">  1       -2 0.30106652E+00 0.65438241E+03</pdfrwt>
<totfact> 0.11526856E+00</totfact>
</mgrwt>
</event>
<event>
 4    1  0.3365401E-008  0.5537297E+03  0.7818608E-02  0.1000634E+00
          2   -1    0    0  501    0  0.00000000000E+00  0.00000000000E+00  0.12350150747E+04  0.12350150747E+04  0.25500000000E-02 0. -1.
         -2   -1    0    0    0  501 -0.00000000000E+00 -0.00000000000E+00 -0.46531556923E+03  0.46531556924E+03  0.25500000000E-02 0.  1.
    8880022    1    1    2    0    0 -0.23891622555E+03 -0.47554595015E+03  0.96548789807E+03  0.11130064905E+04  0.15294330000E+03 0.  0.
    8880022    1    1    2    0    0  0.23891622555E+03  0.47554595015E+03 -0.19578839260E+03  0.58732415345E+03  0.15294330000E+03 0.  0.
<mgrwt>
<rscale>  0 0.55372969E+03</rscale>
<asrwt>0</asrwt>
<pdfrwt beam="1">  1        2 0.19000232E+00 0.55372969E+03</pdfrwt>
<pdfrwt beam="2">  1       -2 0.71587011E-01 0.55372969E+03</pdfrwt>
<totfact> 0.33337427E+01</totfact>
</mgrwt>
</event>
<event>
 4    1  0.3365401E-008  0.2491555E+03  0.7818608E-02  0.1113840E+00
         -2   -1    0    0    0  501 -0.00000000000E+00  0.00000000000E+00  0.92823244332E+03  0.92823244333E+03  0.25500000000E-02 0.  1.
          2   -1    0    0  501    0  0.00000000000E+00 -0.00000000000E+00 -0.41268772235E+03  0.41268772236E+03  0.25500000000E-02 0. -1.
    8880022    1    1    2    0    0  0.11037848437E+03 -0.16279864770E+03 -0.35596231547E+03  0.43449698797E+03  0.15294330000E+03 0. -1.
    8880022    1    1    2    0    0 -0.11037848437E+03  0.16279864770E+03  0.87150703645E+03  0.90642317771E+03  0.15294330000E+03 0.  0.
<mgrwt>
<rscale>  0 0.24915550E+03</rscale>
<asrwt>0</asrwt>
<pdfrwt beam="1">  1        2 0.63490419E-01 0.24915550E+03</pdfrwt>
<pdfrwt beam="2">  1       -2 0.14280499E+00 0.24915550E+03</pdfrwt>
<totfact> 0.28213967E+01</totfact>
</mgrwt>
</event>
<event>
 4    1  0.3365401E-008  0.3583318E+03  0.7818608E-02  0.1059246E+00
          2   -1    0    0  501    0  0.00000000000E+00  0.00000000000E+00  0.13402835541E+04  0.13402835541E+04  0.25500000000E-02 0. -1.
         -2   -1    0    0    0  501 -0.00000000000E+00 -0.00000000000E+00 -0.19229467436E+03  0.19229467437E+03  0.25500000000E-02 0.  1.
    8880022    1    1    2    0    0  0.26793555579E+03  0.18226504081E+03  0.11168152764E+04  0.11728930137E+04  0.15294330000E+03 0. -1.
    8880022    1    1    2    0    0 -0.26793555579E+03 -0.18226504081E+03  0.31173603423E+02  0.35968521477E+03  0.15294330000E+03 0.  0.
<mgrwt>
<rscale>  0 0.35833177E+03</rscale>
<asrwt>0</asrwt>
<pdfrwt beam="1">  1        2 0.20619747E+00 0.35833177E+03</pdfrwt>
<pdfrwt beam="2">  1       -2 0.29583796E-01 0.35833177E+03</pdfrwt>
<totfact> 0.17399602E+02</totfact>
</mgrwt>
</event>
<event>
 4    1  0.3365401E-008  0.8581204E+03  0.7818608E-02  0.9479502E-01
         -2   -1    0    0    0  501 -0.00000000000E+00  0.00000000000E+00  0.42847752491E+03  0.42847752491E+03  0.25500000000E-02 0.  1.
          2   -1    0    0  501    0  0.00000000000E+00 -0.00000000000E+00 -0.19528136603E+04  0.19528136603E+04  0.25500000000E-02 0. -1.
    8880022    1    1    2    0    0 -0.80896378412E+03 -0.24198457054E+03 -0.11745330406E+04  0.14546128189E+04  0.15294330000E+03 0.  0.
    8880022    1    1    2    0    0  0.80896378412E+03  0.24198457054E+03 -0.34980309473E+03  0.92667836626E+03  0.15294330000E+03 0.  0.
<mgrwt>
<rscale>  0 0.85812038E+03</rscale>
<asrwt>0</asrwt>
<pdfrwt beam="1">  1        2 0.30043287E+00 0.85812038E+03</pdfrwt>
<pdfrwt beam="2">  1       -2 0.65919620E-01 0.85812038E+03</pdfrwt>
<totfact> 0.15316847E+01</totfact>
</mgrwt>
</event>
<event>
 4    1  0.3365401E-008  0.6036420E+03  0.7818608E-02  0.9897879E-01
         -2   -1    0    0    0  501 -0.00000000000E+00  0.00000000000E+00  0.33789484575E+03  0.33789484576E+03  0.25500000000E-02 0.  1.
          2   -1    0    0  501    0  0.00000000000E+00 -0.00000000000E+00 -0.15116370927E+04  0.15116370927E+04  0.25500000000E-02 0. -1.
    8880022    1    1    2    0    0  0.30410645986E+03 -0.49850908346E+03 -0.91792692306E+02  0.61058135952E+03  0.15294330000E+03 0.  0.
    8880022    1    1    2    0    0 -0.30410645986E+03  0.49850908346E+03 -0.10819495546E+04  0.12389505789E+04  0.15294330000E+03 0. -1.
<mgrwt>
<rscale>  0 0.60364203E+03</rscale>
<asrwt>0</asrwt>
<pdfrwt beam="1">  1        2 0.23255955E+00 0.60364203E+03</pdfrwt>
<pdfrwt beam="2">  1       -2 0.51983823E-01 0.60364203E+03</pdfrwt>
<totfact> 0.45447564E+01</totfact>
</mgrwt>
</event>
<event>
 4    1  0.3365401E-008  0.4097038E+03  0.7818608E-02  0.1040470E+00
         -2   -1    0    0    0  501 -0.00000000000E+00  0.00000000000E+00  0.84127478212E+02  0.84127478251E+02  0.25500000000E-02 0.  1.
          2   -1    0    0  501    0  0.00000000000E+00 -0.00000000000E+00 -0.34840097563E+04  0.34840097563E+04  0.25500000000E-02 0. -1.
    8880022    1    1    2    0    0  0.38006449876E+03  0.40678200185E+01 -0.53371992694E+03  0.67284038509E+03  0.15294330000E+03 0.  0.
    8880022    1    1    2    0    0 -0.38006449876E+03 -0.40678200185E+01 -0.28661623511E+04  0.28952968494E+04  0.15294330000E+03 0.  0.
<mgrwt>
<rscale>  0 0.40970382E+03</rscale>
<asrwt>0</asrwt>
<pdfrwt beam="1">  1        2 0.53600139E+00 0.40970382E+03</pdfrwt>
<pdfrwt beam="2">  1       -2 0.12942692E-01 0.40970382E+03</pdfrwt>
<totfact> 0.43311742E+01</totfact>
</mgrwt>
</event>
<event>
 4    1  0.3365401E-008  0.3378160E+03  0.7818608E-02  0.1067730E+00
         -2   -1    0    0    0  501 -0.00000000000E+00  0.00000000000E+00  0.13777528849E+03  0.13777528851E+03  0.25500000000E-02 0.  1.
          2   -1    0    0  501    0  0.00000000000E+00 -0.00000000000E+00 -0.18847860576E+04  0.18847860576E+04  0.25500000000E-02 0. -1.
    8880022    1    1    2    0    0 -0.16077234973E+03 -0.25471597348E+03 -0.16306381298E+04  0.16652628438E+04  0.15294330000E+03 0.  0.
    8880022    1    1    2    0    0  0.16077234973E+03  0.25471597348E+03 -0.11637263937E+03  0.35729850236E+03  0.15294330000E+03 0.  1.
<mgrwt>
<rscale>  0 0.33781597E+03</rscale>
<asrwt>0</asrwt>
<pdfrwt beam="1">  1        2 0.28996707E+00 0.33781597E+03</pdfrwt>
<pdfrwt beam="2">  1       -2 0.21196200E-01 0.33781597E+03</pdfrwt>
<totfact> 0.16110055E+02</totfact>
</mgrwt>
</event>
<event>
 4    1  0.3365401E-008  0.2471902E+03  0.7818608E-02  0.1115093E+00
         -2   -1    0    0    0  501 -0.00000000000E+00  0.00000000000E+00  0.36826905317E+03  0.36826905318E+03  0.25500000000E-02 0.  1.
          2   -1    0    0  501    0  0.00000000000E+00 -0.00000000000E+00 -0.30425465063E+04  0.30425465063E+04  0.25500000000E-02 0. -1.
    8880022    1    1    2    0    0  0.45474497368E+02 -0.18879469120E+03  0.32111661004E+03  0.40523930658E+03  0.15294330000E+03 0.  0.
    8880022    1    1    2    0    0 -0.45474497368E+02  0.18879469120E+03 -0.29953940632E+04  0.30055762529E+04  0.15294330000E+03 0. -1.
<mgrwt>
<rscale>  0 0.24719025E+03</rscale>
<asrwt>0</asrwt>
<pdfrwt beam="1">  1        2 0.46808406E+00 0.24719025E+03</pdfrwt>
<pdfrwt beam="2">  1       -2 0.56656779E-01 0.24719025E+03</pdfrwt>
<totfact> 0.60368113E+00</totfact>
</mgrwt>
</event>
<event>
 4    1  0.3365401E-008  0.6707587E+03  0.7818608E-02  0.9768588E-01
          2   -1    0    0  501    0  0.00000000000E+00  0.00000000000E+00  0.11934832498E+04  0.11934832498E+04  0.25500000000E-02 0. -1.
         -2   -1    0    0    0  501 -0.00000000000E+00 -0.00000000000E+00 -0.90873643299E+03  0.90873643299E+03  0.25500000000E-02 0.  1.
    8880022    1    1    2    0    0 -0.64649485462E+03 -0.92574225240E+02  0.94642926507E+03  0.11600196511E+04  0.15294330000E+03 0.  0.
    8880022    1    1    2    0    0  0.64649485462E+03  0.92574225240E+02 -0.66168244828E+03  0.94220003163E+03  0.15294330000E+03 0.  0.
<mgrwt>
<rscale>  0 0.67075870E+03</rscale>
<asrwt>0</asrwt>
<pdfrwt beam="1">  1        2 0.18361281E+00 0.67075870E+03</pdfrwt>
<pdfrwt beam="2">  1       -2 0.13980561E+00 0.67075870E+03</pdfrwt>
<totfact> 0.71100023E+00</totfact>
</mgrwt>
</event>
<event>
 4    1  0.3365401E-008  0.5497618E+03  0.7818608E-02  0.1001549E+00
          2   -1    0    0  501    0  0.00000000000E+00  0.00000000000E+00  0.22596014209E+03  0.22596014211E+03  0.25500000000E-02 0. -1.
         -2   -1    0    0    0  501 -0.00000000000E+00 -0.00000000000E+00 -0.18622002927E+04  0.18622002927E+04  0.25500000000E-02 0.  1.
    8880022    1    1    2    0    0  0.17878584432E+03 -0.49687217288E+03 -0.26394565678E+03  0.60984038654E+03  0.15294330000E+03 0.  0.
    8880022    1    1    2    0    0 -0.17878584432E+03  0.49687217288E+03 -0.13722944939E+04  0.14783200483E+04  0.15294330000E+03 0.  0.
<mgrwt>
<rscale>  0 0.54976176E+03</rscale>
<asrwt>0</asrwt>
<pdfrwt beam="1">  1        2 0.34763100E-01 0.54976176E+03</pdfrwt>
<pdfrwt beam="2">  1       -2 0.28649234E+00 0.54976176E+03</pdfrwt>
<totfact> 0.61693715E+00</totfact>
</mgrwt>
</event>
<event>
 4    1  0.3365401E-008  0.1709132E+03  0.7818608E-02  0.1176899E+00
         -2   -1    0    0    0  501 -0.00000000000E+00  0.00000000000E+00  0.32090720691E+02  0.32090720793E+02  0.25500000000E-02 0.  1.
          2   -1    0    0  501    0  0.00000000000E+00 -0.00000000000E+00 -0.24255750887E+04  0.24255750887E+04  0.25500000000E-02 0. -1.
    8880022    1    1    2    0    0 -0.74363793241E+02 -0.17020269042E+02 -0.21680012432E+04  0.21747277316E+04  0.15294330000E+03 0. -1.
    8880022    1    1    2    0    0  0.74363793241E+02  0.17020269042E+02 -0.22548312482E+03  0.28293807785E+03  0.15294330000E+03 0.  0.
<mgrwt>
<rscale>  0 0.17091318E+03</rscale>
<asrwt>0</asrwt>
<pdfrwt beam="1">  1        2 0.37316525E+00 0.17091318E+03</pdfrwt>
<pdfrwt beam="2">  1       -2 0.49370359E-02 0.17091318E+03</pdfrwt>
<totfact> 0.89629645E+02</totfact>
</mgrwt>
</event>
<event>
 4    1  0.3365401E-008  0.2985808E+03  0.7818608E-02  0.1085952E+00
         -2   -1    0    0    0  501 -0.00000000000E+00  0.00000000000E+00  0.23891871537E+03  0.23891871538E+03  0.25500000000E-02 0.  1.
          2   -1    0    0  501    0  0.00000000000E+00 -0.00000000000E+00 -0.23789072186E+04  0.23789072186E+04  0.25500000000E-02 0. -1.
    8880022    1    1    2    0    0  0.96496463894E+02  0.23758630652E+03  0.13188856664E+03  0.32641241952E+03  0.15294330000E+03 0.  0.
    8880022    1    1    2    0    0 -0.96496463894E+02 -0.23758630652E+03 -0.22718770699E+04  0.22914135145E+04  0.15294330000E+03 0.  0.
<mgrwt>
<rscale>  0 0.29858077E+03</rscale>
<asrwt>0</asrwt>
<pdfrwt beam="1">  1        2 0.36598571E+00 0.29858077E+03</pdfrwt>
<pdfrwt beam="2">  1       -2 0.36756727E-01 0.29858077E+03</pdfrwt>
<totfact> 0.32758146E+01</totfact>
</mgrwt>
</event>
<event>
 4    1  0.3365401E-008  0.3660644E+03  0.7818608E-02  0.1056208E+00
          2   -1    0    0  501    0  0.00000000000E+00  0.00000000000E+00  0.12896589746E+04  0.12896589746E+04  0.25500000000E-02 0. -1.
         -2   -1    0    0    0  501 -0.00000000000E+00 -0.00000000000E+00 -0.25272929996E+03  0.25272929997E+03  0.25500000000E-02 0.  1.
    8880022    1    1    2    0    0 -0.31981770170E+03 -0.91258509281E+02 -0.73330562220E+02  0.37333698211E+03  0.15294330000E+03 0.  0.
    8880022    1    1    2    0    0  0.31981770170E+03  0.91258509281E+02  0.11102602368E+04  0.11690512924E+04  0.15294330000E+03 0.  0.
<mgrwt>
<rscale>  0 0.36606438E+03</rscale>
<asrwt>0</asrwt>
<pdfrwt beam="1">  1        2 0.19840907E+00 0.36606438E+03</pdfrwt>
<pdfrwt beam="2">  1       -2 0.38881431E-01 0.36606438E+03</pdfrwt>
<totfact> 0.11122096E+02</totfact>
</mgrwt>
</event>
<event>
 4    1  0.3365401E-008  0.6459923E+03  0.7818608E-02  0.9814329E-01
         -2   -1    0    0    0  501 -0.00000000000E+00  0.00000000000E+00  0.26826416053E+03  0.26826416054E+03  0.25500000000E-02 0.  1.
          2   -1    0    0  501    0  0.00000000000E+00 -0.00000000000E+00 -0.18059586307E+04  0.18059586307E+04  0.25500000000E-02 0. -1.
    8880022    1    1    2    0    0  0.60093626194E+03  0.18108005895E+03 -0.38268374754E+03  0.75083479029E+03  0.15294330000E+03 0.  0.
    8880022    1    1    2    0    0 -0.60093626194E+03 -0.18108005895E+03 -0.11550107227E+04  0.13233880010E+04  0.15294330000E+03 0.  0.
<mgrwt>
<rscale>  0 0.64599228E+03</rscale>
<asrwt>0</asrwt>
<pdfrwt beam="1">  1        2 0.27783978E+00 0.64599228E+03</pdfrwt>
<pdfrwt beam="2">  1       -2 0.41271410E-01 0.64599228E+03</pdfrwt>
<totfact> 0.49524499E+01</totfact>
</mgrwt>
</event>
<event>
 4    1  0.3365401E-008  0.5193795E+03  0.7818608E-02  0.1008841E+00
          2   -1    0    0  501    0  0.00000000000E+00  0.00000000000E+00  0.18391025817E+04  0.18391025817E+04  0.25500000000E-02 0. -1.
         -2   -1    0    0    0  501 -0.00000000000E+00 -0.00000000000E+00 -0.69238046409E+03  0.69238046410E+03  0.25500000000E-02 0.  1.
    8880022    1    1    2    0    0 -0.18498276225E+02 -0.49600524061E+03  0.16970620556E+04  0.17747604510E+04  0.15294330000E+03 0.  0.
    8880022    1    1    2    0    0  0.18498276225E+02  0.49600524061E+03 -0.55033993805E+03  0.75672259472E+03  0.15294330000E+03 0.  0.
<mgrwt>
<rscale>  0 0.51937947E+03</rscale>
<asrwt>0</asrwt>
<pdfrwt beam="1">  1        2 0.28293886E+00 0.51937947E+03</pdfrwt>
<pdfrwt beam="2">  1       -2 0.10652007E+00 0.51937947E+03</pdfrwt>
<totfact> 0.62839116E+00</totfact>
</mgrwt>
</event>
<event>
 4    1  0.3365401E-008  0.3577892E+03  0.7818608E-02  0.1059463E+00
          2   -1    0    0  501    0  0.00000000000E+00  0.00000000000E+00  0.14586503792E+04  0.14586503792E+04  0.25500000000E-02 0. -1.
         -2   -1    0    0    0  501 -0.00000000000E+00 -0.00000000000E+00 -0.24760002231E+03  0.24760002232E+03  0.25500000000E-02 0.  1.
    8880022    1    1    2    0    0 -0.27369691750E+03 -0.17237002274E+03  0.12909793216E+04  0.13396420004E+04  0.15294330000E+03 0. -1.
    8880022    1    1    2    0    0  0.27369691750E+03  0.17237002274E+03 -0.79928964688E+02  0.36660840116E+03  0.15294330000E+03 0.  0.
<mgrwt>
<rscale>  0 0.35778916E+03</rscale>
<asrwt>0</asrwt>
<pdfrwt beam="1">  1        2 0.22440775E+00 0.35778916E+03</pdfrwt>
<pdfrwt beam="2">  1       -2 0.38092311E-01 0.35778916E+03</pdfrwt>
<totfact> 0.93396315E+01</totfact>
</mgrwt>
</event>
<event>
 4    1  0.4006254E-008  0.7281436E+03  0.7818608E-02  0.9670278E-01
          2   -1    0    0  501    0  0.00000000000E+00  0.00000000000E+00  0.13734073207E+04  0.13734073207E+04  0.25500000000E-02 0. -1.
         -2   -1    0    0    0  501 -0.00000000000E+00 -0.00000000000E+00 -0.15074968780E+04  0.15074968780E+04  0.25500000000E-02 0.  1.
    8880022    1    1    2    0    0 -0.38217735084E+03 -0.60061799446E+03 -0.13094448782E+04  0.14982786940E+04  0.15294330000E+03 0.  0.
    8880022    1    1    2    0    0  0.38217735084E+03  0.60061799446E+03  0.11753553209E+04  0.13826255047E+04  0.15294330000E+03 0.  0.
<mgrwt>
<rscale>  0 0.72814364E+03</rscale>
<asrwt>0</asrwt>
<pdfrwt beam="1">  1        2 0.21129343E+00 0.72814364E+03</pdfrwt>
<pdfrwt beam="2">  1       -2 0.23192260E+00 0.72814364E+03</pdfrwt>
<totfact> 0.12965571E+00</totfact>
</mgrwt>
</event>
<event>
 4    1  0.3365401E-008  0.6719976E+03  0.7818608E-02  0.9766356E-01
         -2   -1    0    0    0  501 -0.00000000000E+00  0.00000000000E+00  0.19591528911E+03  0.19591528912E+03  0.25500000000E-02 0.  1.
          2   -1    0    0  501    0  0.00000000000E+00 -0.00000000000E+00 -0.38309308211E+04  0.38309308211E+04  0.25500000000E-02 0. -1.
    8880022    1    1    2    0    0  0.47987073224E+03 -0.44487439744E+03 -0.30882374243E+04  0.31605048950E+04  0.15294330000E+03 0.  0.
    8880022    1    1    2    0    0 -0.47987073224E+03  0.44487439744E+03 -0.54677810761E+03  0.86634121519E+03  0.15294330000E+03 0.  0.
<mgrwt>
<rscale>  0 0.67199762E+03</rscale>
<asrwt>0</asrwt>
<pdfrwt beam="1">  1        2 0.58937392E+00 0.67199762E+03</pdfrwt>
<pdfrwt beam="2">  1       -2 0.30140817E-01 0.67199762E+03</pdfrwt>
<totfact> 0.52756119E+00</totfact>
</mgrwt>
</event>
<event>
 4    1  0.3365401E-008  0.6483698E+03  0.7818608E-02  0.9809843E-01
          2   -1    0    0  501    0  0.00000000000E+00  0.00000000000E+00  0.19721701501E+04  0.19721701501E+04  0.25500000000E-02 0. -1.
         -2   -1    0    0    0  501 -0.00000000000E+00 -0.00000000000E+00 -0.60921652987E+03  0.60921652988E+03  0.25500000000E-02 0.  1.
    8880022    1    1    2    0    0 -0.34607637347E+03 -0.52651954492E+03  0.17221564442E+04  0.18401647097E+04  0.15294330000E+03 0.  0.
    8880022    1    1    2    0    0  0.34607637347E+03  0.52651954492E+03 -0.35920282398E+03  0.74122197028E+03  0.15294330000E+03 0.  0.
<mgrwt>
<rscale>  0 0.64836976E+03</rscale>
<asrwt>0</asrwt>
<pdfrwt beam="1">  1        2 0.30341079E+00 0.64836976E+03</pdfrwt>
<pdfrwt beam="2">  1       -2 0.93725621E-01 0.64836976E+03</pdfrwt>
<totfact> 0.70141348E+00</totfact>
</mgrwt>
</event>
<event>
 4    1  0.3365401E-008  0.3649308E+03  0.7818608E-02  0.1056648E+00
          2   -1    0    0  501    0  0.00000000000E+00  0.00000000000E+00  0.18353626358E+04  0.18353626358E+04  0.25500000000E-02 0. -1.
         -2   -1    0    0    0  501 -0.00000000000E+00 -0.00000000000E+00 -0.13637396071E+04  0.13637396071E+04  0.25500000000E-02 0.  1.
    8880022    1    1    2    0    0 -0.33047318457E+03  0.23880848808E+02 -0.13206044450E+04  0.13700987460E+04  0.15294330000E+03 0.  1.
    8880022    1    1    2    0    0  0.33047318457E+03 -0.23880848808E+02  0.17922274737E+04  0.18290034968E+04  0.15294330000E+03 0.  0.
<mgrwt>
<rscale>  0 0.36493078E+03</rscale>
<asrwt>0</asrwt>
<pdfrwt beam="1">  1        2 0.28236348E+00 0.36493078E+03</pdfrwt>
<pdfrwt beam="2">  1       -2 0.20980609E+00 0.36493078E+03</pdfrwt>
<totfact> 0.11029512E+00</totfact>
</mgrwt>
</event>
<event>
 4    1  0.3365401E-008  0.5740707E+03  0.7818608E-02  0.9960711E-01
         -2   -1    0    0    0  501 -0.00000000000E+00  0.00000000000E+00  0.59949240918E+03  0.59949240918E+03  0.25500000000E-02 0.  1.
          2   -1    0    0  501    0  0.00000000000E+00 -0.00000000000E+00 -0.92944664747E+03  0.92944664747E+03  0.25500000000E-02 0. -1.
    8880022    1    1    2    0    0 -0.54877647386E+03  0.70780240322E+02 -0.65360644543E+03  0.86991867390E+03  0.15294330000E+03 0.  0.
    8880022    1    1    2    0    0  0.54877647386E+03 -0.70780240322E+02  0.32365220714E+03  0.65902038275E+03  0.15294330000E+03 0.  0.
<mgrwt>
<rscale>  0 0.57407065E+03</rscale>
<asrwt>0</asrwt>
<pdfrwt beam="1">  1        2 0.14299179E+00 0.57407065E+03</pdfrwt>
<pdfrwt beam="2">  1       -2 0.92229601E-01 0.57407065E+03</pdfrwt>
<totfact> 0.28954163E+01</totfact>
</mgrwt>
</event>
<event>
 4    1  0.3365401E-008  0.5822401E+03  0.7818608E-02  0.9942953E-01
         -2   -1    0    0    0  501 -0.00000000000E+00  0.00000000000E+00  0.22860688062E+03  0.22860688064E+03  0.25500000000E-02 0.  1.
          2   -1    0    0  501    0  0.00000000000E+00 -0.00000000000E+00 -0.20413409782E+04  0.20413409782E+04  0.25500000000E-02 0. -1.
    8880022    1    1    2    0    0  0.28473972301E+03  0.48428833789E+03 -0.14999926778E+04  0.16090312584E+04  0.15294330000E+03 0.  0.
    8880022    1    1    2    0    0 -0.28473972301E+03 -0.48428833789E+03 -0.31274141981E+03  0.66091660045E+03  0.15294330000E+03 0.  0.
<mgrwt>
<rscale>  0 0.58224012E+03</rscale>
<asrwt>0</asrwt>
<pdfrwt beam="1">  1        2 0.31405245E+00 0.58224012E+03</pdfrwt>
<pdfrwt beam="2">  1       -2 0.35170291E-01 0.58224012E+03</pdfrwt>
<totfact> 0.50723343E+01</totfact>
</mgrwt>
</event>
<event>
 4    1  0.3365401E-008  0.1296161E+04  0.7818608E-02  0.9032615E-01
          2   -1    0    0  501    0  0.00000000000E+00  0.00000000000E+00  0.13551330709E+04  0.13551330709E+04  0.25500000000E-02 0. -1.
         -2   -1    0    0    0  501 -0.00000000000E+00 -0.00000000000E+00 -0.13850565227E+04  0.13850565227E+04  0.25500000000E-02 0.  1.
    8880022    1    1    2    0    0 -0.12841548819E+04 -0.87109406325E+02  0.42880163473E+03  0.13652488067E+04  0.15294330000E+03 0.  0.
    8880022    1    1    2    0    0  0.12841548819E+04  0.87109406325E+02 -0.45872508658E+03  0.13749407869E+04  0.15294330000E+03 0.  0.
<mgrwt>
<rscale>  0 0.12961610E+04</rscale>
<asrwt>0</asrwt>
<pdfrwt beam="1">  1        2 0.20848201E+00 0.12961610E+04</pdfrwt>
<pdfrwt beam="2">  1       -2 0.21308562E+00 0.12961610E+04</pdfrwt>
<totfact> 0.16142390E+00</totfact>
</mgrwt>
</event>
<event>
 4    1  0.3365401E-008  0.4102051E+03  0.7818608E-02  0.1040302E+00
         -2   -1    0    0    0  501 -0.00000000000E+00  0.00000000000E+00  0.14211906244E+04  0.14211906244E+04  0.25500000000E-02 0.  1.
          2   -1    0    0  501    0  0.00000000000E+00 -0.00000000000E+00 -0.34045625968E+03  0.34045625969E+03  0.25500000000E-02 0. -1.
    8880022    1    1    2    0    0  0.94200768286E+02  0.36878560804E+03 -0.17099405998E+03  0.44441785631E+03  0.15294330000E+03 0.  0.
    8880022    1    1    2    0    0 -0.94200768286E+02 -0.36878560804E+03  0.12517284247E+04  0.13172290278E+04  0.15294330000E+03 0.  1.
<mgrwt>
<rscale>  0 0.41020515E+03</rscale>
<asrwt>0</asrwt>
<pdfrwt beam="1">  1        2 0.52377886E-01 0.41020515E+03</pdfrwt>
<pdfrwt beam="2">  1       -2 0.21864471E+00 0.41020515E+03</pdfrwt>
<totfact> 0.10283935E+01</totfact>
</mgrwt>
</event>
<event>
 4    1  0.3365401E-008  0.7073148E+03  0.7818608E-02  0.9704804E-01
         -2   -1    0    0    0  501 -0.00000000000E+00  0.00000000000E+00  0.55482026298E+03  0.55482026299E+03  0.25500000000E-02 0.  1.
          2   -1    0    0  501    0  0.00000000000E+00 -0.00000000000E+00 -0.10078746975E+04  0.10078746975E+04  0.25500000000E-02 0. -1.
    8880022    1    1    2    0    0 -0.59264938160E+03  0.35449862136E+03 -0.48010098952E+03  0.85486324942E+03  0.15294330000E+03 0.  0.
    8880022    1    1    2    0    0  0.59264938160E+03 -0.35449862136E+03  0.27046554993E+02  0.70783171108E+03  0.15294330000E+03 0.  0.
<mgrwt>
<rscale>  0 0.70731479E+03</rscale>
<asrwt>0</asrwt>
<pdfrwt beam="1">  1        2 0.15505765E+00 0.70731479E+03</pdfrwt>
<pdfrwt beam="2">  1       -2 0.85356964E-01 0.70731479E+03</pdfrwt>
<totfact> 0.30323591E+01</totfact>
</mgrwt>
</event>
<event>
 4    1  0.3365401E-008  0.2616948E+03  0.7818608E-02  0.1106129E+00
          2   -1    0    0  501    0  0.00000000000E+00  0.00000000000E+00  0.97229406678E+03  0.97229406678E+03  0.25500000000E-02 0. -1.
         -2   -1    0    0    0  501 -0.00000000000E+00 -0.00000000000E+00 -0.12064996041E+03  0.12064996043E+03  0.25500000000E-02 0.  1.
    8880022    1    1    2    0    0 -0.12930986356E+02 -0.21195587254E+03  0.73274157968E+02  0.27175955835E+03  0.15294330000E+03 0.  1.
    8880022    1    1    2    0    0  0.12930986356E+02  0.21195587254E+03  0.77836994841E+03  0.82118446887E+03  0.15294330000E+03 0.  0.
<mgrwt>
<rscale>  0 0.26169478E+03</rscale>
<asrwt>0</asrwt>
<pdfrwt beam="1">  1        2 0.14958371E+00 0.26169478E+03</pdfrwt>
<pdfrwt beam="2">  1       -2 0.18561532E-01 0.26169478E+03</pdfrwt>
<totfact> 0.65570340E+02</totfact>
</mgrwt>
</event>
<event>
 4    1  0.3365401E-008  0.4310833E+03  0.7818608E-02  0.1033518E+00
          2   -1    0    0  501    0  0.00000000000E+00  0.00000000000E+00  0.13539657210E+04  0.13539657210E+04  0.25500000000E-02 0. -1.
         -2   -1    0    0    0  501 -0.00000000000E+00 -0.00000000000E+00 -0.58394898998E+03  0.58394898998E+03  0.25500000000E-02 0.  1.
    8880022    1    1    2    0    0 -0.14789360496E+03 -0.37492483304E+03 -0.46246163166E+03  0.63222113425E+03  0.15294330000E+03 0.  0.
    8880022    1    1    2    0    0  0.14789360496E+03  0.37492483304E+03  0.12324783627E+04  0.13056935767E+04  0.15294330000E+03 0. -1.
<mgrwt>
<rscale>  0 0.43108329E+03</rscale>
<asrwt>0</asrwt>
<pdfrwt beam="1">  1        2 0.20830241E+00 0.43108329E+03</pdfrwt>
<pdfrwt beam="2">  1       -2 0.89838308E-01 0.43108329E+03</pdfrwt>
<totfact> 0.17540419E+01</totfact>
</mgrwt>
</event>
<event>
 4    1  0.3365401E-008  0.6017094E+03  0.7818608E-02  0.9901866E-01
         -2   -1    0    0    0  501 -0.00000000000E+00  0.00000000000E+00  0.75474866555E+03  0.75474866556E+03  0.25500000000E-02 0.  1.
          2   -1    0    0  501    0  0.00000000000E+00 -0.00000000000E+00 -0.15742474589E+04  0.15742474589E+04  0.25500000000E-02 0. -1.
    8880022    1    1    2    0    0  0.58130608535E+03 -0.27308345188E+02 -0.13807494310E+04  0.15061617293E+04  0.15294330000E+03 0.  0.
    8880022    1    1    2    0    0 -0.58130608535E+03  0.27308345188E+02  0.56125063765E+03  0.82283439516E+03  0.15294330000E+03 0.  0.
<mgrwt>
<rscale>  0 0.60170937E+03</rscale>
<asrwt>0</asrwt>
<pdfrwt beam="1">  1        2 0.24219192E+00 0.60170937E+03</pdfrwt>
<pdfrwt beam="2">  1       -2 0.11611518E+00 0.60170937E+03</pdfrwt>
<totfact> 0.69821961E+00</totfact>
</mgrwt>
</event>
<event>
 4    1  0.3365401E-008  0.5875633E+03  0.7818608E-02  0.9931550E-01
          2   -1    0    0  501    0  0.00000000000E+00  0.00000000000E+00  0.19184002686E+04  0.19184002686E+04  0.25500000000E-02 0. -1.
         -2   -1    0    0    0  501 -0.00000000000E+00 -0.00000000000E+00 -0.29156885427E+03  0.29156885428E+03  0.25500000000E-02 0.  1.
    8880022    1    1    2    0    0  0.53569194694E+03  0.18674339207E+03  0.14970750284E+04  0.16082488147E+04  0.15294330000E+03 0.  0.
    8880022    1    1    2    0    0 -0.53569194694E+03 -0.18674339207E+03  0.12975638593E+03  0.60172030812E+03  0.15294330000E+03 0.  0.
<mgrwt>
<rscale>  0 0.58756328E+03</rscale>
<asrwt>0</asrwt>
<pdfrwt beam="1">  1        2 0.29513851E+00 0.58756328E+03</pdfrwt>
<pdfrwt beam="2">  1       -2 0.44856746E-01 0.58756328E+03</pdfrwt>
<totfact> 0.36840872E+01</totfact>
</mgrwt>
</event>
<event>
 4    1  0.3365401E-008  0.2332467E+03  0.7818608E-02  0.1124375E+00
         -2   -1    0    0    0  501 -0.00000000000E+00  0.00000000000E+00  0.13117051408E+04  0.13117051408E+04  0.25500000000E-02 0.  1.
          2   -1    0    0  501    0  0.00000000000E+00 -0.00000000000E+00 -0.14637444903E+04  0.14637444903E+04  0.25500000000E-02 0. -1.
    8880022    1    1    2    0    0  0.14075147933E+03  0.10583652757E+03  0.12919029880E+04  0.13127899043E+04  0.15294330000E+03 0.  1.
    8880022    1    1    2    0    0 -0.14075147933E+03 -0.10583652757E+03 -0.14439423375E+04  0.14626597268E+04  0.15294330000E+03 0.  0.
<mgrwt>
<rscale>  0 0.23324666E+03</rscale>
<asrwt>0</asrwt>
<pdfrwt beam="1">  1        2 0.22519146E+00 0.23324666E+03</pdfrwt>
<pdfrwt beam="2">  1       -2 0.20180079E+00 0.23324666E+03</pdfrwt>
<totfact> 0.20864569E+00</totfact>
</mgrwt>
</event>
<event>
 4    1  0.3365401E-008  0.1282868E+04  0.7818608E-02  0.9043262E-01
         -2   -1    0    0    0  501 -0.00000000000E+00  0.00000000000E+00  0.68237751907E+03  0.68237751908E+03  0.25500000000E-02 0.  1.
          2   -1    0    0  501    0  0.00000000000E+00 -0.00000000000E+00 -0.26578234618E+04  0.26578234618E+04  0.25500000000E-02 0. -1.
    8880022    1    1    2    0    0  0.50245268901E+03 -0.11704273193E+04 -0.14958562908E+04  0.19706183066E+04  0.15294330000E+03 0.  0.
    8880022    1    1    2    0    0 -0.50245268901E+03  0.11704273193E+04 -0.47958965184E+03  0.13695826742E+04  0.15294330000E+03 0.  0.
<mgrwt>
<rscale>  0 0.12828681E+04</rscale>
<asrwt>0</asrwt>
<pdfrwt beam="1">  1        2 0.40889591E+00 0.12828681E+04</pdfrwt>
<pdfrwt beam="2">  1       -2 0.10498116E+00 0.12828681E+04</pdfrwt>
<totfact> 0.20173644E+00</totfact>
</mgrwt>
</event>
<event>
 4    1  0.3365401E-008  0.5420679E+03  0.7818608E-02  0.1003347E+00
          2   -1    0    0  501    0  0.00000000000E+00  0.00000000000E+00  0.79213335375E+03  0.79213335376E+03  0.25500000000E-02 0. -1.
         -2   -1    0    0    0  501 -0.00000000000E+00 -0.00000000000E+00 -0.10689207733E+04  0.10689207733E+04  0.25500000000E-02 0.  1.
    8880022    1    1    2    0    0  0.51276676245E+03 -0.86695949003E+02  0.61353479295E+03  0.81869563051E+03  0.15294330000E+03 0.  0.
    8880022    1    1    2    0    0 -0.51276676245E+03  0.86695949003E+02 -0.89032221248E+03  0.10423584965E+04  0.15294330000E+03 0.  0.
<mgrwt>
<rscale>  0 0.54206789E+03</rscale>
<asrwt>0</asrwt>
<pdfrwt beam="1">  1        2 0.12186667E+00 0.54206789E+03</pdfrwt>
<pdfrwt beam="2">  1       -2 0.16444935E+00 0.54206789E+03</pdfrwt>
<totfact> 0.85388879E+00</totfact>
</mgrwt>
</event>
<event>
 4    1  0.3365401E-008  0.3714765E+03  0.7818608E-02  0.1054130E+00
         -2   -1    0    0    0  501 -0.00000000000E+00  0.00000000000E+00  0.13562526042E+03  0.13562526045E+03  0.25500000000E-02 0.  1.
          2   -1    0    0  501    0  0.00000000000E+00 -0.00000000000E+00 -0.19909020256E+04  0.19909020256E+04  0.25500000000E-02 0. -1.
    8880022    1    1    2    0    0 -0.24035986525E+03  0.23839106910E+03 -0.16711170795E+04  0.17119074487E+04  0.15294330000E+03 0. -1.
    8880022    1    1    2    0    0  0.24035986525E+03 -0.23839106910E+03 -0.18415968569E+03  0.41461983731E+03  0.15294330000E+03 0.  0.
<mgrwt>
<rscale>  0 0.37147654E+03</rscale>
<asrwt>0</asrwt>
<pdfrwt beam="1">  1        2 0.30629260E+00 0.37147654E+03</pdfrwt>
<pdfrwt beam="2">  1       -2 0.20865426E-01 0.37147654E+03</pdfrwt>
<totfact> 0.14444332E+02</totfact>
</mgrwt>
</event>
<event>
 4    1  0.3365401E-008  0.5922781E+03  0.7818608E-02  0.9921557E-01
         -2   -1    0    0    0  501 -0.00000000000E+00  0.00000000000E+00  0.24427747960E+03  0.24427747962E+03  0.25500000000E-02 0.  1.
          2   -1    0    0  501    0  0.00000000000E+00 -0.00000000000E+00 -0.16468269031E+04  0.16468269031E+04  0.25500000000E-02 0. -1.
    8880022    1    1    2    0    0  0.51548888577E+03  0.24834035028E+03 -0.10395564268E+04  0.11964409465E+04  0.15294330000E+03 0.  0.
    8880022    1    1    2    0    0 -0.51548888577E+03 -0.24834035028E+03 -0.36299299664E+03  0.69466343617E+03  0.15294330000E+03 0.  0.
<mgrwt>
<rscale>  0 0.59227812E+03</rscale>
<asrwt>0</asrwt>
<pdfrwt beam="1">  1        2 0.25335798E+00 0.59227812E+03</pdfrwt>
<pdfrwt beam="2">  1       -2 0.37581152E-01 0.59227812E+03</pdfrwt>
<totfact> 0.72980264E+01</totfact>
</mgrwt>
</event>
<event>
 4    1  0.3365401E-008  0.6362815E+03  0.7818608E-02  0.9832867E-01
         -2   -1    0    0    0  501 -0.00000000000E+00  0.00000000000E+00  0.32449093510E+03  0.32449093511E+03  0.25500000000E-02 0.  1.
          2   -1    0    0  501    0  0.00000000000E+00 -0.00000000000E+00 -0.15228440076E+04  0.15228440076E+04  0.25500000000E-02 0. -1.
    8880022    1    1    2    0    0 -0.61158490668E+03  0.86176233721E+02 -0.20653143642E+03  0.66896138049E+03  0.15294330000E+03 0.  0.
    8880022    1    1    2    0    0  0.61158490668E+03 -0.86176233721E+02 -0.99182163606E+03  0.11783735622E+04  0.15294330000E+03 0.  0.
<mgrwt>
<rscale>  0 0.63628146E+03</rscale>
<asrwt>0</asrwt>
<pdfrwt beam="1">  1        2 0.23428369E+00 0.63628146E+03</pdfrwt>
<pdfrwt beam="2">  1       -2 0.49921683E-01 0.63628146E+03</pdfrwt>
<totfact> 0.48451678E+01</totfact>
</mgrwt>
</event>
<event>
 4    1  0.3365401E-008  0.6229484E+03  0.7818608E-02  0.9858907E-01
         -2   -1    0    0    0  501 -0.00000000000E+00  0.00000000000E+00  0.73143627476E+03  0.73143627476E+03  0.25500000000E-02 0.  1.
          2   -1    0    0  501    0  0.00000000000E+00 -0.00000000000E+00 -0.18657640071E+04  0.18657640072E+04  0.25500000000E-02 0. -1.
    8880022    1    1    2    0    0 -0.52587186311E+03 -0.29687000066E+03  0.53139232042E+03  0.81880551104E+03  0.15294330000E+03 0.  0.
    8880022    1    1    2    0    0  0.52587186311E+03  0.29687000066E+03 -0.16657200528E+04  0.17783947709E+04  0.15294330000E+03 0.  0.
<mgrwt>
<rscale>  0 0.62294837E+03</rscale>
<asrwt>0</asrwt>
<pdfrwt beam="1">  1        2 0.28704061E+00 0.62294837E+03</pdfrwt>
<pdfrwt beam="2">  1       -2 0.11252866E+00 0.62294837E+03</pdfrwt>
<totfact> 0.52106341E+00</totfact>
</mgrwt>
</event>
<event>
 4    1  0.3365401E-008  0.1186697E+04  0.7818608E-02  0.9124581E-01
          2   -1    0    0  501    0  0.00000000000E+00  0.00000000000E+00  0.22087656845E+04  0.22087656845E+04  0.25500000000E-02 0. -1.
         -2   -1    0    0    0  501 -0.00000000000E+00 -0.00000000000E+00 -0.11330329349E+04  0.11330329349E+04  0.25500000000E-02 0.  1.
    8880022    1    1    2    0    0  0.48530496719E+01  0.11767904354E+04  0.16427918113E+04  0.20265773781E+04  0.15294330000E+03 0.  0.
    8880022    1    1    2    0    0 -0.48530496719E+01 -0.11767904354E+04 -0.56705906173E+03  0.13152212413E+04  0.15294330000E+03 0.  0.
<mgrwt>
<rscale>  0 0.11866975E+04</rscale>
<asrwt>0</asrwt>
<pdfrwt beam="1">  1        2 0.33981010E+00 0.11866975E+04</pdfrwt>
<pdfrwt beam="2">  1       -2 0.17431276E+00 0.11866975E+04</pdfrwt>
<totfact> 0.98902728E-01</totfact>
</mgrwt>
</event>
<event>
 4    1  0.3365401E-008  0.6851908E+03  0.7818608E-02  0.9742899E-01
         -2   -1    0    0    0  501 -0.00000000000E+00  0.00000000000E+00  0.12150549636E+04  0.12150549636E+04  0.25500000000E-02 0.  1.
          2   -1    0    0  501    0  0.00000000000E+00 -0.00000000000E+00 -0.17563430957E+04  0.17563430957E+04  0.25500000000E-02 0. -1.
    8880022    1    1    2    0    0 -0.48435112750E+03  0.45988990847E+03  0.10414918982E+04  0.12466722783E+04  0.15294330000E+03 0.  0.
    8880022    1    1    2    0    0  0.48435112750E+03 -0.45988990847E+03 -0.15827800302E+04  0.17247257810E+04  0.15294330000E+03 0.  0.
<mgrwt>
<rscale>  0 0.68519077E+03</rscale>
<asrwt>0</asrwt>
<pdfrwt beam="1">  1        2 0.27020663E+00 0.68519077E+03</pdfrwt>
<pdfrwt beam="2">  1       -2 0.18693153E+00 0.68519077E+03</pdfrwt>
<totfact> 0.15563064E+00</totfact>
</mgrwt>
</event>
<event>
 4    1  0.3365401E-008  0.4494340E+03  0.7818608E-02  0.1027891E+00
          2   -1    0    0  501    0  0.00000000000E+00  0.00000000000E+00  0.14406091344E+04  0.14406091344E+04  0.25500000000E-02 0. -1.
         -2   -1    0    0    0  501 -0.00000000000E+00 -0.00000000000E+00 -0.16133689464E+03  0.16133689466E+03  0.25500000000E-02 0.  1.
    8880022    1    1    2    0    0 -0.41411811361E+03 -0.84293825908E+02  0.92946836428E+03  0.10324254716E+04  0.15294330000E+03 0.  0.
    8880022    1    1    2    0    0  0.41411811361E+03  0.84293825908E+02  0.34980387546E+03  0.56952055749E+03  0.15294330000E+03 0.  0.
<mgrwt>
<rscale>  0 0.44943399E+03</rscale>
<asrwt>0</asrwt>
<pdfrwt beam="1">  1        2 0.22163218E+00 0.44943399E+03</pdfrwt>
<pdfrwt beam="2">  1       -2 0.24821061E-01 0.44943399E+03</pdfrwt>
<totfact> 0.20769178E+02</totfact>
</mgrwt>
</event>
<event>
 4    1  0.3365401E-008  0.4904122E+03  0.7818608E-02  0.1016312E+00
         -2   -1    0    0    0  501 -0.00000000000E+00  0.00000000000E+00  0.81522227903E+03  0.81522227903E+03  0.25500000000E-02 0.  1.
          2   -1    0    0  501    0  0.00000000000E+00 -0.00000000000E+00 -0.61265607175E+03  0.61265607175E+03  0.25500000000E-02 0. -1.
    8880022    1    1    2    0    0 -0.28331717337E+03  0.36992410575E+03  0.61535050431E+03  0.78686743541E+03  0.15294330000E+03 0.  0.
    8880022    1    1    2    0    0  0.28331717337E+03 -0.36992410575E+03 -0.41278429703E+03  0.64101091538E+03  0.15294330000E+03 0.  0.
<mgrwt>
<rscale>  0 0.49041219E+03</rscale>
<asrwt>0</asrwt>
<pdfrwt beam="1">  1        2 0.94254781E-01 0.49041219E+03</pdfrwt>
<pdfrwt beam="2">  1       -2 0.12541881E+00 0.49041219E+03</pdfrwt>
<totfact> 0.23949684E+01</totfact>
</mgrwt>
</event>
<event>
 4    1  0.3365401E-008  0.3378010E+03  0.7818608E-02  0.1067736E+00
          2   -1    0    0  501    0  0.00000000000E+00  0.00000000000E+00  0.52871527615E+03  0.52871527616E+03  0.25500000000E-02 0. -1.
         -2   -1    0    0    0  501 -0.00000000000E+00 -0.00000000000E+00 -0.60014137042E+03  0.60014137043E+03  0.25500000000E-02 0.  1.
    8880022    1    1    2    0    0  0.15542792173E+03  0.25799229502E+03 -0.48738897750E+03  0.59300719350E+03  0.15294330000E+03 0.  0.
    8880022    1    1    2    0    0 -0.15542792173E+03 -0.25799229502E+03  0.41596288323E+03  0.53584945309E+03  0.15294330000E+03 0.  0.
<mgrwt>
<rscale>  0 0.33780100E+03</rscale>
<asrwt>0</asrwt>
<pdfrwt beam="1">  1        2 0.81340812E-01 0.33780100E+03</pdfrwt>
<pdfrwt beam="2">  1       -2 0.92329442E-01 0.33780100E+03</pdfrwt>
<totfact> 0.60385227E+01</totfact>
</mgrwt>
</event>
<event>
 4    1  0.3365401E-008  0.2155772E+03  0.7818608E-02  0.1137224E+00
         -2   -1    0    0    0  501 -0.00000000000E+00  0.00000000000E+00  0.31099331184E+03  0.31099331185E+03  0.25500000000E-02 0.  1.
          2   -1    0    0  501    0  0.00000000000E+00 -0.00000000000E+00 -0.54536166923E+03  0.54536166923E+03  0.25500000000E-02 0. -1.
    8880022    1    1    2    0    0  0.43242198959E+02  0.14564341740E+03 -0.48201241745E+03  0.52802416270E+03  0.15294330000E+03 0.  0.
    8880022    1    1    2    0    0 -0.43242198959E+02 -0.14564341740E+03  0.24764406007E+03  0.32833081839E+03  0.15294330000E+03 0.  1.
<mgrwt>
<rscale>  0 0.21557724E+03</rscale>
<asrwt>0</asrwt>
<pdfrwt beam="1">  1        2 0.83901795E-01 0.21557724E+03</pdfrwt>
<pdfrwt beam="2">  1       -2 0.47845125E-01 0.21557724E+03</pdfrwt>
<totfact> 0.23982422E+02</totfact>
</mgrwt>
</event>
<event>
 4    1  0.3365401E-008  0.2941692E+03  0.7818608E-02  0.1088192E+00
          2   -1    0    0  501    0  0.00000000000E+00  0.00000000000E+00  0.17186487064E+04  0.17186487064E+04  0.25500000000E-02 0. -1.
         -2   -1    0    0    0  501 -0.00000000000E+00 -0.00000000000E+00 -0.13328412839E+03  0.13328412842E+03  0.25500000000E-02 0.  1.
    8880022    1    1    2    0    0  0.14867283329E+02  0.25084429104E+03  0.15230982344E+04  0.15512458796E+04  0.15294330000E+03 0.  0.
    8880022    1    1    2    0    0 -0.14867283329E+02 -0.25084429104E+03  0.62266343629E+02  0.30068695520E+03  0.15294330000E+03 0.  0.
<mgrwt>
<rscale>  0 0.29416925E+03</rscale>
<asrwt>0</asrwt>
<pdfrwt beam="1">  1        2 0.26440749E+00 0.29416925E+03</pdfrwt>
<pdfrwt beam="2">  1       -2 0.20505251E-01 0.29416925E+03</pdfrwt>
<totfact> 0.21074956E+02</totfact>
</mgrwt>
</event>
<event>
 4    1  0.3365401E-008  0.2311854E+03  0.7818608E-02  0.1125808E+00
          2   -1    0    0  501    0  0.00000000000E+00  0.00000000000E+00  0.23942877483E+04  0.23942877483E+04  0.25500000000E-02 0. -1.
         -2   -1    0    0    0  501 -0.00000000000E+00 -0.00000000000E+00 -0.33188656705E+02  0.33188656803E+02  0.25500000000E-02 0.  1.
    8880022    1    1    2    0    0  0.16701040620E+03 -0.46503512637E+02  0.18750401167E+04  0.18892385093E+04  0.15294330000E+03 0.  0.
    8880022    1    1    2    0    0 -0.16701040620E+03  0.46503512637E+02  0.48605897481E+03  0.53823789580E+03  0.15294330000E+03 0.  1.
<mgrwt>
<rscale>  0 0.23118544E+03</rscale>
<asrwt>0</asrwt>
<pdfrwt beam="1">  1        2 0.36835199E+00 0.23118544E+03</pdfrwt>
<pdfrwt beam="2">  1       -2 0.51059468E-02 0.23118544E+03</pdfrwt>
<totfact> 0.87432472E+02</totfact>
</mgrwt>
</event>
<event>
 4    1  0.3365401E-008  0.7976003E+03  0.7818608E-02  0.9563497E-01
          2   -1    0    0  501    0  0.00000000000E+00  0.00000000000E+00  0.11290157859E+04  0.11290157859E+04  0.25500000000E-02 0. -1.
         -2   -1    0    0    0  501 -0.00000000000E+00 -0.00000000000E+00 -0.18963177253E+04  0.18963177253E+04  0.25500000000E-02 0.  1.
    8880022    1    1    2    0    0  0.75458274324E+03  0.20827720838E+03  0.88452064909E+03  0.11910260046E+04  0.15294330000E+03 0.  0.
    8880022    1    1    2    0    0 -0.75458274324E+03 -0.20827720838E+03 -0.16518225885E+04  0.18343075066E+04  0.15294330000E+03 0.  0.
<mgrwt>
<rscale>  0 0.79760025E+03</rscale>
<asrwt>0</asrwt>
<pdfrwt beam="1">  1        2 0.17369474E+00 0.79760025E+03</pdfrwt>
<pdfrwt beam="2">  1       -2 0.29174119E+00 0.79760025E+03</pdfrwt>
<totfact> 0.77388627E-01</totfact>
</mgrwt>
</event>
<event>
 4    1  0.3365401E-008  0.8597883E+03  0.7818608E-02  0.9477293E-01
          2   -1    0    0  501    0  0.00000000000E+00  0.00000000000E+00  0.19304051907E+04  0.19304051907E+04  0.25500000000E-02 0. -1.
         -2   -1    0    0    0  501 -0.00000000000E+00 -0.00000000000E+00 -0.42871427560E+03  0.42871427561E+03  0.25500000000E-02 0.  1.
    8880022    1    1    2    0    0  0.35125954177E+03 -0.76971483277E+03  0.11362623845E+04  0.14248958028E+04  0.15294330000E+03 0.  0.
    8880022    1    1    2    0    0 -0.35125954177E+03  0.76971483277E+03  0.36542853063E+03  0.93422366352E+03  0.15294330000E+03 0.  0.
<mgrwt>
<rscale>  0 0.85978825E+03</rscale>
<asrwt>0</asrwt>
<pdfrwt beam="1">  1        2 0.29698541E+00 0.85978825E+03</pdfrwt>
<pdfrwt beam="2">  1       -2 0.65956043E-01 0.85978825E+03</pdfrwt>
<totfact> 0.15733766E+01</totfact>
</mgrwt>
</event>
<event>
 4    1  0.3365401E-008  0.5194351E+03  0.7818608E-02  0.1008827E+00
         -2   -1    0    0    0  501 -0.00000000000E+00  0.00000000000E+00  0.75705336016E+03  0.75705336017E+03  0.25500000000E-02 0.  1.
          2   -1    0    0  501    0  0.00000000000E+00 -0.00000000000E+00 -0.73058485681E+03  0.73058485681E+03  0.25500000000E-02 0. -1.
    8880022    1    1    2    0    0 -0.11734125557E+03 -0.48234035067E+03  0.54555801445E+03  0.75329037183E+03  0.15294330000E+03 0.  1.
    8880022    1    1    2    0    0  0.11734125557E+03  0.48234035067E+03 -0.51908951109E+03  0.73434784515E+03  0.15294330000E+03 0. -1.
<mgrwt>
<rscale>  0 0.51943511E+03</rscale>
<asrwt>0</asrwt>
<pdfrwt beam="1">  1        2 0.11239767E+00 0.51943511E+03</pdfrwt>
<pdfrwt beam="2">  1       -2 0.11646975E+00 0.51943511E+03</pdfrwt>
<totfact> 0.23062850E+01</totfact>
</mgrwt>
</event>
<event>
 4    1  0.3365401E-008  0.8901756E+03  0.7818608E-02  0.9437946E-01
          2   -1    0    0  501    0  0.00000000000E+00  0.00000000000E+00  0.14100243472E+04  0.14100243472E+04  0.25500000000E-02 0. -1.
         -2   -1    0    0    0  501 -0.00000000000E+00 -0.00000000000E+00 -0.82762787687E+03  0.82762787688E+03  0.25500000000E-02 0.  1.
    8880022    1    1    2    0    0 -0.63656869007E+03 -0.60315942187E+03 -0.34266281334E+03  0.95385032476E+03  0.15294330000E+03 0.  0.
    8880022    1    1    2    0    0  0.63656869007E+03  0.60315942187E+03  0.92505928366E+03  0.12838018993E+04  0.15294330000E+03 0.  0.
<mgrwt>
<rscale>  0 0.89017562E+03</rscale>
<asrwt>0</asrwt>
<pdfrwt beam="1">  1        2 0.21692682E+00 0.89017562E+03</pdfrwt>
<pdfrwt beam="2">  1       -2 0.12732737E+00 0.89017562E+03</pdfrwt>
<totfact> 0.65709505E+00</totfact>
</mgrwt>
</event>
<event>
 4    1  0.3365401E-008  0.2874345E+03  0.7818608E-02  0.1091696E+00
         -2   -1    0    0    0  501 -0.00000000000E+00  0.00000000000E+00  0.34021459881E+03  0.34021459882E+03  0.25500000000E-02 0.  1.
          2   -1    0    0  501    0  0.00000000000E+00 -0.00000000000E+00 -0.18203778459E+04  0.18203778459E+04  0.25500000000E-02 0. -1.
    8880022    1    1    2    0    0  0.42679068861E+02  0.23959427185E+03  0.26557943383E+03  0.39134512480E+03  0.15294330000E+03 0.  1.
    8880022    1    1    2    0    0 -0.42679068861E+02 -0.23959427185E+03 -0.17457426809E+04  0.17692473199E+04  0.15294330000E+03 0.  0.
<mgrwt>
<rscale>  0 0.28743446E+03</rscale>
<asrwt>0</asrwt>
<pdfrwt beam="1">  1        2 0.28005812E+00 0.28743446E+03</pdfrwt>
<pdfrwt beam="2">  1       -2 0.52340709E-01 0.28743446E+03</pdfrwt>
<totfact> 0.32652541E+01</totfact>
</mgrwt>
</event>
<event>
 4    1  0.3365401E-008  0.4273042E+03  0.7818608E-02  0.1034715E+00
         -2   -1    0    0    0  501 -0.00000000000E+00  0.00000000000E+00  0.38370390363E+03  0.38370390364E+03  0.25500000000E-02 0.  1.
          2   -1    0    0  501    0  0.00000000000E+00 -0.00000000000E+00 -0.14938046769E+04  0.14938046769E+04  0.25500000000E-02 0. -1.
    8880022    1    1    2    0    0  0.12471195754E+03  0.37900417195E+03  0.21988834299E+03  0.48056193264E+03  0.15294330000E+03 0.  0.
    8880022    1    1    2    0    0 -0.12471195754E+03 -0.37900417195E+03 -0.13299891163E+04  0.13969466479E+04  0.15294330000E+03 0.  0.
<mgrwt>
<rscale>  0 0.42730421E+03</rscale>
<asrwt>0</asrwt>
<pdfrwt beam="1">  1        2 0.22981610E+00 0.42730421E+03</pdfrwt>
<pdfrwt beam="2">  1       -2 0.59031371E-01 0.42730421E+03</pdfrwt>
<totfact> 0.36781532E+01</totfact>
</mgrwt>
</event>
<event>
 4    1  0.3365401E-008  0.1773271E+03  0.7818608E-02  0.1170415E+00
          2   -1    0    0  501    0  0.00000000000E+00  0.00000000000E+00  0.58254723484E+03  0.58254723485E+03  0.25500000000E-02 0. -1.
         -2   -1    0    0    0  501 -0.00000000000E+00 -0.00000000000E+00 -0.23280014009E+03  0.23280014010E+03  0.25500000000E-02 0.  1.
    8880022    1    1    2    0    0 -0.17176910717E+02  0.88080646764E+02 -0.18242509264E+03  0.25440875385E+03  0.15294330000E+03 0.  0.
    8880022    1    1    2    0    0  0.17176910717E+02 -0.88080646764E+02  0.53217218739E+03  0.56093862110E+03  0.15294330000E+03 0. -1.
<mgrwt>
<rscale>  0 0.17732710E+03</rscale>
<asrwt>0</asrwt>
<pdfrwt beam="1">  1        2 0.89622651E-01 0.17732710E+03</pdfrwt>
<pdfrwt beam="2">  1       -2 0.35815407E-01 0.17732710E+03</pdfrwt>
<totfact> 0.38914520E+02</totfact>
</mgrwt>
</event>
<event>
 4    1  0.3365401E-008  0.7488760E+03  0.7818608E-02  0.9637115E-01
          2   -1    0    0  501    0  0.00000000000E+00  0.00000000000E+00  0.12746409532E+04  0.12746409532E+04  0.25500000000E-02 0. -1.
         -2   -1    0    0    0  501 -0.00000000000E+00 -0.00000000000E+00 -0.47504112455E+03  0.47504112455E+03  0.25500000000E-02 0.  1.
    8880022    1    1    2    0    0  0.69117883994E+03  0.24432634716E+03  0.16212525384E+03  0.76622438205E+03  0.15294330000E+03 0.  0.
    8880022    1    1    2    0    0 -0.69117883994E+03 -0.24432634716E+03  0.63747457482E+03  0.98345769571E+03  0.15294330000E+03 0.  0.
<mgrwt>
<rscale>  0 0.74887596E+03</rscale>
<asrwt>0</asrwt>
<pdfrwt beam="1">  1        2 0.19609861E+00 0.74887596E+03</pdfrwt>
<pdfrwt beam="2">  1       -2 0.73083251E-01 0.74887596E+03</pdfrwt>
<totfact> 0.29501633E+01</totfact>
</mgrwt>
</event>
<event>
 4    1  0.3365401E-008  0.1338794E+04  0.7818608E-02  0.8999355E-01
          2   -1    0    0  501    0  0.00000000000E+00  0.00000000000E+00  0.29346197832E+04  0.29346197832E+04  0.25500000000E-02 0. -1.
         -2   -1    0    0    0  501 -0.00000000000E+00 -0.00000000000E+00 -0.12540544824E+04  0.12540544824E+04  0.25500000000E-02 0.  1.
    8880022    1    1    2    0    0  0.24955866021E+03 -0.13064063470E+04 -0.65971632965E+03  0.14925127661E+04  0.15294330000E+03 0.  0.
    8880022    1    1    2    0    0 -0.24955866021E+03  0.13064063470E+04  0.23402816305E+04  0.26961614995E+04  0.15294330000E+03 0.  0.
<mgrwt>
<rscale>  0 0.13387938E+04</rscale>
<asrwt>0</asrwt>
<pdfrwt beam="1">  1        2 0.45147997E+00 0.13387938E+04</pdfrwt>
<pdfrwt beam="2">  1       -2 0.19293146E+00 0.13387938E+04</pdfrwt>
<totfact> 0.27266849E-01</totfact>
</mgrwt>
</event>
<event>
 4    1  0.3365401E-008  0.3915367E+03  0.7818608E-02  0.1046750E+00
         -2   -1    0    0    0  501 -0.00000000000E+00  0.00000000000E+00  0.13999404649E+03  0.13999404651E+03  0.25500000000E-02 0.  1.
          2   -1    0    0  501    0  0.00000000000E+00 -0.00000000000E+00 -0.15213565988E+04  0.15213565988E+04  0.25500000000E-02 0. -1.
    8880022    1    1    2    0    0  0.28257579482E+03 -0.22374142938E+03 -0.11304001233E+04  0.11962881755E+04  0.15294330000E+03 0.  0.
    8880022    1    1    2    0    0 -0.28257579482E+03  0.22374142938E+03 -0.25096242898E+03  0.46506246980E+03  0.15294330000E+03 0.  0.
<mgrwt>
<rscale>  0 0.39153667E+03</rscale>
<asrwt>0</asrwt>
<pdfrwt beam="1">  1        2 0.23405485E+00 0.39153667E+03</pdfrwt>
<pdfrwt beam="2">  1       -2 0.21537547E-01 0.39153667E+03</pdfrwt>
<totfact> 0.24283181E+02</totfact>
</mgrwt>
</event>
<event>
 4    1  0.3365401E-008  0.2597569E+03  0.7818608E-02  0.1107289E+00
         -2   -1    0    0    0  501 -0.00000000000E+00  0.00000000000E+00  0.79642999524E+02  0.79642999565E+02  0.25500000000E-02 0.  1.
          2   -1    0    0  501    0  0.00000000000E+00 -0.00000000000E+00 -0.29265133443E+04  0.29265133443E+04  0.25500000000E-02 0. -1.
    8880022    1    1    2    0    0  0.14958373748E+03  0.14733201211E+03 -0.15646577084E+03  0.30324116932E+03  0.15294330000E+03 0.  0.
    8880022    1    1    2    0    0 -0.14958373748E+03 -0.14733201211E+03 -0.26904045739E+04  0.27029151745E+04  0.15294330000E+03 0. -1.
<mgrwt>
<rscale>  0 0.25975694E+03</rscale>
<asrwt>0</asrwt>
<pdfrwt beam="1">  1        2 0.45023274E+00 0.25975694E+03</pdfrwt>
<pdfrwt beam="2">  1       -2 0.12252771E-01 0.25975694E+03</pdfrwt>
<totfact> 0.11084945E+02</totfact>
</mgrwt>
</event>
<event>
 4    1  0.3365401E-008  0.1899361E+03  0.7818608E-02  0.1158519E+00
         -2   -1    0    0    0  501 -0.00000000000E+00  0.00000000000E+00  0.15945265568E+03  0.15945265570E+03  0.25500000000E-02 0.  1.
          2   -1    0    0  501    0  0.00000000000E+00 -0.00000000000E+00 -0.77234330784E+03  0.77234330785E+03  0.25500000000E-02 0. -1.
    8880022    1    1    2    0    0  0.80405505794E+02 -0.78860701254E+02  0.85314769099E+02  0.20821699836E+03  0.15294330000E+03 0.  0.
    8880022    1    1    2    0    0 -0.80405505794E+02  0.78860701254E+02 -0.69820542126E+03  0.72357896519E+03  0.15294330000E+03 0.  0.
<mgrwt>
<rscale>  0 0.18993606E+03</rscale>
<asrwt>0</asrwt>
<pdfrwt beam="1">  1        2 0.11882205E+00 0.18993606E+03</pdfrwt>
<pdfrwt beam="2">  1       -2 0.24531178E-01 0.18993606E+03</pdfrwt>
<totfact> 0.55098681E+02</totfact>
</mgrwt>
</event>
<event>
 4    1  0.3365401E-008  0.2149514E+03  0.7818608E-02  0.1137704E+00
         -2   -1    0    0    0  501 -0.00000000000E+00  0.00000000000E+00  0.21764009262E+03  0.21764009263E+03  0.25500000000E-02 0.  1.
          2   -1    0    0  501    0  0.00000000000E+00 -0.00000000000E+00 -0.66562470685E+03  0.66562470685E+03  0.25500000000E-02 0. -1.
    8880022    1    1    2    0    0  0.16432306548E+02 -0.15014138899E+03 -0.58845480275E+03  0.62648476859E+03  0.15294330000E+03 0.  0.
    8880022    1    1    2    0    0 -0.16432306548E+02  0.15014138899E+03  0.14047018852E+03  0.25678003089E+03  0.15294330000E+03 0.  1.
<mgrwt>
<rscale>  0 0.21495141E+03</rscale>
<asrwt>0</asrwt>
<pdfrwt beam="1">  1        2 0.10240380E+00 0.21495141E+03</pdfrwt>
<pdfrwt beam="2">  1       -2 0.33483092E-01 0.21495141E+03</pdfrwt>
<totfact> 0.37641997E+02</totfact>
</mgrwt>
</event>
<event>
 4    1  0.3365401E-008  0.7313476E+03  0.7818608E-02  0.9665076E-01
          2   -1    0    0  501    0  0.00000000000E+00  0.00000000000E+00  0.46736794054E+03  0.46736794055E+03  0.25500000000E-02 0. -1.
         -2   -1    0    0    0  501 -0.00000000000E+00 -0.00000000000E+00 -0.17754360057E+04  0.17754360057E+04  0.25500000000E-02 0.  1.
    8880022    1    1    2    0    0 -0.69160500094E+03 -0.18209941601E+03  0.14503765170E+02  0.73149141270E+03  0.15294330000E+03 0.  0.
    8880022    1    1    2    0    0  0.69160500094E+03  0.18209941601E+03 -0.13225718303E+04  0.15113125335E+04  0.15294330000E+03 0.  0.
<mgrwt>
<rscale>  0 0.73134761E+03</rscale>
<asrwt>0</asrwt>
<pdfrwt beam="1">  1        2 0.71902761E-01 0.73134761E+03</pdfrwt>
<pdfrwt beam="2">  1       -2 0.27314400E+00 0.73134761E+03</pdfrwt>
<totfact> 0.32025686E+00</totfact>
</mgrwt>
</event>
<event>
 4    1  0.3365401E-008  0.1975792E+03  0.7818608E-02  0.1151798E+00
         -2   -1    0    0    0  501 -0.00000000000E+00  0.00000000000E+00  0.38909234978E+02  0.38909235062E+02  0.25500000000E-02 0.  1.
          2   -1    0    0  501    0  0.00000000000E+00 -0.00000000000E+00 -0.28433623872E+04  0.28433623872E+04  0.25500000000E-02 0. -1.
    8880022    1    1    2    0    0  0.11039918602E+03 -0.58804109294E+02 -0.25615518840E+04  0.25691604876E+04  0.15294330000E+03 0. -1.
    8880022    1    1    2    0    0 -0.11039918602E+03  0.58804109294E+02 -0.24290126825E+03  0.31311113470E+03  0.15294330000E+03 0.  0.
<mgrwt>
<rscale>  0 0.19757924E+03</rscale>
<asrwt>0</asrwt>
<pdfrwt beam="1">  1        2 0.43744020E+00 0.19757924E+03</pdfrwt>
<pdfrwt beam="2">  1       -2 0.59860384E-02 0.19757924E+03</pdfrwt>
<totfact> 0.39067083E+02</totfact>
</mgrwt>
</event>
<event>
 4    1  0.3365401E-008  0.1958233E+03  0.7818608E-02  0.1153311E+00
         -2   -1    0    0    0  501 -0.00000000000E+00  0.00000000000E+00  0.18761122377E+03  0.18761122379E+03  0.25500000000E-02 0.  1.
          2   -1    0    0  501    0  0.00000000000E+00 -0.00000000000E+00 -0.77269755182E+03  0.77269755183E+03  0.25500000000E-02 0. -1.
    8880022    1    1    2    0    0  0.94527411410E+02  0.77586635673E+02 -0.70432386529E+03  0.73103958701E+03  0.15294330000E+03 0.  0.
    8880022    1    1    2    0    0 -0.94527411410E+02 -0.77586635673E+02  0.11923753724E+03  0.22926918861E+03  0.15294330000E+03 0.  1.
<mgrwt>
<rscale>  0 0.19582331E+03</rscale>
<asrwt>0</asrwt>
<pdfrwt beam="1">  1        2 0.11887654E+00 0.19582331E+03</pdfrwt>
<pdfrwt beam="2">  1       -2 0.28863266E-01 0.19582331E+03</pdfrwt>
<totfact> 0.41229612E+02</totfact>
</mgrwt>
</event>
<event>
 4    1  0.3365401E-008  0.1615345E+04  0.7818608E-02  0.8811176E-01
         -2   -1    0    0    0  501 -0.00000000000E+00  0.00000000000E+00  0.12744677441E+04  0.12744677441E+04  0.25500000000E-02 0.  1.
          2   -1    0    0  501    0  0.00000000000E+00 -0.00000000000E+00 -0.23384628327E+04  0.23384628327E+04  0.25500000000E-02 0. -1.
    8880022    1    1    2    0    0  0.15809284212E+04 -0.29430022694E+03 -0.11693232779E+04  0.19941554296E+04  0.15294330000E+03 0.  0.
    8880022    1    1    2    0    0 -0.15809284212E+04  0.29430022694E+03  0.10532818923E+03  0.16187751471E+04  0.15294330000E+03 0.  0.
<mgrwt>
<rscale>  0 0.16153448E+04</rscale>
<asrwt>0</asrwt>
<pdfrwt beam="1">  1        2 0.35976351E+00 0.16153448E+04</pdfrwt>
<pdfrwt beam="2">  1       -2 0.19607196E+00 0.16153448E+04</pdfrwt>
<totfact> 0.56512824E-01</totfact>
</mgrwt>
</event>
<event>
 4    1  0.3365401E-008  0.1002458E+04  0.7818608E-02  0.9305853E-01
         -2   -1    0    0    0  501 -0.00000000000E+00  0.00000000000E+00  0.11356273031E+04  0.11356273031E+04  0.25500000000E-02 0.  1.
          2   -1    0    0  501    0  0.00000000000E+00 -0.00000000000E+00 -0.30384065930E+04  0.30384065930E+04  0.25500000000E-02 0. -1.
    8880022    1    1    2    0    0 -0.93854247056E+03 -0.31728400929E+03  0.80562582978E+03  0.12860621067E+04  0.15294330000E+03 0.  0.
    8880022    1    1    2    0    0  0.93854247056E+03  0.31728400929E+03 -0.27084051196E+04  0.28879717895E+04  0.15294330000E+03 0.  0.
<mgrwt>
<rscale>  0 0.10024584E+04</rscale>
<asrwt>0</asrwt>
<pdfrwt beam="1">  1        2 0.46744716E+00 0.10024584E+04</pdfrwt>
<pdfrwt beam="2">  1       -2 0.17471189E+00 0.10024584E+04</pdfrwt>
<totfact> 0.33065849E-01</totfact>
</mgrwt>
</event>
<event>
 4    1  0.3365401E-008  0.5084000E+03  0.7818608E-02  0.1011609E+00
          2   -1    0    0  501    0  0.00000000000E+00  0.00000000000E+00  0.33263818185E+04  0.33263818185E+04  0.25500000000E-02 0. -1.
         -2   -1    0    0    0  501 -0.00000000000E+00 -0.00000000000E+00 -0.20246036009E+03  0.20246036010E+03  0.25500000000E-02 0.  1.
    8880022    1    1    2    0    0  0.40447796692E+03  0.26735076336E+03  0.29470092216E+04  0.29905407306E+04  0.15294330000E+03 0. -1.
    8880022    1    1    2    0    0 -0.40447796692E+03 -0.26735076336E+03  0.17691223688E+03  0.53830144804E+03  0.15294330000E+03 0.  0.
<mgrwt>
<rscale>  0 0.50839995E+03</rscale>
<asrwt>0</asrwt>
<pdfrwt beam="1">  1        2 0.51175098E+00 0.50839995E+03</pdfrwt>
<pdfrwt beam="2">  1       -2 0.31147752E-01 0.50839995E+03</pdfrwt>
<totfact> 0.11583686E+01</totfact>
</mgrwt>
</event>
<event>
 4    1  0.3365401E-008  0.6632525E+03  0.7818608E-02  0.9782225E-01
          2   -1    0    0  501    0  0.00000000000E+00  0.00000000000E+00  0.89825734724E+03  0.89825734724E+03  0.25500000000E-02 0. -1.
         -2   -1    0    0    0  501 -0.00000000000E+00 -0.00000000000E+00 -0.10008817298E+04  0.10008817298E+04  0.25500000000E-02 0.  1.
    8880022    1    1    2    0    0 -0.55657226656E+03  0.32671025663E+03  0.62728200297E+03  0.91290012814E+03  0.15294330000E+03 0. -1.
    8880022    1    1    2    0    0  0.55657226656E+03 -0.32671025663E+03 -0.72990638553E+03  0.98623894891E+03  0.15294330000E+03 0.  0.
<mgrwt>
<rscale>  0 0.66325254E+03</rscale>
<asrwt>0</asrwt>
<pdfrwt beam="1">  1        2 0.13819344E+00 0.66325254E+03</pdfrwt>
<pdfrwt beam="2">  1       -2 0.15398180E+00 0.66325254E+03</pdfrwt>
<totfact> 0.84527975E+00</totfact>
</mgrwt>
</event>
<event>
 4    1  0.3365401E-008  0.3396168E+03  0.7818608E-02  0.1066959E+00
          2   -1    0    0  501    0  0.00000000000E+00  0.00000000000E+00  0.43903774175E+03  0.43903774176E+03  0.25500000000E-02 0. -1.
         -2   -1    0    0    0  501 -0.00000000000E+00 -0.00000000000E+00 -0.11163715201E+04  0.11163715201E+04  0.25500000000E-02 0.  1.
    8880022    1    1    2    0    0  0.22365579849E+03  0.20475832387E+03  0.34140245903E+03  0.48155495994E+03  0.15294330000E+03 0.  0.
    8880022    1    1    2    0    0 -0.22365579849E+03 -0.20475832387E+03 -0.10187362373E+04  0.10738543019E+04  0.15294330000E+03 0.  0.
<mgrwt>
<rscale>  0 0.33961676E+03</rscale>
<asrwt>0</asrwt>
<pdfrwt beam="1">  1        2 0.67544268E-01 0.33961676E+03</pdfrwt>
<pdfrwt beam="2">  1       -2 0.17174946E+00 0.33961676E+03</pdfrwt>
<totfact> 0.15887420E+01</totfact>
</mgrwt>
</event>
<event>
 4    1  0.3365401E-008  0.2913505E+03  0.7818608E-02  0.1089646E+00
         -2   -1    0    0    0  501 -0.00000000000E+00  0.00000000000E+00  0.13098301233E+03  0.13098301235E+03  0.25500000000E-02 0.  1.
          2   -1    0    0  501    0  0.00000000000E+00 -0.00000000000E+00 -0.25329321001E+04  0.25329321001E+04  0.25500000000E-02 0. -1.
    8880022    1    1    2    0    0  0.21851367615E+03  0.11724008659E+03 -0.51976417398E+02  0.29595044441E+03  0.15294330000E+03 0.  0.
    8880022    1    1    2    0    0 -0.21851367615E+03 -0.11724008659E+03 -0.23499726703E+04  0.23679646680E+04  0.15294330000E+03 0.  0.
<mgrwt>
<rscale>  0 0.29135051E+03</rscale>
<asrwt>0</asrwt>
<pdfrwt beam="1">  1        2 0.38968182E+00 0.29135051E+03</pdfrwt>
<pdfrwt beam="2">  1       -2 0.20151235E-01 0.29135051E+03</pdfrwt>
<totfact> 0.79836615E+01</totfact>
</mgrwt>
</event>
<event>
 4    1  0.3365401E-008  0.3767169E+03  0.7818608E-02  0.1052154E+00
          2   -1    0    0  501    0  0.00000000000E+00  0.00000000000E+00  0.57549067125E+03  0.57549067125E+03  0.25500000000E-02 0. -1.
         -2   -1    0    0    0  501 -0.00000000000E+00 -0.00000000000E+00 -0.62451297336E+03  0.62451297337E+03  0.25500000000E-02 0.  1.
    8880022    1    1    2    0    0 -0.31356292320E+03  0.14213467104E+03  0.44223216998E+03  0.58093452014E+03  0.15294330000E+03 0.  0.
    8880022    1    1    2    0    0  0.31356292320E+03 -0.14213467104E+03 -0.49125447209E+03  0.61906912448E+03  0.15294330000E+03 0.  0.
<mgrwt>
<rscale>  0 0.37671690E+03</rscale>
<asrwt>0</asrwt>
<pdfrwt beam="1">  1        2 0.88537027E-01 0.37671690E+03</pdfrwt>
<pdfrwt beam="2">  1       -2 0.96078919E-01 0.37671690E+03</pdfrwt>
<totfact> 0.49676551E+01</totfact>
</mgrwt>
</event>
<event>
 4    1  0.3365401E-008  0.5253510E+03  0.7818608E-02  0.1007366E+00
          2   -1    0    0  501    0  0.00000000000E+00  0.00000000000E+00  0.30264946952E+04  0.30264946952E+04  0.25500000000E-02 0. -1.
         -2   -1    0    0    0  501 -0.00000000000E+00 -0.00000000000E+00 -0.13610930950E+03  0.13610930952E+03  0.25500000000E-02 0.  1.
    8880022    1    1    2    0    0 -0.28175852695E+03  0.41619005446E+03  0.23535887753E+04  0.24115086161E+04  0.15294330000E+03 0.  0.
    8880022    1    1    2    0    0  0.28175852695E+03 -0.41619005446E+03  0.53679661034E+03  0.75109538863E+03  0.15294330000E+03 0.  0.
<mgrwt>
<rscale>  0 0.52535101E+03</rscale>
<asrwt>0</asrwt>
<pdfrwt beam="1">  1        2 0.46561459E+00 0.52535101E+03</pdfrwt>
<pdfrwt beam="2">  1       -2 0.20939893E-01 0.52535101E+03</pdfrwt>
<totfact> 0.36347961E+01</totfact>
</mgrwt>
</event>
<event>
 4    1  0.3365401E-008  0.2573195E+03  0.7818608E-02  0.1108764E+00
         -2   -1    0    0    0  501 -0.00000000000E+00  0.00000000000E+00  0.76036013143E+02  0.76036013185E+02  0.25500000000E-02 0.  1.
          2   -1    0    0  501    0  0.00000000000E+00 -0.00000000000E+00 -0.12339367304E+04  0.12339367304E+04  0.25500000000E-02 0. -1.
    8880022    1    1    2    0    0 -0.18467843560E+03 -0.93357137961E+02 -0.93426384000E+03  0.96905224603E+03  0.15294330000E+03 0. -1.
    8880022    1    1    2    0    0  0.18467843560E+03  0.93357137961E+02 -0.22363687730E+03  0.34092049761E+03  0.15294330000E+03 0.  0.
<mgrwt>
<rscale>  0 0.25731951E+03</rscale>
<asrwt>0</asrwt>
<pdfrwt beam="1">  1        2 0.18983641E+00 0.25731951E+03</pdfrwt>
<pdfrwt beam="2">  1       -2 0.11697849E-01 0.25731951E+03</pdfrwt>
<totfact> 0.98755202E+02</totfact>
</mgrwt>
</event>
<event>
 4    1  0.3365401E-008  0.8829369E+03  0.7818608E-02  0.9447166E-01
          2   -1    0    0  501    0  0.00000000000E+00  0.00000000000E+00  0.61288660442E+04  0.61288660442E+04  0.25500000000E-02 0. -1.
         -2   -1    0    0    0  501 -0.00000000000E+00 -0.00000000000E+00 -0.15967198847E+03  0.15967198849E+03  0.25500000000E-02 0.  1.
    8880022    1    1    2    0    0 -0.48452909998E+03 -0.72209242931E+03  0.44025938107E+04  0.44902572131E+04  0.15294330000E+03 0.  0.
    8880022    1    1    2    0    0  0.48452909998E+03  0.72209242931E+03  0.15666002450E+04  0.17982808195E+04  0.15294330000E+03 0.  0.
<mgrwt>
<rscale>  0 0.88293690E+03</rscale>
<asrwt>0</asrwt>
<pdfrwt beam="1">  1        2 0.94290244E+00 0.88293690E+03</pdfrwt>
<pdfrwt beam="2">  1       -2 0.24564922E-01 0.88293690E+03</pdfrwt>
<totfact> 0.18949114E-03</totfact>
</mgrwt>
</event>
<event>
 4    1  0.3365401E-008  0.4752511E+03  0.7818608E-02  0.1020449E+00
          2   -1    0    0  501    0  0.00000000000E+00  0.00000000000E+00  0.20105683353E+04  0.20105683353E+04  0.25500000000E-02 0. -1.
         -2   -1    0    0    0  501 -0.00000000000E+00 -0.00000000000E+00 -0.32288425852E+03  0.32288425853E+03  0.25500000000E-02 0.  1.
    8880022    1    1    2    0    0  0.45427629038E+02  0.44766979569E+03 -0.98305979097E+02  0.48531189352E+03  0.15294330000E+03 0.  0.
    8880022    1    1    2    0    0 -0.45427629038E+02 -0.44766979569E+03  0.17859900558E+04  0.18481407003E+04  0.15294330000E+03 0.  0.
<mgrwt>
<rscale>  0 0.47525106E+03</rscale>
<asrwt>0</asrwt>
<pdfrwt beam="1">  1        2 0.30931820E+00 0.47525106E+03</pdfrwt>
<pdfrwt beam="2">  1       -2 0.49674502E-01 0.47525106E+03</pdfrwt>
<totfact> 0.27351424E+01</totfact>
</mgrwt>
</event>
<event>
 4    1  0.3365401E-008  0.6264358E+03  0.7818608E-02  0.9852029E-01
         -2   -1    0    0    0  501 -0.00000000000E+00  0.00000000000E+00  0.51838153195E+03  0.51838153195E+03  0.25500000000E-02 0.  1.
          2   -1    0    0  501    0  0.00000000000E+00 -0.00000000000E+00 -0.21252957642E+04  0.21252957642E+04  0.25500000000E-02 0. -1.
    8880022    1    1    2    0    0 -0.23795310476E+03 -0.55893514354E+03 -0.18640692788E+04  0.19665136928E+04  0.15294330000E+03 0.  0.
    8880022    1    1    2    0    0  0.23795310476E+03  0.55893514354E+03  0.25715504654E+03  0.67716360337E+03  0.15294330000E+03 0.  0.
<mgrwt>
<rscale>  0 0.62643581E+03</rscale>
<asrwt>0</asrwt>
<pdfrwt beam="1">  1        2 0.32696857E+00 0.62643581E+03</pdfrwt>
<pdfrwt beam="2">  1       -2 0.79751006E-01 0.62643581E+03</pdfrwt>
<totfact> 0.84035057E+00</totfact>
</mgrwt>
</event>
<event>
 4    1  0.3365401E-008  0.3556023E+03  0.7818608E-02  0.1060339E+00
          2   -1    0    0  501    0  0.00000000000E+00  0.00000000000E+00  0.66584439691E+03  0.66584439691E+03  0.25500000000E-02 0. -1.
         -2   -1    0    0    0  501 -0.00000000000E+00 -0.00000000000E+00 -0.33600299508E+03  0.33600299509E+03  0.25500000000E-02 0.  1.
    8880022    1    1    2    0    0 -0.26356627127E+03 -0.18328702686E+03 -0.16537978543E+03  0.39217781682E+03  0.15294330000E+03 0.  0.
    8880022    1    1    2    0    0  0.26356627127E+03  0.18328702686E+03  0.49522118726E+03  0.60966957517E+03  0.15294330000E+03 0. -1.
<mgrwt>
<rscale>  0 0.35560226E+03</rscale>
<asrwt>0</asrwt>
<pdfrwt beam="1">  1        2 0.10243760E+00 0.35560226E+03</pdfrwt>
<pdfrwt beam="2">  1       -2 0.51692768E-01 0.35560226E+03</pdfrwt>
<totfact> 0.16026493E+02</totfact>
</mgrwt>
</event>
<event>
 4    1  0.3365401E-008  0.4353696E+03  0.7818608E-02  0.1032177E+00
         -2   -1    0    0    0  501 -0.00000000000E+00  0.00000000000E+00  0.13382195884E+03  0.13382195887E+03  0.25500000000E-02 0.  1.
          2   -1    0    0  501    0  0.00000000000E+00 -0.00000000000E+00 -0.21832003271E+04  0.21832003271E+04  0.25500000000E-02 0. -1.
    8880022    1    1    2    0    0  0.40761100455E+03  0.28867193866E+01 -0.17112702563E+04  0.17657838506E+04  0.15294330000E+03 0.  0.
    8880022    1    1    2    0    0 -0.40761100455E+03 -0.28867193866E+01 -0.33810811202E+03  0.55123843535E+03  0.15294330000E+03 0.  1.
<mgrwt>
<rscale>  0 0.43536963E+03</rscale>
<asrwt>0</asrwt>
<pdfrwt beam="1">  1        2 0.33587695E+00 0.43536963E+03</pdfrwt>
<pdfrwt beam="2">  1       -2 0.20587995E-01 0.43536963E+03</pdfrwt>
<totfact> 0.11517261E+02</totfact>
</mgrwt>
</event>
<event>
 4    1  0.3365401E-008  0.3973550E+03  0.7818608E-02  0.1044699E+00
         -2   -1    0    0    0  501 -0.00000000000E+00  0.00000000000E+00  0.44272836820E+03  0.44272836821E+03  0.25500000000E-02 0.  1.
          2   -1    0    0  501    0  0.00000000000E+00 -0.00000000000E+00 -0.77347847163E+03  0.77347847163E+03  0.25500000000E-02 0. -1.
    8880022    1    1    2    0    0  0.34884994027E+03 -0.11315059119E+03  0.28104277497E+03  0.48669911803E+03  0.15294330000E+03 0.  0.
    8880022    1    1    2    0    0 -0.34884994027E+03  0.11315059119E+03 -0.61179287840E+03  0.72950772181E+03  0.15294330000E+03 0.  0.
<mgrwt>
<rscale>  0 0.39735499E+03</rscale>
<asrwt>0</asrwt>
<pdfrwt beam="1">  1        2 0.11899669E+00 0.39735499E+03</pdfrwt>
<pdfrwt beam="2">  1       -2 0.68112057E-01 0.39735499E+03</pdfrwt>
<totfact> 0.74441408E+01</totfact>
</mgrwt>
</event>
<event>
 4    1  0.3365401E-008  0.6886199E+03  0.7818608E-02  0.9736894E-01
          2   -1    0    0  501    0  0.00000000000E+00  0.00000000000E+00  0.28592087967E+04  0.28592087967E+04  0.25500000000E-02 0. -1.
         -2   -1    0    0    0  501 -0.00000000000E+00 -0.00000000000E+00 -0.42071739087E+03  0.42071739088E+03  0.25500000000E-02 0.  1.
    8880022    1    1    2    0    0  0.66956915946E+03 -0.49828369153E+02 -0.57183389733E+02  0.69099010032E+03  0.15294330000E+03 0.  0.
    8880022    1    1    2    0    0 -0.66956915946E+03  0.49828369153E+02  0.24956747955E+04  0.25889360872E+04  0.15294330000E+03 0. -1.
<mgrwt>
<rscale>  0 0.68861991E+03</rscale>
<asrwt>0</asrwt>
<pdfrwt beam="1">  1        2 0.43987826E+00 0.68861991E+03</pdfrwt>
<pdfrwt beam="2">  1       -2 0.64725755E-01 0.68861991E+03</pdfrwt>
<totfact> 0.50372079E+00</totfact>
</mgrwt>
</event>
<event>
 4    1  0.3365401E-008  0.6787643E+03  0.7818608E-02  0.9754253E-01
         -2   -1    0    0    0  501 -0.00000000000E+00  0.00000000000E+00  0.85778904049E+03  0.85778904050E+03  0.25500000000E-02 0.  1.
          2   -1    0    0  501    0  0.00000000000E+00 -0.00000000000E+00 -0.86772471951E+03  0.86772471951E+03  0.25500000000E-02 0. -1.
    8880022    1    1    2    0    0 -0.50389713191E+03  0.42827210510E+03 -0.53752130104E+03  0.86582337555E+03  0.15294330000E+03 0.  0.
    8880022    1    1    2    0    0  0.50389713191E+03 -0.42827210510E+03  0.52758562203E+03  0.85969038446E+03  0.15294330000E+03 0.  0.
<mgrwt>
<rscale>  0 0.67876430E+03</rscale>
<asrwt>0</asrwt>
<pdfrwt beam="1">  1        2 0.13349611E+00 0.67876430E+03</pdfrwt>
<pdfrwt beam="2">  1       -2 0.13196755E+00 0.67876430E+03</pdfrwt>
<totfact> 0.13209019E+01</totfact>
</mgrwt>
</event>
<event>
 4    1  0.3465236E-008  0.5503607E+03  0.7818608E-02  0.1001410E+00
          2   -1    0    0  501    0  0.00000000000E+00  0.00000000000E+00  0.17327201557E+04  0.17327201557E+04  0.25500000000E-02 0. -1.
         -2   -1    0    0    0  501 -0.00000000000E+00 -0.00000000000E+00 -0.16961416067E+04  0.16961416067E+04  0.25500000000E-02 0.  1.
    8880022    1    1    2    0    0 -0.38545341311E+03  0.36184377509E+03  0.16419708528E+04  0.17317520567E+04  0.15294330000E+03 0.  0.
    8880022    1    1    2    0    0  0.38545341311E+03 -0.36184377509E+03 -0.16053923038E+04  0.16971097057E+04  0.15294330000E+03 0.  0.
<mgrwt>
<rscale>  0 0.55036070E+03</rscale>
<asrwt>0</asrwt>
<pdfrwt beam="1">  1        2 0.26657233E+00 0.55036070E+03</pdfrwt>
<pdfrwt beam="2">  1       -2 0.26094486E+00 0.55036070E+03</pdfrwt>
<totfact> 0.57243746E-01</totfact>
</mgrwt>
</event>
<event>
 4    1  0.3365401E-008  0.3559484E+03  0.7818608E-02  0.1060200E+00
          2   -1    0    0  501    0  0.00000000000E+00  0.00000000000E+00  0.55873127089E+03  0.55873127090E+03  0.25500000000E-02 0. -1.
         -2   -1    0    0    0  501 -0.00000000000E+00 -0.00000000000E+00 -0.51642609437E+03  0.51642609437E+03  0.25500000000E-02 0.  1.
    8880022    1    1    2    0    0  0.23489411305E+03 -0.21939095852E+03 -0.38145774790E+03  0.52173681437E+03  0.15294330000E+03 0.  0.
    8880022    1    1    2    0    0 -0.23489411305E+03  0.21939095852E+03  0.42376292442E+03  0.55342055090E+03  0.15294330000E+03 0.  0.
<mgrwt>
<rscale>  0 0.35594844E+03</rscale>
<asrwt>0</asrwt>
<pdfrwt beam="1">  1        2 0.85958657E-01 0.35594844E+03</pdfrwt>
<pdfrwt beam="2">  1       -2 0.79450168E-01 0.35594844E+03</pdfrwt>
<totfact> 0.79330385E+01</totfact>
</mgrwt>
</event>
<event>
 4    1  0.3365401E-008  0.2825802E+03  0.7818608E-02  0.1094288E+00
         -2   -1    0    0    0  501 -0.00000000000E+00  0.00000000000E+00  0.77378356047E+03  0.77378356047E+03  0.25500000000E-02 0.  1.
          2   -1    0    0  501    0  0.00000000000E+00 -0.00000000000E+00 -0.20089277060E+03  0.20089277062E+03  0.25500000000E-02 0. -1.
    8880022    1    1    2    0    0  0.11347754536E+03 -0.20876483109E+03  0.62629582244E+03  0.68709389331E+03  0.15294330000E+03 0.  0.
    8880022    1    1    2    0    0 -0.11347754536E+03  0.20876483109E+03 -0.53405032569E+02  0.28758243778E+03  0.15294330000E+03 0.  0.
<mgrwt>
<rscale>  0 0.28258019E+03</rscale>
<asrwt>0</asrwt>
<pdfrwt beam="1">  1        2 0.30906580E-01 0.28258019E+03</pdfrwt>
<pdfrwt beam="2">  1       -2 0.11904362E+00 0.28258019E+03</pdfrwt>
<totfact> 0.96649833E+01</totfact>
</mgrwt>
</event>
<event>
 4    1  0.3365401E-008  0.2709081E+03  0.7818608E-02  0.1100761E+00
          2   -1    0    0  501    0  0.00000000000E+00  0.00000000000E+00  0.10596636208E+04  0.10596636208E+04  0.25500000000E-02 0. -1.
         -2   -1    0    0    0  501 -0.00000000000E+00 -0.00000000000E+00 -0.11723273616E+04  0.11723273616E+04  0.25500000000E-02 0.  1.
    8880022    1    1    2    0    0 -0.20659548154E+03 -0.85544507028E+02 -0.11388600484E+04  0.11706380390E+04  0.15294330000E+03 0.  0.
    8880022    1    1    2    0    0  0.20659548154E+03  0.85544507028E+02  0.10261963076E+04  0.10613529434E+04  0.15294330000E+03 0. -1.
<mgrwt>
<rscale>  0 0.27090812E+03</rscale>
<asrwt>0</asrwt>
<pdfrwt beam="1">  1        2 0.16302517E+00 0.27090812E+03</pdfrwt>
<pdfrwt beam="2">  1       -2 0.18035806E+00 0.27090812E+03</pdfrwt>
<totfact> 0.47548687E+00</totfact>
</mgrwt>
</event>
<event>
 4    1  0.3365401E-008  0.7480864E+03  0.7818608E-02  0.9638357E-01
          2   -1    0    0  501    0  0.00000000000E+00  0.00000000000E+00  0.18861804660E+04  0.18861804660E+04  0.25500000000E-02 0. -1.
         -2   -1    0    0    0  501 -0.00000000000E+00 -0.00000000000E+00 -0.56958386816E+03  0.56958386817E+03  0.25500000000E-02 0.  1.
    8880022    1    1    2    0    0  0.42169059694E+03  0.59868080816E+03 -0.19159669930E+03  0.77223223049E+03  0.15294330000E+03 0.  0.
    8880022    1    1    2    0    0 -0.42169059694E+03 -0.59868080816E+03  0.15081932972E+04  0.16835321037E+04  0.15294330000E+03 0.  0.
<mgrwt>
<rscale>  0 0.74808644E+03</rscale>
<asrwt>0</asrwt>
<pdfrwt beam="1">  1        2 0.29018161E+00 0.74808644E+03</pdfrwt>
<pdfrwt beam="2">  1       -2 0.87628288E-01 0.74808644E+03</pdfrwt>
<totfact> 0.89735074E+00</totfact>
</mgrwt>
</event>
<event>
 4    1  0.3365401E-008  0.4650444E+03  0.7818608E-02  0.1023328E+00
         -2   -1    0    0    0  501 -0.00000000000E+00  0.00000000000E+00  0.42751427413E+03  0.42751427414E+03  0.25500000000E-02 0.  1.
          2   -1    0    0  501    0  0.00000000000E+00 -0.00000000000E+00 -0.87897576008E+03  0.87897576009E+03  0.25500000000E-02 0. -1.
    8880022    1    1    2    0    0 -0.31962912658E+03  0.30118410428E+03  0.19987169716E+03  0.50617683824E+03  0.15294330000E+03 0.  0.
    8880022    1    1    2    0    0  0.31962912658E+03 -0.30118410428E+03 -0.65133318311E+03  0.80031319598E+03  0.15294330000E+03 0.  0.
<mgrwt>
<rscale>  0 0.46504440E+03</rscale>
<asrwt>0</asrwt>
<pdfrwt beam="1">  1        2 0.13522704E+00 0.46504440E+03</pdfrwt>
<pdfrwt beam="2">  1       -2 0.65771427E-01 0.46504440E+03</pdfrwt>
<totfact> 0.67219307E+01</totfact>
</mgrwt>
</event>
<event>
 4    1  0.3365401E-008  0.7155158E+03  0.7818608E-02  0.9691060E-01
          2   -1    0    0  501    0  0.00000000000E+00  0.00000000000E+00  0.24953504377E+04  0.24953504377E+04  0.25500000000E-02 0. -1.
         -2   -1    0    0    0  501 -0.00000000000E+00 -0.00000000000E+00 -0.25879946451E+03  0.25879946452E+03  0.25500000000E-02 0.  1.
    8880022    1    1    2    0    0  0.21895881088E+03 -0.66379835647E+03  0.17451648348E+04  0.18861503579E+04  0.15294330000E+03 0.  0.
    8880022    1    1    2    0    0 -0.21895881088E+03  0.66379835647E+03  0.49138613833E+03  0.86799954428E+03  0.15294330000E+03 0.  0.
<mgrwt>
<rscale>  0 0.71551581E+03</rscale>
<asrwt>0</asrwt>
<pdfrwt beam="1">  1        2 0.38390007E+00 0.71551581E+03</pdfrwt>
<pdfrwt beam="2">  1       -2 0.39815302E-01 0.71551581E+03</pdfrwt>
<totfact> 0.21964966E+01</totfact>
</mgrwt>
</event>
<event>
 4    1  0.3365401E-008  0.3545404E+03  0.7818608E-02  0.1060767E+00
          2   -1    0    0  501    0  0.00000000000E+00  0.00000000000E+00  0.96197602811E+03  0.96197602812E+03  0.25500000000E-02 0. -1.
         -2   -1    0    0    0  501 -0.00000000000E+00 -0.00000000000E+00 -0.14026752877E+03  0.14026752879E+03  0.25500000000E-02 0.  1.
    8880022    1    1    2    0    0 -0.26470432150E+03  0.17955185586E+03  0.55503513465E+03  0.65860678745E+03  0.15294330000E+03 0.  0.
    8880022    1    1    2    0    0  0.26470432150E+03 -0.17955185586E+03  0.26667336470E+03  0.44363676946E+03  0.15294330000E+03 0.  0.
<mgrwt>
<rscale>  0 0.35454041E+03</rscale>
<asrwt>0</asrwt>
<pdfrwt beam="1">  1        2 0.14799631E+00 0.35454041E+03</pdfrwt>
<pdfrwt beam="2">  1       -2 0.21579620E-01 0.35454041E+03</pdfrwt>
<totfact> 0.51025155E+02</totfact>
</mgrwt>
</event>
<event>
 4    1  0.3365401E-008  0.5301765E+03  0.7818608E-02  0.1006189E+00
         -2   -1    0    0    0  501 -0.00000000000E+00  0.00000000000E+00  0.43441318995E+03  0.43441318996E+03  0.25500000000E-02 0.  1.
          2   -1    0    0  501    0  0.00000000000E+00 -0.00000000000E+00 -0.12482550345E+04  0.12482550345E+04  0.25500000000E-02 0. -1.
    8880022    1    1    2    0    0  0.50656789668E+03 -0.32931009518E+02  0.17696508749E+03  0.55893092645E+03  0.15294330000E+03 0.  0.
    8880022    1    1    2    0    0 -0.50656789668E+03  0.32931009518E+02 -0.99080693209E+03  0.11237372981E+04  0.15294330000E+03 0.  0.
<mgrwt>
<rscale>  0 0.53017652E+03</rscale>
<asrwt>0</asrwt>
<pdfrwt beam="1">  1        2 0.19203923E+00 0.53017652E+03</pdfrwt>
<pdfrwt beam="2">  1       -2 0.66832799E-01 0.53017652E+03</pdfrwt>
<totfact> 0.38142415E+01</totfact>
</mgrwt>
</event>
<event>
 4    1  0.3365401E-008  0.4634123E+03  0.7818608E-02  0.1023796E+00
          2   -1    0    0  501    0  0.00000000000E+00  0.00000000000E+00  0.25264305636E+04  0.25264305636E+04  0.25500000000E-02 0. -1.
         -2   -1    0    0    0  501 -0.00000000000E+00 -0.00000000000E+00 -0.31483111388E+03  0.31483111389E+03  0.25500000000E-02 0.  1.
    8880022    1    1    2    0    0 -0.16689990749E+03 -0.40435591450E+03 -0.10799488066E+03  0.47582962494E+03  0.15294330000E+03 0.  0.
    8880022    1    1    2    0    0  0.16689990749E+03  0.40435591450E+03  0.23195943304E+04  0.23654320526E+04  0.15294330000E+03 0.  0.
<mgrwt>
<rscale>  0 0.46341228E+03</rscale>
<asrwt>0</asrwt>
<pdfrwt beam="1">  1        2 0.38868163E+00 0.46341228E+03</pdfrwt>
<pdfrwt beam="2">  1       -2 0.48435556E-01 0.46341228E+03</pdfrwt>
<totfact> 0.15075812E+01</totfact>
</mgrwt>
</event>
<event>
 4    1  0.3365401E-008  0.3383584E+03  0.7818608E-02  0.1067497E+00
         -2   -1    0    0    0  501 -0.00000000000E+00  0.00000000000E+00  0.28137600635E+03  0.28137600636E+03  0.25500000000E-02 0.  1.
          2   -1    0    0  501    0  0.00000000000E+00 -0.00000000000E+00 -0.21648084956E+04  0.21648084956E+04  0.25500000000E-02 0. -1.
    8880022    1    1    2    0    0  0.11569624833E+03 -0.27876359036E+03  0.16045737575E+03  0.37447694673E+03  0.15294330000E+03 0.  0.
    8880022    1    1    2    0    0 -0.11569624833E+03  0.27876359036E+03 -0.20438898650E+04  0.20717075552E+04  0.15294330000E+03 0.  0.
<mgrwt>
<rscale>  0 0.33835841E+03</rscale>
<asrwt>0</asrwt>
<pdfrwt beam="1">  1        2 0.33304745E+00 0.33835841E+03</pdfrwt>
<pdfrwt beam="2">  1       -2 0.43288618E-01 0.33835841E+03</pdfrwt>
<totfact> 0.30776216E+01</totfact>
</mgrwt>
</event>
<event>
 4    1  0.3365401E-008  0.6401380E+03  0.7818608E-02  0.9825463E-01
         -2   -1    0    0    0  501 -0.00000000000E+00  0.00000000000E+00  0.20067639363E+03  0.20067639365E+03  0.25500000000E-02 0.  1.
          2   -1    0    0  501    0  0.00000000000E+00 -0.00000000000E+00 -0.34936456271E+04  0.34936456271E+04  0.25500000000E-02 0. -1.
    8880022    1    1    2    0    0 -0.59093654715E+03  0.19281860206E+03 -0.45579379235E+03  0.78582736667E+03  0.15294330000E+03 0.  0.
    8880022    1    1    2    0    0  0.59093654715E+03 -0.19281860206E+03 -0.28371754411E+04  0.29084946541E+04  0.15294330000E+03 0.  0.
<mgrwt>
<rscale>  0 0.64013801E+03</rscale>
<asrwt>0</asrwt>
<pdfrwt beam="1">  1        2 0.53748390E+00 0.64013801E+03</pdfrwt>
<pdfrwt beam="2">  1       -2 0.30873294E-01 0.64013801E+03</pdfrwt>
<totfact> 0.88248354E+00</totfact>
</mgrwt>
</event>
<event>
 4    1  0.3365401E-008  0.8394910E+03  0.7818608E-02  0.9504551E-01
          2   -1    0    0  501    0  0.00000000000E+00  0.00000000000E+00  0.12004707559E+04  0.12004707559E+04  0.25500000000E-02 0. -1.
         -2   -1    0    0    0  501 -0.00000000000E+00 -0.00000000000E+00 -0.78604836019E+03  0.78604836019E+03  0.25500000000E-02 0.  1.
    8880022    1    1    2    0    0  0.80940816884E+03 -0.16190074812E+03  0.70696364751E+03  0.10975166003E+04  0.15294330000E+03 0.  0.
    8880022    1    1    2    0    0 -0.80940816884E+03  0.16190074812E+03 -0.29254125181E+03  0.88900251577E+03  0.15294330000E+03 0.  0.
<mgrwt>
<rscale>  0 0.83949097E+03</rscale>
<asrwt>0</asrwt>
<pdfrwt beam="1">  1        2 0.18468781E+00 0.83949097E+03</pdfrwt>
<pdfrwt beam="2">  1       -2 0.12093052E+00 0.83949097E+03</pdfrwt>
<totfact> 0.99488330E+00</totfact>
</mgrwt>
</event>
<event>
 4    1  0.6199994E-008  0.7178726E+03  0.7818608E-02  0.9687147E-01
         -2   -1    0    0    0  501 -0.00000000000E+00  0.00000000000E+00  0.12985209719E+04  0.12985209719E+04  0.25500000000E-02 0.  1.
          2   -1    0    0  501    0  0.00000000000E+00 -0.00000000000E+00 -0.13375259134E+04  0.13375259134E+04  0.25500000000E-02 0. -1.
    8880022    1    1    2    0    0  0.30066106685E+03  0.63368162536E+03 -0.11248222469E+04  0.13343785893E+04  0.15294330000E+03 0.  0.
    8880022    1    1    2    0    0 -0.30066106685E+03 -0.63368162536E+03  0.10858173054E+04  0.13016682961E+04  0.15294330000E+03 0.  0.
<mgrwt>
<rscale>  0 0.71787264E+03</rscale>
<asrwt>0</asrwt>
<pdfrwt beam="1">  1        2 0.20577322E+00 0.71787264E+03</pdfrwt>
<pdfrwt beam="2">  1       -2 0.19977246E+00 0.71787264E+03</pdfrwt>
<totfact> 0.21715820E+00</totfact>
</mgrwt>
</event>
<event>
 4    1  0.3365401E-008  0.1920673E+03  0.7818608E-02  0.1156610E+00
          2   -1    0    0  501    0  0.00000000000E+00  0.00000000000E+00  0.22543068224E+04  0.22543068224E+04  0.25500000000E-02 0. -1.
         -2   -1    0    0    0  501 -0.00000000000E+00 -0.00000000000E+00 -0.83298981934E+02  0.83298981973E+02  0.25500000000E-02 0.  1.
    8880022    1    1    2    0    0 -0.71776225977E+02  0.91358557350E+02  0.21332292663E+04  0.21418582979E+04  0.15294330000E+03 0.  0.
    8880022    1    1    2    0    0  0.71776225977E+02 -0.91358557350E+02  0.37778574173E+02  0.19574750649E+03  0.15294330000E+03 0.  1.
<mgrwt>
<rscale>  0 0.19206735E+03</rscale>
<asrwt>0</asrwt>
<pdfrwt beam="1">  1        2 0.34681645E+00 0.19206735E+03</pdfrwt>
<pdfrwt beam="2">  1       -2 0.12815227E-01 0.19206735E+03</pdfrwt>
<totfact> 0.24843794E+02</totfact>
</mgrwt>
</event>
<event>
 4    1  0.3365401E-008  0.1090688E+04  0.7818608E-02  0.9214315E-01
         -2   -1    0    0    0  501 -0.00000000000E+00  0.00000000000E+00  0.72531858657E+03  0.72531858657E+03  0.25500000000E-02 0.  1.
          2   -1    0    0  501    0  0.00000000000E+00 -0.00000000000E+00 -0.20010428664E+04  0.20010428664E+04  0.25500000000E-02 0. -1.
    8880022    1    1    2    0    0  0.10299521415E+04 -0.32466643668E+03 -0.12168096720E+04  0.16340829660E+04  0.15294330000E+03 0.  0.
    8880022    1    1    2    0    0 -0.10299521415E+04  0.32466643668E+03 -0.58914607793E+02  0.10922784869E+04  0.15294330000E+03 0.  0.
<mgrwt>
<rscale>  0 0.10906885E+04</rscale>
<asrwt>0</asrwt>
<pdfrwt beam="1">  1        2 0.30785275E+00 0.10906885E+04</pdfrwt>
<pdfrwt beam="2">  1       -2 0.11158748E+00 0.10906885E+04</pdfrwt>
<totfact> 0.41872125E+00</totfact>
</mgrwt>
</event>
<event>
 4    1  0.3365401E-008  0.6071820E+03  0.7818608E-02  0.9890617E-01
         -2   -1    0    0    0  501 -0.00000000000E+00  0.00000000000E+00  0.13481714248E+03  0.13481714250E+03  0.25500000000E-02 0.  1.
          2   -1    0    0  501    0  0.00000000000E+00 -0.00000000000E+00 -0.31672138197E+04  0.31672138197E+04  0.25500000000E-02 0. -1.
    8880022    1    1    2    0    0 -0.53155042412E+03  0.25046453578E+03 -0.90600670149E+03  0.10906503258E+04  0.15294330000E+03 0.  0.
    8880022    1    1    2    0    0  0.53155042412E+03 -0.25046453578E+03 -0.21263899758E+04  0.22113806364E+04  0.15294330000E+03 0.  0.
<mgrwt>
<rscale>  0 0.60718201E+03</rscale>
<asrwt>0</asrwt>
<pdfrwt beam="1">  1        2 0.48726361E+00 0.60718201E+03</pdfrwt>
<pdfrwt beam="2">  1       -2 0.20741101E-01 0.60718201E+03</pdfrwt>
<totfact> 0.29731158E+01</totfact>
</mgrwt>
</event>
<event>
 4    1  0.3365401E-008  0.4496587E+03  0.7818608E-02  0.1027824E+00
          2   -1    0    0  501    0  0.00000000000E+00  0.00000000000E+00  0.74611605116E+03  0.74611605116E+03  0.25500000000E-02 0. -1.
         -2   -1    0    0    0  501 -0.00000000000E+00 -0.00000000000E+00 -0.10774668712E+04  0.10774668712E+04  0.25500000000E-02 0.  1.
    8880022    1    1    2    0    0  0.21981014807E+03  0.36122683196E+03 -0.95451452540E+03  0.10551260387E+04  0.15294330000E+03 0.  1.
    8880022    1    1    2    0    0 -0.21981014807E+03 -0.36122683196E+03  0.62316370537E+03  0.76845688365E+03  0.15294330000E+03 0.  0.
<mgrwt>
<rscale>  0 0.44965874E+03</rscale>
<asrwt>0</asrwt>
<pdfrwt beam="1">  1        2 0.11478708E+00 0.44965874E+03</pdfrwt>
<pdfrwt beam="2">  1       -2 0.16576413E+00 0.44965874E+03</pdfrwt>
<totfact> 0.91749181E+00</totfact>
</mgrwt>
</event>
<event>
 4    1  0.3365401E-008  0.7955412E+03  0.7818608E-02  0.9566494E-01
         -2   -1    0    0    0  501 -0.00000000000E+00  0.00000000000E+00  0.96677631022E+03  0.96677631022E+03  0.25500000000E-02 0.  1.
          2   -1    0    0  501    0  0.00000000000E+00 -0.00000000000E+00 -0.15176856632E+04  0.15176856632E+04  0.25500000000E-02 0. -1.
    8880022    1    1    2    0    0 -0.54544769945E+03 -0.55855249304E+03  0.66130795009E+03  0.10345114490E+04  0.15294330000E+03 0.  0.
    8880022    1    1    2    0    0  0.54544769945E+03  0.55855249304E+03 -0.12122173030E+04  0.14499505244E+04  0.15294330000E+03 0.  0.
<mgrwt>
<rscale>  0 0.79554116E+03</rscale>
<asrwt>0</asrwt>
<pdfrwt beam="1">  1        2 0.23349010E+00 0.79554116E+03</pdfrwt>
<pdfrwt beam="2">  1       -2 0.14873482E+00 0.79554116E+03</pdfrwt>
<totfact> 0.38764243E+00</totfact>
</mgrwt>
</event>
<event>
 4    1  0.3365401E-008  0.7720298E+03  0.7818608E-02  0.9601409E-01
         -2   -1    0    0    0  501 -0.00000000000E+00  0.00000000000E+00  0.10164547325E+04  0.10164547325E+04  0.25500000000E-02 0.  1.
          2   -1    0    0  501    0  0.00000000000E+00 -0.00000000000E+00 -0.13975256812E+04  0.13975256812E+04  0.25500000000E-02 0. -1.
    8880022    1    1    2    0    0 -0.78900846553E+02 -0.75260416734E+03 -0.11100803628E+04  0.13521495632E+04  0.15294330000E+03 0.  0.
    8880022    1    1    2    0    0  0.78900846553E+02  0.75260416734E+03  0.72900941415E+03  0.10618308506E+04  0.15294330000E+03 0.  0.
<mgrwt>
<rscale>  0 0.77202981E+03</rscale>
<asrwt>0</asrwt>
<pdfrwt beam="1">  1        2 0.21500395E+00 0.77202981E+03</pdfrwt>
<pdfrwt beam="2">  1       -2 0.15637765E+00 0.77202981E+03</pdfrwt>
<totfact> 0.39761722E+00</totfact>
</mgrwt>
</event>
<event>
 4    1  0.3365401E-008  0.6021350E+03  0.7818608E-02  0.9900987E-01
         -2   -1    0    0    0  501 -0.00000000000E+00  0.00000000000E+00  0.10690437901E+04  0.10690437901E+04  0.25500000000E-02 0.  1.
          2   -1    0    0  501    0  0.00000000000E+00 -0.00000000000E+00 -0.62521189961E+03  0.62521189962E+03  0.25500000000E-02 0. -1.
    8880022    1    1    2    0    0 -0.58224696192E+03 -0.12781515278E+02 -0.35109788573E+03  0.69701956226E+03  0.15294330000E+03 0.  0.
    8880022    1    1    2    0    0  0.58224696192E+03  0.12781515278E+02  0.79492977624E+03  0.99723612749E+03  0.15294330000E+03 0.  0.
<mgrwt>
<rscale>  0 0.60213499E+03</rscale>
<asrwt>0</asrwt>
<pdfrwt beam="1">  1        2 0.96186446E-01 0.60213499E+03</pdfrwt>
<pdfrwt beam="2">  1       -2 0.16446828E+00 0.60213499E+03</pdfrwt>
<totfact> 0.11388627E+01</totfact>
</mgrwt>
</event>
<event>
 4    1  0.3365401E-008  0.5348499E+03  0.7818608E-02  0.1005063E+00
         -2   -1    0    0    0  501 -0.00000000000E+00  0.00000000000E+00  0.29986513595E+03  0.29986513596E+03  0.25500000000E-02 0.  1.
          2   -1    0    0  501    0  0.00000000000E+00 -0.00000000000E+00 -0.14535074402E+04  0.14535074402E+04  0.25500000000E-02 0. -1.
    8880022    1    1    2    0    0  0.47470029208E+03 -0.19321584037E+03 -0.62876143401E+02  0.53853299871E+03  0.15294330000E+03 0.  0.
    8880022    1    1    2    0    0 -0.47470029208E+03  0.19321584037E+03 -0.10907661609E+04  0.12148395775E+04  0.15294330000E+03 0. -1.
<mgrwt>
<rscale>  0 0.53484987E+03</rscale>
<asrwt>0</asrwt>
<pdfrwt beam="1">  1        2 0.22361653E+00 0.53484987E+03</pdfrwt>
<pdfrwt beam="2">  1       -2 0.46133099E-01 0.53484987E+03</pdfrwt>
<totfact> 0.62865995E+01</totfact>
</mgrwt>
</event>
<event>
 4    1  0.3365401E-008  0.1755127E+04  0.7818608E-02  0.8730533E-01
          2   -1    0    0  501    0  0.00000000000E+00  0.00000000000E+00  0.18170584755E+04  0.18170584755E+04  0.25500000000E-02 0. -1.
         -2   -1    0    0    0  501 -0.00000000000E+00 -0.00000000000E+00 -0.20076333179E+04  0.20076333179E+04  0.25500000000E-02 0.  1.
    8880022    1    1    2    0    0 -0.17111389362E+04  0.35928266999E+03 -0.84956025585E+03  0.19499294288E+04  0.15294330000E+03 0.  0.
    8880022    1    1    2    0    0  0.17111389362E+04 -0.35928266999E+03  0.65898541341E+03  0.18747623647E+04  0.15294330000E+03 0.  0.
<mgrwt>
<rscale>  0 0.17551274E+04</rscale>
<asrwt>0</asrwt>
<pdfrwt beam="1">  1        2 0.27954746E+00 0.17551274E+04</pdfrwt>
<pdfrwt beam="2">  1       -2 0.30886667E+00 0.17551274E+04</pdfrwt>
<totfact> 0.21624721E-01</totfact>
</mgrwt>
</event>
<event>
 4    1  0.3948965E-008  0.9430264E+03  0.7818608E-02  0.9373339E-01
          2   -1    0    0  501    0  0.00000000000E+00  0.00000000000E+00  0.26809270496E+04  0.26809270496E+04  0.25500000000E-02 0. -1.
         -2   -1    0    0    0  501 -0.00000000000E+00 -0.00000000000E+00 -0.11207676245E+04  0.11207676245E+04  0.25500000000E-02 0.  1.
    8880022    1    1    2    0    0  0.82999927858E+03  0.42072366190E+03 -0.81485508565E+03  0.12463096187E+04  0.15294330000E+03 0.  0.
    8880022    1    1    2    0    0 -0.82999927858E+03 -0.42072366190E+03  0.23750145108E+04  0.25553850554E+04  0.15294330000E+03 0.  0.
<mgrwt>
<rscale>  0 0.94302643E+03</rscale>
<asrwt>0</asrwt>
<pdfrwt beam="1">  1        2 0.41245031E+00 0.94302643E+03</pdfrwt>
<pdfrwt beam="2">  1       -2 0.17242579E+00 0.94302643E+03</pdfrwt>
<totfact> 0.56930602E-01</totfact>
</mgrwt>
</event>
<event>
 4    1  0.3365401E-008  0.4714236E+03  0.7818608E-02  0.1021519E+00
          2   -1    0    0  501    0  0.00000000000E+00  0.00000000000E+00  0.30511579032E+03  0.30511579033E+03  0.25500000000E-02 0. -1.
         -2   -1    0    0    0  501 -0.00000000000E+00 -0.00000000000E+00 -0.12461386185E+04  0.12461386185E+04  0.25500000000E-02 0.  1.
    8880022    1    1    2    0    0 -0.35004826809E+03  0.27625126904E+03  0.29446639821E+02  0.47234236656E+03  0.15294330000E+03 0. -1.
    8880022    1    1    2    0    0  0.35004826809E+03 -0.27625126904E+03 -0.97046946800E+03  0.10789120423E+04  0.15294330000E+03 0.  0.
<mgrwt>
<rscale>  0 0.47142360E+03</rscale>
<asrwt>0</asrwt>
<pdfrwt beam="1">  1        2 0.46940891E-01 0.47142360E+03</pdfrwt>
<pdfrwt beam="2">  1       -2 0.19171363E+00 0.47142360E+03</pdfrwt>
<totfact> 0.17036276E+01</totfact>
</mgrwt>
</event>
<event>
 4    1  0.3365401E-008  0.4886022E+03  0.7818608E-02  0.1016797E+00
          2   -1    0    0  501    0  0.00000000000E+00  0.00000000000E+00  0.90863003455E+03  0.90863003455E+03  0.25500000000E-02 0. -1.
         -2   -1    0    0    0  501 -0.00000000000E+00 -0.00000000000E+00 -0.28932644704E+03  0.28932644705E+03  0.25500000000E-02 0.  1.
    8880022    1    1    2    0    0  0.40466595282E+03  0.22712543111E+03  0.49122797690E+03  0.69284707774E+03  0.15294330000E+03 0.  0.
    8880022    1    1    2    0    0 -0.40466595282E+03 -0.22712543111E+03  0.12807561060E+03  0.50510940387E+03  0.15294330000E+03 0.  0.
<mgrwt>
<rscale>  0 0.48860224E+03</rscale>
<asrwt>0</asrwt>
<pdfrwt beam="1">  1        2 0.13978924E+00 0.48860224E+03</pdfrwt>
<pdfrwt beam="2">  1       -2 0.44511761E-01 0.48860224E+03</pdfrwt>
<totfact> 0.14292361E+02</totfact>
</mgrwt>
</event>
<event>
 4    1  0.5203960E-008  0.7329540E+03  0.7818608E-02  0.9662479E-01
         -2   -1    0    0    0  501 -0.00000000000E+00  0.00000000000E+00  0.18074607744E+04  0.18074607744E+04  0.25500000000E-02 0.  1.
          2   -1    0    0  501    0  0.00000000000E+00 -0.00000000000E+00 -0.10030408009E+04  0.10030408009E+04  0.25500000000E-02 0. -1.
    8880022    1    1    2    0    0 -0.41722737462E+03  0.58288187212E+03 -0.77659070511E+03  0.10678552033E+04  0.15294330000E+03 0.  0.
    8880022    1    1    2    0    0  0.41722737462E+03 -0.58288187212E+03  0.15810106786E+04  0.17426463720E+04  0.15294330000E+03 0.  0.
<mgrwt>
<rscale>  0 0.73295403E+03</rscale>
<asrwt>0</asrwt>
<pdfrwt beam="1">  1        2 0.15431397E+00 0.73295403E+03</pdfrwt>
<pdfrwt beam="2">  1       -2 0.27807089E+00 0.73295403E+03</pdfrwt>
<totfact> 0.11328756E+00</totfact>
</mgrwt>
</event>
<event>
 4    1  0.3365401E-008  0.1226123E+04  0.7818608E-02  0.9090294E-01
          2   -1    0    0  501    0  0.00000000000E+00  0.00000000000E+00  0.22714268030E+04  0.22714268030E+04  0.25500000000E-02 0. -1.
         -2   -1    0    0    0  501 -0.00000000000E+00 -0.00000000000E+00 -0.13500555591E+04  0.13500555591E+04  0.25500000000E-02 0.  1.
    8880022    1    1    2    0    0  0.19078280784E+02  0.12163968607E+04  0.17534966390E+04  0.21396559115E+04  0.15294330000E+03 0.  0.
    8880022    1    1    2    0    0 -0.19078280784E+02 -0.12163968607E+04 -0.83212539511E+03  0.14818264506E+04  0.15294330000E+03 0.  0.
<mgrwt>
<rscale>  0 0.12261227E+04</rscale>
<asrwt>0</asrwt>
<pdfrwt beam="1">  1        2 0.34945028E+00 0.12261227E+04</pdfrwt>
<pdfrwt beam="2">  1       -2 0.20770086E+00 0.12261227E+04</pdfrwt>
<totfact> 0.54086019E-01</totfact>
</mgrwt>
</event>
<event>
 4    1  0.3365401E-008  0.4349124E+03  0.7818608E-02  0.1032319E+00
         -2   -1    0    0    0  501 -0.00000000000E+00  0.00000000000E+00  0.21065805339E+03  0.21065805341E+03  0.25500000000E-02 0.  1.
          2   -1    0    0  501    0  0.00000000000E+00 -0.00000000000E+00 -0.28071641188E+04  0.28071641188E+04  0.25500000000E-02 0. -1.
    8880022    1    1    2    0    0 -0.38515380982E+03 -0.13196095030E+03 -0.53843506922E+02  0.43823273027E+03  0.15294330000E+03 0.  0.
    8880022    1    1    2    0    0  0.38515380982E+03  0.13196095030E+03 -0.25426625585E+04  0.25795894419E+04  0.15294330000E+03 0.  0.
<mgrwt>
<rscale>  0 0.43491241E+03</rscale>
<asrwt>0</asrwt>
<pdfrwt beam="1">  1        2 0.43187137E+00 0.43491241E+03</pdfrwt>
<pdfrwt beam="2">  1       -2 0.32408933E-01 0.43491241E+03</pdfrwt>
<totfact> 0.22840493E+01</totfact>
</mgrwt>
</event>
<event>
 4    1  0.3365401E-008  0.5704682E+03  0.7818608E-02  0.9968643E-01
          2   -1    0    0  501    0  0.00000000000E+00  0.00000000000E+00  0.13748099695E+04  0.13748099695E+04  0.25500000000E-02 0. -1.
         -2   -1    0    0    0  501 -0.00000000000E+00 -0.00000000000E+00 -0.46914190445E+03  0.46914190445E+03  0.25500000000E-02 0.  1.
    8880022    1    1    2    0    0  0.28877293530E+03 -0.46760290854E+03 -0.19611938935E+03  0.60323855657E+03  0.15294330000E+03 0.  0.
    8880022    1    1    2    0    0 -0.28877293530E+03  0.46760290854E+03  0.11017874544E+04  0.12407133174E+04  0.15294330000E+03 0.  0.
<mgrwt>
<rscale>  0 0.57046818E+03</rscale>
<asrwt>0</asrwt>
<pdfrwt beam="1">  1        2 0.21150922E+00 0.57046818E+03</pdfrwt>
<pdfrwt beam="2">  1       -2 0.72175679E-01 0.57046818E+03</pdfrwt>
<totfact> 0.27185319E+01</totfact>
</mgrwt>
</event>
<event>
 4    1  0.3365401E-008  0.7699036E+03  0.7818608E-02  0.9604632E-01
         -2   -1    0    0    0  501 -0.00000000000E+00  0.00000000000E+00  0.14526739796E+04  0.14526739796E+04  0.25500000000E-02 0.  1.
          2   -1    0    0  501    0  0.00000000000E+00 -0.00000000000E+00 -0.75220810474E+03  0.75220810475E+03  0.25500000000E-02 0. -1.
    8880022    1    1    2    0    0 -0.64747603804E+02 -0.75177631393E+03 -0.39547818169E+03  0.86553713011E+03  0.15294330000E+03 0.  0.
    8880022    1    1    2    0    0  0.64747603804E+02  0.75177631393E+03  0.10959440566E+04  0.13393449543E+04  0.15294330000E+03 0. -1.
<mgrwt>
<rscale>  0 0.76990359E+03</rscale>
<asrwt>0</asrwt>
<pdfrwt beam="1">  1        2 0.11572432E+00 0.76990359E+03</pdfrwt>
<pdfrwt beam="2">  1       -2 0.22348831E+00 0.76990359E+03</pdfrwt>
<totfact> 0.35892692E+00</totfact>
</mgrwt>
</event>
<event>
 4    1  0.3365401E-008  0.1376854E+04  0.7818608E-02  0.8970745E-01
          2   -1    0    0  501    0  0.00000000000E+00  0.00000000000E+00  0.23063599080E+04  0.23063599080E+04  0.25500000000E-02 0. -1.
         -2   -1    0    0    0  501 -0.00000000000E+00 -0.00000000000E+00 -0.10028818833E+04  0.10028818833E+04  0.25500000000E-02 0.  1.
    8880022    1    1    2    0    0  0.29454860475E+01  0.13683297108E+04 -0.51048244510E+02  0.13777998583E+04  0.15294330000E+03 0.  0.
    8880022    1    1    2    0    0 -0.29454860475E+01 -0.13683297108E+04  0.13545262692E+04  0.19314419330E+04  0.15294330000E+03 0.  0.
<mgrwt>
<rscale>  0 0.13768539E+04</rscale>
<asrwt>0</asrwt>
<pdfrwt beam="1">  1        2 0.35482460E+00 0.13768539E+04</pdfrwt>
<pdfrwt beam="2">  1       -2 0.15428952E+00 0.13768539E+04</pdfrwt>
<totfact> 0.11943525E+00</totfact>
</mgrwt>
</event>
<event>
 4    1  0.3365401E-008  0.3556771E+03  0.7818608E-02  0.1060309E+00
         -2   -1    0    0    0  501 -0.00000000000E+00  0.00000000000E+00  0.28193452422E+04  0.28193452422E+04  0.25500000000E-02 0.  1.
          2   -1    0    0  501    0  0.00000000000E+00 -0.00000000000E+00 -0.24973369432E+03  0.24973369433E+03  0.25500000000E-02 0. -1.
    8880022    1    1    2    0    0 -0.25808785726E+03  0.19106329875E+03 -0.10505462471E+03  0.37086743370E+03  0.15294330000E+03 0.  0.
    8880022    1    1    2    0    0  0.25808785726E+03 -0.19106329875E+03  0.26746661726E+04  0.26982115029E+04  0.15294330000E+03 0.  0.
<mgrwt>
<rscale>  0 0.35567707E+03</rscale>
<asrwt>0</asrwt>
<pdfrwt beam="1">  1        2 0.38420568E-01 0.35567707E+03</pdfrwt>
<pdfrwt beam="2">  1       -2 0.43374542E+00 0.35567707E+03</pdfrwt>
<totfact> 0.70593075E-01</totfact>
</mgrwt>
</event>
<event>
 4    1  0.3365401E-008  0.4347271E+03  0.7818608E-02  0.1032377E+00
         -2   -1    0    0    0  501 -0.00000000000E+00  0.00000000000E+00  0.32194646381E+03  0.32194646382E+03  0.25500000000E-02 0.  1.
          2   -1    0    0  501    0  0.00000000000E+00 -0.00000000000E+00 -0.25231406349E+04  0.25231406349E+04  0.25500000000E-02 0. -1.
    8880022    1    1    2    0    0  0.72473038048E+02 -0.40042931299E+03  0.14552768984E+03  0.45843858636E+03  0.15294330000E+03 0.  0.
    8880022    1    1    2    0    0 -0.72473038048E+02  0.40042931299E+03 -0.23467218609E+04  0.23866485123E+04  0.15294330000E+03 0.  0.
<mgrwt>
<rscale>  0 0.43472707E+03</rscale>
<asrwt>0</asrwt>
<pdfrwt beam="1">  1        2 0.38817547E+00 0.43472707E+03</pdfrwt>
<pdfrwt beam="2">  1       -2 0.49530227E-01 0.43472707E+03</pdfrwt>
<totfact> 0.14589165E+01</totfact>
</mgrwt>
</event>
<event>
 4    1  0.3365401E-008  0.1534444E+03  0.7818608E-02  0.1196303E+00
         -2   -1    0    0    0  501 -0.00000000000E+00  0.00000000000E+00  0.50706856280E+02  0.50706856344E+02  0.25500000000E-02 0.  1.
          2   -1    0    0  501    0  0.00000000000E+00 -0.00000000000E+00 -0.71363568357E+03  0.71363568357E+03  0.25500000000E-02 0. -1.
    8880022    1    1    2    0    0  0.11361069305E+02  0.49453226035E+01 -0.55734442354E+03  0.57808130014E+03  0.15294330000E+03 0.  0.
    8880022    1    1    2    0    0 -0.11361069305E+02 -0.49453226035E+01 -0.10558440375E+03  0.18626123977E+03  0.15294330000E+03 0.  1.
<mgrwt>
<rscale>  0 0.15344440E+03</rscale>
<asrwt>0</asrwt>
<pdfrwt beam="1">  1        2 0.10979010E+00 0.15344440E+03</pdfrwt>
<pdfrwt beam="2">  1       -2 0.78010553E-02 0.15344440E+03</pdfrwt>
<totfact> 0.39427088E+03</totfact>
</mgrwt>
</event>
<event>
 4    1  0.3365401E-008  0.4088995E+03  0.7818608E-02  0.1040741E+00
         -2   -1    0    0    0  501 -0.00000000000E+00  0.00000000000E+00  0.72383347638E+03  0.72383347638E+03  0.25500000000E-02 0.  1.
          2   -1    0    0  501    0  0.00000000000E+00 -0.00000000000E+00 -0.19534804395E+04  0.19534804395E+04  0.25500000000E-02 0. -1.
    8880022    1    1    2    0    0  0.37362207602E+02  0.37737408043E+03 -0.18718460963E+04  0.19159871065E+04  0.15294330000E+03 0.  0.
    8880022    1    1    2    0    0 -0.37362207602E+02 -0.37737408043E+03  0.64219913312E+03  0.76132680941E+03  0.15294330000E+03 0.  1.
<mgrwt>
<rscale>  0 0.40889948E+03</rscale>
<asrwt>0</asrwt>
<pdfrwt beam="1">  1        2 0.30053545E+00 0.40889948E+03</pdfrwt>
<pdfrwt beam="2">  1       -2 0.11135900E+00 0.40889948E+03</pdfrwt>
<totfact> 0.50522273E+00</totfact>
</mgrwt>
</event>
<event>
 4    1  0.3365401E-008  0.1573301E+04  0.7818608E-02  0.8837120E-01
          2   -1    0    0  501    0  0.00000000000E+00  0.00000000000E+00  0.28904292558E+04  0.28904292558E+04  0.25500000000E-02 0. -1.
         -2   -1    0    0    0  501 -0.00000000000E+00 -0.00000000000E+00 -0.94586793296E+03  0.94586793296E+03  0.25500000000E-02 0.  1.
    8880022    1    1    2    0    0 -0.13320927213E+04 -0.82305193992E+03  0.38225177151E+03  0.16190718278E+04  0.15294330000E+03 0.  0.
    8880022    1    1    2    0    0  0.13320927213E+04  0.82305193992E+03  0.15623095513E+04  0.22172253609E+04  0.15294330000E+03 0.  0.
<mgrwt>
<rscale>  0 0.15733014E+04</rscale>
<asrwt>0</asrwt>
<pdfrwt beam="1">  1        2 0.44468142E+00 0.15733014E+04</pdfrwt>
<pdfrwt beam="2">  1       -2 0.14551814E+00 0.15733014E+04</pdfrwt>
<totfact> 0.62152551E-01</totfact>
</mgrwt>
</event>
<event>
 4    1  0.3365401E-008  0.1058658E+04  0.7818608E-02  0.9246450E-01
         -2   -1    0    0    0  501 -0.00000000000E+00  0.00000000000E+00  0.10239386818E+04  0.10239386818E+04  0.25500000000E-02 0.  1.
          2   -1    0    0  501    0  0.00000000000E+00 -0.00000000000E+00 -0.22635414377E+04  0.22635414377E+04  0.25500000000E-02 0. -1.
    8880022    1    1    2    0    0  0.10475320609E+04  0.64782301606E+01  0.56145367981E+03  0.11983268643E+04  0.15294330000E+03 0.  0.
    8880022    1    1    2    0    0 -0.10475320609E+04 -0.64782301606E+01 -0.18010564357E+04  0.20891532552E+04  0.15294330000E+03 0.  0.
<mgrwt>
<rscale>  0 0.10586581E+04</rscale>
<asrwt>0</asrwt>
<pdfrwt beam="1">  1        2 0.34823714E+00 0.10586581E+04</pdfrwt>
<pdfrwt beam="2">  1       -2 0.15752903E+00 0.10586581E+04</pdfrwt>
<totfact> 0.12406076E+00</totfact>
</mgrwt>
</event>
<event>
 4    1  0.3365401E-008  0.2307543E+03  0.7818608E-02  0.1126110E+00
         -2   -1    0    0    0  501 -0.00000000000E+00  0.00000000000E+00  0.25493795731E+03  0.25493795733E+03  0.25500000000E-02 0.  1.
          2   -1    0    0  501    0  0.00000000000E+00 -0.00000000000E+00 -0.62275852182E+03  0.62275852183E+03  0.25500000000E-02 0. -1.
    8880022    1    1    2    0    0 -0.17275055843E+03  0.36270775583E+01 -0.54167618154E+03  0.58877894816E+03  0.15294330000E+03 0.  0.
    8880022    1    1    2    0    0  0.17275055843E+03 -0.36270775583E+01  0.17385561703E+03  0.28891753100E+03  0.15294330000E+03 0.  0.
<mgrwt>
<rscale>  0 0.23075434E+03</rscale>
<asrwt>0</asrwt>
<pdfrwt beam="1">  1        2 0.95809003E-01 0.23075434E+03</pdfrwt>
<pdfrwt beam="2">  1       -2 0.39221224E-01 0.23075434E+03</pdfrwt>
<totfact> 0.30223158E+02</totfact>
</mgrwt>
</event>
<event>
 4    1  0.3365401E-008  0.6111186E+03  0.7818608E-02  0.9882603E-01
          2   -1    0    0  501    0  0.00000000000E+00  0.00000000000E+00  0.78299721401E+03  0.78299721401E+03  0.25500000000E-02 0. -1.
         -2   -1    0    0    0  501 -0.00000000000E+00 -0.00000000000E+00 -0.50845800272E+03  0.50845800273E+03  0.25500000000E-02 0.  1.
    8880022    1    1    2    0    0 -0.48309150468E+03  0.34160933092E+03 -0.23423059440E+02  0.61156735491E+03  0.15294330000E+03 0.  0.
    8880022    1    1    2    0    0  0.48309150468E+03 -0.34160933092E+03  0.29796227073E+03  0.67988786183E+03  0.15294330000E+03 0.  0.
<mgrwt>
<rscale>  0 0.61111864E+03</rscale>
<asrwt>0</asrwt>
<pdfrwt beam="1">  1        2 0.12046111E+00 0.61111864E+03</pdfrwt>
<pdfrwt beam="2">  1       -2 0.78224309E-01 0.61111864E+03</pdfrwt>
<totfact> 0.52844175E+01</totfact>
</mgrwt>
</event>
<event>
 4    1  0.3365401E-008  0.6149537E+03  0.7818608E-02  0.9874858E-01
         -2   -1    0    0    0  501 -0.00000000000E+00  0.00000000000E+00  0.60319392074E+03  0.60319392074E+03  0.25500000000E-02 0.  1.
          2   -1    0    0  501    0  0.00000000000E+00 -0.00000000000E+00 -0.43923713534E+04  0.43923713534E+04  0.25500000000E-02 0. -1.
    8880022    1    1    2    0    0 -0.10400098239E+03 -0.58648124839E+03 -0.42072515467E+04  0.42519564543E+04  0.15294330000E+03 0.  0.
    8880022    1    1    2    0    0  0.10400098239E+03  0.58648124839E+03  0.41807411406E+03  0.74360881982E+03  0.15294330000E+03 0.  0.
<mgrwt>
<rscale>  0 0.61495375E+03</rscale>
<asrwt>0</asrwt>
<pdfrwt beam="1">  1        2 0.67574942E+00 0.61495375E+03</pdfrwt>
<pdfrwt beam="2">  1       -2 0.92799068E-01 0.61495375E+03</pdfrwt>
<totfact> 0.18267146E-01</totfact>
</mgrwt>
</event>
<event>
 4    1  0.3365401E-008  0.5417479E+03  0.7818608E-02  0.1003422E+00
         -2   -1    0    0    0  501 -0.00000000000E+00  0.00000000000E+00  0.48174587428E+03  0.48174587429E+03  0.25500000000E-02 0.  1.
          2   -1    0    0  501    0  0.00000000000E+00 -0.00000000000E+00 -0.10188379285E+04  0.10188379285E+04  0.25500000000E-02 0. -1.
    8880022    1    1    2    0    0 -0.49744628549E+03 -0.15048697888E+03  0.20718936121E+03  0.58001570856E+03  0.15294330000E+03 0.  0.
    8880022    1    1    2    0    0  0.49744628549E+03  0.15048697888E+03 -0.74428141546E+03  0.92056809427E+03  0.15294330000E+03 0.  0.
<mgrwt>
<rscale>  0 0.54174790E+03</rscale>
<asrwt>0</asrwt>
<pdfrwt beam="1">  1        2 0.15674430E+00 0.54174790E+03</pdfrwt>
<pdfrwt beam="2">  1       -2 0.74114750E-01 0.54174790E+03</pdfrwt>
<totfact> 0.41725412E+01</totfact>
</mgrwt>
</event>
<event>
 4    1  0.3365401E-008  0.3373367E+03  0.7818608E-02  0.1067936E+00
          2   -1    0    0  501    0  0.00000000000E+00  0.00000000000E+00  0.13489727890E+04  0.13489727890E+04  0.25500000000E-02 0. -1.
         -2   -1    0    0    0  501 -0.00000000000E+00 -0.00000000000E+00 -0.17049338746E+03  0.17049338748E+03  0.25500000000E-02 0.  1.
    8880022    1    1    2    0    0 -0.29460876038E+03 -0.60084055599E+02  0.11292464126E+04  0.11785556961E+04  0.15294330000E+03 0.  0.
    8880022    1    1    2    0    0  0.29460876038E+03  0.60084055599E+02  0.49232988953E+02  0.34091048040E+03  0.15294330000E+03 0.  1.
<mgrwt>
<rscale>  0 0.33733673E+03</rscale>
<asrwt>0</asrwt>
<pdfrwt beam="1">  1        2 0.20753428E+00 0.33733673E+03</pdfrwt>
<pdfrwt beam="2">  1       -2 0.26229751E-01 0.33733673E+03</pdfrwt>
<totfact> 0.21462708E+02</totfact>
</mgrwt>
</event>
<event>
 4    1  0.3365401E-008  0.4498169E+03  0.7818608E-02  0.1027777E+00
         -2   -1    0    0    0  501 -0.00000000000E+00  0.00000000000E+00  0.26657197714E+03  0.26657197715E+03  0.25500000000E-02 0.  1.
          2   -1    0    0  501    0  0.00000000000E+00 -0.00000000000E+00 -0.35610353792E+04  0.35610353792E+04  0.25500000000E-02 0. -1.
    8880022    1    1    2    0    0 -0.66334717222E+01 -0.42296519934E+03  0.50402000095E+02  0.45263183431E+03  0.15294330000E+03 0.  0.
    8880022    1    1    2    0    0  0.66334717222E+01  0.42296519934E+03 -0.33448654022E+04  0.33749755220E+04  0.15294330000E+03 0. -1.
<mgrwt>
<rscale>  0 0.44981687E+03</rscale>
<asrwt>0</asrwt>
<pdfrwt beam="1">  1        2 0.54785156E+00 0.44981687E+03</pdfrwt>
<pdfrwt beam="2">  1       -2 0.41011076E-01 0.44981687E+03</pdfrwt>
<totfact> 0.48894568E+00</totfact>
</mgrwt>
</event>
<event>
 4    1  0.3365401E-008  0.3197431E+03  0.7818608E-02  0.1075768E+00
          2   -1    0    0  501    0  0.00000000000E+00  0.00000000000E+00  0.83637248399E+03  0.83637248400E+03  0.25500000000E-02 0. -1.
         -2   -1    0    0    0  501 -0.00000000000E+00 -0.00000000000E+00 -0.25245991993E+03  0.25245991994E+03  0.25500000000E-02 0.  1.
    8880022    1    1    2    0    0 -0.22063619866E+03  0.17367680621E+03  0.68295796429E+03  0.75410025804E+03  0.15294330000E+03 0.  0.
    8880022    1    1    2    0    0  0.22063619866E+03 -0.17367680621E+03 -0.99045400220E+02  0.33473214590E+03  0.15294330000E+03 0.  1.
<mgrwt>
<rscale>  0 0.31974305E+03</rscale>
<asrwt>0</asrwt>
<pdfrwt beam="1">  1        2 0.12867269E+00 0.31974305E+03</pdfrwt>
<pdfrwt beam="2">  1       -2 0.38839988E-01 0.31974305E+03</pdfrwt>
<totfact> 0.21193364E+02</totfact>
</mgrwt>
</event>
<event>
 4    1  0.3365401E-008  0.1065757E+04  0.7818608E-02  0.9239225E-01
         -2   -1    0    0    0  501 -0.00000000000E+00  0.00000000000E+00  0.21349518417E+04  0.21349518417E+04  0.25500000000E-02 0.  1.
          2   -1    0    0  501    0  0.00000000000E+00 -0.00000000000E+00 -0.99142554564E+03  0.99142554564E+03  0.25500000000E-02 0. -1.
    8880022    1    1    2    0    0 -0.12013421202E+03 -0.10478618977E+04 -0.49232882810E+03  0.11739787534E+04  0.15294330000E+03 0.  0.
    8880022    1    1    2    0    0  0.12013421202E+03  0.10478618977E+04  0.16358551242E+04  0.19523986339E+04  0.15294330000E+03 0.  0.
<mgrwt>
<rscale>  0 0.10657572E+04</rscale>
<asrwt>0</asrwt>
<pdfrwt beam="1">  1        2 0.15252701E+00 0.10657572E+04</pdfrwt>
<pdfrwt beam="2">  1       -2 0.32845413E+00 0.10657572E+04</pdfrwt>
<totfact> 0.54063051E-01</totfact>
</mgrwt>
</event>
<event>
 4    1  0.3365401E-008  0.5820177E+03  0.7818608E-02  0.9943432E-01
          2   -1    0    0  501    0  0.00000000000E+00  0.00000000000E+00  0.24475386467E+04  0.24475386467E+04  0.25500000000E-02 0. -1.
         -2   -1    0    0    0  501 -0.00000000000E+00 -0.00000000000E+00 -0.40043541585E+03  0.40043541586E+03  0.25500000000E-02 0.  1.
    8880022    1    1    2    0    0  0.52737041193E+03  0.19295958759E+03 -0.12835695576E+03  0.59600345211E+03  0.15294330000E+03 0.  0.
    8880022    1    1    2    0    0 -0.52737041193E+03 -0.19295958759E+03  0.21754601867E+04  0.22519706105E+04  0.15294330000E+03 0.  0.
<mgrwt>
<rscale>  0 0.58201770E+03</rscale>
<asrwt>0</asrwt>
<pdfrwt beam="1">  1        2 0.37654440E+00 0.58201770E+03</pdfrwt>
<pdfrwt beam="2">  1       -2 0.61605450E-01 0.58201770E+03</pdfrwt>
<totfact> 0.98810600E+00</totfact>
</mgrwt>
</event>
<event>
 4    1  0.3365401E-008  0.5329402E+03  0.7818608E-02  0.1005522E+00
          2   -1    0    0  501    0  0.00000000000E+00  0.00000000000E+00  0.38228695308E+04  0.38228695308E+04  0.25500000000E-02 0. -1.
         -2   -1    0    0    0  501 -0.00000000000E+00 -0.00000000000E+00 -0.34944026438E+03  0.34944026439E+03  0.25500000000E-02 0.  1.
    8880022    1    1    2    0    0 -0.37327004353E+03  0.34828594109E+03  0.35878578939E+04  0.36272233929E+04  0.15294330000E+03 0. -1.
    8880022    1    1    2    0    0  0.37327004353E+03 -0.34828594109E+03 -0.11442862748E+03  0.54508640228E+03  0.15294330000E+03 0.  0.
<mgrwt>
<rscale>  0 0.53294022E+03</rscale>
<asrwt>0</asrwt>
<pdfrwt beam="1">  1        2 0.58813377E+00 0.53294022E+03</pdfrwt>
<pdfrwt beam="2">  1       -2 0.53760041E-01 0.53294022E+03</pdfrwt>
<totfact> 0.18021813E+00</totfact>
</mgrwt>
</event>
<event>
 4    1  0.3367801E-008  0.1711196E+04  0.7818608E-02  0.8755004E-01
          2   -1    0    0  501    0  0.00000000000E+00  0.00000000000E+00  0.25883347266E+04  0.25883347266E+04  0.25500000000E-02 0. -1.
         -2   -1    0    0    0  501 -0.00000000000E+00 -0.00000000000E+00 -0.22588869268E+04  0.22588869268E+04  0.25500000000E-02 0.  1.
    8880022    1    1    2    0    0 -0.15606768181E+04 -0.68490037043E+03 -0.15476159651E+04  0.23072293939E+04  0.15294330000E+03 0.  0.
    8880022    1    1    2    0    0  0.15606768181E+04  0.68490037043E+03  0.18770637649E+04  0.25399922595E+04  0.15294330000E+03 0.  0.
<mgrwt>
<rscale>  0 0.17111962E+04</rscale>
<asrwt>0</asrwt>
<pdfrwt beam="1">  1        2 0.39820534E+00 0.17111962E+04</pdfrwt>
<pdfrwt beam="2">  1       -2 0.34752106E+00 0.17111962E+04</pdfrwt>
<totfact> 0.45554982E-02</totfact>
</mgrwt>
</event>
<event>
 4    1  0.3365401E-008  0.6252049E+03  0.7818608E-02  0.9854451E-01
         -2   -1    0    0    0  501 -0.00000000000E+00  0.00000000000E+00  0.52837091934E+03  0.52837091935E+03  0.25500000000E-02 0.  1.
          2   -1    0    0  501    0  0.00000000000E+00 -0.00000000000E+00 -0.10197929964E+04  0.10197929964E+04  0.25500000000E-02 0. -1.
    8880022    1    1    2    0    0  0.14874362841E+03  0.58767754510E+03 -0.65132757829E+03  0.90283377831E+03  0.15294330000E+03 0.  0.
    8880022    1    1    2    0    0 -0.14874362841E+03 -0.58767754510E+03  0.15990550119E+03  0.64533013747E+03  0.15294330000E+03 0.  0.
<mgrwt>
<rscale>  0 0.62520494E+03</rscale>
<asrwt>0</asrwt>
<pdfrwt beam="1">  1        2 0.15689123E+00 0.62520494E+03</pdfrwt>
<pdfrwt beam="2">  1       -2 0.81287834E-01 0.62520494E+03</pdfrwt>
<totfact> 0.33585308E+01</totfact>
</mgrwt>
</event>
<event>
 4    1  0.3365401E-008  0.1486995E+04  0.7818608E-02  0.8893147E-01
         -2   -1    0    0    0  501 -0.00000000000E+00  0.00000000000E+00  0.16283072181E+04  0.16283072181E+04  0.25500000000E-02 0.  1.
          2   -1    0    0  501    0  0.00000000000E+00 -0.00000000000E+00 -0.16589293786E+04  0.16589293786E+04  0.25500000000E-02 0. -1.
    8880022    1    1    2    0    0  0.59960185905E+02  0.14778931448E+04 -0.71540692365E+03  0.16501400216E+04  0.15294330000E+03 0.  0.
    8880022    1    1    2    0    0 -0.59960185905E+02 -0.14778931448E+04  0.68478476310E+03  0.16370965751E+04  0.15294330000E+03 0.  0.
<mgrwt>
<rscale>  0 0.14869953E+04</rscale>
<asrwt>0</asrwt>
<pdfrwt beam="1">  1        2 0.25521990E+00 0.14869953E+04</pdfrwt>
<pdfrwt beam="2">  1       -2 0.25050880E+00 0.14869953E+04</pdfrwt>
<totfact> 0.62022779E-01</totfact>
</mgrwt>
</event>
<event>
 4    1  0.7330991E-008  0.5594858E+03  0.7818608E-02  0.9993219E-01
          2   -1    0    0  501    0  0.00000000000E+00  0.00000000000E+00  0.14577861970E+04  0.14577861970E+04  0.25500000000E-02 0. -1.
         -2   -1    0    0    0  501 -0.00000000000E+00 -0.00000000000E+00 -0.11512349868E+04  0.11512349868E+04  0.25500000000E-02 0.  1.
    8880022    1    1    2    0    0 -0.13614209748E+03  0.52067071898E+03  0.13298560842E+04  0.14427548392E+04  0.15294330000E+03 0.  0.
    8880022    1    1    2    0    0  0.13614209748E+03 -0.52067071898E+03 -0.10233048740E+04  0.11662663446E+04  0.15294330000E+03 0.  0.
<mgrwt>
<rscale>  0 0.55948577E+03</rscale>
<asrwt>0</asrwt>
<pdfrwt beam="1">  1        2 0.22427480E+00 0.55948577E+03</pdfrwt>
<pdfrwt beam="2">  1       -2 0.17711308E+00 0.55948577E+03</pdfrwt>
<totfact> 0.27174331E+00</totfact>
</mgrwt>
</event>
<event>
 4    1  0.3365401E-008  0.1058500E+04  0.7818608E-02  0.9246613E-01
          2   -1    0    0  501    0  0.00000000000E+00  0.00000000000E+00  0.11054391605E+04  0.11054391605E+04  0.25500000000E-02 0. -1.
         -2   -1    0    0    0  501 -0.00000000000E+00 -0.00000000000E+00 -0.14828656600E+04  0.14828656600E+04  0.25500000000E-02 0.  1.
    8880022    1    1    2    0    0  0.47694676438E+03  0.93249742382E+03 -0.91677061386E+03  0.14003177043E+04  0.15294330000E+03 0.  0.
    8880022    1    1    2    0    0 -0.47694676438E+03 -0.93249742382E+03  0.53934411444E+03  0.11879871162E+04  0.15294330000E+03 0.  0.
<mgrwt>
<rscale>  0 0.10584996E+04</rscale>
<asrwt>0</asrwt>
<pdfrwt beam="1">  1        2 0.17006756E+00 0.10584996E+04</pdfrwt>
<pdfrwt beam="2">  1       -2 0.22813318E+00 0.10584996E+04</pdfrwt>
<totfact> 0.18748028E+00</totfact>
</mgrwt>
</event>
<event>
 4    1  0.5640776E-008  0.6431359E+03  0.7818608E-02  0.9819745E-01
         -2   -1    0    0    0  501 -0.00000000000E+00  0.00000000000E+00  0.14304497995E+04  0.14304497995E+04  0.25500000000E-02 0.  1.
          2   -1    0    0  501    0  0.00000000000E+00 -0.00000000000E+00 -0.14274672163E+04  0.14274672163E+04  0.25500000000E-02 0. -1.
    8880022    1    1    2    0    0 -0.60082508808E+03  0.17100100166E+03 -0.12745565856E+04  0.14276267971E+04  0.15294330000E+03 0.  0.
    8880022    1    1    2    0    0  0.60082508808E+03 -0.17100100166E+03  0.12775391687E+04  0.14302902187E+04  0.15294330000E+03 0.  0.
<mgrwt>
<rscale>  0 0.64313590E+03</rscale>
<asrwt>0</asrwt>
<pdfrwt beam="1">  1        2 0.21961034E+00 0.64313590E+03</pdfrwt>
<pdfrwt beam="2">  1       -2 0.22006920E+00 0.64313590E+03</pdfrwt>
<totfact> 0.14562793E+00</totfact>
</mgrwt>
</event>
<event>
 4    1  0.3365401E-008  0.5173332E+03  0.7818608E-02  0.1009351E+00
         -2   -1    0    0    0  501 -0.00000000000E+00  0.00000000000E+00  0.22239661280E+03  0.22239661282E+03  0.25500000000E-02 0.  1.
          2   -1    0    0  501    0  0.00000000000E+00 -0.00000000000E+00 -0.12855203657E+04  0.12855203657E+04  0.25500000000E-02 0. -1.
    8880022    1    1    2    0    0  0.48688398795E+03 -0.84770352907E+02 -0.34100949873E+03  0.61961371974E+03  0.15294330000E+03 0.  0.
    8880022    1    1    2    0    0 -0.48688398795E+03  0.84770352907E+02 -0.72211425412E+03  0.88830325873E+03  0.15294330000E+03 0.  0.
<mgrwt>
<rscale>  0 0.51733324E+03</rscale>
<asrwt>0</asrwt>
<pdfrwt beam="1">  1        2 0.19777236E+00 0.51733324E+03</pdfrwt>
<pdfrwt beam="2">  1       -2 0.34214864E-01 0.51733324E+03</pdfrwt>
<totfact> 0.13971458E+02</totfact>
</mgrwt>
</event>
<event>
 4    1  0.3365401E-008  0.8745294E+03  0.7818608E-02  0.9457993E-01
          2   -1    0    0  501    0  0.00000000000E+00  0.00000000000E+00  0.14716708604E+04  0.14716708604E+04  0.25500000000E-02 0. -1.
         -2   -1    0    0    0  501 -0.00000000000E+00 -0.00000000000E+00 -0.87974958525E+03  0.87974958525E+03  0.25500000000E-02 0.  1.
    8880022    1    1    2    0    0  0.62776076866E+03 -0.58934407281E+03  0.10481244547E+04  0.13650518468E+04  0.15294330000E+03 0.  0.
    8880022    1    1    2    0    0 -0.62776076866E+03  0.58934407281E+03 -0.45620317954E+03  0.98636859888E+03  0.15294330000E+03 0.  0.
<mgrwt>
<rscale>  0 0.87452940E+03</rscale>
<asrwt>0</asrwt>
<pdfrwt beam="1">  1        2 0.22641090E+00 0.87452940E+03</pdfrwt>
<pdfrwt beam="2">  1       -2 0.13534609E+00 0.87452940E+03</pdfrwt>
<totfact> 0.52025411E+00</totfact>
</mgrwt>
</event>
<event>
 4    1  0.3365401E-008  0.5293913E+03  0.7818608E-02  0.1006380E+00
          2   -1    0    0  501    0  0.00000000000E+00  0.00000000000E+00  0.31101256967E+04  0.31101256967E+04  0.25500000000E-02 0. -1.
         -2   -1    0    0    0  501 -0.00000000000E+00 -0.00000000000E+00 -0.17501947709E+03  0.17501947711E+03  0.25500000000E-02 0.  1.
    8880022    1    1    2    0    0  0.15048596046E+03 -0.48396021146E+03  0.32346878748E+03  0.62039279498E+03  0.15294330000E+03 0.  0.
    8880022    1    1    2    0    0 -0.15048596046E+03  0.48396021146E+03  0.26116374321E+04  0.26647523788E+04  0.15294330000E+03 0.  0.
<mgrwt>
<rscale>  0 0.52939131E+03</rscale>
<asrwt>0</asrwt>
<pdfrwt beam="1">  1        2 0.47848082E+00 0.52939131E+03</pdfrwt>
<pdfrwt beam="2">  1       -2 0.26926077E-01 0.52939131E+03</pdfrwt>
<totfact> 0.20621408E+01</totfact>
</mgrwt>
</event>
<event>
 4    1  0.3444249E-008  0.4925478E+03  0.7818608E-02  0.1015743E+00
          2   -1    0    0  501    0  0.00000000000E+00  0.00000000000E+00  0.20415610635E+04  0.20415610635E+04  0.25500000000E-02 0. -1.
         -2   -1    0    0    0  501 -0.00000000000E+00 -0.00000000000E+00 -0.65422290520E+03  0.65422290520E+03  0.25500000000E-02 0.  1.
    8880022    1    1    2    0    0  0.13974992300E+02  0.46799184633E+03 -0.52567874039E+03  0.72037591558E+03  0.15294330000E+03 0.  0.
    8880022    1    1    2    0    0 -0.13974992300E+02 -0.46799184633E+03  0.19130168987E+04  0.19754080531E+04  0.15294330000E+03 0. -1.
<mgrwt>
<rscale>  0 0.49254779E+03</rscale>
<asrwt>0</asrwt>
<pdfrwt beam="1">  1        2 0.31408631E+00 0.49254779E+03</pdfrwt>
<pdfrwt beam="2">  1       -2 0.10064968E+00 0.49254779E+03</pdfrwt>
<totfact> 0.56318626E+00</totfact>
</mgrwt>
</event>
<event>
 4    1  0.3365401E-008  0.4557256E+03  0.7818608E-02  0.1026028E+00
         -2   -1    0    0    0  501 -0.00000000000E+00  0.00000000000E+00  0.14972877314E+03  0.14972877316E+03  0.25500000000E-02 0.  1.
          2   -1    0    0  501    0  0.00000000000E+00 -0.00000000000E+00 -0.18725415471E+04  0.18725415471E+04  0.25500000000E-02 0. -1.
    8880022    1    1    2    0    0  0.42925387405E+03  0.59395647017E+01 -0.13762446304E+04  0.14497362183E+04  0.15294330000E+03 0.  0.
    8880022    1    1    2    0    0 -0.42925387405E+03 -0.59395647017E+01 -0.34656814359E+03  0.57253410203E+03  0.15294330000E+03 0.  0.
<mgrwt>
<rscale>  0 0.45572560E+03</rscale>
<asrwt>0</asrwt>
<pdfrwt beam="1">  1        2 0.28808330E+00 0.45572560E+03</pdfrwt>
<pdfrwt beam="2">  1       -2 0.23035197E-01 0.45572560E+03</pdfrwt>
<totfact> 0.13841492E+02</totfact>
</mgrwt>
</event>
<event>
 4    1  0.3365401E-008  0.6464964E+03  0.7818608E-02  0.9813376E-01
          2   -1    0    0  501    0  0.00000000000E+00  0.00000000000E+00  0.13045382640E+04  0.13045382640E+04  0.25500000000E-02 0. -1.
         -2   -1    0    0    0  501 -0.00000000000E+00 -0.00000000000E+00 -0.37389403797E+03  0.37389403798E+03  0.25500000000E-02 0.  1.
    8880022    1    1    2    0    0 -0.40727964387E+03 -0.47821458384E+03  0.78279279325E+03  0.10152448506E+04  0.15294330000E+03 0.  0.
    8880022    1    1    2    0    0  0.40727964387E+03  0.47821458384E+03  0.14785143282E+03  0.66318745141E+03  0.15294330000E+03 0.  0.
<mgrwt>
<rscale>  0 0.64649636E+03</rscale>
<asrwt>0</asrwt>
<pdfrwt beam="1">  1        2 0.20069820E+00 0.64649636E+03</pdfrwt>
<pdfrwt beam="2">  1       -2 0.57522159E-01 0.64649636E+03</pdfrwt>
<totfact> 0.47930096E+01</totfact>
</mgrwt>
</event>
<event>
 4    1  0.3365401E-008  0.2663983E+03  0.7818608E-02  0.1103359E+00
          2   -1    0    0  501    0  0.00000000000E+00  0.00000000000E+00  0.14557747803E+04  0.14557747803E+04  0.25500000000E-02 0. -1.
         -2   -1    0    0    0  501 -0.00000000000E+00 -0.00000000000E+00 -0.20880546710E+03  0.20880546711E+03  0.25500000000E-02 0.  1.
    8880022    1    1    2    0    0 -0.11825999361E+03  0.18327846226E+03  0.13521698539E+04  0.13781623227E+04  0.15294330000E+03 0.  0.
    8880022    1    1    2    0    0  0.11825999361E+03 -0.18327846226E+03 -0.10520054072E+03  0.28641792472E+03  0.15294330000E+03 0.  1.
<mgrwt>
<rscale>  0 0.26639834E+03</rscale>
<asrwt>0</asrwt>
<pdfrwt beam="1">  1        2 0.22396535E+00 0.26639834E+03</pdfrwt>
<pdfrwt beam="2">  1       -2 0.32123918E-01 0.26639834E+03</pdfrwt>
<totfact> 0.13155361E+02</totfact>
</mgrwt>
</event>
<event>
 4    1  0.3365401E-008  0.8879550E+03  0.7818608E-02  0.9440765E-01
          2   -1    0    0  501    0  0.00000000000E+00  0.00000000000E+00  0.37851761408E+04  0.37851761408E+04  0.25500000000E-02 0. -1.
         -2   -1    0    0    0  501 -0.00000000000E+00 -0.00000000000E+00 -0.25980181684E+03  0.25980181685E+03  0.25500000000E-02 0.  1.
    8880022    1    1    2    0    0  0.61941136410E+03  0.61757756541E+03  0.26631442793E+04  0.28072765436E+04  0.15294330000E+03 0.  0.
    8880022    1    1    2    0    0 -0.61941136410E+03 -0.61757756541E+03  0.86223004473E+03  0.12377014140E+04  0.15294330000E+03 0.  0.
<mgrwt>
<rscale>  0 0.88795503E+03</rscale>
<asrwt>0</asrwt>
<pdfrwt beam="1">  1        2 0.58233475E+00 0.88795503E+03</pdfrwt>
<pdfrwt beam="2">  1       -2 0.39969513E-01 0.88795503E+03</pdfrwt>
<totfact> 0.31858446E+00</totfact>
</mgrwt>
</event>
<event>
 4    1  0.3365401E-008  0.4163500E+03  0.7818608E-02  0.1038261E+00
         -2   -1    0    0    0  501 -0.00000000000E+00  0.00000000000E+00  0.83352331204E+03  0.83352331205E+03  0.25500000000E-02 0.  1.
          2   -1    0    0  501    0  0.00000000000E+00 -0.00000000000E+00 -0.72635634778E+03  0.72635634779E+03  0.25500000000E-02 0. -1.
    8880022    1    1    2    0    0  0.97949379664E+02  0.37464866147E+03 -0.60530703189E+03  0.73467268657E+03  0.15294330000E+03 0.  0.
    8880022    1    1    2    0    0 -0.97949379664E+02 -0.37464866147E+03  0.71247399615E+03  0.82520697326E+03  0.15294330000E+03 0.  0.
<mgrwt>
<rscale>  0 0.41635004E+03</rscale>
<asrwt>0</asrwt>
<pdfrwt beam="1">  1        2 0.11174713E+00 0.41635004E+03</pdfrwt>
<pdfrwt beam="2">  1       -2 0.12823436E+00 0.41635004E+03</pdfrwt>
<totfact> 0.18605414E+01</totfact>
</mgrwt>
</event>
<event>
 4    1  0.3365401E-008  0.6089878E+03  0.7818608E-02  0.9886933E-01
          2   -1    0    0  501    0  0.00000000000E+00  0.00000000000E+00  0.21937658268E+04  0.21937658268E+04  0.25500000000E-02 0. -1.
         -2   -1    0    0    0  501 -0.00000000000E+00 -0.00000000000E+00 -0.33435931463E+03  0.33435931464E+03  0.25500000000E-02 0.  1.
    8880022    1    1    2    0    0 -0.46987700844E+03  0.35593555727E+03  0.18185041756E+04  0.19177652655E+04  0.15294330000E+03 0. -1.
    8880022    1    1    2    0    0  0.46987700844E+03 -0.35593555727E+03  0.40902336592E+02  0.61035987593E+03  0.15294330000E+03 0.  0.
<mgrwt>
<rscale>  0 0.60898783E+03</rscale>
<asrwt>0</asrwt>
<pdfrwt beam="1">  1        2 0.33750244E+00 0.60898783E+03</pdfrwt>
<pdfrwt beam="2">  1       -2 0.51439893E-01 0.60898783E+03</pdfrwt>
<totfact> 0.19745797E+01</totfact>
</mgrwt>
</event>
<event>
 4    1  0.4394864E-008  0.1385844E+04  0.7818608E-02  0.8964129E-01
          2   -1    0    0  501    0  0.00000000000E+00  0.00000000000E+00  0.36592530712E+04  0.36592530712E+04  0.25500000000E-02 0. -1.
         -2   -1    0    0    0  501 -0.00000000000E+00 -0.00000000000E+00 -0.12173481581E+04  0.12173481581E+04  0.25500000000E-02 0.  1.
    8880022    1    1    2    0    0 -0.12705924731E+04 -0.53175895158E+03  0.30599819198E+04  0.33591745739E+04  0.15294330000E+03 0.  0.
    8880022    1    1    2    0    0  0.12705924731E+04  0.53175895158E+03 -0.61807700670E+03  0.15174266554E+04  0.15294330000E+03 0.  0.
<mgrwt>
<rscale>  0 0.13858443E+04</rscale>
<asrwt>0</asrwt>
<pdfrwt beam="1">  1        2 0.56296201E+00 0.13858443E+04</pdfrwt>
<pdfrwt beam="2">  1       -2 0.18728433E+00 0.13858443E+04</pdfrwt>
<totfact> 0.97772799E-02</totfact>
</mgrwt>
</event>
<event>
 4    1  0.3365401E-008  0.4563401E+03  0.7818608E-02  0.1025848E+00
         -2   -1    0    0    0  501 -0.00000000000E+00  0.00000000000E+00  0.79118025580E+02  0.79118025621E+02  0.25500000000E-02 0.  1.
          2   -1    0    0  501    0  0.00000000000E+00 -0.00000000000E+00 -0.27694944389E+04  0.27694944389E+04  0.25500000000E-02 0. -1.
    8880022    1    1    2    0    0 -0.35374838513E+03  0.24437005676E+03 -0.16624317911E+04  0.17239274224E+04  0.15294330000E+03 0.  0.
    8880022    1    1    2    0    0  0.35374838513E+03 -0.24437005676E+03 -0.10279446222E+04  0.11246850421E+04  0.15294330000E+03 0.  0.
<mgrwt>
<rscale>  0 0.45634011E+03</rscale>
<asrwt>0</asrwt>
<pdfrwt beam="1">  1        2 0.42607599E+00 0.45634011E+03</pdfrwt>
<pdfrwt beam="2">  1       -2 0.12172006E-01 0.45634011E+03</pdfrwt>
<totfact> 0.13119912E+02</totfact>
</mgrwt>
</event>
<event>
 4    1  0.3365401E-008  0.4312629E+03  0.7818608E-02  0.1033462E+00
         -2   -1    0    0    0  501 -0.00000000000E+00  0.00000000000E+00  0.38624747175E+03  0.38624747176E+03  0.25500000000E-02 0.  1.
          2   -1    0    0  501    0  0.00000000000E+00 -0.00000000000E+00 -0.12659498449E+04  0.12659498449E+04  0.25500000000E-02 0. -1.
    8880022    1    1    2    0    0  0.26371246590E+03 -0.30504384354E+03 -0.10901297601E+04  0.11723355143E+04  0.15294330000E+03 0.  0.
    8880022    1    1    2    0    0 -0.26371246590E+03  0.30504384354E+03  0.21042738698E+03  0.47986180235E+03  0.15294330000E+03 0.  0.
<mgrwt>
<rscale>  0 0.43126287E+03</rscale>
<asrwt>0</asrwt>
<pdfrwt beam="1">  1        2 0.19476151E+00 0.43126287E+03</pdfrwt>
<pdfrwt beam="2">  1       -2 0.59422689E-01 0.43126287E+03</pdfrwt>
<totfact> 0.48550427E+01</totfact>
</mgrwt>
</event>
<event>
 4    1  0.3365401E-008  0.8957961E+03  0.7818608E-02  0.9430852E-01
          2   -1    0    0  501    0  0.00000000000E+00  0.00000000000E+00  0.23987234625E+04  0.23987234625E+04  0.25500000000E-02 0. -1.
         -2   -1    0    0    0  501 -0.00000000000E+00 -0.00000000000E+00 -0.48962189063E+03  0.48962189064E+03  0.25500000000E-02 0.  1.
    8880022    1    1    2    0    0  0.80579558088E+03  0.36021180886E+03  0.17673436734E+04  0.19814021244E+04  0.15294330000E+03 0.  0.
    8880022    1    1    2    0    0 -0.80579558088E+03 -0.36021180886E+03  0.14175789840E+03  0.90694322875E+03  0.15294330000E+03 0.  0.
<mgrwt>
<rscale>  0 0.89579614E+03</rscale>
<asrwt>0</asrwt>
<pdfrwt beam="1">  1        2 0.36903438E+00 0.89579614E+03</pdfrwt>
<pdfrwt beam="2">  1       -2 0.75326445E-01 0.89579614E+03</pdfrwt>
<totfact> 0.64423786E+00</totfact>
</mgrwt>
</event>
<event>
 4    1  0.3365401E-008  0.9463004E+03  0.7818608E-02  0.9369485E-01
          2   -1    0    0  501    0  0.00000000000E+00  0.00000000000E+00  0.58220134376E+03  0.58220134377E+03  0.25500000000E-02 0. -1.
         -2   -1    0    0    0  501 -0.00000000000E+00 -0.00000000000E+00 -0.22096536767E+04  0.22096536767E+04  0.25500000000E-02 0.  1.
    8880022    1    1    2    0    0  0.74319272607E+03 -0.56547085884E+03 -0.15832832782E+04  0.18445244136E+04  0.15294330000E+03 0.  0.
    8880022    1    1    2    0    0 -0.74319272607E+03  0.56547085884E+03 -0.44169054720E+02  0.94733060686E+03  0.15294330000E+03 0.  0.
<mgrwt>
<rscale>  0 0.94630036E+03</rscale>
<asrwt>0</asrwt>
<pdfrwt beam="1">  1        2 0.89569439E-01 0.94630036E+03</pdfrwt>
<pdfrwt beam="2">  1       -2 0.33994672E+00 0.94630036E+03</pdfrwt>
<totfact> 0.94388026E-01</totfact>
</mgrwt>
</event>
<event>
 4    1  0.3365401E-008  0.6402757E+03  0.7818608E-02  0.9825199E-01
          2   -1    0    0  501    0  0.00000000000E+00  0.00000000000E+00  0.14409294599E+04  0.14409294599E+04  0.25500000000E-02 0. -1.
         -2   -1    0    0    0  501 -0.00000000000E+00 -0.00000000000E+00 -0.57661965358E+03  0.57661965359E+03  0.25500000000E-02 0.  1.
    8880022    1    1    2    0    0 -0.62171989880E+03  0.50628482875E+01 -0.28584669322E+03  0.70118560313E+03  0.15294330000E+03 0.  0.
    8880022    1    1    2    0    0  0.62171989880E+03 -0.50628482875E+01  0.11501564996E+04  0.13163635104E+04  0.15294330000E+03 0.  0.
<mgrwt>
<rscale>  0 0.64027566E+03</rscale>
<asrwt>0</asrwt>
<pdfrwt beam="1">  1        2 0.22168145E+00 0.64027566E+03</pdfrwt>
<pdfrwt beam="2">  1       -2 0.88710718E-01 0.64027566E+03</pdfrwt>
<totfact> 0.15559634E+01</totfact>
</mgrwt>
</event>
<event>
 4    1  0.3365401E-008  0.5092582E+03  0.7818608E-02  0.1011390E+00
          2   -1    0    0  501    0  0.00000000000E+00  0.00000000000E+00  0.24775594686E+04  0.24775594686E+04  0.25500000000E-02 0. -1.
         -2   -1    0    0    0  501 -0.00000000000E+00 -0.00000000000E+00 -0.35699680372E+03  0.35699680373E+03  0.25500000000E-02 0.  1.
    8880022    1    1    2    0    0 -0.28357799697E+03 -0.39438030866E+03  0.22517933578E+04  0.23086613627E+04  0.15294330000E+03 0.  0.
    8880022    1    1    2    0    0  0.28357799697E+03  0.39438030866E+03 -0.13123069293E+03  0.52589490966E+03  0.15294330000E+03 0.  1.
<mgrwt>
<rscale>  0 0.50925825E+03</rscale>
<asrwt>0</asrwt>
<pdfrwt beam="1">  1        2 0.38116300E+00 0.50925825E+03</pdfrwt>
<pdfrwt beam="2">  1       -2 0.54922585E-01 0.50925825E+03</pdfrwt>
<totfact> 0.12287287E+01</totfact>
</mgrwt>
</event>
<event>
 4    1  0.3365401E-008  0.5398667E+03  0.7818608E-02  0.1003867E+00
         -2   -1    0    0    0  501 -0.00000000000E+00  0.00000000000E+00  0.11716061748E+04  0.11716061748E+04  0.25500000000E-02 0.  1.
          2   -1    0    0  501    0  0.00000000000E+00 -0.00000000000E+00 -0.78429644235E+03  0.78429644236E+03  0.25500000000E-02 0. -1.
    8880022    1    1    2    0    0  0.17814030647E+03 -0.48613823330E+03 -0.61445259113E+03  0.81792908643E+03  0.15294330000E+03 0.  0.
    8880022    1    1    2    0    0 -0.17814030647E+03  0.48613823330E+03  0.10017623235E+04  0.11379735307E+04  0.15294330000E+03 0.  0.
<mgrwt>
<rscale>  0 0.53986665E+03</rscale>
<asrwt>0</asrwt>
<pdfrwt beam="1">  1        2 0.12066099E+00 0.53986665E+03</pdfrwt>
<pdfrwt beam="2">  1       -2 0.18024710E+00 0.53986665E+03</pdfrwt>
<totfact> 0.67121035E+00</totfact>
</mgrwt>
</event>
<event>
 4    1  0.3365401E-008  0.4511999E+03  0.7818608E-02  0.1027365E+00
         -2   -1    0    0    0  501 -0.00000000000E+00  0.00000000000E+00  0.16791325326E+03  0.16791325328E+03  0.25500000000E-02 0.  1.
          2   -1    0    0  501    0  0.00000000000E+00 -0.00000000000E+00 -0.34584825729E+04  0.34584825729E+04  0.25500000000E-02 0. -1.
    8880022    1    1    2    0    0 -0.10583284485E+03  0.41108281811E+03 -0.31064971449E+04  0.31390931554E+04  0.15294330000E+03 0.  0.
    8880022    1    1    2    0    0  0.10583284485E+03 -0.41108281811E+03 -0.18407217479E+03  0.48730267078E+03  0.15294330000E+03 0.  0.
<mgrwt>
<rscale>  0 0.45119988E+03</rscale>
<asrwt>0</asrwt>
<pdfrwt beam="1">  1        2 0.53207419E+00 0.45119988E+03</pdfrwt>
<pdfrwt beam="2">  1       -2 0.25832811E-01 0.45119988E+03</pdfrwt>
<totfact> 0.13581829E+01</totfact>
</mgrwt>
</event>
<event>
 4    1  0.3365401E-008  0.3324097E+03  0.7818608E-02  0.1070076E+00
          2   -1    0    0  501    0  0.00000000000E+00  0.00000000000E+00  0.16525084437E+04  0.16525084437E+04  0.25500000000E-02 0. -1.
         -2   -1    0    0    0  501 -0.00000000000E+00 -0.00000000000E+00 -0.38621170549E+03  0.38621170550E+03  0.25500000000E-02 0.  1.
    8880022    1    1    2    0    0  0.27675625601E+03 -0.10252099658E+03  0.15600755269E+04  0.15950961985E+04  0.15294330000E+03 0.  0.
    8880022    1    1    2    0    0 -0.27675625601E+03  0.10252099658E+03 -0.29377878863E+03  0.44362395072E+03  0.15294330000E+03 0.  0.
<mgrwt>
<rscale>  0 0.33240974E+03</rscale>
<asrwt>0</asrwt>
<pdfrwt beam="1">  1        2 0.25423206E+00 0.33240974E+03</pdfrwt>
<pdfrwt beam="2">  1       -2 0.59417187E-01 0.33240974E+03</pdfrwt>
<totfact> 0.30465214E+01</totfact>
</mgrwt>
</event>
<event>
 4    1  0.3365401E-008  0.3809851E+03  0.7818608E-02  0.1050570E+00
         -2   -1    0    0    0  501 -0.00000000000E+00  0.00000000000E+00  0.50122965518E+03  0.50122965519E+03  0.25500000000E-02 0.  1.
          2   -1    0    0  501    0  0.00000000000E+00 -0.00000000000E+00 -0.82517849451E+03  0.82517849452E+03  0.25500000000E-02 0. -1.
    8880022    1    1    2    0    0 -0.70603420128E+02  0.34172082727E+03 -0.69628041692E+03  0.79369769983E+03  0.15294330000E+03 0.  0.
    8880022    1    1    2    0    0  0.70603420128E+02 -0.34172082727E+03  0.37233157759E+03  0.53271044987E+03  0.15294330000E+03 0.  1.
<mgrwt>
<rscale>  0 0.38098506E+03</rscale>
<asrwt>0</asrwt>
<pdfrwt beam="1">  1        2 0.12695054E+00 0.38098506E+03</pdfrwt>
<pdfrwt beam="2">  1       -2 0.77112254E-01 0.38098506E+03</pdfrwt>
<totfact> 0.52361105E+01</totfact>
</mgrwt>
</event>
<event>
 4    1  0.3998551E-008  0.9181633E+03  0.7818608E-02  0.9403157E-01
          2   -1    0    0  501    0  0.00000000000E+00  0.00000000000E+00  0.17145704733E+04  0.17145704733E+04  0.25500000000E-02 0. -1.
         -2   -1    0    0    0  501 -0.00000000000E+00 -0.00000000000E+00 -0.10076014942E+04  0.10076014942E+04  0.25500000000E-02 0.  1.
    8880022    1    1    2    0    0  0.17397161534E+02 -0.90516826388E+03 -0.62045509217E+03  0.11081463900E+04  0.15294330000E+03 0.  0.
    8880022    1    1    2    0    0 -0.17397161534E+02  0.90516826388E+03  0.13274240712E+04  0.16140255775E+04  0.15294330000E+03 0.  0.
<mgrwt>
<rscale>  0 0.91816333E+03</rscale>
<asrwt>0</asrwt>
<pdfrwt beam="1">  1        2 0.26378007E+00 0.91816333E+03</pdfrwt>
<pdfrwt beam="2">  1       -2 0.15501562E+00 0.91816333E+03</pdfrwt>
<totfact> 0.26554339E+00</totfact>
</mgrwt>
</event>
<event>
 4    1  0.3365401E-008  0.3819758E+03  0.7818608E-02  0.1050206E+00
          2   -1    0    0  501    0  0.00000000000E+00  0.00000000000E+00  0.69351692768E+03  0.69351692768E+03  0.25500000000E-02 0. -1.
         -2   -1    0    0    0  501 -0.00000000000E+00 -0.00000000000E+00 -0.69806013133E+03  0.69806013134E+03  0.25500000000E-02 0.  1.
    8880022    1    1    2    0    0  0.10972975952E+03 -0.33237519152E+03  0.57929058876E+03  0.69388985243E+03  0.15294330000E+03 0.  0.
    8880022    1    1    2    0    0 -0.10972975952E+03  0.33237519152E+03 -0.58383379241E+03  0.69768720659E+03  0.15294330000E+03 0.  0.
<mgrwt>
<rscale>  0 0.38197584E+03</rscale>
<asrwt>0</asrwt>
<pdfrwt beam="1">  1        2 0.10669491E+00 0.38197584E+03</pdfrwt>
<pdfrwt beam="2">  1       -2 0.10739387E+00 0.38197584E+03</pdfrwt>
<totfact> 0.30540425E+01</totfact>
</mgrwt>
</event>
<event>
 4    1  0.3365401E-008  0.5203168E+03  0.7818608E-02  0.1008608E+00
          2   -1    0    0  501    0  0.00000000000E+00  0.00000000000E+00  0.80560673920E+03  0.80560673920E+03  0.25500000000E-02 0. -1.
         -2   -1    0    0    0  501 -0.00000000000E+00 -0.00000000000E+00 -0.60940873266E+03  0.60940873267E+03  0.25500000000E-02 0.  1.
    8880022    1    1    2    0    0 -0.47924340922E+03 -0.13290459009E+03 -0.37574787494E+03  0.64180681976E+03  0.15294330000E+03 0.  0.
    8880022    1    1    2    0    0  0.47924340922E+03  0.13290459009E+03  0.57194588148E+03  0.77320865211E+03  0.15294330000E+03 0.  0.
<mgrwt>
<rscale>  0 0.52031676E+03</rscale>
<asrwt>0</asrwt>
<pdfrwt beam="1">  1        2 0.12393950E+00 0.52031676E+03</pdfrwt>
<pdfrwt beam="2">  1       -2 0.93755189E-01 0.52031676E+03</pdfrwt>
<totfact> 0.34069000E+01</totfact>
</mgrwt>
</event>
<event>
 4    1  0.4246440E-008  0.1057960E+04  0.7818608E-02  0.9247165E-01
         -2   -1    0    0    0  501 -0.00000000000E+00  0.00000000000E+00  0.17133035623E+04  0.17133035623E+04  0.25500000000E-02 0.  1.
          2   -1    0    0  501    0  0.00000000000E+00 -0.00000000000E+00 -0.15690530383E+04  0.15690530383E+04  0.25500000000E-02 0. -1.
    8880022    1    1    2    0    0 -0.87997854445E+02 -0.10431410462E+04 -0.11816776661E+04  0.15860771180E+04  0.15294330000E+03 0.  0.
    8880022    1    1    2    0    0  0.87997854445E+02  0.10431410462E+04  0.13259281901E+04  0.16962794826E+04  0.15294330000E+03 0.  0.
<mgrwt>
<rscale>  0 0.10579596E+04</rscale>
<asrwt>0</asrwt>
<pdfrwt beam="1">  1        2 0.24139277E+00 0.10579596E+04</pdfrwt>
<pdfrwt beam="2">  1       -2 0.26358516E+00 0.10579596E+04</pdfrwt>
<totfact> 0.61056163E-01</totfact>
</mgrwt>
</event>
<event>
 4    1  0.3365401E-008  0.7516202E+03  0.7818608E-02  0.9632812E-01
         -2   -1    0    0    0  501 -0.00000000000E+00  0.00000000000E+00  0.43893631796E+03  0.43893631797E+03  0.25500000000E-02 0.  1.
          2   -1    0    0  501    0  0.00000000000E+00 -0.00000000000E+00 -0.24338993803E+04  0.24338993803E+04  0.25500000000E-02 0. -1.
    8880022    1    1    2    0    0 -0.68480086607E+03  0.26942357806E+03 -0.11468409854E+02  0.75170770119E+03  0.15294330000E+03 0.  0.
    8880022    1    1    2    0    0  0.68480086607E+03 -0.26942357806E+03 -0.19834946525E+04  0.21211279971E+04  0.15294330000E+03 0.  0.
<mgrwt>
<rscale>  0 0.75162021E+03</rscale>
<asrwt>0</asrwt>
<pdfrwt beam="1">  1        2 0.37444605E+00 0.75162021E+03</pdfrwt>
<pdfrwt beam="2">  1       -2 0.67528666E-01 0.75162021E+03</pdfrwt>
<totfact> 0.79999305E+00</totfact>
</mgrwt>
</event>
<event>
 4    1  0.3365401E-008  0.1667065E+03  0.7818608E-02  0.1181327E+00
         -2   -1    0    0    0  501 -0.00000000000E+00  0.00000000000E+00  0.41205453296E+03  0.41205453296E+03  0.25500000000E-02 0.  1.
          2   -1    0    0  501    0  0.00000000000E+00 -0.00000000000E+00 -0.13128842308E+04  0.13128842308E+04  0.25500000000E-02 0. -1.
    8880022    1    1    2    0    0 -0.17991315232E+02  0.63841219073E+02 -0.12904389202E+04  0.13011624220E+04  0.15294330000E+03 0.  0.
    8880022    1    1    2    0    0  0.17991315232E+02 -0.63841219073E+02  0.38960922235E+03  0.42377634176E+03  0.15294330000E+03 0.  1.
<mgrwt>
<rscale>  0 0.16670645E+03</rscale>
<asrwt>0</asrwt>
<pdfrwt beam="1">  1        2 0.20198219E+00 0.16670645E+03</pdfrwt>
<pdfrwt beam="2">  1       -2 0.63393006E-01 0.16670645E+03</pdfrwt>
<totfact> 0.42934647E+01</totfact>
</mgrwt>
</event>
<event>
 4    1  0.3365401E-008  0.1712097E+04  0.7818608E-02  0.8754495E-01
         -2   -1    0    0    0  501 -0.00000000000E+00  0.00000000000E+00  0.20140347276E+04  0.20140347276E+04  0.25500000000E-02 0.  1.
          2   -1    0    0  501    0  0.00000000000E+00 -0.00000000000E+00 -0.18835814547E+04  0.18835814547E+04  0.25500000000E-02 0. -1.
    8880022    1    1    2    0    0 -0.12150507279E+04  0.11964683168E+04  0.99436020983E+03  0.19799062060E+04  0.15294330000E+03 0.  0.
    8880022    1    1    2    0    0  0.12150507279E+04 -0.11964683168E+04 -0.86390693698E+03  0.19177099763E+04  0.15294330000E+03 0.  0.
<mgrwt>
<rscale>  0 0.17120971E+04</rscale>
<asrwt>0</asrwt>
<pdfrwt beam="1">  1        2 0.28978176E+00 0.17120971E+04</pdfrwt>
<pdfrwt beam="2">  1       -2 0.30985150E+00 0.17120971E+04</pdfrwt>
<totfact> 0.19659629E-01</totfact>
</mgrwt>
</event>
<event>
 4    1  0.3365401E-008  0.9538468E+03  0.7818608E-02  0.9360666E-01
          2   -1    0    0  501    0  0.00000000000E+00  0.00000000000E+00  0.11581323535E+04  0.11581323535E+04  0.25500000000E-02 0. -1.
         -2   -1    0    0    0  501 -0.00000000000E+00 -0.00000000000E+00 -0.10748684108E+04  0.10748684108E+04  0.25500000000E-02 0.  1.
    8880022    1    1    2    0    0  0.85213311688E+03 -0.40037637872E+03 -0.53757661530E+03  0.10949029016E+04  0.15294330000E+03 0.  0.
    8880022    1    1    2    0    0 -0.85213311688E+03  0.40037637872E+03  0.62084055800E+03  0.11380978627E+04  0.15294330000E+03 0.  0.
<mgrwt>
<rscale>  0 0.95384682E+03</rscale>
<asrwt>0</asrwt>
<pdfrwt beam="1">  1        2 0.17817421E+00 0.95384682E+03</pdfrwt>
<pdfrwt beam="2">  1       -2 0.16536437E+00 0.95384682E+03</pdfrwt>
<totfact> 0.46012756E+00</totfact>
</mgrwt>
</event>
<event>
 4    1  0.3365401E-008  0.5565624E+03  0.7818608E-02  0.9999863E-01
         -2   -1    0    0    0  501 -0.00000000000E+00  0.00000000000E+00  0.27583708191E+03  0.27583708193E+03  0.25500000000E-02 0.  1.
          2   -1    0    0  501    0  0.00000000000E+00 -0.00000000000E+00 -0.13134197427E+04  0.13134197427E+04  0.25500000000E-02 0. -1.
    8880022    1    1    2    0    0  0.42843526522E+03  0.32064506611E+03 -0.82136572736E+03  0.99217102659E+03  0.15294330000E+03 0.  0.
    8880022    1    1    2    0    0 -0.42843526522E+03 -0.32064506611E+03 -0.21621693343E+03  0.59708579804E+03  0.15294330000E+03 0.  0.
<mgrwt>
<rscale>  0 0.55656238E+03</rscale>
<asrwt>0</asrwt>
<pdfrwt beam="1">  1        2 0.20206457E+00 0.55656238E+03</pdfrwt>
<pdfrwt beam="2">  1       -2 0.42436475E-01 0.55656238E+03</pdfrwt>
<totfact> 0.88618879E+01</totfact>
</mgrwt>
</event>
<event>
 4    1  0.3365401E-008  0.1226016E+04  0.7818608E-02  0.9090385E-01
         -2   -1    0    0    0  501 -0.00000000000E+00  0.00000000000E+00  0.16650825530E+04  0.16650825530E+04  0.25500000000E-02 0.  1.
          2   -1    0    0  501    0  0.00000000000E+00 -0.00000000000E+00 -0.15267858912E+04  0.15267858912E+04  0.25500000000E-02 0. -1.
    8880022    1    1    2    0    0 -0.62092974849E+03  0.10460257764E+04 -0.95117691465E+03  0.15517257662E+04  0.15294330000E+03 0.  0.
    8880022    1    1    2    0    0  0.62092974849E+03 -0.10460257764E+04  0.10894735765E+04  0.16401426780E+04  0.15294330000E+03 0.  0.
<mgrwt>
<rscale>  0 0.12260160E+04</rscale>
<asrwt>0</asrwt>
<pdfrwt beam="1">  1        2 0.23489014E+00 0.12260160E+04</pdfrwt>
<pdfrwt beam="2">  1       -2 0.25616655E+00 0.12260160E+04</pdfrwt>
<totfact> 0.69955698E-01</totfact>
</mgrwt>
</event>
<event>
 4    1  0.3365401E-008  0.3612780E+03  0.7818608E-02  0.1058079E+00
          2   -1    0    0  501    0  0.00000000000E+00  0.00000000000E+00  0.70213940035E+03  0.70213940036E+03  0.25500000000E-02 0. -1.
         -2   -1    0    0    0  501 -0.00000000000E+00 -0.00000000000E+00 -0.44656526421E+03  0.44656526422E+03  0.25500000000E-02 0.  1.
    8880022    1    1    2    0    0 -0.32697831755E+03  0.14674562306E+02 -0.31103099758E+03  0.47672014578E+03  0.15294330000E+03 0.  0.
    8880022    1    1    2    0    0  0.32697831755E+03 -0.14674562306E+02  0.56660513372E+03  0.67198451879E+03  0.15294330000E+03 0.  0.
<mgrwt>
<rscale>  0 0.36127803E+03</rscale>
<asrwt>0</asrwt>
<pdfrwt beam="1">  1        2 0.10802145E+00 0.36127803E+03</pdfrwt>
<pdfrwt beam="2">  1       -2 0.68702349E-01 0.36127803E+03</pdfrwt>
<totfact> 0.82910739E+01</totfact>
</mgrwt>
</event>
<event>
 4    1  0.3365401E-008  0.4666365E+03  0.7818608E-02  0.1022874E+00
          2   -1    0    0  501    0  0.00000000000E+00  0.00000000000E+00  0.57725388156E+03  0.57725388157E+03  0.25500000000E-02 0. -1.
         -2   -1    0    0    0  501 -0.00000000000E+00 -0.00000000000E+00 -0.63443919323E+03  0.63443919324E+03  0.25500000000E-02 0.  1.
    8880022    1    1    2    0    0 -0.96722527518E+02  0.43011937629E+03  0.35717199622E+03  0.58764054752E+03  0.15294330000E+03 0.  0.
    8880022    1    1    2    0    0  0.96722527518E+02 -0.43011937629E+03 -0.41435730789E+03  0.62405252728E+03  0.15294330000E+03 0.  1.
<mgrwt>
<rscale>  0 0.46663645E+03</rscale>
<asrwt>0</asrwt>
<pdfrwt beam="1">  1        2 0.88808289E-01 0.46663645E+03</pdfrwt>
<pdfrwt beam="2">  1       -2 0.97606030E-01 0.46663645E+03</pdfrwt>
<totfact> 0.47184695E+01</totfact>
</mgrwt>
</event>
<event>
 4    1  0.3365401E-008  0.1239398E+04  0.7818608E-02  0.9079054E-01
         -2   -1    0    0    0  501 -0.00000000000E+00  0.00000000000E+00  0.13865879516E+04  0.13865879516E+04  0.25500000000E-02 0.  1.
          2   -1    0    0  501    0  0.00000000000E+00 -0.00000000000E+00 -0.17582167627E+04  0.17582167627E+04  0.25500000000E-02 0. -1.
    8880022    1    1    2    0    0 -0.11649777835E+04 -0.39438730715E+03  0.77052647579E+03  0.14593893541E+04  0.15294330000E+03 0.  0.
    8880022    1    1    2    0    0  0.11649777835E+04  0.39438730715E+03 -0.11421552868E+04  0.16854153602E+04  0.15294330000E+03 0.  0.
<mgrwt>
<rscale>  0 0.12393975E+04</rscale>
<asrwt>0</asrwt>
<pdfrwt beam="1">  1        2 0.27049489E+00 0.12393975E+04</pdfrwt>
<pdfrwt beam="2">  1       -2 0.21332122E+00 0.12393975E+04</pdfrwt>
<totfact> 0.95842927E-01</totfact>
</mgrwt>
</event>
<event>
 4    1  0.3365401E-008  0.4266202E+03  0.7818608E-02  0.1034933E+00
          2   -1    0    0  501    0  0.00000000000E+00  0.00000000000E+00  0.43307758492E+03  0.43307758493E+03  0.25500000000E-02 0. -1.
         -2   -1    0    0    0  501 -0.00000000000E+00 -0.00000000000E+00 -0.55703089939E+03  0.55703089940E+03  0.25500000000E-02 0.  1.
    8880022    1    1    2    0    0 -0.39264309581E+03  0.66667618352E+02  0.18333111988E+03  0.46434375688E+03  0.15294330000E+03 0. -1.
    8880022    1    1    2    0    0  0.39264309581E+03 -0.66667618352E+02 -0.30728443435E+03  0.52576472745E+03  0.15294330000E+03 0.  0.
<mgrwt>
<rscale>  0 0.42662024E+03</rscale>
<asrwt>0</asrwt>
<pdfrwt beam="1">  1        2 0.66627321E-01 0.42662024E+03</pdfrwt>
<pdfrwt beam="2">  1       -2 0.85697062E-01 0.42662024E+03</pdfrwt>
<totfact> 0.88789509E+01</totfact>
</mgrwt>
</event>
<event>
 4    1  0.3365401E-008  0.6294489E+03  0.7818608E-02  0.9846125E-01
          2   -1    0    0  501    0  0.00000000000E+00  0.00000000000E+00  0.14633782633E+04  0.14633782633E+04  0.25500000000E-02 0. -1.
         -2   -1    0    0    0  501 -0.00000000000E+00 -0.00000000000E+00 -0.75027789901E+03  0.75027789901E+03  0.25500000000E-02 0.  1.
    8880022    1    1    2    0    0 -0.25616552872E+03  0.55425039392E+03  0.12414155292E+04  0.13918758732E+04  0.15294330000E+03 0.  0.
    8880022    1    1    2    0    0  0.25616552872E+03 -0.55425039392E+03 -0.52831516483E+03  0.82178028917E+03  0.15294330000E+03 0.  0.
<mgrwt>
<rscale>  0 0.62944891E+03</rscale>
<asrwt>0</asrwt>
<pdfrwt beam="1">  1        2 0.22513511E+00 0.62944891E+03</pdfrwt>
<pdfrwt beam="2">  1       -2 0.11542737E+00 0.62944891E+03</pdfrwt>
<totfact> 0.81167896E+00</totfact>
</mgrwt>
</event>
<event>
 4    1  0.3365401E-008  0.5500293E+03  0.7818608E-02  0.1001487E+00
         -2   -1    0    0    0  501 -0.00000000000E+00  0.00000000000E+00  0.25829017803E+03  0.25829017804E+03  0.25500000000E-02 0.  1.
          2   -1    0    0  501    0  0.00000000000E+00 -0.00000000000E+00 -0.15330583208E+04  0.15330583209E+04  0.25500000000E-02 0. -1.
    8880022    1    1    2    0    0  0.18667656339E+02  0.52800770920E+03 -0.10724819944E+04  0.12053007523E+04  0.15294330000E+03 0.  0.
    8880022    1    1    2    0    0 -0.18667656339E+02 -0.52800770920E+03 -0.20228614847E+03  0.58604774655E+03  0.15294330000E+03 0.  0.
<mgrwt>
<rscale>  0 0.55002934E+03</rscale>
<asrwt>0</asrwt>
<pdfrwt beam="1">  1        2 0.23585512E+00 0.55002934E+03</pdfrwt>
<pdfrwt beam="2">  1       -2 0.39736952E-01 0.55002934E+03</pdfrwt>
<totfact> 0.76043086E+01</totfact>
</mgrwt>
</event>
<event>
 4    1  0.3365401E-008  0.9109304E+03  0.7818608E-02  0.9412020E-01
          2   -1    0    0  501    0  0.00000000000E+00  0.00000000000E+00  0.22476734418E+04  0.22476734418E+04  0.25500000000E-02 0. -1.
         -2   -1    0    0    0  501 -0.00000000000E+00 -0.00000000000E+00 -0.55633853552E+03  0.55633853553E+03  0.25500000000E-02 0.  1.
    8880022    1    1    2    0    0  0.82173835207E+03  0.36214455756E+03  0.16588462762E+04  0.18925023701E+04  0.15294330000E+03 0.  0.
    8880022    1    1    2    0    0 -0.82173835207E+03 -0.36214455756E+03  0.32488630024E+02  0.91150960715E+03  0.15294330000E+03 0.  0.
<mgrwt>
<rscale>  0 0.91093043E+03</rscale>
<asrwt>0</asrwt>
<pdfrwt beam="1">  1        2 0.34579592E+00 0.91093043E+03</pdfrwt>
<pdfrwt beam="2">  1       -2 0.85590544E-01 0.91093043E+03</pdfrwt>
<totfact> 0.58553769E+00</totfact>
</mgrwt>
</event>
<event>
 4    1  0.3365401E-008  0.8642009E+03  0.7818608E-02  0.9471473E-01
         -2   -1    0    0    0  501 -0.00000000000E+00  0.00000000000E+00  0.73531763947E+03  0.73531763947E+03  0.25500000000E-02 0.  1.
          2   -1    0    0  501    0  0.00000000000E+00 -0.00000000000E+00 -0.18497512944E+04  0.18497512945E+04  0.25500000000E-02 0. -1.
    8880022    1    1    2    0    0 -0.84972203127E+03 -0.37736398581E+02 -0.14251544969E+04  0.16667059007E+04  0.15294330000E+03 0.  0.
    8880022    1    1    2    0    0  0.84972203127E+03  0.37736398581E+02  0.31072084195E+03  0.91836303325E+03  0.15294330000E+03 0.  0.
<mgrwt>
<rscale>  0 0.86420091E+03</rscale>
<asrwt>0</asrwt>
<pdfrwt beam="1">  1        2 0.28457712E+00 0.86420091E+03</pdfrwt>
<pdfrwt beam="2">  1       -2 0.11312579E+00 0.86420091E+03</pdfrwt>
<totfact> 0.50449030E+00</totfact>
</mgrwt>
</event>
<event>
 4    1  0.3365401E-008  0.2722170E+03  0.7818608E-02  0.1100017E+00
          2   -1    0    0  501    0  0.00000000000E+00  0.00000000000E+00  0.14994703265E+04  0.14994703265E+04  0.25500000000E-02 0. -1.
         -2   -1    0    0    0  501 -0.00000000000E+00 -0.00000000000E+00 -0.19493851145E+03  0.19493851147E+03  0.25500000000E-02 0.  1.
    8880022    1    1    2    0    0  0.17919300607E+03  0.13638285377E+03 -0.79715849230E+02  0.28364887777E+03  0.15294330000E+03 0.  0.
    8880022    1    1    2    0    0 -0.17919300607E+03 -0.13638285377E+03  0.13842476643E+04  0.14107599602E+04  0.15294330000E+03 0.  0.
<mgrwt>
<rscale>  0 0.27221695E+03</rscale>
<asrwt>0</asrwt>
<pdfrwt beam="1">  1        2 0.23068775E+00 0.27221695E+03</pdfrwt>
<pdfrwt beam="2">  1       -2 0.29990540E-01 0.27221695E+03</pdfrwt>
<totfact> 0.14116818E+02</totfact>
</mgrwt>
</event>
<event>
 4    1  0.3365401E-008  0.1055442E+04  0.7818608E-02  0.9249743E-01
          2   -1    0    0  501    0  0.00000000000E+00  0.00000000000E+00  0.14465893785E+04  0.14465893785E+04  0.25500000000E-02 0. -1.
         -2   -1    0    0    0  501 -0.00000000000E+00 -0.00000000000E+00 -0.82612824819E+03  0.82612824820E+03  0.25500000000E-02 0.  1.
    8880022    1    1    2    0    0  0.10219184157E+04 -0.21505724043E+03  0.14186839430E+02  0.10555376755E+04  0.15294330000E+03 0.  0.
    8880022    1    1    2    0    0 -0.10219184157E+04  0.21505724043E+03  0.60627429090E+03  0.12171799513E+04  0.15294330000E+03 0.  0.
<mgrwt>
<rscale>  0 0.10554423E+04</rscale>
<asrwt>0</asrwt>
<pdfrwt beam="1">  1        2 0.22255221E+00 0.10554423E+04</pdfrwt>
<pdfrwt beam="2">  1       -2 0.12709665E+00 0.10554423E+04</pdfrwt>
<totfact> 0.61807279E+00</totfact>
</mgrwt>
</event>
<event>
 4    1  0.3365401E-008  0.2130513E+03  0.7818608E-02  0.1139172E+00
          2   -1    0    0  501    0  0.00000000000E+00  0.00000000000E+00  0.13074232550E+04  0.13074232550E+04  0.25500000000E-02 0. -1.
         -2   -1    0    0    0  501 -0.00000000000E+00 -0.00000000000E+00 -0.10046814439E+03  0.10046814442E+03  0.25500000000E-02 0.  1.
    8880022    1    1    2    0    0  0.13625149568E+03  0.58606690055E+02  0.11729516399E+04  0.11921436226E+04  0.15294330000E+03 0.  0.
    8880022    1    1    2    0    0 -0.13625149568E+03 -0.58606690055E+02  0.34003470714E+02  0.21574777688E+03  0.15294330000E+03 0.  1.
<mgrwt>
<rscale>  0 0.21305133E+03</rscale>
<asrwt>0</asrwt>
<pdfrwt beam="1">  1        2 0.20114203E+00 0.21305133E+03</pdfrwt>
<pdfrwt beam="2">  1       -2 0.15456638E-01 0.21305133E+03</pdfrwt>
<totfact> 0.57220713E+02</totfact>
</mgrwt>
</event>
<event>
 4    1  0.3365401E-008  0.3873664E+03  0.7818608E-02  0.1048244E+00
         -2   -1    0    0    0  501 -0.00000000000E+00  0.00000000000E+00  0.19970072801E+03  0.19970072803E+03  0.25500000000E-02 0.  1.
          2   -1    0    0  501    0  0.00000000000E+00 -0.00000000000E+00 -0.15250535300E+04  0.15250535300E+04  0.25500000000E-02 0. -1.
    8880022    1    1    2    0    0 -0.32435828575E+03 -0.14646754014E+03 -0.12769068842E+04  0.13343702192E+04  0.15294330000E+03 0.  0.
    8880022    1    1    2    0    0  0.32435828575E+03  0.14646754014E+03 -0.48445917797E+02  0.39038403888E+03  0.15294330000E+03 0.  0.
<mgrwt>
<rscale>  0 0.38736635E+03</rscale>
<asrwt>0</asrwt>
<pdfrwt beam="1">  1        2 0.23462361E+00 0.38736635E+03</pdfrwt>
<pdfrwt beam="2">  1       -2 0.30723190E-01 0.38736635E+03</pdfrwt>
<totfact> 0.12794642E+02</totfact>
</mgrwt>
</event>
<event>
 4    1  0.3365401E-008  0.3076270E+03  0.7818608E-02  0.1081489E+00
         -2   -1    0    0    0  501 -0.00000000000E+00  0.00000000000E+00  0.62003984695E+02  0.62003984748E+02  0.25500000000E-02 0.  1.
          2   -1    0    0  501    0  0.00000000000E+00 -0.00000000000E+00 -0.15756732499E+04  0.15756732499E+04  0.25500000000E-02 0. -1.
    8880022    1    1    2    0    0  0.16318768726E+03 -0.21121668737E+03 -0.61183213206E+03  0.68481597611E+03  0.15294330000E+03 0. -1.
    8880022    1    1    2    0    0 -0.16318768726E+03  0.21121668737E+03 -0.90183713314E+03  0.95286125854E+03  0.15294330000E+03 0.  1.
<mgrwt>
<rscale>  0 0.30762699E+03</rscale>
<asrwt>0</asrwt>
<pdfrwt beam="1">  1        2 0.24241124E+00 0.30762699E+03</pdfrwt>
<pdfrwt beam="2">  1       -2 0.95390757E-02 0.30762699E+03</pdfrwt>
<totfact> 0.88812874E+02</totfact>
</mgrwt>
</event>
<event>
 4    1  0.3365401E-008  0.1263706E+04  0.7818608E-02  0.9058852E-01
         -2   -1    0    0    0  501 -0.00000000000E+00  0.00000000000E+00  0.17942138743E+04  0.17942138743E+04  0.25500000000E-02 0.  1.
          2   -1    0    0  501    0  0.00000000000E+00 -0.00000000000E+00 -0.91715116534E+03  0.91715116535E+03  0.25500000000E-02 0. -1.
    8880022    1    1    2    0    0 -0.61473854076E+03 -0.10934613143E+04  0.20552126007E+03  0.12803092441E+04  0.15294330000E+03 0.  0.
    8880022    1    1    2    0    0  0.61473854076E+03  0.10934613143E+04  0.67154144892E+03  0.14310557955E+04  0.15294330000E+03 0.  0.
<mgrwt>
<rscale>  0 0.12637060E+04</rscale>
<asrwt>0</asrwt>
<pdfrwt beam="1">  1        2 0.14110018E+00 0.12637060E+04</pdfrwt>
<pdfrwt beam="2">  1       -2 0.27603290E+00 0.12637060E+04</pdfrwt>
<totfact> 0.12336340E+00</totfact>
</mgrwt>
</event>
<event>
 4    1  0.3365401E-008  0.2097825E+04  0.7818608E-02  0.8562202E-01
          2   -1    0    0  501    0  0.00000000000E+00  0.00000000000E+00  0.25978283402E+04  0.25978283402E+04  0.25500000000E-02 0. -1.
         -2   -1    0    0    0  501 -0.00000000000E+00 -0.00000000000E+00 -0.22315744858E+04  0.22315744858E+04  0.25500000000E-02 0.  1.
    8880022    1    1    2    0    0  0.78028019431E+03 -0.19412983038E+04  0.13682248863E+04  0.25045772654E+04  0.15294330000E+03 0.  0.
    8880022    1    1    2    0    0 -0.78028019431E+03  0.19412983038E+04 -0.10019710318E+04  0.23248255607E+04  0.15294330000E+03 0.  0.
<mgrwt>
<rscale>  0 0.20978246E+04</rscale>
<asrwt>0</asrwt>
<pdfrwt beam="1">  1        2 0.39966590E+00 0.20978246E+04</pdfrwt>
<pdfrwt beam="2">  1       -2 0.34331915E+00 0.20978246E+04</pdfrwt>
<totfact> 0.45777078E-02</totfact>
</mgrwt>
</event>
<event>
 4    1  0.3365401E-008  0.4697668E+03  0.7818608E-02  0.1021986E+00
         -2   -1    0    0    0  501 -0.00000000000E+00  0.00000000000E+00  0.16450104119E+03  0.16450104121E+03  0.25500000000E-02 0.  1.
          2   -1    0    0  501    0  0.00000000000E+00 -0.00000000000E+00 -0.21200727825E+04  0.21200727825E+04  0.25500000000E-02 0. -1.
    8880022    1    1    2    0    0 -0.40096740214E+03 -0.19108719818E+03 -0.28556469852E+03  0.54975269435E+03  0.15294330000E+03 0.  0.
    8880022    1    1    2    0    0  0.40096740214E+03  0.19108719818E+03 -0.16700070428E+04  0.17348211294E+04  0.15294330000E+03 0.  0.
<mgrwt>
<rscale>  0 0.46976678E+03</rscale>
<asrwt>0</asrwt>
<pdfrwt beam="1">  1        2 0.32616502E+00 0.46976678E+03</pdfrwt>
<pdfrwt beam="2">  1       -2 0.25307854E-01 0.46976678E+03</pdfrwt>
<totfact> 0.85984360E+01</totfact>
</mgrwt>
</event>
<event>
 4    1  0.3365401E-008  0.3183038E+03  0.7818608E-02  0.1076433E+00
         -2   -1    0    0    0  501 -0.00000000000E+00  0.00000000000E+00  0.22732780462E+03  0.22732780464E+03  0.25500000000E-02 0.  1.
          2   -1    0    0  501    0  0.00000000000E+00 -0.00000000000E+00 -0.21200190592E+04  0.21200190592E+04  0.25500000000E-02 0. -1.
    8880022    1    1    2    0    0  0.27296023889E+03 -0.58466777640E+02  0.96687346466E+02  0.33266462403E+03  0.15294330000E+03 0.  0.
    8880022    1    1    2    0    0 -0.27296023889E+03  0.58466777640E+02 -0.19893786010E+04  0.20146822398E+04  0.15294330000E+03 0.  0.
<mgrwt>
<rscale>  0 0.31830380E+03</rscale>
<asrwt>0</asrwt>
<pdfrwt beam="1">  1        2 0.32615676E+00 0.31830380E+03</pdfrwt>
<pdfrwt beam="2">  1       -2 0.34973510E-01 0.31830380E+03</pdfrwt>
<totfact> 0.49224298E+01</totfact>
</mgrwt>
</event>
<event>
 4    1  0.3365401E-008  0.3916399E+03  0.7818608E-02  0.1046714E+00
         -2   -1    0    0    0  501 -0.00000000000E+00  0.00000000000E+00  0.29861547275E+03  0.29861547276E+03  0.25500000000E-02 0.  1.
          2   -1    0    0  501    0  0.00000000000E+00 -0.00000000000E+00 -0.15344738937E+04  0.15344738937E+04  0.25500000000E-02 0. -1.
    8880022    1    1    2    0    0  0.23096188404E+03  0.27685150681E+03  0.12963887746E+03  0.41253853186E+03  0.15294330000E+03 0.  0.
    8880022    1    1    2    0    0 -0.23096188404E+03 -0.27685150681E+03 -0.13654972984E+04  0.14205508346E+04  0.15294330000E+03 0.  0.
<mgrwt>
<rscale>  0 0.39163989E+03</rscale>
<asrwt>0</asrwt>
<pdfrwt beam="1">  1        2 0.23607290E+00 0.39163989E+03</pdfrwt>
<pdfrwt beam="2">  1       -2 0.45940843E-01 0.39163989E+03</pdfrwt>
<totfact> 0.58613561E+01</totfact>
</mgrwt>
</event>
<event>
 4    1  0.3365401E-008  0.4893899E+03  0.7818608E-02  0.1016586E+00
         -2   -1    0    0    0  501 -0.00000000000E+00  0.00000000000E+00  0.21039197396E+03  0.21039197398E+03  0.25500000000E-02 0.  1.
          2   -1    0    0  501    0  0.00000000000E+00 -0.00000000000E+00 -0.29708932394E+04  0.29708932394E+04  0.25500000000E-02 0. -1.
    8880022    1    1    2    0    0 -0.43458820105E+02  0.46284136464E+03 -0.26295158736E+04  0.26746693591E+04  0.15294330000E+03 0.  0.
    8880022    1    1    2    0    0  0.43458820105E+02 -0.46284136464E+03 -0.13098539175E+03  0.50661585421E+03  0.15294330000E+03 0.  0.
<mgrwt>
<rscale>  0 0.48938988E+03</rscale>
<asrwt>0</asrwt>
<pdfrwt beam="1">  1        2 0.45706047E+00 0.48938988E+03</pdfrwt>
<pdfrwt beam="2">  1       -2 0.32367998E-01 0.48938988E+03</pdfrwt>
<totfact> 0.18049518E+01</totfact>
</mgrwt>
</event>
<event>
 4    1  0.3365401E-008  0.2898993E+03  0.7818608E-02  0.1090402E+00
          2   -1    0    0  501    0  0.00000000000E+00  0.00000000000E+00  0.57767531720E+03  0.57767531721E+03  0.25500000000E-02 0. -1.
         -2   -1    0    0    0  501 -0.00000000000E+00 -0.00000000000E+00 -0.32873880402E+03  0.32873880403E+03  0.25500000000E-02 0.  1.
    8880022    1    1    2    0    0  0.16010879855E+03 -0.18712332076E+03  0.46284515759E+03  0.54613849659E+03  0.15294330000E+03 0.  0.
    8880022    1    1    2    0    0 -0.16010879855E+03  0.18712332076E+03 -0.21390864441E+03  0.36027562465E+03  0.15294330000E+03 0.  0.
<mgrwt>
<rscale>  0 0.28989932E+03</rscale>
<asrwt>0</asrwt>
<pdfrwt beam="1">  1        2 0.88873126E-01 0.28989932E+03</pdfrwt>
<pdfrwt beam="2">  1       -2 0.50575201E-01 0.28989932E+03</pdfrwt>
<totfact> 0.19951058E+02</totfact>
</mgrwt>
</event>
<event>
 4    1  0.3365401E-008  0.1946844E+03  0.7818608E-02  0.1154303E+00
          2   -1    0    0  501    0  0.00000000000E+00  0.00000000000E+00  0.13421089970E+03  0.13421089972E+03  0.25500000000E-02 0. -1.
         -2   -1    0    0    0  501 -0.00000000000E+00 -0.00000000000E+00 -0.29830922644E+03  0.29830922645E+03  0.25500000000E-02 0.  1.
    8880022    1    1    2    0    0  0.11460582893E+03 -0.37092652917E+02 -0.32116991517E+02  0.19731577505E+03  0.15294330000E+03 0. -1.
    8880022    1    1    2    0    0 -0.11460582893E+03  0.37092652917E+02 -0.13198133523E+03  0.23520435113E+03  0.15294330000E+03 0.  1.
<mgrwt>
<rscale>  0 0.19468440E+03</rscale>
<asrwt>0</asrwt>
<pdfrwt beam="1">  1        2 0.20647831E-01 0.19468440E+03</pdfrwt>
<pdfrwt beam="2">  1       -2 0.45893727E-01 0.19468440E+03</pdfrwt>
<totfact> 0.12086106E+03</totfact>
</mgrwt>
</event>
<event>
 4    1  0.3365401E-008  0.6982082E+03  0.7818608E-02  0.9720301E-01
          2   -1    0    0  501    0  0.00000000000E+00  0.00000000000E+00  0.19584909356E+04  0.19584909356E+04  0.25500000000E-02 0. -1.
         -2   -1    0    0    0  501 -0.00000000000E+00 -0.00000000000E+00 -0.35255499661E+03  0.35255499662E+03  0.25500000000E-02 0.  1.
    8880022    1    1    2    0    0 -0.95936569178E+02 -0.67446215480E+03  0.17645199301E+03  0.72015969230E+03  0.15294330000E+03 0.  0.
    8880022    1    1    2    0    0  0.95936569178E+02  0.67446215480E+03  0.14294839460E+04  0.15908862399E+04  0.15294330000E+03 0.  0.
<mgrwt>
<rscale>  0 0.69820819E+03</rscale>
<asrwt>0</asrwt>
<pdfrwt beam="1">  1        2 0.30130630E+00 0.69820819E+03</pdfrwt>
<pdfrwt beam="2">  1       -2 0.54239230E-01 0.69820819E+03</pdfrwt>
<totfact> 0.23454072E+01</totfact>
</mgrwt>
</event>
<event>
 4    1  0.3365401E-008  0.6382164E+03  0.7818608E-02  0.9829145E-01
          2   -1    0    0  501    0  0.00000000000E+00  0.00000000000E+00  0.13363845171E+04  0.13363845171E+04  0.25500000000E-02 0. -1.
         -2   -1    0    0    0  501 -0.00000000000E+00 -0.00000000000E+00 -0.68498203820E+03  0.68498203821E+03  0.25500000000E-02 0.  1.
    8880022    1    1    2    0    0 -0.46621167113E+03  0.40813628188E+03 -0.42726494844E+03  0.76803355140E+03  0.15294330000E+03 0.  0.
    8880022    1    1    2    0    0  0.46621167113E+03 -0.40813628188E+03  0.10786674273E+04  0.12533330039E+04  0.15294330000E+03 0.  0.
<mgrwt>
<rscale>  0 0.63821642E+03</rscale>
<asrwt>0</asrwt>
<pdfrwt beam="1">  1        2 0.20559762E+00 0.63821642E+03</pdfrwt>
<pdfrwt beam="2">  1       -2 0.10538185E+00 0.63821642E+03</pdfrwt>
<totfact> 0.11904966E+01</totfact>
</mgrwt>
</event>
<event>
 4    1  0.3365401E-008  0.3048660E+03  0.7818608E-02  0.1082833E+00
          2   -1    0    0  501    0  0.00000000000E+00  0.00000000000E+00  0.24614334225E+04  0.24614334225E+04  0.25500000000E-02 0. -1.
         -2   -1    0    0    0  501 -0.00000000000E+00 -0.00000000000E+00 -0.29510707738E+03  0.29510707739E+03  0.25500000000E-02 0.  1.
    8880022    1    1    2    0    0 -0.14669170291E+03  0.21916473559E+03  0.23702396083E+04  0.23897654886E+04  0.15294330000E+03 0. -1.
    8880022    1    1    2    0    0  0.14669170291E+03 -0.21916473559E+03 -0.20391326310E+03  0.36677501130E+03  0.15294330000E+03 0.  0.
<mgrwt>
<rscale>  0 0.30486602E+03</rscale>
<asrwt>0</asrwt>
<pdfrwt beam="1">  1        2 0.37868207E+00 0.30486602E+03</pdfrwt>
<pdfrwt beam="2">  1       -2 0.45401089E-01 0.30486602E+03</pdfrwt>
<totfact> 0.19603409E+01</totfact>
</mgrwt>
</event>
<event>
 4    1  0.3365401E-008  0.4484904E+03  0.7818608E-02  0.1028173E+00
          2   -1    0    0  501    0  0.00000000000E+00  0.00000000000E+00  0.20241171229E+04  0.20241171229E+04  0.25500000000E-02 0. -1.
         -2   -1    0    0    0  501 -0.00000000000E+00 -0.00000000000E+00 -0.21808831259E+03  0.21808831260E+03  0.25500000000E-02 0.  1.
    8880022    1    1    2    0    0 -0.36786669346E+03  0.20597597452E+03  0.75869471546E+02  0.45486243631E+03  0.15294330000E+03 0.  0.
    8880022    1    1    2    0    0  0.36786669346E+03 -0.20597597452E+03  0.17301593388E+04  0.17873429992E+04  0.15294330000E+03 0. -1.
<mgrwt>
<rscale>  0 0.44849042E+03</rscale>
<asrwt>0</asrwt>
<pdfrwt beam="1">  1        2 0.31140263E+00 0.44849042E+03</pdfrwt>
<pdfrwt beam="2">  1       -2 0.33552049E-01 0.44849042E+03</pdfrwt>
<totfact> 0.57994895E+01</totfact>
</mgrwt>
</event>
<event>
 4    1  0.3365401E-008  0.6031223E+03  0.7818608E-02  0.9898949E-01
         -2   -1    0    0    0  501 -0.00000000000E+00  0.00000000000E+00  0.52222662533E+03  0.52222662534E+03  0.25500000000E-02 0.  1.
          2   -1    0    0  501    0  0.00000000000E+00 -0.00000000000E+00 -0.22341924691E+04  0.22341924691E+04  0.25500000000E-02 0. -1.
    8880022    1    1    2    0    0 -0.53563219993E+03 -0.23122080539E+03 -0.19993422784E+04  0.20883309397E+04  0.15294330000E+03 0.  0.
    8880022    1    1    2    0    0  0.53563219993E+03  0.23122080539E+03  0.28737643457E+03  0.66808815482E+03  0.15294330000E+03 0.  1.
<mgrwt>
<rscale>  0 0.60312235E+03</rscale>
<asrwt>0</asrwt>
<pdfrwt beam="1">  1        2 0.34372191E+00 0.60312235E+03</pdfrwt>
<pdfrwt beam="2">  1       -2 0.80342559E-01 0.60312235E+03</pdfrwt>
<totfact> 0.72394654E+00</totfact>
</mgrwt>
</event>
<event>
 4    1  0.3365401E-008  0.4732753E+03  0.7818608E-02  0.1021000E+00
         -2   -1    0    0    0  501 -0.00000000000E+00  0.00000000000E+00  0.45555343116E+03  0.45555343117E+03  0.25500000000E-02 0.  1.
          2   -1    0    0  501    0  0.00000000000E+00 -0.00000000000E+00 -0.16811905367E+04  0.16811905367E+04  0.25500000000E-02 0. -1.
    8880022    1    1    2    0    0 -0.15546872365E+03 -0.42003257316E+03 -0.15114817483E+04  0.15838455148E+04  0.15294330000E+03 0.  0.
    8880022    1    1    2    0    0  0.15546872365E+03  0.42003257316E+03  0.28584464273E+03  0.55289845301E+03  0.15294330000E+03 0.  0.
<mgrwt>
<rscale>  0 0.47327533E+03</rscale>
<asrwt>0</asrwt>
<pdfrwt beam="1">  1        2 0.25864469E+00 0.47327533E+03</pdfrwt>
<pdfrwt beam="2">  1       -2 0.70085144E-01 0.47327533E+03</pdfrwt>
<totfact> 0.20017284E+01</totfact>
</mgrwt>
</event>
<event>
 4    1  0.3365401E-008  0.2565423E+03  0.7818608E-02  0.1109239E+00
          2   -1    0    0  501    0  0.00000000000E+00  0.00000000000E+00  0.10380494336E+04  0.10380494336E+04  0.25500000000E-02 0. -1.
         -2   -1    0    0    0  501 -0.00000000000E+00 -0.00000000000E+00 -0.90684188445E+02  0.90684188481E+02  0.25500000000E-02 0.  1.
    8880022    1    1    2    0    0  0.20439291901E+03  0.25413190864E+02  0.16412691062E+03  0.30455145939E+03  0.15294330000E+03 0.  0.
    8880022    1    1    2    0    0 -0.20439291901E+03 -0.25413190864E+02  0.78323833452E+03  0.82418216269E+03  0.15294330000E+03 0.  0.
<mgrwt>
<rscale>  0 0.25654229E+03</rscale>
<asrwt>0</asrwt>
<pdfrwt beam="1">  1        2 0.15969991E+00 0.25654229E+03</pdfrwt>
<pdfrwt beam="2">  1       -2 0.13951414E-01 0.25654229E+03</pdfrwt>
<totfact> 0.96327270E+02</totfact>
</mgrwt>
</event>
<event>
 4    1  0.3365401E-008  0.2762192E+03  0.7818608E-02  0.1097772E+00
          2   -1    0    0  501    0  0.00000000000E+00  0.00000000000E+00  0.11960702653E+03  0.11960702656E+03  0.25500000000E-02 0. -1.
         -2   -1    0    0    0  501 -0.00000000000E+00 -0.00000000000E+00 -0.23887749537E+04  0.23887749537E+04  0.25500000000E-02 0.  1.
    8880022    1    1    2    0    0  0.22934504576E+03 -0.17499922048E+02 -0.22083357644E+04  0.22255435064E+04  0.15294330000E+03 0.  0.
    8880022    1    1    2    0    0 -0.22934504576E+03  0.17499922048E+02 -0.60832162763E+02  0.28283847392E+03  0.15294330000E+03 0. -1.
<mgrwt>
<rscale>  0 0.27621921E+03</rscale>
<asrwt>0</asrwt>
<pdfrwt beam="1">  1        2 0.18401083E-01 0.27621921E+03</pdfrwt>
<pdfrwt beam="2">  1       -2 0.36750380E+00 0.27621921E+03</pdfrwt>
<totfact> 0.44131833E+00</totfact>
</mgrwt>
</event>
<event>
 4    1  0.3365401E-008  0.4158418E+03  0.7818608E-02  0.1038428E+00
         -2   -1    0    0    0  501 -0.00000000000E+00  0.00000000000E+00  0.58298755749E+03  0.58298755750E+03  0.25500000000E-02 0.  1.
          2   -1    0    0  501    0  0.00000000000E+00 -0.00000000000E+00 -0.17698775152E+04  0.17698775152E+04  0.25500000000E-02 0. -1.
    8880022    1    1    2    0    0 -0.33639360204E+03 -0.19071477724E+03 -0.16667794842E+04  0.17178702756E+04  0.15294330000E+03 0.  0.
    8880022    1    1    2    0    0  0.33639360204E+03  0.19071477724E+03  0.47988952648E+03  0.63499479713E+03  0.15294330000E+03 0.  0.
<mgrwt>
<rscale>  0 0.41584184E+03</rscale>
<asrwt>0</asrwt>
<pdfrwt beam="1">  1        2 0.27228885E+00 0.41584184E+03</pdfrwt>
<pdfrwt beam="2">  1       -2 0.89690394E-01 0.41584184E+03</pdfrwt>
<totfact> 0.10499901E+01</totfact>
</mgrwt>
</event>
<event>
 4    1  0.3365401E-008  0.7460623E+03  0.7818608E-02  0.9641548E-01
          2   -1    0    0  501    0  0.00000000000E+00  0.00000000000E+00  0.25014091701E+04  0.25014091701E+04  0.25500000000E-02 0. -1.
         -2   -1    0    0    0  501 -0.00000000000E+00 -0.00000000000E+00 -0.26830599327E+03  0.26830599328E+03  0.25500000000E-02 0.  1.
    8880022    1    1    2    0    0 -0.25044464538E+03 -0.68592623980E+03  0.54446081173E+03  0.92360519454E+03  0.15294330000E+03 0.  0.
    8880022    1    1    2    0    0  0.25044464538E+03  0.68592623980E+03  0.16886423651E+04  0.18461099689E+04  0.15294330000E+03 0.  0.
<mgrwt>
<rscale>  0 0.74606232E+03</rscale>
<asrwt>0</asrwt>
<pdfrwt beam="1">  1        2 0.38483216E+00 0.74606232E+03</pdfrwt>
<pdfrwt beam="2">  1       -2 0.41277847E-01 0.74606232E+03</pdfrwt>
<totfact> 0.20212960E+01</totfact>
</mgrwt>
</event>
<event>
 4    1  0.3365401E-008  0.4261692E+03  0.7818608E-02  0.1035077E+00
         -2   -1    0    0    0  501 -0.00000000000E+00  0.00000000000E+00  0.20640773938E+03  0.20640773940E+03  0.25500000000E-02 0.  1.
          2   -1    0    0  501    0  0.00000000000E+00 -0.00000000000E+00 -0.30878913921E+04  0.30878913921E+04  0.25500000000E-02 0. -1.
    8880022    1    1    2    0    0  0.39009314346E+03  0.77819224160E+02 -0.28335771567E+04  0.28654458027E+04  0.15294330000E+03 0.  0.
    8880022    1    1    2    0    0 -0.39009314346E+03 -0.77819224160E+02 -0.47906495989E+02  0.42885332877E+03  0.15294330000E+03 0.  0.
<mgrwt>
<rscale>  0 0.42616915E+03</rscale>
<asrwt>0</asrwt>
<pdfrwt beam="1">  1        2 0.47506018E+00 0.42616915E+03</pdfrwt>
<pdfrwt beam="2">  1       -2 0.31755039E-01 0.42616915E+03</pdfrwt>
<totfact> 0.16177159E+01</totfact>
</mgrwt>
</event>
<event>
 4    1  0.3365401E-008  0.5292096E+03  0.7818608E-02  0.1006424E+00
          2   -1    0    0  501    0  0.00000000000E+00  0.00000000000E+00  0.13450262570E+04  0.13450262570E+04  0.25500000000E-02 0. -1.
         -2   -1    0    0    0  501 -0.00000000000E+00 -0.00000000000E+00 -0.29671436148E+03  0.29671436149E+03  0.25500000000E-02 0.  1.
    8880022    1    1    2    0    0  0.21608431089E+03 -0.45823436309E+03  0.97244736538E+03  0.11071209023E+04  0.15294330000E+03 0. -1.
    8880022    1    1    2    0    0 -0.21608431089E+03  0.45823436309E+03  0.75864530105E+02  0.53461971613E+03  0.15294330000E+03 0.  0.
<mgrwt>
<rscale>  0 0.52920961E+03</rscale>
<asrwt>0</asrwt>
<pdfrwt beam="1">  1        2 0.20692711E+00 0.52920961E+03</pdfrwt>
<pdfrwt beam="2">  1       -2 0.45648364E-01 0.52920961E+03</pdfrwt>
<totfact> 0.73873965E+01</totfact>
</mgrwt>
</event>
<event>
 4    1  0.3365401E-008  0.9806576E+03  0.7818608E-02  0.9330017E-01
         -2   -1    0    0    0  501 -0.00000000000E+00  0.00000000000E+00  0.39444142500E+03  0.39444142501E+03  0.25500000000E-02 0.  1.
          2   -1    0    0  501    0  0.00000000000E+00 -0.00000000000E+00 -0.26294269842E+04  0.26294269842E+04  0.25500000000E-02 0. -1.
    8880022    1    1    2    0    0  0.91831799176E+03  0.30820401298E+03 -0.15253288788E+04  0.18133718563E+04  0.15294330000E+03 0.  0.
    8880022    1    1    2    0    0 -0.91831799176E+03 -0.30820401298E+03 -0.70965668038E+03  0.12104965529E+04  0.15294330000E+03 0.  0.
<mgrwt>
<rscale>  0 0.98065759E+03</rscale>
<asrwt>0</asrwt>
<pdfrwt beam="1">  1        2 0.40452722E+00 0.98065759E+03</pdfrwt>
<pdfrwt beam="2">  1       -2 0.60683298E-01 0.98065759E+03</pdfrwt>
<totfact> 0.75186148E+00</totfact>
</mgrwt>
</event>
<event>
 4    1  0.3365401E-008  0.3946645E+03  0.7818608E-02  0.1045643E+00
         -2   -1    0    0    0  501 -0.00000000000E+00  0.00000000000E+00  0.14872353861E+03  0.14872353863E+03  0.25500000000E-02 0.  1.
          2   -1    0    0  501    0  0.00000000000E+00 -0.00000000000E+00 -0.17447162165E+04  0.17447162166E+04  0.25500000000E-02 0. -1.
    8880022    1    1    2    0    0  0.36373162047E+03  0.82299365812E+01 -0.13965472682E+04  0.14512423467E+04  0.15294330000E+03 0.  0.
    8880022    1    1    2    0    0 -0.36373162047E+03 -0.82299365812E+01 -0.19944540977E+03  0.44219740850E+03  0.15294330000E+03 0.  0.
<mgrwt>
<rscale>  0 0.39466451E+03</rscale>
<asrwt>0</asrwt>
<pdfrwt beam="1">  1        2 0.26841786E+00 0.39466451E+03</pdfrwt>
<pdfrwt beam="2">  1       -2 0.22880546E-01 0.39466451E+03</pdfrwt>
<totfact> 0.16555491E+02</totfact>
</mgrwt>
</event>
<event>
 4    1  0.3365401E-008  0.4980893E+03  0.7818608E-02  0.1014279E+00
          2   -1    0    0  501    0  0.00000000000E+00  0.00000000000E+00  0.14751028660E+04  0.14751028660E+04  0.25500000000E-02 0. -1.
         -2   -1    0    0    0  501 -0.00000000000E+00 -0.00000000000E+00 -0.55281919142E+03  0.55281919142E+03  0.25500000000E-02 0.  1.
    8880022    1    1    2    0    0 -0.45635393455E+03  0.12822769833E+03  0.13069124776E+04  0.13986111444E+04  0.15294330000E+03 0.  0.
    8880022    1    1    2    0    0  0.45635393455E+03 -0.12822769833E+03 -0.38462880296E+03  0.62931091305E+03  0.15294330000E+03 0.  0.
<mgrwt>
<rscale>  0 0.49808926E+03</rscale>
<asrwt>0</asrwt>
<pdfrwt beam="1">  1        2 0.22693890E+00 0.49808926E+03</pdfrwt>
<pdfrwt beam="2">  1       -2 0.85049108E-01 0.49808926E+03</pdfrwt>
<totfact> 0.16792313E+01</totfact>
</mgrwt>
</event>
<event>
 4    1  0.3365401E-008  0.6608487E+03  0.7818608E-02  0.9786633E-01
         -2   -1    0    0    0  501 -0.00000000000E+00  0.00000000000E+00  0.55185634332E+03  0.55185634332E+03  0.25500000000E-02 0.  1.
          2   -1    0    0  501    0  0.00000000000E+00 -0.00000000000E+00 -0.99215699603E+03  0.99215699604E+03  0.25500000000E-02 0. -1.
    8880022    1    1    2    0    0  0.57603976852E+03 -0.28549532286E+03 -0.56744777871E+03  0.87104421752E+03  0.15294330000E+03 0.  0.
    8880022    1    1    2    0    0 -0.57603976852E+03  0.28549532286E+03  0.12714712599E+03  0.67296912184E+03  0.15294330000E+03 0.  0.
<mgrwt>
<rscale>  0 0.66084873E+03</rscale>
<asrwt>0</asrwt>
<pdfrwt beam="1">  1        2 0.15263954E+00 0.66084873E+03</pdfrwt>
<pdfrwt beam="2">  1       -2 0.84900976E-01 0.66084873E+03</pdfrwt>
<totfact> 0.31565077E+01</totfact>
</mgrwt>
</event>
<event>
 4    1  0.3365401E-008  0.4609433E+03  0.7818608E-02  0.1024508E+00
          2   -1    0    0  501    0  0.00000000000E+00  0.00000000000E+00  0.24628163238E+04  0.24628163238E+04  0.25500000000E-02 0. -1.
         -2   -1    0    0    0  501 -0.00000000000E+00 -0.00000000000E+00 -0.15767663427E+03  0.15767663429E+03  0.25500000000E-02 0.  1.
    8880022    1    1    2    0    0 -0.58006331356E+02  0.43094351505E+03  0.27083761586E+03  0.53462296511E+03  0.15294330000E+03 0.  0.
    8880022    1    1    2    0    0  0.58006331356E+02 -0.43094351505E+03  0.20343020737E+04  0.20858699930E+04  0.15294330000E+03 0.  0.
<mgrwt>
<rscale>  0 0.46094327E+03</rscale>
<asrwt>0</asrwt>
<pdfrwt beam="1">  1        2 0.37889481E+00 0.46094327E+03</pdfrwt>
<pdfrwt beam="2">  1       -2 0.24257945E-01 0.46094327E+03</pdfrwt>
<totfact> 0.60337725E+01</totfact>
</mgrwt>
</event>
<event>
 4    1  0.3365401E-008  0.1793742E+03  0.7818608E-02  0.1168410E+00
          2   -1    0    0  501    0  0.00000000000E+00  0.00000000000E+00  0.11802099285E+04  0.11802099285E+04  0.25500000000E-02 0. -1.
         -2   -1    0    0    0  501 -0.00000000000E+00 -0.00000000000E+00 -0.27849600711E+02  0.27849600828E+02  0.25500000000E-02 0.  1.
    8880022    1    1    2    0    0  0.70182901606E+02 -0.62111142890E+02  0.66390574262E+03  0.68771063816E+03  0.15294330000E+03 0.  0.
    8880022    1    1    2    0    0 -0.70182901606E+02  0.62111142890E+02  0.48845458518E+03  0.52034889118E+03  0.15294330000E+03 0.  0.
<mgrwt>
<rscale>  0 0.17937415E+03</rscale>
<asrwt>0</asrwt>
<pdfrwt beam="1">  1        2 0.18157072E+00 0.17937415E+03</pdfrwt>
<pdfrwt beam="2">  1       -2 0.42845549E-02 0.17937415E+03</pdfrwt>
<totfact> 0.50216403E+03</totfact>
</mgrwt>
</event>
<event>
 4    1  0.3365401E-008  0.3096472E+03  0.7818608E-02  0.1080515E+00
         -2   -1    0    0    0  501 -0.00000000000E+00  0.00000000000E+00  0.28787980368E+03  0.28787980369E+03  0.25500000000E-02 0.  1.
          2   -1    0    0  501    0  0.00000000000E+00 -0.00000000000E+00 -0.12179110471E+04  0.12179110471E+04  0.25500000000E-02 0. -1.
    8880022    1    1    2    0    0  0.21344403720E+03 -0.16410780552E+03  0.17672841749E+03  0.35653094594E+03  0.15294330000E+03 0.  1.
    8880022    1    1    2    0    0 -0.21344403720E+03  0.16410780552E+03 -0.11067596609E+04  0.11492599049E+04  0.15294330000E+03 0.  0.
<mgrwt>
<rscale>  0 0.30964719E+03</rscale>
<asrwt>0</asrwt>
<pdfrwt beam="1">  1        2 0.18737093E+00 0.30964719E+03</pdfrwt>
<pdfrwt beam="2">  1       -2 0.44289201E-01 0.30964719E+03</pdfrwt>
<totfact> 0.95863377E+01</totfact>
</mgrwt>
</event>
<event>
 4    1  0.3365401E-008  0.4158264E+03  0.7818608E-02  0.1038433E+00
         -2   -1    0    0    0  501 -0.00000000000E+00  0.00000000000E+00  0.44858085392E+03  0.44858085392E+03  0.25500000000E-02 0.  1.
          2   -1    0    0  501    0  0.00000000000E+00 -0.00000000000E+00 -0.76160437506E+03  0.76160437506E+03  0.25500000000E-02 0. -1.
    8880022    1    1    2    0    0 -0.29378944332E+03  0.25141143319E+03  0.26872650138E+03  0.49510153636E+03  0.15294330000E+03 0.  0.
    8880022    1    1    2    0    0  0.29378944332E+03 -0.25141143319E+03 -0.58175002252E+03  0.71508369263E+03  0.15294330000E+03 0.  0.
<mgrwt>
<rscale>  0 0.41582640E+03</rscale>
<asrwt>0</asrwt>
<pdfrwt beam="1">  1        2 0.11716990E+00 0.41582640E+03</pdfrwt>
<pdfrwt beam="2">  1       -2 0.69012439E-01 0.41582640E+03</pdfrwt>
<totfact> 0.73636125E+01</totfact>
</mgrwt>
</event>
<event>
 4    1  0.3365401E-008  0.7658256E+03  0.7818608E-02  0.9610845E-01
         -2   -1    0    0    0  501 -0.00000000000E+00  0.00000000000E+00  0.70737039731E+03  0.70737039732E+03  0.25500000000E-02 0.  1.
          2   -1    0    0  501    0  0.00000000000E+00 -0.00000000000E+00 -0.11536237481E+04  0.11536237481E+04  0.25500000000E-02 0. -1.
    8880022    1    1    2    0    0  0.74534806144E+03  0.86910520496E+02  0.27038628796E+03  0.81215612354E+03  0.15294330000E+03 0.  0.
    8880022    1    1    2    0    0 -0.74534806144E+03 -0.86910520496E+02 -0.71663963871E+03  0.10488380218E+04  0.15294330000E+03 0.  0.
<mgrwt>
<rscale>  0 0.76582558E+03</rscale>
<asrwt>0</asrwt>
<pdfrwt beam="1">  1        2 0.17748058E+00 0.76582558E+03</pdfrwt>
<pdfrwt beam="2">  1       -2 0.10882622E+00 0.76582558E+03</pdfrwt>
<totfact> 0.13851841E+01</totfact>
</mgrwt>
</event>
<event>
 4    1  0.3365401E-008  0.6945822E+03  0.7818608E-02  0.9726543E-01
          2   -1    0    0  501    0  0.00000000000E+00  0.00000000000E+00  0.15087638146E+04  0.15087638146E+04  0.25500000000E-02 0. -1.
         -2   -1    0    0    0  501 -0.00000000000E+00 -0.00000000000E+00 -0.78221587606E+03  0.78221587606E+03  0.25500000000E-02 0.  1.
    8880022    1    1    2    0    0  0.16497396476E+03  0.65714255011E+03 -0.51749587202E+03  0.86616763434E+03  0.15294330000E+03 0.  0.
    8880022    1    1    2    0    0 -0.16497396476E+03 -0.65714255011E+03  0.12440438105E+04  0.14248120563E+04  0.15294330000E+03 0. -1.
<mgrwt>
<rscale>  0 0.69458217E+03</rscale>
<asrwt>0</asrwt>
<pdfrwt beam="1">  1        2 0.23211751E+00 0.69458217E+03</pdfrwt>
<pdfrwt beam="2">  1       -2 0.12034091E+00 0.69458217E+03</pdfrwt>
<totfact> 0.68409308E+00</totfact>
</mgrwt>
</event>
<event>
 4    1  0.3365401E-008  0.8838070E+03  0.7818608E-02  0.9446053E-01
         -2   -1    0    0    0  501 -0.00000000000E+00  0.00000000000E+00  0.60893966260E+03  0.60893966261E+03  0.25500000000E-02 0.  1.
          2   -1    0    0  501    0  0.00000000000E+00 -0.00000000000E+00 -0.35892380268E+04  0.35892380268E+04  0.25500000000E-02 0. -1.
    8880022    1    1    2    0    0 -0.76029397706E+02  0.86714624585E+03 -0.31728453184E+04  0.32936396507E+04  0.15294330000E+03 0.  0.
    8880022    1    1    2    0    0  0.76029397706E+02 -0.86714624585E+03  0.19254695417E+03  0.90453803877E+03  0.15294330000E+03 0.  0.
<mgrwt>
<rscale>  0 0.88380696E+03</rscale>
<asrwt>0</asrwt>
<pdfrwt beam="1">  1        2 0.55219045E+00 0.88380696E+03</pdfrwt>
<pdfrwt beam="2">  1       -2 0.93683027E-01 0.88380696E+03</pdfrwt>
<totfact> 0.71754546E-01</totfact>
</mgrwt>
</event>
<event>
 4    1  0.3365401E-008  0.5725075E+03  0.7818608E-02  0.9964145E-01
         -2   -1    0    0    0  501 -0.00000000000E+00  0.00000000000E+00  0.71630305037E+03  0.71630305038E+03  0.25500000000E-02 0.  1.
          2   -1    0    0  501    0  0.00000000000E+00 -0.00000000000E+00 -0.14272700753E+04  0.14272700753E+04  0.25500000000E-02 0. -1.
    8880022    1    1    2    0    0  0.47905837197E+03 -0.27363533634E+03 -0.12389133013E+04  0.13647970700E+04  0.15294330000E+03 0.  0.
    8880022    1    1    2    0    0 -0.47905837197E+03  0.27363533634E+03  0.52794627643E+03  0.77877605566E+03  0.15294330000E+03 0.  0.
<mgrwt>
<rscale>  0 0.57250753E+03</rscale>
<asrwt>0</asrwt>
<pdfrwt beam="1">  1        2 0.21958001E+00 0.57250753E+03</pdfrwt>
<pdfrwt beam="2">  1       -2 0.11020047E+00 0.57250753E+03</pdfrwt>
<totfact> 0.96061098E+00</totfact>
</mgrwt>
</event>
<event>
 4    1  0.3365401E-008  0.1756781E+03  0.7818608E-02  0.1172053E+00
         -2   -1    0    0    0  501 -0.00000000000E+00  0.00000000000E+00  0.42828567015E+02  0.42828567091E+02  0.25500000000E-02 0.  1.
          2   -1    0    0  501    0  0.00000000000E+00 -0.00000000000E+00 -0.26979525247E+04  0.26979525247E+04  0.25500000000E-02 0. -1.
    8880022    1    1    2    0    0 -0.69310861879E+02  0.51644571450E+02 -0.15437331916E+03  0.23386733850E+03  0.15294330000E+03 0.  0.
    8880022    1    1    2    0    0  0.69310861879E+02 -0.51644571450E+02 -0.25007506386E+04  0.25069137533E+04  0.15294330000E+03 0. -1.
<mgrwt>
<rscale>  0 0.17567814E+03</rscale>
<asrwt>0</asrwt>
<pdfrwt beam="1">  1        2 0.41506949E+00 0.17567814E+03</pdfrwt>
<pdfrwt beam="2">  1       -2 0.65890124E-02 0.17567814E+03</pdfrwt>
<totfact> 0.41025914E+02</totfact>
</mgrwt>
</event>
<event>
 4    1  0.3365401E-008  0.9174087E+03  0.7818608E-02  0.9404078E-01
          2   -1    0    0  501    0  0.00000000000E+00  0.00000000000E+00  0.24543527568E+04  0.24543527568E+04  0.25500000000E-02 0. -1.
         -2   -1    0    0    0  501 -0.00000000000E+00 -0.00000000000E+00 -0.65219077458E+03  0.65219077458E+03  0.25500000000E-02 0.  1.
    8880022    1    1    2    0    0  0.57756125226E+03  0.69618253484E+03  0.19707066573E+04  0.21737809237E+04  0.15294330000E+03 0.  0.
    8880022    1    1    2    0    0 -0.57756125226E+03 -0.69618253484E+03 -0.16854467505E+03  0.93276260775E+03  0.15294330000E+03 0.  0.
<mgrwt>
<rscale>  0 0.91740873E+03</rscale>
<asrwt>0</asrwt>
<pdfrwt beam="1">  1        2 0.37759273E+00 0.91740873E+03</pdfrwt>
<pdfrwt beam="2">  1       -2 0.10033704E+00 0.91740873E+03</pdfrwt>
<totfact> 0.30914848E+00</totfact>
</mgrwt>
</event>
<event>
 4    1  0.3365401E-008  0.5708915E+03  0.7818608E-02  0.9967708E-01
         -2   -1    0    0    0  501 -0.00000000000E+00  0.00000000000E+00  0.17730661730E+04  0.17730661731E+04  0.25500000000E-02 0.  1.
          2   -1    0    0  501    0  0.00000000000E+00 -0.00000000000E+00 -0.58759041166E+03  0.58759041167E+03  0.25500000000E-02 0. -1.
    8880022    1    1    2    0    0  0.33388098253E+03  0.43709143539E+03  0.15711799557E+04  0.16716828466E+04  0.15294330000E+03 0.  0.
    8880022    1    1    2    0    0 -0.33388098253E+03 -0.43709143539E+03 -0.38570419427E+03  0.68897373816E+03  0.15294330000E+03 0. -1.
<mgrwt>
<rscale>  0 0.57089148E+03</rscale>
<asrwt>0</asrwt>
<pdfrwt beam="1">  1        2 0.90398525E-01 0.57089148E+03</pdfrwt>
<pdfrwt beam="2">  1       -2 0.27277941E+00 0.57089148E+03</pdfrwt>
<totfact> 0.25323686E+00</totfact>
</mgrwt>
</event>
<event>
 4    1  0.3365401E-008  0.4967400E+03  0.7818608E-02  0.1014633E+00
         -2   -1    0    0    0  501 -0.00000000000E+00  0.00000000000E+00  0.83767951067E+03  0.83767951067E+03  0.25500000000E-02 0.  1.
          2   -1    0    0  501    0  0.00000000000E+00 -0.00000000000E+00 -0.15712744453E+04  0.15712744453E+04  0.25500000000E-02 0. -1.
    8880022    1    1    2    0    0 -0.46156245649E+03  0.10158302548E+03  0.71892442916E+03  0.87384380764E+03  0.15294330000E+03 0.  0.
    8880022    1    1    2    0    0  0.46156245649E+03 -0.10158302548E+03 -0.14525193638E+04  0.15351101484E+04  0.15294330000E+03 0.  0.
<mgrwt>
<rscale>  0 0.49674004E+03</rscale>
<asrwt>0</asrwt>
<pdfrwt beam="1">  1        2 0.24173453E+00 0.49674004E+03</pdfrwt>
<pdfrwt beam="2">  1       -2 0.12887377E+00 0.49674004E+03</pdfrwt>
<totfact> 0.55313451E+00</totfact>
</mgrwt>
</event>
<event>
 4    1  0.3365401E-008  0.6847834E+03  0.7818608E-02  0.9743614E-01
          2   -1    0    0  501    0  0.00000000000E+00  0.00000000000E+00  0.72630094186E+03  0.72630094187E+03  0.25500000000E-02 0. -1.
         -2   -1    0    0    0  501 -0.00000000000E+00 -0.00000000000E+00 -0.11793320708E+04  0.11793320708E+04  0.25500000000E-02 0.  1.
    8880022    1    1    2    0    0  0.51498973016E+03 -0.42464360618E+03  0.41445335293E+03  0.80043728624E+03  0.15294330000E+03 0.  0.
    8880022    1    1    2    0    0 -0.51498973016E+03  0.42464360618E+03 -0.86748448190E+03  0.11051957265E+04  0.15294330000E+03 0.  0.
<mgrwt>
<rscale>  0 0.68478337E+03</rscale>
<asrwt>0</asrwt>
<pdfrwt beam="1">  1        2 0.11173861E+00 0.68478337E+03</pdfrwt>
<pdfrwt beam="2">  1       -2 0.18143570E+00 0.68478337E+03</pdfrwt>
<totfact> 0.71150550E+00</totfact>
</mgrwt>
</event>
<event>
 4    1  0.3365401E-008  0.5798842E+03  0.7818608E-02  0.9948042E-01
         -2   -1    0    0    0  501 -0.00000000000E+00  0.00000000000E+00  0.11383090815E+04  0.11383090815E+04  0.25500000000E-02 0.  1.
          2   -1    0    0  501    0  0.00000000000E+00 -0.00000000000E+00 -0.11587679159E+04  0.11587679159E+04  0.25500000000E-02 0. -1.
    8880022    1    1    2    0    0 -0.52897616631E+03 -0.18181924024E+03  0.98115765800E+03  0.11397087450E+04  0.15294330000E+03 0.  0.
    8880022    1    1    2    0    0  0.52897616631E+03  0.18181924024E+03 -0.10016164924E+04  0.11573682524E+04  0.15294330000E+03 0. -1.
<mgrwt>
<rscale>  0 0.57988419E+03</rscale>
<asrwt>0</asrwt>
<pdfrwt beam="1">  1        2 0.17827199E+00 0.57988419E+03</pdfrwt>
<pdfrwt beam="2">  1       -2 0.17512447E+00 0.57988419E+03</pdfrwt>
<totfact> 0.41393378E+00</totfact>
</mgrwt>
</event>
<event>
 4    1  0.3365401E-008  0.7838426E+03  0.7818608E-02  0.9583703E-01
         -2   -1    0    0    0  501 -0.00000000000E+00  0.00000000000E+00  0.76412358140E+03  0.76412358141E+03  0.25500000000E-02 0.  1.
          2   -1    0    0  501    0  0.00000000000E+00 -0.00000000000E+00 -0.25524108254E+04  0.25524108254E+04  0.25500000000E-02 0. -1.
    8880022    1    1    2    0    0 -0.64796489127E+03  0.41371383028E+03  0.47829269182E+03  0.91824462195E+03  0.15294330000E+03 0.  0.
    8880022    1    1    2    0    0  0.64796489127E+03 -0.41371383028E+03 -0.22665799358E+04  0.23982897849E+04  0.15294330000E+03 0.  0.
<mgrwt>
<rscale>  0 0.78384264E+03</rscale>
<asrwt>0</asrwt>
<pdfrwt beam="1">  1        2 0.39267859E+00 0.78384264E+03</pdfrwt>
<pdfrwt beam="2">  1       -2 0.11755748E+00 0.78384264E+03</pdfrwt>
<totfact> 0.18956012E+00</totfact>
</mgrwt>
</event>
<event>
 4    1  0.3365401E-008  0.7959566E+03  0.7818608E-02  0.9565888E-01
          2   -1    0    0  501    0  0.00000000000E+00  0.00000000000E+00  0.76835912703E+03  0.76835912704E+03  0.25500000000E-02 0. -1.
         -2   -1    0    0    0  501 -0.00000000000E+00 -0.00000000000E+00 -0.13114157792E+04  0.13114157792E+04  0.25500000000E-02 0.  1.
    8880022    1    1    2    0    0  0.39720478072E+03 -0.67259470206E+03 -0.90513952839E+03  0.12053316929E+04  0.15294330000E+03 0.  0.
    8880022    1    1    2    0    0 -0.39720478072E+03  0.67259470206E+03  0.36208287623E+03  0.87444321333E+03  0.15294330000E+03 0.  0.
<mgrwt>
<rscale>  0 0.79595661E+03</rscale>
<asrwt>0</asrwt>
<pdfrwt beam="1">  1        2 0.11820910E+00 0.79595661E+03</pdfrwt>
<pdfrwt beam="2">  1       -2 0.20175627E+00 0.79595661E+03</pdfrwt>
<totfact> 0.47806087E+00</totfact>
</mgrwt>
</event>
<event>
 4    1  0.3365401E-008  0.3676038E+03  0.7818608E-02  0.1055613E+00
         -2   -1    0    0    0  501 -0.00000000000E+00  0.00000000000E+00  0.90886534074E+03  0.90886534074E+03  0.25500000000E-02 0.  1.
          2   -1    0    0  501    0  0.00000000000E+00 -0.00000000000E+00 -0.28910200696E+03  0.28910200697E+03  0.25500000000E-02 0. -1.
    8880022    1    1    2    0    0  0.23023202950E+03 -0.24235116260E+03  0.72733015206E+03  0.81494887971E+03  0.15294330000E+03 0.  0.
    8880022    1    1    2    0    0 -0.23023202950E+03  0.24235116260E+03 -0.10756681829E+03  0.38301846801E+03  0.15294330000E+03 0. -1.
<mgrwt>
<rscale>  0 0.36760376E+03</rscale>
<asrwt>0</asrwt>
<pdfrwt beam="1">  1        2 0.44477232E-01 0.36760376E+03</pdfrwt>
<pdfrwt beam="2">  1       -2 0.13982544E+00 0.36760376E+03</pdfrwt>
<totfact> 0.43057674E+01</totfact>
</mgrwt>
</event>
<event>
 4    1  0.3365401E-008  0.3225248E+03  0.7818608E-02  0.1074493E+00
          2   -1    0    0  501    0  0.00000000000E+00  0.00000000000E+00  0.34872385292E+03  0.34872385293E+03  0.25500000000E-02 0. -1.
         -2   -1    0    0    0  501 -0.00000000000E+00 -0.00000000000E+00 -0.63134385095E+03  0.63134385096E+03  0.25500000000E-02 0.  1.
    8880022    1    1    2    0    0 -0.18036023798E+02  0.28338189108E+03  0.21460615509E+03  0.38739908255E+03  0.15294330000E+03 0.  0.
    8880022    1    1    2    0    0  0.18036023798E+02 -0.28338189108E+03 -0.49722615313E+03  0.59266862133E+03  0.15294330000E+03 0.  0.
<mgrwt>
<rscale>  0 0.32252480E+03</rscale>
<asrwt>0</asrwt>
<pdfrwt beam="1">  1        2 0.53649824E-01 0.32252480E+03</pdfrwt>
<pdfrwt beam="2">  1       -2 0.97129823E-01 0.32252480E+03</pdfrwt>
<totfact> 0.85492778E+01</totfact>
</mgrwt>
</event>
<event>
 4    1  0.3365401E-008  0.1714280E+03  0.7818608E-02  0.1176367E+00
          2   -1    0    0  501    0  0.00000000000E+00  0.00000000000E+00  0.10553312148E+04  0.10553312148E+04  0.25500000000E-02 0. -1.
         -2   -1    0    0    0  501 -0.00000000000E+00 -0.00000000000E+00 -0.50362059298E+03  0.50362059298E+03  0.25500000000E-02 0.  1.
    8880022    1    1    2    0    0  0.76662221235E+02  0.10900368165E+02  0.10334749524E+04  0.10475963175E+04  0.15294330000E+03 0.  0.
    8880022    1    1    2    0    0 -0.76662221235E+02 -0.10900368165E+02 -0.48176433059E+03  0.51135549027E+03  0.15294330000E+03 0.  1.
<mgrwt>
<rscale>  0 0.17142802E+03</rscale>
<asrwt>0</asrwt>
<pdfrwt beam="1">  1        2 0.16235865E+00 0.17142802E+03</pdfrwt>
<pdfrwt beam="2">  1       -2 0.77480092E-01 0.17142802E+03</pdfrwt>
<totfact> 0.38992196E+01</totfact>
</mgrwt>
</event>
<event>
 4    1  0.3365401E-008  0.3466930E+03  0.7818608E-02  0.1063981E+00
         -2   -1    0    0    0  501 -0.00000000000E+00  0.00000000000E+00  0.47275759582E+03  0.47275759582E+03  0.25500000000E-02 0.  1.
          2   -1    0    0  501    0  0.00000000000E+00 -0.00000000000E+00 -0.82026257091E+03  0.82026257091E+03  0.25500000000E-02 0. -1.
    8880022    1    1    2    0    0  0.27696418526E+03  0.14175772554E+03  0.36329657837E+03  0.50217573571E+03  0.15294330000E+03 0.  0.
    8880022    1    1    2    0    0 -0.27696418526E+03 -0.14175772554E+03 -0.71080155346E+03  0.79084443102E+03  0.15294330000E+03 0. -1.
<mgrwt>
<rscale>  0 0.34669304E+03</rscale>
<asrwt>0</asrwt>
<pdfrwt beam="1">  1        2 0.12619424E+00 0.34669304E+03</pdfrwt>
<pdfrwt beam="2">  1       -2 0.72731938E-01 0.34669304E+03</pdfrwt>
<totfact> 0.60318088E+01</totfact>
</mgrwt>
</event>
<event>
 4    1  0.3365401E-008  0.1812281E+03  0.7818608E-02  0.1166620E+00
         -2   -1    0    0    0  501 -0.00000000000E+00  0.00000000000E+00  0.28800872582E+03  0.28800872583E+03  0.25500000000E-02 0.  1.
          2   -1    0    0  501    0  0.00000000000E+00 -0.00000000000E+00 -0.11526839927E+03  0.11526839929E+03  0.25500000000E-02 0. -1.
    8880022    1    1    2    0    0 -0.86463581190E+02 -0.44452513035E+02  0.65528569287E+02  0.19271124304E+03  0.15294330000E+03 0.  1.
    8880022    1    1    2    0    0  0.86463581190E+02  0.44452513035E+02  0.10721175727E+03  0.21056588209E+03  0.15294330000E+03 0. -1.
<mgrwt>
<rscale>  0 0.18122812E+03</rscale>
<asrwt>0</asrwt>
<pdfrwt beam="1">  1        2 0.17733600E-01 0.18122812E+03</pdfrwt>
<pdfrwt beam="2">  1       -2 0.44309035E-01 0.18122812E+03</pdfrwt>
<totfact> 0.15375913E+03</totfact>
</mgrwt>
</event>
<event>
 4    1  0.5860382E-008  0.6952367E+03  0.7818608E-02  0.9725413E-01
          2   -1    0    0  501    0  0.00000000000E+00  0.00000000000E+00  0.30854714713E+04  0.30854714713E+04  0.25500000000E-02 0. -1.
         -2   -1    0    0    0  501 -0.00000000000E+00 -0.00000000000E+00 -0.11266418880E+04  0.11266418880E+04  0.25500000000E-02 0.  1.
    8880022    1    1    2    0    0  0.63816541743E+03  0.22958068391E+03 -0.97474501021E+03  0.11972810357E+04  0.15294330000E+03 0.  0.
    8880022    1    1    2    0    0 -0.63816541743E+03 -0.22958068391E+03  0.29335745935E+04  0.30148323236E+04  0.15294330000E+03 0.  0.
<mgrwt>
<rscale>  0 0.69523668E+03</rscale>
<asrwt>0</asrwt>
<pdfrwt beam="1">  1        2 0.47468791E+00 0.69523668E+03</pdfrwt>
<pdfrwt beam="2">  1       -2 0.17332953E+00 0.69523668E+03</pdfrwt>
<totfact> 0.33862280E-01</totfact>
</mgrwt>
</event>
<event>
 4    1  0.3365401E-008  0.4226661E+03  0.7818608E-02  0.1036202E+00
         -2   -1    0    0    0  501 -0.00000000000E+00  0.00000000000E+00  0.15376710964E+03  0.15376710966E+03  0.25500000000E-02 0.  1.
          2   -1    0    0  501    0  0.00000000000E+00 -0.00000000000E+00 -0.35666045338E+04  0.35666045338E+04  0.25500000000E-02 0. -1.
    8880022    1    1    2    0    0 -0.33049673015E+03 -0.21453876735E+03 -0.32338748373E+04  0.32613790162E+04  0.15294330000E+03 0.  0.
    8880022    1    1    2    0    0  0.33049673015E+03  0.21453876735E+03 -0.17896258689E+03  0.45899262724E+03  0.15294330000E+03 0.  0.
<mgrwt>
<rscale>  0 0.42266609E+03</rscale>
<asrwt>0</asrwt>
<pdfrwt beam="1">  1        2 0.54870833E+00 0.42266609E+03</pdfrwt>
<pdfrwt beam="2">  1       -2 0.23656481E-01 0.42266609E+03</pdfrwt>
<totfact> 0.13562756E+01</totfact>
</mgrwt>
</event>
<event>
 4    1  0.3365401E-008  0.5435650E+03  0.7818608E-02  0.1002994E+00
         -2   -1    0    0    0  501 -0.00000000000E+00  0.00000000000E+00  0.33999451573E+03  0.33999451574E+03  0.25500000000E-02 0.  1.
          2   -1    0    0  501    0  0.00000000000E+00 -0.00000000000E+00 -0.12460209595E+04  0.12460209595E+04  0.25500000000E-02 0. -1.
    8880022    1    1    2    0    0 -0.22822362601E+03  0.46902588266E+03 -0.88921197363E+03  0.10421904284E+04  0.15294330000E+03 0.  0.
    8880022    1    1    2    0    0  0.22822362601E+03 -0.46902588266E+03 -0.16814470104E+02  0.54382504676E+03  0.15294330000E+03 0.  0.
<mgrwt>
<rscale>  0 0.54356504E+03</rscale>
<asrwt>0</asrwt>
<pdfrwt beam="1">  1        2 0.19169553E+00 0.54356504E+03</pdfrwt>
<pdfrwt beam="2">  1       -2 0.52306849E-01 0.54356504E+03</pdfrwt>
<totfact> 0.63822897E+01</totfact>
</mgrwt>
</event>
<event>
 4    1  0.3365401E-008  0.1707954E+03  0.7818608E-02  0.1177021E+00
         -2   -1    0    0    0  501 -0.00000000000E+00  0.00000000000E+00  0.55574731662E+02  0.55574731720E+02  0.25500000000E-02 0.  1.
          2   -1    0    0  501    0  0.00000000000E+00 -0.00000000000E+00 -0.28994409393E+04  0.28994409393E+04  0.25500000000E-02 0. -1.
    8880022    1    1    2    0    0 -0.67038529357E+02 -0.35850359876E+02 -0.27590293596E+04  0.27643107772E+04  0.15294330000E+03 0. -1.
    8880022    1    1    2    0    0  0.67038529357E+02  0.35850359876E+02 -0.84836847988E+02  0.19070489378E+03  0.15294330000E+03 0.  0.
<mgrwt>
<rscale>  0 0.17079539E+03</rscale>
<asrwt>0</asrwt>
<pdfrwt beam="1">  1        2 0.44606772E+00 0.17079539E+03</pdfrwt>
<pdfrwt beam="2">  1       -2 0.85499610E-02 0.17079539E+03</pdfrwt>
<totfact> 0.21157190E+02</totfact>
</mgrwt>
</event>
<event>
 4    1  0.3365401E-008  0.3431665E+03  0.7818608E-02  0.1065455E+00
          2   -1    0    0  501    0  0.00000000000E+00  0.00000000000E+00  0.66578022450E+03  0.66578022451E+03  0.25500000000E-02 0. -1.
         -2   -1    0    0    0  501 -0.00000000000E+00 -0.00000000000E+00 -0.54819149009E+03  0.54819149010E+03  0.25500000000E-02 0.  1.
    8880022    1    1    2    0    0  0.29017569801E+03  0.10084461988E+03 -0.44075867047E+03  0.55859773692E+03  0.15294330000E+03 0.  0.
    8880022    1    1    2    0    0 -0.29017569801E+03 -0.10084461988E+03  0.55834740488E+03  0.65537397769E+03  0.15294330000E+03 0.  0.
<mgrwt>
<rscale>  0 0.34316647E+03</rscale>
<asrwt>0</asrwt>
<pdfrwt beam="1">  1        2 0.10242773E+00 0.34316647E+03</pdfrwt>
<pdfrwt beam="2">  1       -2 0.84337153E-01 0.34316647E+03</pdfrwt>
<totfact> 0.56514463E+01</totfact>
</mgrwt>
</event>
<event>
 4    1  0.3365401E-008  0.4722156E+03  0.7818608E-02  0.1021297E+00
         -2   -1    0    0    0  501 -0.00000000000E+00  0.00000000000E+00  0.19777153150E+03  0.19777153152E+03  0.25500000000E-02 0.  1.
          2   -1    0    0  501    0  0.00000000000E+00 -0.00000000000E+00 -0.18135083409E+04  0.18135083409E+04  0.25500000000E-02 0. -1.
    8880022    1    1    2    0    0  0.21033799898E+03  0.39414947921E+03 -0.18935771217E+03  0.50876702129E+03  0.15294330000E+03 0.  0.
    8880022    1    1    2    0    0 -0.21033799898E+03 -0.39414947921E+03 -0.14263790972E+04  0.15025128511E+04  0.15294330000E+03 0.  0.
<mgrwt>
<rscale>  0 0.47221556E+03</rscale>
<asrwt>0</asrwt>
<pdfrwt beam="1">  1        2 0.27900127E+00 0.47221556E+03</pdfrwt>
<pdfrwt beam="2">  1       -2 0.30426391E-01 0.47221556E+03</pdfrwt>
<totfact> 0.89834229E+01</totfact>
</mgrwt>
</event>
<event>
 4    1  0.3365401E-008  0.3986463E+03  0.7818608E-02  0.1044249E+00
         -2   -1    0    0    0  501 -0.00000000000E+00  0.00000000000E+00  0.28946408604E+03  0.28946408605E+03  0.25500000000E-02 0.  1.
          2   -1    0    0  501    0  0.00000000000E+00 -0.00000000000E+00 -0.10624193407E+04  0.10624193407E+04  0.25500000000E-02 0. -1.
    8880022    1    1    2    0    0 -0.97247617195E+02 -0.35506349346E+03  0.83408815928E+02  0.40727861106E+03  0.15294330000E+03 0.  0.
    8880022    1    1    2    0    0  0.97247617195E+02  0.35506349346E+03 -0.85636407061E+03  0.94460481572E+03  0.15294330000E+03 0. -1.
<mgrwt>
<rscale>  0 0.39864625E+03</rscale>
<asrwt>0</asrwt>
<pdfrwt beam="1">  1        2 0.16344913E+00 0.39864625E+03</pdfrwt>
<pdfrwt beam="2">  1       -2 0.44532937E-01 0.39864625E+03</pdfrwt>
<totfact> 0.11534190E+02</totfact>
</mgrwt>
</event>
<event>
 4    1  0.3365401E-008  0.2792274E+03  0.7818608E-02  0.1096112E+00
          2   -1    0    0  501    0  0.00000000000E+00  0.00000000000E+00  0.87625166161E+03  0.87625166162E+03  0.25500000000E-02 0. -1.
         -2   -1    0    0    0  501 -0.00000000000E+00 -0.00000000000E+00 -0.13647576361E+03  0.13647576363E+03  0.25500000000E-02 0.  1.
    8880022    1    1    2    0    0 -0.56556580876E+02  0.22666632895E+03  0.66860993921E+03  0.72457378875E+03  0.15294330000E+03 0.  0.
    8880022    1    1    2    0    0  0.56556580876E+02 -0.22666632895E+03  0.71165958796E+02  0.28815363649E+03  0.15294330000E+03 0.  0.
<mgrwt>
<rscale>  0 0.27922737E+03</rscale>
<asrwt>0</asrwt>
<pdfrwt beam="1">  1        2 0.13480795E+00 0.27922737E+03</pdfrwt>
<pdfrwt beam="2">  1       -2 0.20996272E-01 0.27922737E+03</pdfrwt>
<totfact> 0.61083137E+02</totfact>
</mgrwt>
</event>
<event>
 4    1  0.3365401E-008  0.6925874E+03  0.7818608E-02  0.9729993E-01
          2   -1    0    0  501    0  0.00000000000E+00  0.00000000000E+00  0.11232818255E+04  0.11232818255E+04  0.25500000000E-02 0. -1.
         -2   -1    0    0    0  501 -0.00000000000E+00 -0.00000000000E+00 -0.88751164256E+03  0.88751164256E+03  0.25500000000E-02 0.  1.
    8880022    1    1    2    0    0 -0.26800547594E+03 -0.62004734028E+03 -0.60631013016E+03  0.92048317001E+03  0.15294330000E+03 0.  0.
    8880022    1    1    2    0    0  0.26800547594E+03  0.62004734028E+03  0.84208031309E+03  0.10903102980E+04  0.15294330000E+03 0.  0.
<mgrwt>
<rscale>  0 0.69258739E+03</rscale>
<asrwt>0</asrwt>
<pdfrwt beam="1">  1        2 0.17281259E+00 0.69258739E+03</pdfrwt>
<pdfrwt beam="2">  1       -2 0.13654025E+00 0.69258739E+03</pdfrwt>
<totfact> 0.82968927E+00</totfact>
</mgrwt>
</event>
<event>
 4    1  0.3365401E-008  0.1598483E+03  0.7818608E-02  0.1188868E+00
          2   -1    0    0  501    0  0.00000000000E+00  0.00000000000E+00  0.12970337101E+04  0.12970337101E+04  0.25500000000E-02 0. -1.
         -2   -1    0    0    0  501 -0.00000000000E+00 -0.00000000000E+00 -0.44111081141E+03  0.44111081141E+03  0.25500000000E-02 0.  1.
    8880022    1    1    2    0    0  0.41823394363E+02 -0.20264285073E+02 -0.42148284387E+03  0.45077630623E+03  0.15294330000E+03 0.  0.
    8880022    1    1    2    0    0 -0.41823394363E+02  0.20264285073E+02  0.12774057426E+04  0.12873682153E+04  0.15294330000E+03 0. -1.
<mgrwt>
<rscale>  0 0.15984834E+03</rscale>
<asrwt>0</asrwt>
<pdfrwt beam="1">  1        2 0.19954365E+00 0.15984834E+03</pdfrwt>
<pdfrwt beam="2">  1       -2 0.67863203E-01 0.15984834E+03</pdfrwt>
<totfact> 0.38079159E+01</totfact>
</mgrwt>
</event>
<event>
 4    1  0.3365401E-008  0.1919837E+03  0.7818608E-02  0.1156684E+00
          2   -1    0    0  501    0  0.00000000000E+00  0.00000000000E+00  0.20137152291E+04  0.20137152291E+04  0.25500000000E-02 0. -1.
         -2   -1    0    0    0  501 -0.00000000000E+00 -0.00000000000E+00 -0.11636171603E+03  0.11636171605E+03  0.25500000000E-02 0.  1.
    8880022    1    1    2    0    0 -0.11588904738E+03 -0.59844844894E+01  0.19263698775E+04  0.19359128708E+04  0.15294330000E+03 0.  0.
    8880022    1    1    2    0    0  0.11588904738E+03  0.59844844894E+01 -0.29016364414E+02  0.19416407437E+03  0.15294330000E+03 0.  1.
<mgrwt>
<rscale>  0 0.19198369E+03</rscale>
<asrwt>0</asrwt>
<pdfrwt beam="1">  1        2 0.30980233E+00 0.19198369E+03</pdfrwt>
<pdfrwt beam="2">  1       -2 0.17901803E-01 0.19198369E+03</pdfrwt>
<totfact> 0.19127150E+02</totfact>
</mgrwt>
</event>
<event>
 4    1  0.3365401E-008  0.5063000E+03  0.7818608E-02  0.1012147E+00
         -2   -1    0    0    0  501 -0.00000000000E+00  0.00000000000E+00  0.79836583738E+03  0.79836583739E+03  0.25500000000E-02 0.  1.
          2   -1    0    0  501    0  0.00000000000E+00 -0.00000000000E+00 -0.44546995858E+03  0.44546995858E+03  0.25500000000E-02 0. -1.
    8880022    1    1    2    0    0 -0.43526989559E+03  0.20853823084E+03 -0.15218839320E+03  0.52867857510E+03  0.15294330000E+03 0.  0.
    8880022    1    1    2    0    0  0.43526989559E+03 -0.20853823084E+03  0.50508427201E+03  0.71515722088E+03  0.15294330000E+03 0.  0.
<mgrwt>
<rscale>  0 0.50630004E+03</rscale>
<asrwt>0</asrwt>
<pdfrwt beam="1">  1        2 0.68533840E-01 0.50630004E+03</pdfrwt>
<pdfrwt beam="2">  1       -2 0.12282551E+00 0.50630004E+03</pdfrwt>
<totfact> 0.36425988E+01</totfact>
</mgrwt>
</event>
<event>
 4    1  0.3365401E-008  0.5834336E+03  0.7818608E-02  0.9940385E-01
         -2   -1    0    0    0  501 -0.00000000000E+00  0.00000000000E+00  0.11547676815E+04  0.11547676815E+04  0.25500000000E-02 0.  1.
          2   -1    0    0  501    0  0.00000000000E+00 -0.00000000000E+00 -0.60805031617E+03  0.60805031617E+03  0.25500000000E-02 0. -1.
    8880022    1    1    2    0    0  0.13995096422E+03  0.54535932695E+03  0.90602099351E+03  0.10776218082E+04  0.15294330000E+03 0.  0.
    8880022    1    1    2    0    0 -0.13995096422E+03 -0.54535932695E+03 -0.35930362814E+03  0.68519618948E+03  0.15294330000E+03 0.  0.
<mgrwt>
<rscale>  0 0.58343356E+03</rscale>
<asrwt>0</asrwt>
<pdfrwt beam="1">  1        2 0.93546203E-01 0.58343356E+03</pdfrwt>
<pdfrwt beam="2">  1       -2 0.17765657E+00 0.58343356E+03</pdfrwt>
<totfact> 0.95392115E+00</totfact>
</mgrwt>
</event>
<event>
 4    1  0.3365401E-008  0.3751040E+03  0.7818608E-02  0.1052758E+00
          2   -1    0    0  501    0  0.00000000000E+00  0.00000000000E+00  0.89382767027E+03  0.89382767028E+03  0.25500000000E-02 0. -1.
         -2   -1    0    0    0  501 -0.00000000000E+00 -0.00000000000E+00 -0.21520242181E+03  0.21520242183E+03  0.25500000000E-02 0.  1.
    8880022    1    1    2    0    0  0.30104968373E+03 -0.16334155546E+03  0.51968977921E+02  0.37868694656E+03  0.15294330000E+03 0.  0.
    8880022    1    1    2    0    0 -0.30104968373E+03  0.16334155546E+03  0.62665627054E+03  0.73034314554E+03  0.15294330000E+03 0.  0.
<mgrwt>
<rscale>  0 0.37510402E+03</rscale>
<asrwt>0</asrwt>
<pdfrwt beam="1">  1        2 0.13751195E+00 0.37510402E+03</pdfrwt>
<pdfrwt beam="2">  1       -2 0.33108065E-01 0.37510402E+03</pdfrwt>
<totfact> 0.26073799E+02</totfact>
</mgrwt>
</event>
<event>
 4    1  0.3365401E-008  0.1541147E+04  0.7818608E-02  0.8857543E-01
         -2   -1    0    0    0  501 -0.00000000000E+00  0.00000000000E+00  0.12971597238E+04  0.12971597238E+04  0.25500000000E-02 0.  1.
          2   -1    0    0  501    0  0.00000000000E+00 -0.00000000000E+00 -0.20362936667E+04  0.20362936667E+04  0.25500000000E-02 0. -1.
    8880022    1    1    2    0    0  0.15066981698E+04  0.28565987647E+03  0.15961487585E+03  0.15493900418E+04  0.15294330000E+03 0.  0.
    8880022    1    1    2    0    0 -0.15066981698E+04 -0.28565987647E+03 -0.89874881880E+03  0.17840633487E+04  0.15294330000E+03 0.  0.
<mgrwt>
<rscale>  0 0.15411465E+04</rscale>
<asrwt>0</asrwt>
<pdfrwt beam="1">  1        2 0.31327595E+00 0.15411465E+04</pdfrwt>
<pdfrwt beam="2">  1       -2 0.19956303E+00 0.15411465E+04</pdfrwt>
<totfact> 0.79877375E-01</totfact>
</mgrwt>
</event>
<event>
 4    1  0.3365401E-008  0.9081938E+03  0.7818608E-02  0.9415396E-01
         -2   -1    0    0    0  501 -0.00000000000E+00  0.00000000000E+00  0.16014210831E+04  0.16014210831E+04  0.25500000000E-02 0.  1.
          2   -1    0    0  501    0  0.00000000000E+00 -0.00000000000E+00 -0.82829846860E+03  0.82829846860E+03  0.25500000000E-02 0. -1.
    8880022    1    1    2    0    0 -0.61100740678E+02 -0.89313550608E+03 -0.36053303186E+03  0.97713870704E+03  0.15294330000E+03 0.  0.
    8880022    1    1    2    0    0  0.61100740678E+02  0.89313550608E+03  0.11336556463E+04  0.14525808446E+04  0.15294330000E+03 0.  0.
<mgrwt>
<rscale>  0 0.90819380E+03</rscale>
<asrwt>0</asrwt>
<pdfrwt beam="1">  1        2 0.12743054E+00 0.90819380E+03</pdfrwt>
<pdfrwt beam="2">  1       -2 0.24637247E+00 0.90819380E+03</pdfrwt>
<totfact> 0.22424692E+00</totfact>
</mgrwt>
</event>
<event>
 4    1  0.3365401E-008  0.7759516E+03  0.7818608E-02  0.9595494E-01
          2   -1    0    0  501    0  0.00000000000E+00  0.00000000000E+00  0.13525746973E+04  0.13525746973E+04  0.25500000000E-02 0. -1.
         -2   -1    0    0    0  501 -0.00000000000E+00 -0.00000000000E+00 -0.16950032605E+04  0.16950032605E+04  0.25500000000E-02 0.  1.
    8880022    1    1    2    0    0 -0.66737435510E+03  0.36513099036E+03 -0.14796994093E+04  0.16708115288E+04  0.15294330000E+03 0.  0.
    8880022    1    1    2    0    0  0.66737435510E+03 -0.36513099036E+03  0.11372708460E+04  0.13767664291E+04  0.15294330000E+03 0.  0.
<mgrwt>
<rscale>  0 0.77595156E+03</rscale>
<asrwt>0</asrwt>
<pdfrwt beam="1">  1        2 0.20808841E+00 0.77595156E+03</pdfrwt>
<pdfrwt beam="2">  1       -2 0.26076973E+00 0.77595156E+03</pdfrwt>
<totfact> 0.88176013E-01</totfact>
</mgrwt>
</event>
<event>
 4    1  0.3365401E-008  0.5149712E+03  0.7818608E-02  0.1009943E+00
         -2   -1    0    0    0  501 -0.00000000000E+00  0.00000000000E+00  0.14110382223E+03  0.14110382225E+03  0.25500000000E-02 0.  1.
          2   -1    0    0  501    0  0.00000000000E+00 -0.00000000000E+00 -0.25051136467E+04  0.25051136467E+04  0.25500000000E-02 0. -1.
    8880022    1    1    2    0    0 -0.63844041799E+02  0.48757317938E+03 -0.18432429625E+04  0.19138286074E+04  0.15294330000E+03 0.  0.
    8880022    1    1    2    0    0  0.63844041799E+02 -0.48757317938E+03 -0.52076686203E+03  0.73238886155E+03  0.15294330000E+03 0.  0.
<mgrwt>
<rscale>  0 0.51497118E+03</rscale>
<asrwt>0</asrwt>
<pdfrwt beam="1">  1        2 0.38540207E+00 0.51497118E+03</pdfrwt>
<pdfrwt beam="2">  1       -2 0.21708282E-01 0.51497118E+03</pdfrwt>
<totfact> 0.68805437E+01</totfact>
</mgrwt>
</event>
<event>
 4    1  0.3365401E-008  0.9027336E+03  0.7818608E-02  0.9422171E-01
          2   -1    0    0  501    0  0.00000000000E+00  0.00000000000E+00  0.11591877602E+04  0.11591877602E+04  0.25500000000E-02 0. -1.
         -2   -1    0    0    0  501 -0.00000000000E+00 -0.00000000000E+00 -0.99388971666E+03  0.99388971666E+03  0.25500000000E-02 0.  1.
    8880022    1    1    2    0    0  0.70696449536E+03 -0.54012736882E+03 -0.49973907871E+03  0.10318271038E+04  0.15294330000E+03 0.  0.
    8880022    1    1    2    0    0 -0.70696449536E+03  0.54012736882E+03  0.66503712228E+03  0.11212503731E+04  0.15294330000E+03 0.  0.
<mgrwt>
<rscale>  0 0.90273364E+03</rscale>
<asrwt>0</asrwt>
<pdfrwt beam="1">  1        2 0.17833658E+00 0.90273364E+03</pdfrwt>
<pdfrwt beam="2">  1       -2 0.15290611E+00 0.90273364E+03</pdfrwt>
<totfact> 0.57158005E+00</totfact>
</mgrwt>
</event>
<event>
 4    1  0.3365401E-008  0.2542788E+03  0.7818608E-02  0.1110630E+00
          2   -1    0    0  501    0  0.00000000000E+00  0.00000000000E+00  0.14863446671E+04  0.14863446671E+04  0.25500000000E-02 0. -1.
         -2   -1    0    0    0  501 -0.00000000000E+00 -0.00000000000E+00 -0.17713549624E+03  0.17713549626E+03  0.25500000000E-02 0.  1.
    8880022    1    1    2    0    0  0.19348969040E+03  0.61869006968E+02 -0.67822290934E+02  0.26316829307E+03  0.15294330000E+03 0.  0.
    8880022    1    1    2    0    0 -0.19348969040E+03 -0.61869006968E+02  0.13770314618E+04  0.14003118703E+04  0.15294330000E+03 0.  0.
<mgrwt>
<rscale>  0 0.25427876E+03</rscale>
<asrwt>0</asrwt>
<pdfrwt beam="1">  1        2 0.22866840E+00 0.25427876E+03</pdfrwt>
<pdfrwt beam="2">  1       -2 0.27251616E-01 0.25427876E+03</pdfrwt>
<totfact> 0.17130143E+02</totfact>
</mgrwt>
</event>
<event>
 4    1  0.3365401E-008  0.2857718E+03  0.7818608E-02  0.1092578E+00
         -2   -1    0    0    0  501 -0.00000000000E+00  0.00000000000E+00  0.14917386347E+03  0.14917386349E+03  0.25500000000E-02 0.  1.
          2   -1    0    0  501    0  0.00000000000E+00 -0.00000000000E+00 -0.36977187562E+04  0.36977187562E+04  0.25500000000E-02 0. -1.
    8880022    1    1    2    0    0 -0.21611506408E+03  0.10755532420E+03 -0.35496339517E+04  0.35611187445E+04  0.15294330000E+03 0.  0.
    8880022    1    1    2    0    0  0.21611506408E+03 -0.10755532420E+03  0.10890589112E+01  0.28577387520E+03  0.15294330000E+03 0.  1.
<mgrwt>
<rscale>  0 0.28577180E+03</rscale>
<asrwt>0</asrwt>
<pdfrwt beam="1">  1        2 0.56887974E+00 0.28577180E+03</pdfrwt>
<pdfrwt beam="2">  1       -2 0.22949828E-01 0.28577180E+03</pdfrwt>
<totfact> 0.12315341E+01</totfact>
</mgrwt>
</event>
<event>
 4    1  0.3365401E-008  0.1127884E+04  0.7818608E-02  0.9178433E-01
         -2   -1    0    0    0  501 -0.00000000000E+00  0.00000000000E+00  0.11465231759E+04  0.11465231759E+04  0.25500000000E-02 0.  1.
          2   -1    0    0  501    0  0.00000000000E+00 -0.00000000000E+00 -0.22412374748E+04  0.22412374748E+04  0.25500000000E-02 0. -1.
    8880022    1    1    2    0    0  0.11013248130E+04  0.18924552085E+03  0.65629925291E+03  0.13049331681E+04  0.15294330000E+03 0.  0.
    8880022    1    1    2    0    0 -0.11013248130E+04 -0.18924552085E+03 -0.17510135518E+04  0.20828274826E+04  0.15294330000E+03 0.  0.
<mgrwt>
<rscale>  0 0.11278838E+04</rscale>
<asrwt>0</asrwt>
<pdfrwt beam="1">  1        2 0.34480577E+00 0.11278838E+04</pdfrwt>
<pdfrwt beam="2">  1       -2 0.17638818E+00 0.11278838E+04</pdfrwt>
<totfact> 0.92428216E-01</totfact>
</mgrwt>
</event>
<event>
 4    1  0.3365401E-008  0.3418178E+03  0.7818608E-02  0.1066024E+00
         -2   -1    0    0    0  501 -0.00000000000E+00  0.00000000000E+00  0.12754285273E+04  0.12754285273E+04  0.25500000000E-02 0.  1.
          2   -1    0    0  501    0  0.00000000000E+00 -0.00000000000E+00 -0.22247281221E+04  0.22247281221E+04  0.25500000000E-02 0. -1.
    8880022    1    1    2    0    0 -0.20089024946E+03  0.23041448290E+03 -0.21883177540E+04  0.22148530362E+04  0.15294330000E+03 0.  0.
    8880022    1    1    2    0    0  0.20089024946E+03 -0.23041448290E+03  0.12390181592E+04  0.12853036132E+04  0.15294330000E+03 0.  0.
<mgrwt>
<rscale>  0 0.34181776E+03</rscale>
<asrwt>0</asrwt>
<pdfrwt beam="1">  1        2 0.34226586E+00 0.34181776E+03</pdfrwt>
<pdfrwt beam="2">  1       -2 0.19621977E+00 0.34181776E+03</pdfrwt>
<totfact> 0.84302060E-01</totfact>
</mgrwt>
</event>
<event>
 4    1  0.3365401E-008  0.4349277E+03  0.7818608E-02  0.1032315E+00
         -2   -1    0    0    0  501 -0.00000000000E+00  0.00000000000E+00  0.34970125977E+03  0.34970125978E+03  0.25500000000E-02 0.  1.
          2   -1    0    0  501    0  0.00000000000E+00 -0.00000000000E+00 -0.74312272550E+03  0.74312272550E+03  0.25500000000E-02 0. -1.
    8880022    1    1    2    0    0 -0.19821523133E+03 -0.35564190261E+03  0.88311192109E+02  0.44380283966E+03  0.15294330000E+03 0.  1.
    8880022    1    1    2    0    0  0.19821523133E+03  0.35564190261E+03 -0.48173265784E+03  0.64902114562E+03  0.15294330000E+03 0.  0.
<mgrwt>
<rscale>  0 0.43492769E+03</rscale>
<asrwt>0</asrwt>
<pdfrwt beam="1">  1        2 0.11432657E+00 0.43492769E+03</pdfrwt>
<pdfrwt beam="2">  1       -2 0.53800194E-01 0.43492769E+03</pdfrwt>
<totfact> 0.12793398E+02</totfact>
</mgrwt>
</event>
<event>
 4    1  0.3365401E-008  0.6180416E+03  0.7818608E-02  0.9868667E-01
         -2   -1    0    0    0  501 -0.00000000000E+00  0.00000000000E+00  0.18162421921E+03  0.18162421923E+03  0.25500000000E-02 0.  1.
          2   -1    0    0  501    0  0.00000000000E+00 -0.00000000000E+00 -0.26801549308E+04  0.26801549308E+04  0.25500000000E-02 0. -1.
    8880022    1    1    2    0    0  0.30553831549E+03  0.51500490938E+03 -0.58532099176E+03  0.85122032126E+03  0.15294330000E+03 0.  1.
    8880022    1    1    2    0    0 -0.30553831549E+03 -0.51500490938E+03 -0.19132097198E+04  0.20105588288E+04  0.15294330000E+03 0.  0.
<mgrwt>
<rscale>  0 0.61804156E+03</rscale>
<asrwt>0</asrwt>
<pdfrwt beam="1">  1        2 0.41233150E+00 0.61804156E+03</pdfrwt>
<pdfrwt beam="2">  1       -2 0.27942190E-01 0.61804156E+03</pdfrwt>
<totfact> 0.34150041E+01</totfact>
</mgrwt>
</event>
<event>
 4    1  0.3365401E-008  0.4043950E+03  0.7818608E-02  0.1042268E+00
          2   -1    0    0  501    0  0.00000000000E+00  0.00000000000E+00  0.32447016380E+04  0.32447016380E+04  0.25500000000E-02 0. -1.
         -2   -1    0    0    0  501 -0.00000000000E+00 -0.00000000000E+00 -0.81124437123E+03  0.81124437123E+03  0.25500000000E-02 0.  1.
    8880022    1    1    2    0    0 -0.23072582675E+03 -0.29480372732E+03 -0.74723766913E+03  0.84964665124E+03  0.15294330000E+03 0.  1.
    8880022    1    1    2    0    0  0.23072582675E+03  0.29480372732E+03  0.31806949359E+04  0.32062993580E+04  0.15294330000E+03 0.  0.
<mgrwt>
<rscale>  0 0.40439498E+03</rscale>
<asrwt>0</asrwt>
<pdfrwt beam="1">  1        2 0.49918487E+00 0.40439498E+03</pdfrwt>
<pdfrwt beam="2">  1       -2 0.12480683E+00 0.40439498E+03</pdfrwt>
<totfact> 0.70505267E-01</totfact>
</mgrwt>
</event>
<event>
 4    1  0.3365401E-008  0.8461079E+03  0.7818608E-02  0.9495576E-01
          2   -1    0    0  501    0  0.00000000000E+00  0.00000000000E+00  0.10582413020E+04  0.10582413020E+04  0.25500000000E-02 0. -1.
         -2   -1    0    0    0  501 -0.00000000000E+00 -0.00000000000E+00 -0.18486450995E+04  0.18486450995E+04  0.25500000000E-02 0.  1.
    8880022    1    1    2    0    0 -0.41722819571E+03 -0.72001912259E+03 -0.15525453952E+04  0.17681334116E+04  0.15294330000E+03 0.  0.
    8880022    1    1    2    0    0  0.41722819571E+03  0.72001912259E+03  0.76214159767E+03  0.11387529899E+04  0.15294330000E+03 0.  0.
<mgrwt>
<rscale>  0 0.84610789E+03</rscale>
<asrwt>0</asrwt>
<pdfrwt beam="1">  1        2 0.16280635E+00 0.84610789E+03</pdfrwt>
<pdfrwt beam="2">  1       -2 0.28440694E+00 0.84610789E+03</pdfrwt>
<totfact> 0.93887207E-01</totfact>
</mgrwt>
</event>
<event>
 4    1  0.3365401E-008  0.1771923E+03  0.7818608E-02  0.1170548E+00
          2   -1    0    0  501    0  0.00000000000E+00  0.00000000000E+00  0.61687057005E+03  0.61687057006E+03  0.25500000000E-02 0. -1.
         -2   -1    0    0    0  501 -0.00000000000E+00 -0.00000000000E+00 -0.63649318521E+02  0.63649318572E+02  0.25500000000E-02 0.  1.
    8880022    1    1    2    0    0 -0.33437028199E+02  0.82990571326E+02  0.42891111843E+03  0.46407097551E+03  0.15294330000E+03 0. -1.
    8880022    1    1    2    0    0  0.33437028199E+02 -0.82990571326E+02  0.12431013310E+03  0.21644891312E+03  0.15294330000E+03 0.  1.
<mgrwt>
<rscale>  0 0.17719233E+03</rscale>
<asrwt>0</asrwt>
<pdfrwt beam="1">  1        2 0.94903162E-01 0.17719233E+03</pdfrwt>
<pdfrwt beam="2">  1       -2 0.97922031E-02 0.17719233E+03</pdfrwt>
<totfact> 0.32985430E+03</totfact>
</mgrwt>
</event>
<event>
 4    1  0.3365401E-008  0.1761313E+03  0.7818608E-02  0.1171601E+00
         -2   -1    0    0    0  501 -0.00000000000E+00  0.00000000000E+00  0.24094802334E+02  0.24094802469E+02  0.25500000000E-02 0.  1.
          2   -1    0    0  501    0  0.00000000000E+00 -0.00000000000E+00 -0.24360541665E+04  0.24360541665E+04  0.25500000000E-02 0. -1.
    8880022    1    1    2    0    0  0.31666593052E+02  0.81411377262E+02 -0.20506014402E+04  0.20581517207E+04  0.15294330000E+03 0. -1.
    8880022    1    1    2    0    0 -0.31666593052E+02 -0.81411377262E+02 -0.36135792394E+03  0.40199724834E+03  0.15294330000E+03 0.  0.
<mgrwt>
<rscale>  0 0.17613131E+03</rscale>
<asrwt>0</asrwt>
<pdfrwt beam="1">  1        2 0.37477737E+00 0.17613131E+03</pdfrwt>
<pdfrwt beam="2">  1       -2 0.37068946E-02 0.17613131E+03</pdfrwt>
<totfact> 0.13584251E+03</totfact>
</mgrwt>
</event>
<event>
 4    1  0.3365401E-008  0.3751484E+03  0.7818608E-02  0.1052742E+00
          2   -1    0    0  501    0  0.00000000000E+00  0.00000000000E+00  0.14927946410E+03  0.14927946412E+03  0.25500000000E-02 0. -1.
         -2   -1    0    0    0  501 -0.00000000000E+00 -0.00000000000E+00 -0.11301071925E+04  0.11301071925E+04  0.25500000000E-02 0.  1.
    8880022    1    1    2    0    0  0.32946131382E+03  0.93807852654E+02 -0.22996465134E+03  0.44002279987E+03  0.15294330000E+03 0.  0.
    8880022    1    1    2    0    0 -0.32946131382E+03 -0.93807852654E+02 -0.75086307707E+03  0.83936385677E+03  0.15294330000E+03 0.  0.
<mgrwt>
<rscale>  0 0.37514840E+03</rscale>
<asrwt>0</asrwt>
<pdfrwt beam="1">  1        2 0.22966072E-01 0.37514840E+03</pdfrwt>
<pdfrwt beam="2">  1       -2 0.17386264E+00 0.37514840E+03</pdfrwt>
<totfact> 0.50368966E+01</totfact>
</mgrwt>
</event>
<event>
 4    1  0.3365401E-008  0.5711641E+03  0.7818608E-02  0.9967106E-01
         -2   -1    0    0    0  501 -0.00000000000E+00  0.00000000000E+00  0.11655802454E+04  0.11655802454E+04  0.25500000000E-02 0.  1.
          2   -1    0    0  501    0  0.00000000000E+00 -0.00000000000E+00 -0.55691028791E+03  0.55691028791E+03  0.25500000000E-02 0. -1.
    8880022    1    1    2    0    0  0.54948572084E+03 -0.30037382785E+02  0.91176173276E+03  0.10758893587E+04  0.15294330000E+03 0.  0.
    8880022    1    1    2    0    0 -0.54948572084E+03  0.30037382785E+02 -0.30309177528E+03  0.64660117463E+03  0.15294330000E+03 0.  0.
<mgrwt>
<rscale>  0 0.57116412E+03</rscale>
<asrwt>0</asrwt>
<pdfrwt beam="1">  1        2 0.85678505E-01 0.57116412E+03</pdfrwt>
<pdfrwt beam="2">  1       -2 0.17932004E+00 0.57116412E+03</pdfrwt>
<totfact> 0.10332939E+01</totfact>
</mgrwt>
</event>
<event>
 4    1  0.3365401E-008  0.4718732E+03  0.7818608E-02  0.1021393E+00
         -2   -1    0    0    0  501 -0.00000000000E+00  0.00000000000E+00  0.26932252254E+03  0.26932252255E+03  0.25500000000E-02 0.  1.
          2   -1    0    0  501    0  0.00000000000E+00 -0.00000000000E+00 -0.16656016322E+04  0.16656016322E+04  0.25500000000E-02 0. -1.
    8880022    1    1    2    0    0  0.11550610161E+03 -0.43119714999E+03 -0.11562740573E+02  0.47201482143E+03  0.15294330000E+03 0.  0.
    8880022    1    1    2    0    0 -0.11550610161E+03  0.43119714999E+03 -0.13847163691E+04  0.14629093333E+04  0.15294330000E+03 0.  0.
<mgrwt>
<rscale>  0 0.47187318E+03</rscale>
<asrwt>0</asrwt>
<pdfrwt beam="1">  1        2 0.25624640E+00 0.47187318E+03</pdfrwt>
<pdfrwt beam="2">  1       -2 0.41434235E-01 0.47187318E+03</pdfrwt>
<totfact> 0.60088388E+01</totfact>
</mgrwt>
</event>
<event>
 4    1  0.3365401E-008  0.4569918E+03  0.7818608E-02  0.1025657E+00
         -2   -1    0    0    0  501 -0.00000000000E+00  0.00000000000E+00  0.23459569672E+04  0.23459569672E+04  0.25500000000E-02 0.  1.
          2   -1    0    0  501    0  0.00000000000E+00 -0.00000000000E+00 -0.29995670551E+03  0.29995670552E+03  0.25500000000E-02 0. -1.
    8880022    1    1    2    0    0 -0.26184229259E+03  0.34188960611E+03  0.21324061371E+04  0.21808249530E+04  0.15294330000E+03 0.  0.
    8880022    1    1    2    0    0  0.26184229259E+03 -0.34188960611E+03 -0.86405875375E+02  0.46508871978E+03  0.15294330000E+03 0.  0.
<mgrwt>
<rscale>  0 0.45699184E+03</rscale>
<asrwt>0</asrwt>
<pdfrwt beam="1">  1        2 0.46147187E-01 0.45699184E+03</pdfrwt>
<pdfrwt beam="2">  1       -2 0.36091645E+00 0.45699184E+03</pdfrwt>
<totfact> 0.16333048E+00</totfact>
</mgrwt>
</event>
<event>
 4    1  0.3365401E-008  0.5909633E+03  0.7818608E-02  0.9924334E-01
         -2   -1    0    0    0  501 -0.00000000000E+00  0.00000000000E+00  0.42470090431E+03  0.42470090431E+03  0.25500000000E-02 0.  1.
          2   -1    0    0  501    0  0.00000000000E+00 -0.00000000000E+00 -0.87440524880E+03  0.87440524880E+03  0.25500000000E-02 0. -1.
    8880022    1    1    2    0    0  0.31176674083E+03 -0.47817098696E+03 -0.38339230132E+03  0.70443403040E+03  0.15294330000E+03 0.  0.
    8880022    1    1    2    0    0 -0.31176674083E+03  0.47817098696E+03 -0.66312043178E+02  0.59467212272E+03  0.15294330000E+03 0.  0.
<mgrwt>
<rscale>  0 0.59096332E+03</rscale>
<asrwt>0</asrwt>
<pdfrwt beam="1">  1        2 0.13452388E+00 0.59096332E+03</pdfrwt>
<pdfrwt beam="2">  1       -2 0.65338601E-01 0.59096332E+03</pdfrwt>
<totfact> 0.67727244E+01</totfact>
</mgrwt>
</event>
<event>
 4    1  0.3365401E-008  0.1107351E+04  0.7818608E-02  0.9198057E-01
         -2   -1    0    0    0  501 -0.00000000000E+00  0.00000000000E+00  0.52234618223E+03  0.52234618224E+03  0.25500000000E-02 0.  1.
          2   -1    0    0  501    0  0.00000000000E+00 -0.00000000000E+00 -0.38990877711E+04  0.38990877711E+04  0.25500000000E-02 0. -1.
    8880022    1    1    2    0    0  0.77417789855E+03 -0.77684119328E+03 -0.29381759629E+03  0.11456675308E+04  0.15294330000E+03 0.  0.
    8880022    1    1    2    0    0 -0.77417789855E+03  0.77684119328E+03 -0.30829239926E+04  0.32757664226E+04  0.15294330000E+03 0.  0.
<mgrwt>
<rscale>  0 0.11073506E+04</rscale>
<asrwt>0</asrwt>
<pdfrwt beam="1">  1        2 0.59985964E+00 0.11073506E+04</pdfrwt>
<pdfrwt beam="2">  1       -2 0.80360954E-01 0.11073506E+04</pdfrwt>
<totfact> 0.57975223E-01</totfact>
</mgrwt>
</event>
<event>
 4    1  0.3365401E-008  0.1930416E+03  0.7818608E-02  0.1155746E+00
         -2   -1    0    0    0  501 -0.00000000000E+00  0.00000000000E+00  0.60272198833E+02  0.60272198886E+02  0.25500000000E-02 0.  1.
          2   -1    0    0  501    0  0.00000000000E+00 -0.00000000000E+00 -0.18909325476E+04  0.18909325476E+04  0.25500000000E-02 0. -1.
    8880022    1    1    2    0    0 -0.36434513817E+02 -0.11200869210E+03 -0.17156983561E+04  0.17265242318E+04  0.15294330000E+03 0.  0.
    8880022    1    1    2    0    0  0.36434513817E+02  0.11200869210E+03 -0.11496199268E+03  0.22468051469E+03  0.15294330000E+03 0.  0.
<mgrwt>
<rscale>  0 0.19304164E+03</rscale>
<asrwt>0</asrwt>
<pdfrwt beam="1">  1        2 0.29091265E+00 0.19304164E+03</pdfrwt>
<pdfrwt beam="2">  1       -2 0.92726474E-02 0.19304164E+03</pdfrwt>
<totfact> 0.64416339E+02</totfact>
</mgrwt>
</event>
<event>
 4    1  0.3365401E-008  0.7718674E+03  0.7818608E-02  0.9601655E-01
         -2   -1    0    0    0  501 -0.00000000000E+00  0.00000000000E+00  0.64886591585E+03  0.64886591586E+03  0.25500000000E-02 0.  1.
          2   -1    0    0  501    0  0.00000000000E+00 -0.00000000000E+00 -0.13431755335E+04  0.13431755335E+04  0.25500000000E-02 0. -1.
    8880022    1    1    2    0    0  0.52066810487E+03 -0.54890098113E+03 -0.90741712044E+03  0.11912955326E+04  0.15294330000E+03 0.  0.
    8880022    1    1    2    0    0 -0.52066810487E+03  0.54890098113E+03  0.21310750276E+03  0.80074591680E+03  0.15294330000E+03 0.  0.
<mgrwt>
<rscale>  0 0.77186736E+03</rscale>
<asrwt>0</asrwt>
<pdfrwt beam="1">  1        2 0.20664239E+00 0.77186736E+03</pdfrwt>
<pdfrwt beam="2">  1       -2 0.99825526E-01 0.77186736E+03</pdfrwt>
<totfact> 0.13187016E+01</totfact>
</mgrwt>
</event>
<event>
 4    1  0.3365401E-008  0.3276503E+03  0.7818608E-02  0.1072181E+00
         -2   -1    0    0    0  501 -0.00000000000E+00  0.00000000000E+00  0.66567720946E+03  0.66567720947E+03  0.25500000000E-02 0.  1.
          2   -1    0    0  501    0  0.00000000000E+00 -0.00000000000E+00 -0.18691224893E+03  0.18691224895E+03  0.25500000000E-02 0. -1.
    8880022    1    1    2    0    0 -0.26105992786E+03 -0.12574082688E+03  0.39727345092E+03  0.51495717229E+03  0.15294330000E+03 0.  0.
    8880022    1    1    2    0    0  0.26105992786E+03  0.12574082688E+03  0.81491509613E+02  0.33763228612E+03  0.15294330000E+03 0.  0.
<mgrwt>
<rscale>  0 0.32765026E+03</rscale>
<asrwt>0</asrwt>
<pdfrwt beam="1">  1        2 0.28755730E-01 0.32765026E+03</pdfrwt>
<pdfrwt beam="2">  1       -2 0.10241188E+00 0.32765026E+03</pdfrwt>
<totfact> 0.14951855E+02</totfact>
</mgrwt>
</event>
<event>
 4    1  0.3365401E-008  0.4085468E+03  0.7818608E-02  0.1040860E+00
          2   -1    0    0  501    0  0.00000000000E+00  0.00000000000E+00  0.15015076629E+04  0.15015076629E+04  0.25500000000E-02 0. -1.
         -2   -1    0    0    0  501 -0.00000000000E+00 -0.00000000000E+00 -0.30309344362E+03  0.30309344363E+03  0.25500000000E-02 0.  1.
    8880022    1    1    2    0    0 -0.14048753189E+03 -0.35182683858E+03  0.13172263319E+04  0.13791286138E+04  0.15294330000E+03 0.  0.
    8880022    1    1    2    0    0  0.14048753189E+03  0.35182683858E+03 -0.11881211261E+03  0.42547249274E+03  0.15294330000E+03 0.  0.
<mgrwt>
<rscale>  0 0.40854684E+03</rscale>
<asrwt>0</asrwt>
<pdfrwt beam="1">  1        2 0.23100118E+00 0.40854684E+03</pdfrwt>
<pdfrwt beam="2">  1       -2 0.46629761E-01 0.40854684E+03</pdfrwt>
<totfact> 0.59107934E+01</totfact>
</mgrwt>
</event>
<event>
 4    1  0.3365401E-008  0.7651092E+03  0.7818608E-02  0.9611940E-01
         -2   -1    0    0    0  501 -0.00000000000E+00  0.00000000000E+00  0.12914432415E+04  0.12914432415E+04  0.25500000000E-02 0.  1.
          2   -1    0    0  501    0  0.00000000000E+00 -0.00000000000E+00 -0.14930680003E+04  0.14930680003E+04  0.25500000000E-02 0. -1.
    8880022    1    1    2    0    0  0.11617557707E+03 -0.74061034381E+03 -0.12626635560E+04  0.14763845551E+04  0.15294330000E+03 0.  0.
    8880022    1    1    2    0    0 -0.11617557707E+03  0.74061034381E+03  0.10610387972E+04  0.13081266866E+04  0.15294330000E+03 0.  0.
<mgrwt>
<rscale>  0 0.76510921E+03</rscale>
<asrwt>0</asrwt>
<pdfrwt beam="1">  1        2 0.22970277E+00 0.76510921E+03</pdfrwt>
<pdfrwt beam="2">  1       -2 0.19868358E+00 0.76510921E+03</pdfrwt>
<totfact> 0.17888641E+00</totfact>
</mgrwt>
</event>
<event>
 4    1  0.3365401E-008  0.5671678E+03  0.7818608E-02  0.9975966E-01
          2   -1    0    0  501    0  0.00000000000E+00  0.00000000000E+00  0.16920387383E+04  0.16920387383E+04  0.25500000000E-02 0. -1.
         -2   -1    0    0    0  501 -0.00000000000E+00 -0.00000000000E+00 -0.52475801410E+03  0.52475801411E+03  0.25500000000E-02 0.  1.
    8880022    1    1    2    0    0 -0.42584184071E+03 -0.34197418896E+03  0.14687727809E+04  0.15744753901E+04  0.15294330000E+03 0. -1.
    8880022    1    1    2    0    0  0.42584184071E+03  0.34197418896E+03 -0.30149205667E+03  0.64232136230E+03  0.15294330000E+03 0.  0.
<mgrwt>
<rscale>  0 0.56716776E+03</rscale>
<asrwt>0</asrwt>
<pdfrwt beam="1">  1        2 0.26031365E+00 0.56716776E+03</pdfrwt>
<pdfrwt beam="2">  1       -2 0.80732003E-01 0.56716776E+03</pdfrwt>
<totfact> 0.14194601E+01</totfact>
</mgrwt>
</event>
<event>
 4    1  0.3365401E-008  0.1937854E+03  0.7818608E-02  0.1155091E+00
          2   -1    0    0  501    0  0.00000000000E+00  0.00000000000E+00  0.12391151118E+04  0.12391151118E+04  0.25500000000E-02 0. -1.
         -2   -1    0    0    0  501 -0.00000000000E+00 -0.00000000000E+00 -0.21031010428E+03  0.21031010429E+03  0.25500000000E-02 0.  1.
    8880022    1    1    2    0    0 -0.10326305796E+03 -0.59142928572E+02  0.11848685365E+04  0.12006107808E+04  0.15294330000E+03 0.  0.
    8880022    1    1    2    0    0  0.10326305796E+03  0.59142928572E+02 -0.15606352896E+03  0.24881443532E+03  0.15294330000E+03 0.  1.
<mgrwt>
<rscale>  0 0.19378544E+03</rscale>
<asrwt>0</asrwt>
<pdfrwt beam="1">  1        2 0.19063309E+00 0.19378544E+03</pdfrwt>
<pdfrwt beam="2">  1       -2 0.32355401E-01 0.19378544E+03</pdfrwt>
<totfact> 0.17358175E+02</totfact>
</mgrwt>
</event>
<event>
 4    1  0.3365401E-008  0.5413891E+03  0.7818608E-02  0.1003507E+00
         -2   -1    0    0    0  501 -0.00000000000E+00  0.00000000000E+00  0.38328838010E+03  0.38328838011E+03  0.25500000000E-02 0.  1.
          2   -1    0    0  501    0  0.00000000000E+00 -0.00000000000E+00 -0.17146321974E+04  0.17146321974E+04  0.25500000000E-02 0. -1.
    8880022    1    1    2    0    0 -0.26873645352E+03  0.44439985156E+03 -0.14464344093E+04  0.15444334440E+04  0.15294330000E+03 0. -1.
    8880022    1    1    2    0    0  0.26873645352E+03 -0.44439985156E+03  0.11509059205E+03  0.55348713347E+03  0.15294330000E+03 0.  0.
<mgrwt>
<rscale>  0 0.54138910E+03</rscale>
<asrwt>0</asrwt>
<pdfrwt beam="1">  1        2 0.26378957E+00 0.54138910E+03</pdfrwt>
<pdfrwt beam="2">  1       -2 0.58967444E-01 0.54138910E+03</pdfrwt>
<totfact> 0.27389152E+01</totfact>
</mgrwt>
</event>
<event>
 4    1  0.3365401E-008  0.6009187E+03  0.7818608E-02  0.9903502E-01
          2   -1    0    0  501    0  0.00000000000E+00  0.00000000000E+00  0.23532406774E+04  0.23532406774E+04  0.25500000000E-02 0. -1.
         -2   -1    0    0    0  501 -0.00000000000E+00 -0.00000000000E+00 -0.33055826060E+03  0.33055826061E+03  0.25500000000E-02 0.  1.
    8880022    1    1    2    0    0 -0.41427506774E+03  0.40753874312E+03  0.29104527359E+02  0.60162312574E+03  0.15294330000E+03 0.  0.
    8880022    1    1    2    0    0  0.41427506774E+03 -0.40753874312E+03  0.19935778895E+04  0.20821758123E+04  0.15294330000E+03 0.  0.
<mgrwt>
<rscale>  0 0.60091872E+03</rscale>
<asrwt>0</asrwt>
<pdfrwt beam="1">  1        2 0.36203703E+00 0.60091872E+03</pdfrwt>
<pdfrwt beam="2">  1       -2 0.50855116E-01 0.60091872E+03</pdfrwt>
<totfact> 0.16536279E+01</totfact>
</mgrwt>
</event>
<event>
 4    1  0.3365401E-008  0.3574367E+03  0.7818608E-02  0.1059603E+00
          2   -1    0    0  501    0  0.00000000000E+00  0.00000000000E+00  0.19686005635E+03  0.19686005636E+03  0.25500000000E-02 0. -1.
         -2   -1    0    0    0  501 -0.00000000000E+00 -0.00000000000E+00 -0.94124053101E+03  0.94124053101E+03  0.25500000000E-02 0.  1.
    8880022    1    1    2    0    0 -0.10058857459E+03 -0.30700372371E+03 -0.68927473082E+03  0.77644101854E+03  0.15294330000E+03 0.  0.
    8880022    1    1    2    0    0  0.10058857459E+03  0.30700372371E+03 -0.55105743842E+02  0.36165956884E+03  0.15294330000E+03 0.  0.
<mgrwt>
<rscale>  0 0.35743671E+03</rscale>
<asrwt>0</asrwt>
<pdfrwt beam="1">  1        2 0.30286163E-01 0.35743671E+03</pdfrwt>
<pdfrwt beam="2">  1       -2 0.14480623E+00 0.35743671E+03</pdfrwt>
<totfact> 0.60113550E+01</totfact>
</mgrwt>
</event>
<event>
 4    1  0.3365401E-008  0.2928180E+03  0.7818608E-02  0.1088887E+00
         -2   -1    0    0    0  501 -0.00000000000E+00  0.00000000000E+00  0.88674617185E+03  0.88674617185E+03  0.25500000000E-02 0.  1.
          2   -1    0    0  501    0  0.00000000000E+00 -0.00000000000E+00 -0.10515771308E+03  0.10515771311E+03  0.25500000000E-02 0. -1.
    8880022    1    1    2    0    0  0.61455206746E+02 -0.24202068761E+03  0.53150184292E+03  0.60682503055E+03  0.15294330000E+03 0.  0.
    8880022    1    1    2    0    0 -0.61455206746E+02  0.24202068761E+03  0.25008661585E+03  0.38507885441E+03  0.15294330000E+03 0.  0.
<mgrwt>
<rscale>  0 0.29281805E+03</rscale>
<asrwt>0</asrwt>
<pdfrwt beam="1">  1        2 0.16178110E-01 0.29281805E+03</pdfrwt>
<pdfrwt beam="2">  1       -2 0.13642248E+00 0.29281805E+03</pdfrwt>
<totfact> 0.14425294E+02</totfact>
</mgrwt>
</event>
<event>
 4    1  0.3365401E-008  0.1005078E+04  0.7818608E-02  0.9302993E-01
          2   -1    0    0  501    0  0.00000000000E+00  0.00000000000E+00  0.23189409162E+04  0.23189409162E+04  0.25500000000E-02 0. -1.
         -2   -1    0    0    0  501 -0.00000000000E+00 -0.00000000000E+00 -0.65629403402E+03  0.65629403402E+03  0.25500000000E-02 0.  1.
    8880022    1    1    2    0    0  0.33800889438E+03  0.93409875263E+03 -0.31288557461E+02  0.10055650746E+04  0.15294330000E+03 0.  0.
    8880022    1    1    2    0    0 -0.33800889438E+03 -0.93409875263E+03  0.16939354396E+04  0.19696698756E+04  0.15294330000E+03 0.  0.
<mgrwt>
<rscale>  0 0.10050782E+04</rscale>
<asrwt>0</asrwt>
<pdfrwt beam="1">  1        2 0.35676014E+00 0.10050782E+04</pdfrwt>
<pdfrwt beam="2">  1       -2 0.10096831E+00 0.10050782E+04</pdfrwt>
<totfact> 0.35866642E+00</totfact>
</mgrwt>
</event>
<event>
 4    1  0.3365401E-008  0.2731858E+03  0.7818608E-02  0.1099470E+00
          2   -1    0    0  501    0  0.00000000000E+00  0.00000000000E+00  0.17555149679E+04  0.17555149679E+04  0.25500000000E-02 0. -1.
         -2   -1    0    0    0  501 -0.00000000000E+00 -0.00000000000E+00 -0.18175762873E+03  0.18175762875E+03  0.25500000000E-02 0.  1.
    8880022    1    1    2    0    0 -0.19710436104E+03  0.11130443383E+03 -0.60944331693E+02  0.27990118026E+03  0.15294330000E+03 0.  0.
    8880022    1    1    2    0    0  0.19710436104E+03 -0.11130443383E+03  0.16347016708E+04  0.16573714163E+04  0.15294330000E+03 0.  0.
<mgrwt>
<rscale>  0 0.27318576E+03</rscale>
<asrwt>0</asrwt>
<pdfrwt beam="1">  1        2 0.27007921E+00 0.27318576E+03</pdfrwt>
<pdfrwt beam="2">  1       -2 0.27962714E-01 0.27318576E+03</pdfrwt>
<totfact> 0.11720867E+02</totfact>
</mgrwt>
</event>
<event>
 4    1  0.3365401E-008  0.5053975E+03  0.7818608E-02  0.1012380E+00
         -2   -1    0    0    0  501 -0.00000000000E+00  0.00000000000E+00  0.21261081570E+03  0.21261081572E+03  0.25500000000E-02 0.  1.
          2   -1    0    0  501    0  0.00000000000E+00 -0.00000000000E+00 -0.26001437181E+04  0.26001437181E+04  0.25500000000E-02 0. -1.
    8880022    1    1    2    0    0 -0.47423081749E+03  0.84499046038E+02 -0.22252805629E+04  0.22819509621E+04  0.15294330000E+03 0.  0.
    8880022    1    1    2    0    0  0.47423081749E+03 -0.84499046038E+02 -0.16225233954E+03  0.53080357171E+03  0.15294330000E+03 0.  0.
<mgrwt>
<rscale>  0 0.50539748E+03</rscale>
<asrwt>0</asrwt>
<pdfrwt beam="1">  1        2 0.40002209E+00 0.50539748E+03</pdfrwt>
<pdfrwt beam="2">  1       -2 0.32709358E-01 0.50539748E+03</pdfrwt>
<totfact> 0.28999653E+01</totfact>
</mgrwt>
</event>
<event>
 4    1  0.3365401E-008  0.9301879E+03  0.7818608E-02  0.9388612E-01
          2   -1    0    0  501    0  0.00000000000E+00  0.00000000000E+00  0.21047108479E+04  0.21047108479E+04  0.25500000000E-02 0. -1.
         -2   -1    0    0    0  501 -0.00000000000E+00 -0.00000000000E+00 -0.46708142326E+03  0.46708142327E+03  0.25500000000E-02 0.  1.
    8880022    1    1    2    0    0 -0.41487277190E+03  0.81837549599E+03  0.37364436303E+03  0.10024268713E+04  0.15294330000E+03 0.  0.
    8880022    1    1    2    0    0  0.41487277190E+03 -0.81837549599E+03  0.12639850616E+04  0.15693653999E+04  0.15294330000E+03 0.  0.
<mgrwt>
<rscale>  0 0.93018790E+03</rscale>
<asrwt>0</asrwt>
<pdfrwt beam="1">  1        2 0.32380168E+00 0.93018790E+03</pdfrwt>
<pdfrwt beam="2">  1       -2 0.71858679E-01 0.93018790E+03</pdfrwt>
<totfact> 0.10379488E+01</totfact>
</mgrwt>
</event>
<event>
 4    1  0.3365401E-008  0.6700206E+03  0.7818608E-02  0.9769921E-01
          2   -1    0    0  501    0  0.00000000000E+00  0.00000000000E+00  0.20839861943E+04  0.20839861943E+04  0.25500000000E-02 0. -1.
         -2   -1    0    0    0  501 -0.00000000000E+00 -0.00000000000E+00 -0.64753488246E+03  0.64753488247E+03  0.25500000000E-02 0.  1.
    8880022    1    1    2    0    0  0.68624508933E+02  0.64871151725E+03 -0.39746480686E+03  0.77904164301E+03  0.15294330000E+03 0.  0.
    8880022    1    1    2    0    0 -0.68624508933E+02 -0.64871151725E+03  0.18339161187E+04  0.19524794338E+04  0.15294330000E+03 0.  0.
<mgrwt>
<rscale>  0 0.67002060E+03</rscale>
<asrwt>0</asrwt>
<pdfrwt beam="1">  1        2 0.32061326E+00 0.67002060E+03</pdfrwt>
<pdfrwt beam="2">  1       -2 0.99620750E-01 0.67002060E+03</pdfrwt>
<totfact> 0.52642901E+00</totfact>
</mgrwt>
</event>
<event>
 4    1  0.3365401E-008  0.4516820E+03  0.7818608E-02  0.1027222E+00
         -2   -1    0    0    0  501 -0.00000000000E+00  0.00000000000E+00  0.18537796246E+03  0.18537796247E+03  0.25500000000E-02 0.  1.
          2   -1    0    0  501    0  0.00000000000E+00 -0.00000000000E+00 -0.20689966960E+04  0.20689966960E+04  0.25500000000E-02 0. -1.
    8880022    1    1    2    0    0  0.40205279154E+03 -0.13776270883E+03 -0.17063012038E+03  0.48283672409E+03  0.15294330000E+03 0.  0.
    8880022    1    1    2    0    0 -0.40205279154E+03  0.13776270883E+03 -0.17129886132E+04  0.17715379344E+04  0.15294330000E+03 0.  0.
<mgrwt>
<rscale>  0 0.45168204E+03</rscale>
<asrwt>0</asrwt>
<pdfrwt beam="1">  1        2 0.31830717E+00 0.45168204E+03</pdfrwt>
<pdfrwt beam="2">  1       -2 0.28519688E-01 0.45168204E+03</pdfrwt>
<totfact> 0.74053706E+01</totfact>
</mgrwt>
</event>
<event>
 4    1  0.3365401E-008  0.1609464E+04  0.7818608E-02  0.8814755E-01
          2   -1    0    0  501    0  0.00000000000E+00  0.00000000000E+00  0.44622706528E+04  0.44622706528E+04  0.25500000000E-02 0. -1.
         -2   -1    0    0    0  501 -0.00000000000E+00 -0.00000000000E+00 -0.74271720151E+03  0.74271720151E+03  0.25500000000E-02 0.  1.
    8880022    1    1    2    0    0  0.12563830122E+04 -0.99422628321E+03  0.64353997611E+03  0.17333549924E+04  0.15294330000E+03 0.  0.
    8880022    1    1    2    0    0 -0.12563830122E+04  0.99422628321E+03  0.30760134752E+04  0.34716328620E+04  0.15294330000E+03 0.  0.
<mgrwt>
<rscale>  0 0.16094645E+04</rscale>
<asrwt>0</asrwt>
<pdfrwt beam="1">  1        2 0.68650317E+00 0.16094645E+04</pdfrwt>
<pdfrwt beam="2">  1       -2 0.11426419E+00 0.16094645E+04</pdfrwt>
<totfact> 0.77134993E-02</totfact>
</mgrwt>
</event>
<event>
 4    1  0.3365401E-008  0.4030670E+03  0.7818608E-02  0.1042723E+00
         -2   -1    0    0    0  501 -0.00000000000E+00  0.00000000000E+00  0.51728973235E+03  0.51728973236E+03  0.25500000000E-02 0.  1.
          2   -1    0    0  501    0  0.00000000000E+00 -0.00000000000E+00 -0.61502879862E+03  0.61502879863E+03  0.25500000000E-02 0. -1.
    8880022    1    1    2    0    0 -0.28469442449E+03 -0.24087439731E+03  0.34717808336E+03  0.53197336888E+03  0.15294330000E+03 0.  0.
    8880022    1    1    2    0    0  0.28469442449E+03  0.24087439731E+03 -0.44491714963E+03  0.60034516211E+03  0.15294330000E+03 0. -1.
<mgrwt>
<rscale>  0 0.40306705E+03</rscale>
<asrwt>0</asrwt>
<pdfrwt beam="1">  1        2 0.94619815E-01 0.40306705E+03</pdfrwt>
<pdfrwt beam="2">  1       -2 0.79583036E-01 0.40306705E+03</pdfrwt>
<totfact> 0.70206608E+01</totfact>
</mgrwt>
</event>
<event>
 4    1  0.3365401E-008  0.5967933E+03  0.7818608E-02  0.9912081E-01
          2   -1    0    0  501    0  0.00000000000E+00  0.00000000000E+00  0.15746894272E+04  0.15746894272E+04  0.25500000000E-02 0. -1.
         -2   -1    0    0    0  501 -0.00000000000E+00 -0.00000000000E+00 -0.47756232939E+03  0.47756232940E+03  0.25500000000E-02 0.  1.
    8880022    1    1    2    0    0  0.31287132926E+03 -0.48464640961E+03 -0.19591729244E+03  0.62812884786E+03  0.15294330000E+03 0.  0.
    8880022    1    1    2    0    0 -0.31287132926E+03  0.48464640961E+03  0.12930443902E+04  0.14241229087E+04  0.15294330000E+03 0.  0.
<mgrwt>
<rscale>  0 0.59679332E+03</rscale>
<asrwt>0</asrwt>
<pdfrwt beam="1">  1        2 0.24225992E+00 0.59679332E+03</pdfrwt>
<pdfrwt beam="2">  1       -2 0.73471126E-01 0.59679332E+03</pdfrwt>
<totfact> 0.20174489E+01</totfact>
</mgrwt>
</event>
<event>
 4    1  0.3365401E-008  0.8520201E+03  0.7818608E-02  0.9487630E-01
         -2   -1    0    0    0  501 -0.00000000000E+00  0.00000000000E+00  0.11159073286E+04  0.11159073286E+04  0.25500000000E-02 0.  1.
          2   -1    0    0  501    0  0.00000000000E+00 -0.00000000000E+00 -0.11786363478E+04  0.11786363478E+04  0.25500000000E-02 0. -1.
    8880022    1    1    2    0    0  0.55486090911E+03  0.62823245574E+03  0.73658822958E+03  0.11262772837E+04  0.15294330000E+03 0.  1.
    8880022    1    1    2    0    0 -0.55486090911E+03 -0.62823245574E+03 -0.79931724877E+03  0.11682663926E+04  0.15294330000E+03 0.  0.
<mgrwt>
<rscale>  0 0.85202013E+03</rscale>
<asrwt>0</asrwt>
<pdfrwt beam="1">  1        2 0.18132867E+00 0.85202013E+03</pdfrwt>
<pdfrwt beam="2">  1       -2 0.17167805E+00 0.85202013E+03</pdfrwt>
<totfact> 0.40805948E+00</totfact>
</mgrwt>
</event>
<event>
 4    1  0.3365401E-008  0.4129508E+03  0.7818608E-02  0.1039385E+00
         -2   -1    0    0    0  501 -0.00000000000E+00  0.00000000000E+00  0.12400562552E+03  0.12400562555E+03  0.25500000000E-02 0.  1.
          2   -1    0    0  501    0  0.00000000000E+00 -0.00000000000E+00 -0.21149246285E+04  0.21149246285E+04  0.25500000000E-02 0. -1.
    8880022    1    1    2    0    0 -0.33336758180E+03 -0.18974401464E+03 -0.16575357057E+04  0.17082016872E+04  0.15294330000E+03 0.  0.
    8880022    1    1    2    0    0  0.33336758180E+03  0.18974401464E+03 -0.33338329727E+03  0.53072856678E+03  0.15294330000E+03 0.  1.
<mgrwt>
<rscale>  0 0.41295083E+03</rscale>
<asrwt>0</asrwt>
<pdfrwt beam="1">  1        2 0.32537299E+00 0.41295083E+03</pdfrwt>
<pdfrwt beam="2">  1       -2 0.19077790E-01 0.41295083E+03</pdfrwt>
<totfact> 0.14361443E+02</totfact>
</mgrwt>
</event>
<event>
 4    1  0.3365401E-008  0.1160590E+04  0.7818608E-02  0.9148069E-01
          2   -1    0    0  501    0  0.00000000000E+00  0.00000000000E+00  0.17060832294E+04  0.17060832294E+04  0.25500000000E-02 0. -1.
         -2   -1    0    0    0  501 -0.00000000000E+00 -0.00000000000E+00 -0.10057958977E+04  0.10057958977E+04  0.25500000000E-02 0.  1.
    8880022    1    1    2    0    0  0.11324107748E+04 -0.20303556855E+03  0.97892523924E+03  0.15183095475E+04  0.15294330000E+03 0.  0.
    8880022    1    1    2    0    0 -0.11324107748E+04  0.20303556855E+03 -0.27863790755E+03  0.11935695797E+04  0.15294330000E+03 0.  0.
<mgrwt>
<rscale>  0 0.11605900E+04</rscale>
<asrwt>0</asrwt>
<pdfrwt beam="1">  1        2 0.26247434E+00 0.11605900E+04</pdfrwt>
<pdfrwt beam="2">  1       -2 0.15473783E+00 0.11605900E+04</pdfrwt>
<totfact> 0.26187755E+00</totfact>
</mgrwt>
</event>
<event>
 4    1  0.3365401E-008  0.5191860E+03  0.7818608E-02  0.1008889E+00
         -2   -1    0    0    0  501 -0.00000000000E+00  0.00000000000E+00  0.55000142347E+03  0.55000142348E+03  0.25500000000E-02 0.  1.
          2   -1    0    0  501    0  0.00000000000E+00 -0.00000000000E+00 -0.12958362141E+04  0.12958362141E+04  0.25500000000E-02 0. -1.
    8880022    1    1    2    0    0 -0.75997518837E+02 -0.49029254764E+03  0.35483842982E+03  0.62885957847E+03  0.15294330000E+03 0.  0.
    8880022    1    1    2    0    0  0.75997518837E+02  0.49029254764E+03 -0.11006732204E+04  0.12169780591E+04  0.15294330000E+03 0. -1.
<mgrwt>
<rscale>  0 0.51918596E+03</rscale>
<asrwt>0</asrwt>
<pdfrwt beam="1">  1        2 0.19935942E+00 0.51918596E+03</pdfrwt>
<pdfrwt beam="2">  1       -2 0.84615604E-01 0.51918596E+03</pdfrwt>
<totfact> 0.21320384E+01</totfact>
</mgrwt>
</event>
<event>
 4    1  0.3365401E-008  0.2891762E+03  0.7818608E-02  0.1090780E+00
         -2   -1    0    0    0  501 -0.00000000000E+00  0.00000000000E+00  0.69305861634E+03  0.69305861635E+03  0.25500000000E-02 0.  1.
          2   -1    0    0  501    0  0.00000000000E+00 -0.00000000000E+00 -0.14831420026E+04  0.14831420026E+04  0.25500000000E-02 0. -1.
    8880022    1    1    2    0    0  0.23926569373E+03 -0.54618333268E+02 -0.14379432450E+04  0.14667323080E+04  0.15294330000E+03 0.  0.
    8880022    1    1    2    0    0 -0.23926569373E+03  0.54618333268E+02  0.64785985878E+03  0.70946831089E+03  0.15294330000E+03 0.  0.
<mgrwt>
<rscale>  0 0.28917622E+03</rscale>
<asrwt>0</asrwt>
<pdfrwt beam="1">  1        2 0.22817569E+00 0.28917622E+03</pdfrwt>
<pdfrwt beam="2">  1       -2 0.10662440E+00 0.28917622E+03</pdfrwt>
<totfact> 0.10400011E+01</totfact>
</mgrwt>
</event>
<event>
 4    1  0.3365401E-008  0.3881830E+03  0.7818608E-02  0.1047950E+00
          2   -1    0    0  501    0  0.00000000000E+00  0.00000000000E+00  0.24320949058E+03  0.24320949059E+03  0.25500000000E-02 0. -1.
         -2   -1    0    0    0  501 -0.00000000000E+00 -0.00000000000E+00 -0.13680983285E+04  0.13680983285E+04  0.25500000000E-02 0.  1.
    8880022    1    1    2    0    0  0.10182531375E+03  0.34194439701E+03 -0.11583715134E+04  0.12216835029E+04  0.15294330000E+03 0.  0.
    8880022    1    1    2    0    0 -0.10182531375E+03 -0.34194439701E+03  0.33482675517E+02  0.38962431616E+03  0.15294330000E+03 0.  0.
<mgrwt>
<rscale>  0 0.38818297E+03</rscale>
<asrwt>0</asrwt>
<pdfrwt beam="1">  1        2 0.37416846E-01 0.38818297E+03</pdfrwt>
<pdfrwt beam="2">  1       -2 0.21047666E+00 0.38818297E+03</pdfrwt>
<totfact> 0.16779040E+01</totfact>
</mgrwt>
</event>
<event>
 4    1  0.3365401E-008  0.4270341E+03  0.7818608E-02  0.1034801E+00
          2   -1    0    0  501    0  0.00000000000E+00  0.00000000000E+00  0.81881132683E+03  0.81881132683E+03  0.25500000000E-02 0. -1.
         -2   -1    0    0    0  501 -0.00000000000E+00 -0.00000000000E+00 -0.61399945154E+03  0.61399945154E+03  0.25500000000E-02 0.  1.
    8880022    1    1    2    0    0 -0.17661584932E+03  0.35745386982E+03  0.67431043199E+03  0.79815577364E+03  0.15294330000E+03 0.  0.
    8880022    1    1    2    0    0  0.17661584932E+03 -0.35745386982E+03 -0.46949855670E+03  0.63465500474E+03  0.15294330000E+03 0.  0.
<mgrwt>
<rscale>  0 0.42703405E+03</rscale>
<asrwt>0</asrwt>
<pdfrwt beam="1">  1        2 0.12597097E+00 0.42703405E+03</pdfrwt>
<pdfrwt beam="2">  1       -2 0.94461455E-01 0.42703405E+03</pdfrwt>
<totfact> 0.33203344E+01</totfact>
</mgrwt>
</event>
<event>
 4    1  0.3365401E-008  0.5538630E+03  0.7818608E-02  0.1000604E+00
          2   -1    0    0  501    0  0.00000000000E+00  0.00000000000E+00  0.39213482235E+04  0.39213482235E+04  0.25500000000E-02 0. -1.
         -2   -1    0    0    0  501 -0.00000000000E+00 -0.00000000000E+00 -0.20122683355E+03  0.20122683357E+03  0.25500000000E-02 0.  1.
    8880022    1    1    2    0    0 -0.50920111769E+03 -0.15519930794E+03  0.34716109823E+04  0.35155151925E+04  0.15294330000E+03 0.  0.
    8880022    1    1    2    0    0  0.50920111769E+03  0.15519930794E+03  0.24851040769E+03  0.60705986458E+03  0.15294330000E+03 0.  0.
<mgrwt>
<rscale>  0 0.55386303E+03</rscale>
<asrwt>0</asrwt>
<pdfrwt beam="1">  1        2 0.60328434E+00 0.55386303E+03</pdfrwt>
<pdfrwt beam="2">  1       -2 0.30957975E-01 0.55386303E+03</pdfrwt>
<totfact> 0.44299368E+00</totfact>
</mgrwt>
</event>
<event>
 4    1  0.3365401E-008  0.3776430E+03  0.7818608E-02  0.1051808E+00
         -2   -1    0    0    0  501 -0.00000000000E+00  0.00000000000E+00  0.29325568051E+03  0.29325568053E+03  0.25500000000E-02 0.  1.
          2   -1    0    0  501    0  0.00000000000E+00 -0.00000000000E+00 -0.10164310926E+04  0.10164310926E+04  0.25500000000E-02 0. -1.
    8880022    1    1    2    0    0  0.27019769330E+03 -0.21497861694E+03  0.11132883618E+03  0.39371101329E+03  0.15294330000E+03 0.  0.
    8880022    1    1    2    0    0 -0.27019769330E+03  0.21497861694E+03 -0.83450424822E+03  0.91597575979E+03  0.15294330000E+03 0.  0.
<mgrwt>
<rscale>  0 0.37764302E+03</rscale>
<asrwt>0</asrwt>
<pdfrwt beam="1">  1        2 0.15637401E+00 0.37764302E+03</pdfrwt>
<pdfrwt beam="2">  1       -2 0.45116259E-01 0.37764302E+03</pdfrwt>
<totfact> 0.12029668E+02</totfact>
</mgrwt>
</event>
<event>
 4    1  0.3365401E-008  0.3665514E+03  0.7818608E-02  0.1056019E+00
         -2   -1    0    0    0  501 -0.00000000000E+00  0.00000000000E+00  0.20105926636E+03  0.20105926638E+03  0.25500000000E-02 0.  1.
          2   -1    0    0  501    0  0.00000000000E+00 -0.00000000000E+00 -0.33301286444E+04  0.33301286444E+04  0.25500000000E-02 0. -1.
    8880022    1    1    2    0    0 -0.17062749280E+03 -0.28610228788E+03  0.13998140782E+02  0.36681856740E+03  0.15294330000E+03 0.  0.
    8880022    1    1    2    0    0  0.17062749280E+03  0.28610228788E+03 -0.31430675188E+04  0.31643693433E+04  0.15294330000E+03 0. -1.
<mgrwt>
<rscale>  0 0.36655138E+03</rscale>
<asrwt>0</asrwt>
<pdfrwt beam="1">  1        2 0.51232744E+00 0.36655138E+03</pdfrwt>
<pdfrwt beam="2">  1       -2 0.30932197E-01 0.36655138E+03</pdfrwt>
<totfact> 0.12231080E+01</totfact>
</mgrwt>
</event>
<event>
 4    1  0.3365401E-008  0.4267863E+03  0.7818608E-02  0.1034880E+00
          2   -1    0    0  501    0  0.00000000000E+00  0.00000000000E+00  0.36134005249E+03  0.36134005250E+03  0.25500000000E-02 0. -1.
         -2   -1    0    0    0  501 -0.00000000000E+00 -0.00000000000E+00 -0.20415422948E+04  0.20415422948E+04  0.25500000000E-02 0.  1.
    8880022    1    1    2    0    0  0.66445374682E+02 -0.39286115126E+03  0.20251559859E+03  0.47239717682E+03  0.15294330000E+03 0.  0.
    8880022    1    1    2    0    0 -0.66445374682E+02  0.39286115126E+03 -0.18827178409E+04  0.19304851705E+04  0.15294330000E+03 0.  0.
<mgrwt>
<rscale>  0 0.42678628E+03</rscale>
<asrwt>0</asrwt>
<pdfrwt beam="1">  1        2 0.55590778E-01 0.42678628E+03</pdfrwt>
<pdfrwt beam="2">  1       -2 0.31408343E+00 0.42678628E+03</pdfrwt>
<totfact> 0.25845229E+00</totfact>
</mgrwt>
</event>
<event>
 4    1  0.3365401E-008  0.7378932E+03  0.7818608E-02  0.9654538E-01
         -2   -1    0    0    0  501 -0.00000000000E+00  0.00000000000E+00  0.24066202434E+03  0.24066202435E+03  0.25500000000E-02 0.  1.
          2   -1    0    0  501    0  0.00000000000E+00 -0.00000000000E+00 -0.29639635700E+04  0.29639635700E+04  0.25500000000E-02 0. -1.
    8880022    1    1    2    0    0 -0.35002795839E+03 -0.63132810005E+03 -0.58212919720E+03  0.93987275565E+03  0.15294330000E+03 0.  0.
    8880022    1    1    2    0    0  0.35002795839E+03  0.63132810005E+03 -0.21411723485E+04  0.22647528387E+04  0.15294330000E+03 0.  0.
<mgrwt>
<rscale>  0 0.73789321E+03</rscale>
<asrwt>0</asrwt>
<pdfrwt beam="1">  1        2 0.45599437E+00 0.73789321E+03</pdfrwt>
<pdfrwt beam="2">  1       -2 0.37024929E-01 0.73789321E+03</pdfrwt>
<totfact> 0.13398004E+01</totfact>
</mgrwt>
</event>
<event>
 4    1  0.3365401E-008  0.5321355E+03  0.7818608E-02  0.1005716E+00
          2   -1    0    0  501    0  0.00000000000E+00  0.00000000000E+00  0.86403595973E+03  0.86403595973E+03  0.25500000000E-02 0. -1.
         -2   -1    0    0    0  501 -0.00000000000E+00 -0.00000000000E+00 -0.57561917080E+03  0.57561917080E+03  0.25500000000E-02 0.  1.
    8880022    1    1    2    0    0  0.48845203302E+03 -0.14557163555E+03 -0.32817217058E+03  0.62519206345E+03  0.15294330000E+03 0.  0.
    8880022    1    1    2    0    0 -0.48845203302E+03  0.14557163555E+03  0.61658895952E+03  0.81446306709E+03  0.15294330000E+03 0. -1.
<mgrwt>
<rscale>  0 0.53213546E+03</rscale>
<asrwt>0</asrwt>
<pdfrwt beam="1">  1        2 0.13292861E+00 0.53213546E+03</pdfrwt>
<pdfrwt beam="2">  1       -2 0.88556796E-01 0.53213546E+03</pdfrwt>
<totfact> 0.35336340E+01</totfact>
</mgrwt>
</event>
<event>
 4    1  0.3365401E-008  0.4799111E+03  0.7818608E-02  0.1019160E+00
         -2   -1    0    0    0  501 -0.00000000000E+00  0.00000000000E+00  0.21555127665E+03  0.21555127666E+03  0.25500000000E-02 0.  1.
          2   -1    0    0  501    0  0.00000000000E+00 -0.00000000000E+00 -0.39847613137E+04  0.39847613137E+04  0.25500000000E-02 0. -1.
    8880022    1    1    2    0    0  0.26892164680E+03 -0.36688445050E+03 -0.87951583272E+02  0.48790386978E+03  0.15294330000E+03 0.  0.
    8880022    1    1    2    0    0 -0.26892164680E+03  0.36688445050E+03 -0.36812584538E+04  0.37124087206E+04  0.15294330000E+03 0. -1.
<mgrwt>
<rscale>  0 0.47991114E+03</rscale>
<asrwt>0</asrwt>
<pdfrwt beam="1">  1        2 0.61304015E+00 0.47991114E+03</pdfrwt>
<pdfrwt beam="2">  1       -2 0.33161738E-01 0.47991114E+03</pdfrwt>
<totfact> 0.35695431E+00</totfact>
</mgrwt>
</event>
<event>
 4    1  0.3365401E-008  0.8752882E+03  0.7818608E-02  0.9457011E-01
         -2   -1    0    0    0  501 -0.00000000000E+00  0.00000000000E+00  0.93967728242E+03  0.93967728242E+03  0.25500000000E-02 0.  1.
          2   -1    0    0  501    0  0.00000000000E+00 -0.00000000000E+00 -0.11574879659E+04  0.11574879659E+04  0.25500000000E-02 0. -1.
    8880022    1    1    2    0    0 -0.75389125291E+03 -0.41759513200E+03 -0.67902984012E+03  0.11077955101E+04  0.15294330000E+03 0.  0.
    8880022    1    1    2    0    0  0.75389125291E+03  0.41759513200E+03  0.46121915660E+03  0.98936973823E+03  0.15294330000E+03 0.  0.
<mgrwt>
<rscale>  0 0.87528816E+03</rscale>
<asrwt>0</asrwt>
<pdfrwt beam="1">  1        2 0.17807507E+00 0.87528816E+03</pdfrwt>
<pdfrwt beam="2">  1       -2 0.14456574E+00 0.87528816E+03</pdfrwt>
<totfact> 0.66662466E+00</totfact>
</mgrwt>
</event>
<event>
 4    1  0.3365401E-008  0.4424963E+03  0.7818608E-02  0.1029984E+00
         -2   -1    0    0    0  501 -0.00000000000E+00  0.00000000000E+00  0.19726902948E+04  0.19726902948E+04  0.25500000000E-02 0.  1.
          2   -1    0    0  501    0  0.00000000000E+00 -0.00000000000E+00 -0.23876543870E+03  0.23876543872E+03  0.25500000000E-02 0. -1.
    8880022    1    1    2    0    0 -0.27733215837E+03  0.30902787224E+03  0.17121692851E+04  0.17684249109E+04  0.15294330000E+03 0.  0.
    8880022    1    1    2    0    0  0.27733215837E+03 -0.30902787224E+03  0.21755571052E+02  0.44303082260E+03  0.15294330000E+03 0.  0.
<mgrwt>
<rscale>  0 0.44249633E+03</rscale>
<asrwt>0</asrwt>
<pdfrwt beam="1">  1        2 0.36733145E-01 0.44249633E+03</pdfrwt>
<pdfrwt beam="2">  1       -2 0.30349081E+00 0.44249633E+03</pdfrwt>
<totfact> 0.46942710E+00</totfact>
</mgrwt>
</event>
<event>
 4    1  0.3365401E-008  0.1024395E+04  0.7818608E-02  0.9282186E-01
          2   -1    0    0  501    0  0.00000000000E+00  0.00000000000E+00  0.14300309148E+04  0.14300309148E+04  0.25500000000E-02 0. -1.
         -2   -1    0    0    0  501 -0.00000000000E+00 -0.00000000000E+00 -0.12025680273E+04  0.12025680273E+04  0.25500000000E-02 0.  1.
    8880022    1    1    2    0    0  0.86477884127E+03 -0.52739987215E+03 -0.70807546750E+03  0.12452933751E+04  0.15294330000E+03 0.  0.
    8880022    1    1    2    0    0 -0.86477884127E+03  0.52739987215E+03  0.93553835499E+03  0.13873055670E+04  0.15294330000E+03 0.  0.
<mgrwt>
<rscale>  0 0.10243948E+04</rscale>
<asrwt>0</asrwt>
<pdfrwt beam="1">  1        2 0.22000475E+00 0.10243948E+04</pdfrwt>
<pdfrwt beam="2">  1       -2 0.18501047E+00 0.10243948E+04</pdfrwt>
<totfact> 0.23057632E+00</totfact>
</mgrwt>
</event>
<event>
 4    1  0.3365401E-008  0.5701156E+03  0.7818608E-02  0.9969423E-01
          2   -1    0    0  501    0  0.00000000000E+00  0.00000000000E+00  0.13028967091E+04  0.13028967091E+04  0.25500000000E-02 0. -1.
         -2   -1    0    0    0  501 -0.00000000000E+00 -0.00000000000E+00 -0.38178009171E+03  0.38178009172E+03  0.25500000000E-02 0.  1.
    8880022    1    1    2    0    0  0.38824633222E+03 -0.38846487086E+03  0.95644075702E+03  0.11134678914E+04  0.15294330000E+03 0.  0.
    8880022    1    1    2    0    0 -0.38824633222E+03  0.38846487086E+03 -0.35324139643E+02  0.57120890945E+03  0.15294330000E+03 0.  0.
<mgrwt>
<rscale>  0 0.57011562E+03</rscale>
<asrwt>0</asrwt>
<pdfrwt beam="1">  1        2 0.20044564E+00 0.57011562E+03</pdfrwt>
<pdfrwt beam="2">  1       -2 0.58735400E-01 0.57011562E+03</pdfrwt>
<totfact> 0.46415843E+01</totfact>
</mgrwt>
</event>
<event>
 4    1  0.3365401E-008  0.9332046E+03  0.7818608E-02  0.9385000E-01
         -2   -1    0    0    0  501 -0.00000000000E+00  0.00000000000E+00  0.85095599055E+03  0.85095599055E+03  0.25500000000E-02 0.  1.
          2   -1    0    0  501    0  0.00000000000E+00 -0.00000000000E+00 -0.28983047958E+04  0.28983047958E+04  0.25500000000E-02 0. -1.
    8880022    1    1    2    0    0  0.80919984378E+03 -0.43894736107E+03 -0.25314367741E+04  0.26979701569E+04  0.15294330000E+03 0.  0.
    8880022    1    1    2    0    0 -0.80919984378E+03  0.43894736107E+03  0.48408796889E+03  0.10512906295E+04  0.15294330000E+03 0.  0.
<mgrwt>
<rscale>  0 0.93320460E+03</rscale>
<asrwt>0</asrwt>
<pdfrwt beam="1">  1        2 0.44589304E+00 0.93320460E+03</pdfrwt>
<pdfrwt beam="2">  1       -2 0.13091631E+00 0.93320460E+03</pdfrwt>
<totfact> 0.88213685E-01</totfact>
</mgrwt>
</event>
<event>
 4    1  0.3578068E-008  0.7640377E+03  0.7818608E-02  0.9613581E-01
         -2   -1    0    0    0  501 -0.00000000000E+00  0.00000000000E+00  0.20336240038E+04  0.20336240038E+04  0.25500000000E-02 0.  1.
          2   -1    0    0  501    0  0.00000000000E+00 -0.00000000000E+00 -0.12622915756E+04  0.12622915756E+04  0.25500000000E-02 0. -1.
    8880022    1    1    2    0    0  0.74767190456E+03 -0.36724736791E+02 -0.10628459318E+04  0.13089671925E+04  0.15294330000E+03 0.  0.
    8880022    1    1    2    0    0 -0.74767190456E+03  0.36724736791E+02  0.18341783600E+04  0.19869483869E+04  0.15294330000E+03 0.  0.
<mgrwt>
<rscale>  0 0.76403772E+03</rscale>
<asrwt>0</asrwt>
<pdfrwt beam="1">  1        2 0.19419871E+00 0.76403772E+03</pdfrwt>
<pdfrwt beam="2">  1       -2 0.31286523E+00 0.76403772E+03</pdfrwt>
<totfact> 0.48423361E-01</totfact>
</mgrwt>
</event>
<event>
 4    1  0.3365401E-008  0.7501335E+03  0.7818608E-02  0.9635141E-01
          2   -1    0    0  501    0  0.00000000000E+00  0.00000000000E+00  0.19175436186E+04  0.19175436186E+04  0.25500000000E-02 0. -1.
         -2   -1    0    0    0  501 -0.00000000000E+00 -0.00000000000E+00 -0.72284193607E+03  0.72284193607E+03  0.25500000000E-02 0.  1.
    8880022    1    1    2    0    0 -0.66750270513E+03  0.30618409480E+03 -0.42017021486E+03  0.85979254692E+03  0.15294330000E+03 0.  0.
    8880022    1    1    2    0    0  0.66750270513E+03 -0.30618409480E+03  0.16148718974E+04  0.17805930078E+04  0.15294330000E+03 0.  0.
<mgrwt>
<rscale>  0 0.75013346E+03</rscale>
<asrwt>0</asrwt>
<pdfrwt beam="1">  1        2 0.29500671E+00 0.75013346E+03</pdfrwt>
<pdfrwt beam="2">  1       -2 0.11120645E+00 0.75013346E+03</pdfrwt>
<totfact> 0.49130913E+00</totfact>
</mgrwt>
</event>
<event>
 4    1  0.3365401E-008  0.1588178E+03  0.7818608E-02  0.1190038E+00
         -2   -1    0    0    0  501 -0.00000000000E+00  0.00000000000E+00  0.68235157921E+02  0.68235157969E+02  0.25500000000E-02 0.  1.
          2   -1    0    0  501    0  0.00000000000E+00 -0.00000000000E+00 -0.74909309921E+03  0.74909309922E+03  0.25500000000E-02 0. -1.
    8880022    1    1    2    0    0  0.36526346602E+02  0.22299644456E+02 -0.49576900640E+02  0.16637599055E+03  0.15294330000E+03 0.  1.
    8880022    1    1    2    0    0 -0.36526346602E+02 -0.22299644456E+02 -0.63128104065E+03  0.65095226664E+03  0.15294330000E+03 0. -1.
<mgrwt>
<rscale>  0 0.15881782E+03</rscale>
<asrwt>0</asrwt>
<pdfrwt beam="1">  1        2 0.11524509E+00 0.15881782E+03</pdfrwt>
<pdfrwt beam="2">  1       -2 0.10497717E-01 0.15881782E+03</pdfrwt>
<totfact> 0.23391323E+03</totfact>
</mgrwt>
</event>
<event>
 4    1  0.3365401E-008  0.1086072E+04  0.7818608E-02  0.9218874E-01
         -2   -1    0    0    0  501 -0.00000000000E+00  0.00000000000E+00  0.15980933069E+04  0.15980933069E+04  0.25500000000E-02 0.  1.
          2   -1    0    0  501    0  0.00000000000E+00 -0.00000000000E+00 -0.82558397338E+03  0.82558397338E+03  0.25500000000E-02 0. -1.
    8880022    1    1    2    0    0  0.86420381530E+03  0.63977536746E+03 -0.82288175448E+01  0.10861031819E+04  0.15294330000E+03 0.  0.
    8880022    1    1    2    0    0 -0.86420381530E+03 -0.63977536746E+03  0.78073815103E+03  0.13375740984E+04  0.15294330000E+03 0.  0.
<mgrwt>
<rscale>  0 0.10860720E+04</rscale>
<asrwt>0</asrwt>
<pdfrwt beam="1">  1        2 0.12701292E+00 0.10860720E+04</pdfrwt>
<pdfrwt beam="2">  1       -2 0.24586051E+00 0.10860720E+04</pdfrwt>
<totfact> 0.22219218E+00</totfact>
</mgrwt>
</event>
<event>
 4    1  0.3365401E-008  0.1332069E+04  0.7818608E-02  0.9004514E-01
          2   -1    0    0  501    0  0.00000000000E+00  0.00000000000E+00  0.16619368870E+04  0.16619368870E+04  0.25500000000E-02 0. -1.
         -2   -1    0    0    0  501 -0.00000000000E+00 -0.00000000000E+00 -0.15877776549E+04  0.15877776549E+04  0.25500000000E-02 0.  1.
    8880022    1    1    2    0    0 -0.79615069664E+03  0.10569578961E+04 -0.89288223527E+03  0.16036353279E+04  0.15294330000E+03 0.  0.
    8880022    1    1    2    0    0  0.79615069664E+03 -0.10569578961E+04  0.96704146743E+03  0.16460792140E+04  0.15294330000E+03 0.  0.
<mgrwt>
<rscale>  0 0.13320689E+04</rscale>
<asrwt>0</asrwt>
<pdfrwt beam="1">  1        2 0.25568260E+00 0.13320689E+04</pdfrwt>
<pdfrwt beam="2">  1       -2 0.24427349E+00 0.13320689E+04</pdfrwt>
<totfact> 0.68631070E-01</totfact>
</mgrwt>
</event>
<event>
 4    1  0.3365401E-008  0.4573150E+03  0.7818608E-02  0.1025563E+00
          2   -1    0    0  501    0  0.00000000000E+00  0.00000000000E+00  0.17229768122E+04  0.17229768122E+04  0.25500000000E-02 0. -1.
         -2   -1    0    0    0  501 -0.00000000000E+00 -0.00000000000E+00 -0.31074554359E+03  0.31074554360E+03  0.25500000000E-02 0.  1.
    8880022    1    1    2    0    0  0.50519730819E+02 -0.42801068001E+03  0.14999105001E+04  0.15680779785E+04  0.15294330000E+03 0.  0.
    8880022    1    1    2    0    0 -0.50519730819E+02  0.42801068001E+03 -0.87679231530E+02  0.46564437725E+03  0.15294330000E+03 0.  0.
<mgrwt>
<rscale>  0 0.45731503E+03</rscale>
<asrwt>0</asrwt>
<pdfrwt beam="1">  1        2 0.26507335E+00 0.45731503E+03</pdfrwt>
<pdfrwt beam="2">  1       -2 0.47807007E-01 0.45731503E+03</pdfrwt>
<totfact> 0.42299644E+01</totfact>
</mgrwt>
</event>
<event>
 4    1  0.3365401E-008  0.2150075E+03  0.7818608E-02  0.1137661E+00
          2   -1    0    0  501    0  0.00000000000E+00  0.00000000000E+00  0.56249032643E+03  0.56249032644E+03  0.25500000000E-02 0. -1.
         -2   -1    0    0    0  501 -0.00000000000E+00 -0.00000000000E+00 -0.19893251397E+03  0.19893251399E+03  0.25500000000E-02 0.  1.
    8880022    1    1    2    0    0 -0.14511479245E+03  0.42169607667E+02 -0.10987443606E+03  0.24145522051E+03  0.15294330000E+03 0.  0.
    8880022    1    1    2    0    0  0.14511479245E+03 -0.42169607667E+02  0.47343224853E+03  0.51996761991E+03  0.15294330000E+03 0. -1.
<mgrwt>
<rscale>  0 0.21500752E+03</rscale>
<asrwt>0</asrwt>
<pdfrwt beam="1">  1        2 0.86536973E-01 0.21500752E+03</pdfrwt>
<pdfrwt beam="2">  1       -2 0.30605002E-01 0.21500752E+03</pdfrwt>
<totfact> 0.54006378E+02</totfact>
</mgrwt>
</event>
<event>
 4    1  0.3365401E-008  0.8777528E+03  0.7818608E-02  0.9453827E-01
         -2   -1    0    0    0  501 -0.00000000000E+00  0.00000000000E+00  0.12708200790E+04  0.12708200790E+04  0.25500000000E-02 0.  1.
          2   -1    0    0  501    0  0.00000000000E+00 -0.00000000000E+00 -0.96741608683E+03  0.96741608683E+03  0.25500000000E-02 0. -1.
    8880022    1    1    2    0    0 -0.82515667464E+03  0.25724467969E+03  0.83548056275E+03  0.12118076525E+04  0.15294330000E+03 0.  0.
    8880022    1    1    2    0    0  0.82515667464E+03 -0.25724467969E+03 -0.53207657060E+03  0.10264285133E+04  0.15294330000E+03 0.  0.
<mgrwt>
<rscale>  0 0.87775282E+03</rscale>
<asrwt>0</asrwt>
<pdfrwt beam="1">  1        2 0.14883324E+00 0.87775282E+03</pdfrwt>
<pdfrwt beam="2">  1       -2 0.19551078E+00 0.87775282E+03</pdfrwt>
<totfact> 0.37879307E+00</totfact>
</mgrwt>
</event>
<event>
 4    1  0.3365401E-008  0.3404210E+03  0.7818608E-02  0.1066617E+00
         -2   -1    0    0    0  501 -0.00000000000E+00  0.00000000000E+00  0.33769600913E+03  0.33769600914E+03  0.25500000000E-02 0.  1.
          2   -1    0    0  501    0  0.00000000000E+00 -0.00000000000E+00 -0.17066019754E+04  0.17066019754E+04  0.25500000000E-02 0. -1.
    8880022    1    1    2    0    0 -0.29346909426E+03  0.79816775851E+02 -0.15980720010E+04  0.16339279667E+04  0.15294330000E+03 0.  0.
    8880022    1    1    2    0    0  0.29346909426E+03 -0.79816775851E+02  0.22916603477E+03  0.41037001779E+03  0.15294330000E+03 0.  1.
<mgrwt>
<rscale>  0 0.34042103E+03</rscale>
<asrwt>0</asrwt>
<pdfrwt beam="1">  1        2 0.26255415E+00 0.34042103E+03</pdfrwt>
<pdfrwt beam="2">  1       -2 0.51953233E-01 0.34042103E+03</pdfrwt>
<totfact> 0.37478022E+01</totfact>
</mgrwt>
</event>
<event>
 4    1  0.3365401E-008  0.6768110E+03  0.7818608E-02  0.9757731E-01
         -2   -1    0    0    0  501 -0.00000000000E+00  0.00000000000E+00  0.36227631861E+03  0.36227631862E+03  0.25500000000E-02 0.  1.
          2   -1    0    0  501    0  0.00000000000E+00 -0.00000000000E+00 -0.19138490610E+04  0.19138490610E+04  0.25500000000E-02 0. -1.
    8880022    1    1    2    0    0 -0.56570287378E+03 -0.33861744391E+03 -0.14387271695E+04  0.15899713947E+04  0.15294330000E+03 0.  0.
    8880022    1    1    2    0    0  0.56570287378E+03  0.33861744391E+03 -0.11284557293E+03  0.68615398495E+03  0.15294330000E+03 0.  0.
<mgrwt>
<rscale>  0 0.67681103E+03</rscale>
<asrwt>0</asrwt>
<pdfrwt beam="1">  1        2 0.29443831E+00 0.67681103E+03</pdfrwt>
<pdfrwt beam="2">  1       -2 0.55734820E-01 0.67681103E+03</pdfrwt>
<totfact> 0.23516207E+01</totfact>
</mgrwt>
</event>
<event>
 4    1  0.3365401E-008  0.9103277E+03  0.7818608E-02  0.9412763E-01
          2   -1    0    0  501    0  0.00000000000E+00  0.00000000000E+00  0.26020876957E+04  0.26020876957E+04  0.25500000000E-02 0. -1.
         -2   -1    0    0    0  501 -0.00000000000E+00 -0.00000000000E+00 -0.34174641707E+03  0.34174641708E+03  0.25500000000E-02 0.  1.
    8880022    1    1    2    0    0  0.85824981031E+03  0.26212994509E+03  0.15142800002E+04  0.17668447631E+04  0.15294330000E+03 0.  0.
    8880022    1    1    2    0    0 -0.85824981031E+03 -0.26212994509E+03  0.74606127844E+03  0.11769893497E+04  0.15294330000E+03 0.  0.
<mgrwt>
<rscale>  0 0.91032769E+03</rscale>
<asrwt>0</asrwt>
<pdfrwt beam="1">  1        2 0.40032121E+00 0.91032769E+03</pdfrwt>
<pdfrwt beam="2">  1       -2 0.52576369E-01 0.91032769E+03</pdfrwt>
<totfact> 0.10627538E+01</totfact>
</mgrwt>
</event>
<event>
 4    1  0.3365401E-008  0.4937002E+03  0.7818608E-02  0.1015436E+00
          2   -1    0    0  501    0  0.00000000000E+00  0.00000000000E+00  0.32135928845E+03  0.32135928846E+03  0.25500000000E-02 0. -1.
         -2   -1    0    0    0  501 -0.00000000000E+00 -0.00000000000E+00 -0.24947237419E+04  0.24947237419E+04  0.25500000000E-02 0.  1.
    8880022    1    1    2    0    0 -0.33511792526E+03 -0.32870073370E+03 -0.22613401779E+04  0.23146056358E+04  0.15294330000E+03 0.  0.
    8880022    1    1    2    0    0  0.33511792526E+03  0.32870073370E+03  0.87975724420E+02  0.50147739457E+03  0.15294330000E+03 0.  0.
<mgrwt>
<rscale>  0 0.49370016E+03</rscale>
<asrwt>0</asrwt>
<pdfrwt beam="1">  1        2 0.49439892E-01 0.49370016E+03</pdfrwt>
<pdfrwt beam="2">  1       -2 0.38380364E+00 0.49370016E+03</pdfrwt>
<totfact> 0.10766586E+00</totfact>
</mgrwt>
</event>
<event>
 4    1  0.3365401E-008  0.7629662E+03  0.7818608E-02  0.9615225E-01
         -2   -1    0    0    0  501 -0.00000000000E+00  0.00000000000E+00  0.51870870889E+03  0.51870870890E+03  0.25500000000E-02 0.  1.
          2   -1    0    0  501    0  0.00000000000E+00 -0.00000000000E+00 -0.21505798590E+04  0.21505798590E+04  0.25500000000E-02 0. -1.
    8880022    1    1    2    0    0 -0.39642310283E+03 -0.63369907874E+03  0.10696592030E+03  0.77042790706E+03  0.15294330000E+03 0.  0.
    8880022    1    1    2    0    0  0.39642310283E+03  0.63369907874E+03 -0.17388370704E+04  0.18988606609E+04  0.15294330000E+03 0.  0.
<mgrwt>
<rscale>  0 0.76296622E+03</rscale>
<asrwt>0</asrwt>
<pdfrwt beam="1">  1        2 0.33085843E+00 0.76296622E+03</pdfrwt>
<pdfrwt beam="2">  1       -2 0.79801341E-01 0.76296622E+03</pdfrwt>
<totfact> 0.79375723E+00</totfact>
</mgrwt>
</event>
<event>
 4    1  0.4421488E-008  0.8071251E+03  0.7818608E-02  0.9549761E-01
          2   -1    0    0  501    0  0.00000000000E+00  0.00000000000E+00  0.23927357753E+04  0.23927357753E+04  0.25500000000E-02 0. -1.
         -2   -1    0    0    0  501 -0.00000000000E+00 -0.00000000000E+00 -0.14510428333E+04  0.14510428333E+04  0.25500000000E-02 0.  1.
    8880022    1    1    2    0    0 -0.39658534280E+03 -0.68613363683E+03 -0.12613804828E+04  0.14975084899E+04  0.15294330000E+03 0.  0.
    8880022    1    1    2    0    0  0.39658534280E+03  0.68613363683E+03  0.22030734249E+04  0.23462701187E+04  0.15294330000E+03 0.  0.
<mgrwt>
<rscale>  0 0.80712512E+03</rscale>
<asrwt>0</asrwt>
<pdfrwt beam="1">  1        2 0.36811319E+00 0.80712512E+03</pdfrwt>
<pdfrwt beam="2">  1       -2 0.22323736E+00 0.80712512E+03</pdfrwt>
<totfact> 0.39563401E-01</totfact>
</mgrwt>
</event>
<event>
 4    1  0.3365401E-008  0.8384979E+03  0.7818608E-02  0.9505906E-01
          2   -1    0    0  501    0  0.00000000000E+00  0.00000000000E+00  0.69676458037E+03  0.69676458038E+03  0.25500000000E-02 0. -1.
         -2   -1    0    0    0  501 -0.00000000000E+00 -0.00000000000E+00 -0.30678752071E+04  0.30678752071E+04  0.25500000000E-02 0.  1.
    8880022    1    1    2    0    0  0.34541288716E+03 -0.74858337101E+03 -0.27275505859E+04  0.28535260605E+04  0.15294330000E+03 0.  0.
    8880022    1    1    2    0    0 -0.34541288716E+03  0.74858337101E+03  0.35643995922E+03  0.91111372699E+03  0.15294330000E+03 0.  0.
<mgrwt>
<rscale>  0 0.83849793E+03</rscale>
<asrwt>0</asrwt>
<pdfrwt beam="1">  1        2 0.10719455E+00 0.83849793E+03</pdfrwt>
<pdfrwt beam="2">  1       -2 0.47198080E+00 0.83849793E+03</pdfrwt>
<totfact> 0.10735475E-01</totfact>
</mgrwt>
</event>
<event>
 4    1  0.3365401E-008  0.5430402E+03  0.7818608E-02  0.1003118E+00
          2   -1    0    0  501    0  0.00000000000E+00  0.00000000000E+00  0.72499059414E+03  0.72499059414E+03  0.25500000000E-02 0. -1.
         -2   -1    0    0    0  501 -0.00000000000E+00 -0.00000000000E+00 -0.78126633429E+03  0.78126633430E+03  0.25500000000E-02 0.  1.
    8880022    1    1    2    0    0 -0.51082116839E+03 -0.10277501810E+03  0.49330019302E+03  0.73364685229E+03  0.15294330000E+03 0.  0.
    8880022    1    1    2    0    0  0.51082116839E+03  0.10277501810E+03 -0.54957593318E+03  0.77261007615E+03  0.15294330000E+03 0.  1.
<mgrwt>
<rscale>  0 0.54304017E+03</rscale>
<asrwt>0</asrwt>
<pdfrwt beam="1">  1        2 0.11153701E+00 0.54304017E+03</pdfrwt>
<pdfrwt beam="2">  1       -2 0.12019482E+00 0.54304017E+03</pdfrwt>
<totfact> 0.21491572E+01</totfact>
</mgrwt>
</event>
<event>
 4    1  0.3365401E-008  0.3377134E+03  0.7818608E-02  0.1067774E+00
         -2   -1    0    0    0  501 -0.00000000000E+00  0.00000000000E+00  0.61032494559E+02  0.61032494612E+02  0.25500000000E-02 0.  1.
          2   -1    0    0  501    0  0.00000000000E+00 -0.00000000000E+00 -0.22653015035E+04  0.22653015035E+04  0.25500000000E-02 0. -1.
    8880022    1    1    2    0    0 -0.66540516617E+02  0.29365118823E+03 -0.61542907461E+03  0.70199947264E+03  0.15294330000E+03 0.  0.
    8880022    1    1    2    0    0  0.66540516617E+02 -0.29365118823E+03 -0.15888399343E+04  0.16243345255E+04  0.15294330000E+03 0.  0.
<mgrwt>
<rscale>  0 0.33771336E+03</rscale>
<asrwt>0</asrwt>
<pdfrwt beam="1">  1        2 0.34850786E+00 0.33771336E+03</pdfrwt>
<pdfrwt beam="2">  1       -2 0.93896163E-02 0.33771336E+03</pdfrwt>
<totfact> 0.38995286E+02</totfact>
</mgrwt>
</event>
<event>
 4    1  0.3365401E-008  0.1842364E+03  0.7818608E-02  0.1163765E+00
         -2   -1    0    0    0  501 -0.00000000000E+00  0.00000000000E+00  0.36278169855E+03  0.36278169856E+03  0.25500000000E-02 0.  1.
          2   -1    0    0  501    0  0.00000000000E+00 -0.00000000000E+00 -0.71098514552E+03  0.71098514552E+03  0.25500000000E-02 0. -1.
    8880022    1    1    2    0    0 -0.39976029377E+02  0.94621866335E+02  0.32621007532E+03  0.37464122406E+03  0.15294330000E+03 0.  0.
    8880022    1    1    2    0    0  0.39976029377E+02 -0.94621866335E+02 -0.67441352228E+03  0.69912562002E+03  0.15294330000E+03 0. -1.
<mgrwt>
<rscale>  0 0.18423635E+03</rscale>
<asrwt>0</asrwt>
<pdfrwt beam="1">  1        2 0.10938233E+00 0.18423635E+03</pdfrwt>
<pdfrwt beam="2">  1       -2 0.55812569E-01 0.18423635E+03</pdfrwt>
<totfact> 0.12980955E+02</totfact>
</mgrwt>
</event>
<event>
 4    1  0.3365401E-008  0.2509393E+03  0.7818608E-02  0.1112713E+00
          2   -1    0    0  501    0  0.00000000000E+00  0.00000000000E+00  0.50614666760E+03  0.50614666761E+03  0.25500000000E-02 0. -1.
         -2   -1    0    0    0  501 -0.00000000000E+00 -0.00000000000E+00 -0.16420989052E+03  0.16420989054E+03  0.25500000000E-02 0.  1.
    8880022    1    1    2    0    0 -0.10276983262E+03  0.17034451009E+03  0.33597757776E+03  0.41934648727E+03  0.15294330000E+03 0. -1.
    8880022    1    1    2    0    0  0.10276983262E+03 -0.17034451009E+03  0.59591993194E+01  0.25101007088E+03  0.15294330000E+03 0.  0.
<mgrwt>
<rscale>  0 0.25093932E+03</rscale>
<asrwt>0</asrwt>
<pdfrwt beam="1">  1        2 0.77868717E-01 0.25093932E+03</pdfrwt>
<pdfrwt beam="2">  1       -2 0.25263061E-01 0.25093932E+03</pdfrwt>
<totfact> 0.85864419E+02</totfact>
</mgrwt>
</event>
<event>
 4    1  0.3365401E-008  0.2463319E+03  0.7818608E-02  0.1115645E+00
          2   -1    0    0  501    0  0.00000000000E+00  0.00000000000E+00  0.42294799239E+03  0.42294799240E+03  0.25500000000E-02 0. -1.
         -2   -1    0    0    0  501 -0.00000000000E+00 -0.00000000000E+00 -0.59605287231E+03  0.59605287231E+03  0.25500000000E-02 0.  1.
    8880022    1    1    2    0    0  0.10702670399E+03  0.16072660485E+03  0.35741619154E+03  0.43408034263E+03  0.15294330000E+03 0.  0.
    8880022    1    1    2    0    0 -0.10702670399E+03 -0.16072660485E+03 -0.53052107146E+03  0.58492052208E+03  0.15294330000E+03 0.  0.
<mgrwt>
<rscale>  0 0.24633191E+03</rscale>
<asrwt>0</asrwt>
<pdfrwt beam="1">  1        2 0.65068922E-01 0.24633191E+03</pdfrwt>
<pdfrwt beam="2">  1       -2 0.91700442E-01 0.24633191E+03</pdfrwt>
<totfact> 0.79774137E+01</totfact>
</mgrwt>
</event>
<event>
 4    1  0.3365401E-008  0.4546301E+03  0.7818608E-02  0.1026350E+00
         -2   -1    0    0    0  501 -0.00000000000E+00  0.00000000000E+00  0.35492179548E+03  0.35492179549E+03  0.25500000000E-02 0.  1.
          2   -1    0    0  501    0  0.00000000000E+00 -0.00000000000E+00 -0.12190884009E+04  0.12190884009E+04  0.25500000000E-02 0. -1.
    8880022    1    1    2    0    0 -0.17215189828E+03  0.39199563467E+03  0.13669190850E+03  0.47473485710E+03  0.15294330000E+03 0.  0.
    8880022    1    1    2    0    0  0.17215189828E+03 -0.39199563467E+03 -0.10008585139E+04  0.10992753393E+04  0.15294330000E+03 0.  1.
<mgrwt>
<rscale>  0 0.45463008E+03</rscale>
<asrwt>0</asrwt>
<pdfrwt beam="1">  1        2 0.18755206E+00 0.45463008E+03</pdfrwt>
<pdfrwt beam="2">  1       -2 0.54603354E-01 0.45463008E+03</pdfrwt>
<totfact> 0.61322124E+01</totfact>
</mgrwt>
</event>
<event>
 4    1  0.3365401E-008  0.6574316E+03  0.7818608E-02  0.9792933E-01
          2   -1    0    0  501    0  0.00000000000E+00  0.00000000000E+00  0.12841142792E+04  0.12841142792E+04  0.25500000000E-02 0. -1.
         -2   -1    0    0    0  501 -0.00000000000E+00 -0.00000000000E+00 -0.42941840410E+03  0.42941840411E+03  0.25500000000E-02 0.  1.
    8880022    1    1    2    0    0  0.51605213117E+03  0.37751144633E+03  0.82570196480E+03  0.10554620229E+04  0.15294330000E+03 0.  0.
    8880022    1    1    2    0    0 -0.51605213117E+03 -0.37751144633E+03  0.28993910315E+02  0.65807066037E+03  0.15294330000E+03 0.  0.
<mgrwt>
<rscale>  0 0.65743163E+03</rscale>
<asrwt>0</asrwt>
<pdfrwt beam="1">  1        2 0.19755604E+00 0.65743163E+03</pdfrwt>
<pdfrwt beam="2">  1       -2 0.66064371E-01 0.65743163E+03</pdfrwt>
<totfact> 0.36671223E+01</totfact>
</mgrwt>
</event>
<event>
 4    1  0.3365401E-008  0.4727386E+03  0.7818608E-02  0.1021150E+00
         -2   -1    0    0    0  501 -0.00000000000E+00  0.00000000000E+00  0.15057594582E+03  0.15057594584E+03  0.25500000000E-02 0.  1.
          2   -1    0    0  501    0  0.00000000000E+00 -0.00000000000E+00 -0.22033133571E+04  0.22033133571E+04  0.25500000000E-02 0. -1.
    8880022    1    1    2    0    0 -0.42136899236E+03 -0.15012747082E+03 -0.35397635911E+03  0.59057683755E+03  0.15294330000E+03 0.  0.
    8880022    1    1    2    0    0  0.42136899236E+03  0.15012747082E+03 -0.16987610521E+04  0.17633124653E+04  0.15294330000E+03 0.  0.
<mgrwt>
<rscale>  0 0.47273855E+03</rscale>
<asrwt>0</asrwt>
<pdfrwt beam="1">  1        2 0.33897126E+00 0.47273855E+03</pdfrwt>
<pdfrwt beam="2">  1       -2 0.23165532E-01 0.47273855E+03</pdfrwt>
<totfact> 0.90688539E+01</totfact>
</mgrwt>
</event>
<event>
 4    1  0.3365401E-008  0.8699070E+03  0.7818608E-02  0.9464001E-01
          2   -1    0    0  501    0  0.00000000000E+00  0.00000000000E+00  0.21072985578E+04  0.21072985578E+04  0.25500000000E-02 0. -1.
         -2   -1    0    0    0  501 -0.00000000000E+00 -0.00000000000E+00 -0.61629025644E+03  0.61629025644E+03  0.25500000000E-02 0.  1.
    8880022    1    1    2    0    0 -0.57592375151E+03 -0.63376525489E+03  0.16252216350E+04  0.18433891564E+04  0.15294330000E+03 0.  0.
    8880022    1    1    2    0    0  0.57592375151E+03  0.63376525489E+03 -0.13421333361E+03  0.88019965792E+03  0.15294330000E+03 0.  0.
<mgrwt>
<rscale>  0 0.86990702E+03</rscale>
<asrwt>0</asrwt>
<pdfrwt beam="1">  1        2 0.32419978E+00 0.86990702E+03</pdfrwt>
<pdfrwt beam="2">  1       -2 0.94813885E-01 0.86990702E+03</pdfrwt>
<totfact> 0.55574293E+00</totfact>
</mgrwt>
</event>
<event>
 4    1  0.3365401E-008  0.3470496E+03  0.7818608E-02  0.1063833E+00
          2   -1    0    0  501    0  0.00000000000E+00  0.00000000000E+00  0.18343189559E+04  0.18343189559E+04  0.25500000000E-02 0. -1.
         -2   -1    0    0    0  501 -0.00000000000E+00 -0.00000000000E+00 -0.96598744803E+02  0.96598744836E+02  0.25500000000E-02 0.  1.
    8880022    1    1    2    0    0  0.30679562797E+03  0.54113198382E+02  0.14152359197E+04  0.14571671685E+04  0.15294330000E+03 0.  0.
    8880022    1    1    2    0    0 -0.30679562797E+03 -0.54113198382E+02  0.32248429145E+03  0.47375053228E+03  0.15294330000E+03 0.  0.
<mgrwt>
<rscale>  0 0.34704963E+03</rscale>
<asrwt>0</asrwt>
<pdfrwt beam="1">  1        2 0.28220289E+00 0.34704963E+03</pdfrwt>
<pdfrwt beam="2">  1       -2 0.14861347E-01 0.34704963E+03</pdfrwt>
<totfact> 0.31283709E+02</totfact>
</mgrwt>
</event>
<event>
 4    1  0.3365401E-008  0.2391709E+03  0.7818608E-02  0.1120346E+00
          2   -1    0    0  501    0  0.00000000000E+00  0.00000000000E+00  0.21597245322E+04  0.21597245322E+04  0.25500000000E-02 0. -1.
         -2   -1    0    0    0  501 -0.00000000000E+00 -0.00000000000E+00 -0.15331905159E+04  0.15331905159E+04  0.25500000000E-02 0.  1.
    8880022    1    1    2    0    0 -0.13429329138E+03 -0.12560404609E+03  0.21437061225E+04  0.21570068746E+04  0.15294330000E+03 0.  0.
    8880022    1    1    2    0    0  0.13429329138E+03  0.12560404609E+03 -0.15171721062E+04  0.15359081735E+04  0.15294330000E+03 0.  0.
<mgrwt>
<rscale>  0 0.23917090E+03</rscale>
<asrwt>0</asrwt>
<pdfrwt beam="1">  1        2 0.33226531E+00 0.23917090E+03</pdfrwt>
<pdfrwt beam="2">  1       -2 0.23587546E+00 0.23917090E+03</pdfrwt>
<totfact> 0.55465008E-01</totfact>
</mgrwt>
</event>
<event>
 4    1  0.3365401E-008  0.1173349E+04  0.7818608E-02  0.9136510E-01
          2   -1    0    0  501    0  0.00000000000E+00  0.00000000000E+00  0.25644383771E+04  0.25644383771E+04  0.25500000000E-02 0. -1.
         -2   -1    0    0    0  501 -0.00000000000E+00 -0.00000000000E+00 -0.10106143588E+04  0.10106143588E+04  0.25500000000E-02 0.  1.
    8880022    1    1    2    0    0  0.11113863717E+04 -0.34376709950E+03 -0.44695954876E+03  0.12555954672E+04  0.15294330000E+03 0.  0.
    8880022    1    1    2    0    0 -0.11113863717E+04  0.34376709950E+03  0.20007835671E+04  0.23194572687E+04  0.15294330000E+03 0.  0.
<mgrwt>
<rscale>  0 0.11733487E+04</rscale>
<asrwt>0</asrwt>
<pdfrwt beam="1">  1        2 0.39452897E+00 0.11733487E+04</pdfrwt>
<pdfrwt beam="2">  1       -2 0.15547914E+00 0.11733487E+04</pdfrwt>
<totfact> 0.85330549E-01</totfact>
</mgrwt>
</event>
<event>
 4    1  0.3365401E-008  0.8603202E+03  0.7818608E-02  0.9476589E-01
         -2   -1    0    0    0  501 -0.00000000000E+00  0.00000000000E+00  0.31725201566E+03  0.31725201567E+03  0.25500000000E-02 0.  1.
          2   -1    0    0  501    0  0.00000000000E+00 -0.00000000000E+00 -0.29431646822E+04  0.29431646822E+04  0.25500000000E-02 0. -1.
    8880022    1    1    2    0    0  0.81188613114E+03 -0.24000014125E+03 -0.20552184227E+04  0.22280201022E+04  0.15294330000E+03 0.  0.
    8880022    1    1    2    0    0 -0.81188613114E+03  0.24000014125E+03 -0.57069424376E+03  0.10323965956E+04  0.15294330000E+03 0.  0.
<mgrwt>
<rscale>  0 0.86032018E+03</rscale>
<asrwt>0</asrwt>
<pdfrwt beam="1">  1        2 0.45279455E+00 0.86032018E+03</pdfrwt>
<pdfrwt beam="2">  1       -2 0.48808004E-01 0.86032018E+03</pdfrwt>
<totfact> 0.78310201E+00</totfact>
</mgrwt>
</event>
<event>
 4    1  0.3365401E-008  0.5179221E+03  0.7818608E-02  0.1009204E+00
         -2   -1    0    0    0  501 -0.00000000000E+00  0.00000000000E+00  0.69999856896E+03  0.69999856897E+03  0.25500000000E-02 0.  1.
          2   -1    0    0  501    0  0.00000000000E+00 -0.00000000000E+00 -0.11883834273E+04  0.11883834273E+04  0.25500000000E-02 0. -1.
    8880022    1    1    2    0    0  0.41037251951E+03  0.27648874879E+03 -0.10213829566E+04  0.11451927480E+04  0.15294330000E+03 0.  0.
    8880022    1    1    2    0    0 -0.41037251951E+03 -0.27648874879E+03  0.53299809827E+03  0.74318924828E+03  0.15294330000E+03 0.  0.
<mgrwt>
<rscale>  0 0.51792208E+03</rscale>
<asrwt>0</asrwt>
<pdfrwt beam="1">  1        2 0.18282822E+00 0.51792208E+03</pdfrwt>
<pdfrwt beam="2">  1       -2 0.10769209E+00 0.51792208E+03</pdfrwt>
<totfact> 0.14027587E+01</totfact>
</mgrwt>
</event>
<event>
 4    1  0.3365401E-008  0.2477417E+03  0.7818608E-02  0.1114740E+00
         -2   -1    0    0    0  501 -0.00000000000E+00  0.00000000000E+00  0.48104646527E+03  0.48104646528E+03  0.25500000000E-02 0.  1.
          2   -1    0    0  501    0  0.00000000000E+00 -0.00000000000E+00 -0.48696397285E+03  0.48696397286E+03  0.25500000000E-02 0. -1.
    8880022    1    1    2    0    0  0.37329922745E+02  0.19128717576E+03 -0.41875052698E+03  0.48654697985E+03  0.15294330000E+03 0. -1.
    8880022    1    1    2    0    0 -0.37329922745E+02 -0.19128717576E+03  0.41283301940E+03  0.48146345828E+03  0.15294330000E+03 0.  0.
<mgrwt>
<rscale>  0 0.24774172E+03</rscale>
<asrwt>0</asrwt>
<pdfrwt beam="1">  1        2 0.74917534E-01 0.24774172E+03</pdfrwt>
<pdfrwt beam="2">  1       -2 0.74007149E-01 0.24774172E+03</pdfrwt>
<totfact> 0.10993850E+02</totfact>
</mgrwt>
</event>
<event>
 4    1  0.3365401E-008  0.1177085E+04  0.7818608E-02  0.9133153E-01
          2   -1    0    0  501    0  0.00000000000E+00  0.00000000000E+00  0.11629448728E+04  0.11629448728E+04  0.25500000000E-02 0. -1.
         -2   -1    0    0    0  501 -0.00000000000E+00 -0.00000000000E+00 -0.15078782779E+04  0.15078782779E+04  0.25500000000E-02 0.  1.
    8880022    1    1    2    0    0 -0.54749294423E+03  0.10307230941E+04 -0.78426078711E+03  0.14144240015E+04  0.15294330000E+03 0.  0.
    8880022    1    1    2    0    0  0.54749294423E+03 -0.10307230941E+04  0.43932738195E+03  0.12563991492E+04  0.15294330000E+03 0.  0.
<mgrwt>
<rscale>  0 0.11770855E+04</rscale>
<asrwt>0</asrwt>
<pdfrwt beam="1">  1        2 0.17891459E+00 0.11770855E+04</pdfrwt>
<pdfrwt beam="2">  1       -2 0.23198127E+00 0.11770855E+04</pdfrwt>
<totfact> 0.16143118E+00</totfact>
</mgrwt>
</event>
<event>
 4    1  0.3365401E-008  0.2790968E+03  0.7818608E-02  0.1096183E+00
          2   -1    0    0  501    0  0.00000000000E+00  0.00000000000E+00  0.16748214054E+04  0.16748214054E+04  0.25500000000E-02 0. -1.
         -2   -1    0    0    0  501 -0.00000000000E+00 -0.00000000000E+00 -0.28160202853E+03  0.28160202854E+03  0.25500000000E-02 0.  1.
    8880022    1    1    2    0    0 -0.46724013100E+02 -0.22873621081E+03  0.15903974851E+04  0.16147009634E+04  0.15294330000E+03 0.  0.
    8880022    1    1    2    0    0  0.46724013100E+02  0.22873621081E+03 -0.19717810820E+03  0.34172247059E+03  0.15294330000E+03 0.  1.
<mgrwt>
<rscale>  0 0.27909683E+03</rscale>
<asrwt>0</asrwt>
<pdfrwt beam="1">  1        2 0.25766483E+00 0.27909683E+03</pdfrwt>
<pdfrwt beam="2">  1       -2 0.43323389E-01 0.27909683E+03</pdfrwt>
<totfact> 0.56863000E+01</totfact>
</mgrwt>
</event>
<event>
 4    1  0.3365401E-008  0.4479986E+03  0.7818608E-02  0.1028321E+00
          2   -1    0    0  501    0  0.00000000000E+00  0.00000000000E+00  0.78221264154E+03  0.78221264154E+03  0.25500000000E-02 0. -1.
         -2   -1    0    0    0  501 -0.00000000000E+00 -0.00000000000E+00 -0.78997057332E+03  0.78997057333E+03  0.25500000000E-02 0.  1.
    8880022    1    1    2    0    0  0.27302665435E+03  0.32057378180E+03  0.64205630302E+03  0.78290424244E+03  0.15294330000E+03 0.  0.
    8880022    1    1    2    0    0 -0.27302665435E+03 -0.32057378180E+03 -0.64981423480E+03  0.78927897244E+03  0.15294330000E+03 0.  0.
<mgrwt>
<rscale>  0 0.44799861E+03</rscale>
<asrwt>0</asrwt>
<pdfrwt beam="1">  1        2 0.12034041E+00 0.44799861E+03</pdfrwt>
<pdfrwt beam="2">  1       -2 0.12153393E+00 0.44799861E+03</pdfrwt>
<totfact> 0.19242217E+01</totfact>
</mgrwt>
</event>
<event>
 4    1  0.3365401E-008  0.5305763E+03  0.7818608E-02  0.1006092E+00
          2   -1    0    0  501    0  0.00000000000E+00  0.00000000000E+00  0.19704687662E+04  0.19704687662E+04  0.25500000000E-02 0. -1.
         -2   -1    0    0    0  501 -0.00000000000E+00 -0.00000000000E+00 -0.70464766298E+03  0.70464766298E+03  0.25500000000E-02 0.  1.
    8880022    1    1    2    0    0 -0.45780980123E+03 -0.22029470727E+03 -0.56138223987E+03  0.77243850526E+03  0.15294330000E+03 0.  0.
    8880022    1    1    2    0    0  0.45780980123E+03  0.22029470727E+03  0.18272033430E+04  0.19026779239E+04  0.15294330000E+03 0.  0.
<mgrwt>
<rscale>  0 0.53057631E+03</rscale>
<asrwt>0</asrwt>
<pdfrwt beam="1">  1        2 0.30314904E+00 0.53057631E+03</pdfrwt>
<pdfrwt beam="2">  1       -2 0.10840733E+00 0.53057631E+03</pdfrwt>
<totfact> 0.51059196E+00</totfact>
</mgrwt>
</event>
<event>
 4    1  0.3644029E-008  0.6961827E+03  0.7818608E-02  0.9723783E-01
         -2   -1    0    0    0  501 -0.00000000000E+00  0.00000000000E+00  0.10520427386E+04  0.10520427386E+04  0.25500000000E-02 0.  1.
          2   -1    0    0  501    0  0.00000000000E+00 -0.00000000000E+00 -0.18767180063E+04  0.18767180063E+04  0.25500000000E-02 0. -1.
    8880022    1    1    2    0    0  0.24090057881E+03  0.63501618572E+03 -0.16843449845E+04  0.18225499513E+04  0.15294330000E+03 0.  0.
    8880022    1    1    2    0    0 -0.24090057881E+03 -0.63501618572E+03  0.85966971684E+03  0.11062107937E+04  0.15294330000E+03 0.  0.
<mgrwt>
<rscale>  0 0.69618266E+03</rscale>
<asrwt>0</asrwt>
<pdfrwt beam="1">  1        2 0.28872585E+00 0.69618266E+03</pdfrwt>
<pdfrwt beam="2">  1       -2 0.16185273E+00 0.69618266E+03</pdfrwt>
<totfact> 0.19983966E+00</totfact>
</mgrwt>
</event>
<event>
 4    1  0.3365401E-008  0.6007010E+03  0.7818608E-02  0.9903953E-01
         -2   -1    0    0    0  501 -0.00000000000E+00  0.00000000000E+00  0.71433411685E+03  0.71433411685E+03  0.25500000000E-02 0.  1.
          2   -1    0    0  501    0  0.00000000000E+00 -0.00000000000E+00 -0.66593808232E+03  0.66593808233E+03  0.25500000000E-02 0. -1.
    8880022    1    1    2    0    0  0.54353279588E+03 -0.20499307043E+03  0.36331740947E+03  0.70202653238E+03  0.15294330000E+03 0.  0.
    8880022    1    1    2    0    0 -0.54353279588E+03  0.20499307043E+03 -0.31492137495E+03  0.67824566680E+03  0.15294330000E+03 0.  0.
<mgrwt>
<rscale>  0 0.60070102E+03</rscale>
<asrwt>0</asrwt>
<pdfrwt beam="1">  1        2 0.10245201E+00 0.60070102E+03</pdfrwt>
<pdfrwt beam="2">  1       -2 0.10989756E+00 0.60070102E+03</pdfrwt>
<totfact> 0.29520872E+01</totfact>
</mgrwt>
</event>
<event>
 4    1  0.3365401E-008  0.4325307E+03  0.7818608E-02  0.1033063E+00
          2   -1    0    0  501    0  0.00000000000E+00  0.00000000000E+00  0.73225060153E+03  0.73225060153E+03  0.25500000000E-02 0. -1.
         -2   -1    0    0    0  501 -0.00000000000E+00 -0.00000000000E+00 -0.39866607068E+03  0.39866607069E+03  0.25500000000E-02 0.  1.
    8880022    1    1    2    0    0  0.30253082824E+03 -0.26863780988E+03 -0.17207603200E+03  0.46550294170E+03  0.15294330000E+03 0.  0.
    8880022    1    1    2    0    0 -0.30253082824E+03  0.26863780988E+03  0.50566056284E+03  0.66541373052E+03  0.15294330000E+03 0. -1.
<mgrwt>
<rscale>  0 0.43253072E+03</rscale>
<asrwt>0</asrwt>
<pdfrwt beam="1">  1        2 0.11265394E+00 0.43253072E+03</pdfrwt>
<pdfrwt beam="2">  1       -2 0.61333242E-01 0.43253072E+03</pdfrwt>
<totfact> 0.99315183E+01</totfact>
</mgrwt>
</event>
<event>
 4    1  0.3365401E-008  0.3146697E+03  0.7818608E-02  0.1078129E+00
         -2   -1    0    0    0  501 -0.00000000000E+00  0.00000000000E+00  0.97747434154E+03  0.97747434154E+03  0.25500000000E-02 0.  1.
          2   -1    0    0  501    0  0.00000000000E+00 -0.00000000000E+00 -0.13502522796E+04  0.13502522796E+04  0.25500000000E-02 0. -1.
    8880022    1    1    2    0    0  0.68395013057E+02  0.26635965267E+03  0.93296552240E+03  0.98460228590E+03  0.15294330000E+03 0.  0.
    8880022    1    1    2    0    0 -0.68395013057E+02 -0.26635965267E+03 -0.13057434605E+04  0.13431243353E+04  0.15294330000E+03 0. -1.
<mgrwt>
<rscale>  0 0.31466966E+03</rscale>
<asrwt>0</asrwt>
<pdfrwt beam="1">  1        2 0.20773112E+00 0.31466966E+03</pdfrwt>
<pdfrwt beam="2">  1       -2 0.15038067E+00 0.31466966E+03</pdfrwt>
<totfact> 0.51950005E+00</totfact>
</mgrwt>
</event>
<event>
 4    1  0.3365401E-008  0.5769375E+03  0.7818608E-02  0.9954443E-01
         -2   -1    0    0    0  501 -0.00000000000E+00  0.00000000000E+00  0.84804020513E+03  0.84804020513E+03  0.25500000000E-02 0.  1.
          2   -1    0    0  501    0  0.00000000000E+00 -0.00000000000E+00 -0.53547003275E+03  0.53547003276E+03  0.25500000000E-02 0. -1.
    8880022    1    1    2    0    0 -0.81837421920E+02 -0.55024344281E+03 -0.20115673631E+03  0.61099991453E+03  0.15294330000E+03 0.  0.
    8880022    1    1    2    0    0  0.81837421920E+02  0.55024344281E+03  0.51372690868E+03  0.77251032336E+03  0.15294330000E+03 0.  0.
<mgrwt>
<rscale>  0 0.57693749E+03</rscale>
<asrwt>0</asrwt>
<pdfrwt beam="1">  1        2 0.82380006E-01 0.57693749E+03</pdfrwt>
<pdfrwt beam="2">  1       -2 0.13046772E+00 0.57693749E+03</pdfrwt>
<totfact> 0.25175952E+01</totfact>
</mgrwt>
</event>
<event>
 4    1  0.3365401E-008  0.3907875E+03  0.7818608E-02  0.1047017E+00
          2   -1    0    0  501    0  0.00000000000E+00  0.00000000000E+00  0.45855101528E+03  0.45855101528E+03  0.25500000000E-02 0. -1.
         -2   -1    0    0    0  501 -0.00000000000E+00 -0.00000000000E+00 -0.62869135459E+03  0.62869135460E+03  0.25500000000E-02 0.  1.
    8880022    1    1    2    0    0  0.27698869162E+03 -0.22934786619E+03 -0.45786438434E+03  0.60195899069E+03  0.15294330000E+03 0.  0.
    8880022    1    1    2    0    0 -0.27698869162E+03  0.22934786619E+03  0.28772404503E+03  0.48528337919E+03  0.15294330000E+03 0. -1.
<mgrwt>
<rscale>  0 0.39078745E+03</rscale>
<asrwt>0</asrwt>
<pdfrwt beam="1">  1        2 0.70546310E-01 0.39078745E+03</pdfrwt>
<pdfrwt beam="2">  1       -2 0.96721747E-01 0.39078745E+03</pdfrwt>
<totfact> 0.63327197E+01</totfact>
</mgrwt>
</event>
<event>
 4    1  0.3365401E-008  0.5318380E+03  0.7818608E-02  0.1005787E+00
          2   -1    0    0  501    0  0.00000000000E+00  0.00000000000E+00  0.20102549170E+04  0.20102549170E+04  0.25500000000E-02 0. -1.
         -2   -1    0    0    0  501 -0.00000000000E+00 -0.00000000000E+00 -0.44846101347E+03  0.44846101348E+03  0.25500000000E-02 0.  1.
    8880022    1    1    2    0    0 -0.32052741624E+03 -0.39588147227E+03  0.17993001223E+04  0.18762549261E+04  0.15294330000E+03 0.  0.
    8880022    1    1    2    0    0  0.32052741624E+03  0.39588147227E+03 -0.23750621876E+03  0.58246100437E+03  0.15294330000E+03 0.  0.
<mgrwt>
<rscale>  0 0.53183796E+03</rscale>
<asrwt>0</asrwt>
<pdfrwt beam="1">  1        2 0.30926999E+00 0.53183796E+03</pdfrwt>
<pdfrwt beam="2">  1       -2 0.68994002E-01 0.53183796E+03</pdfrwt>
<totfact> 0.13606700E+01</totfact>
</mgrwt>
</event>
<event>
 4    1  0.3365401E-008  0.3533632E+03  0.7818608E-02  0.1061243E+00
          2   -1    0    0  501    0  0.00000000000E+00  0.00000000000E+00  0.26188167671E+04  0.26188167671E+04  0.25500000000E-02 0. -1.
         -2   -1    0    0    0  501 -0.00000000000E+00 -0.00000000000E+00 -0.12755388670E+03  0.12755388673E+03  0.25500000000E-02 0.  1.
    8880022    1    1    2    0    0 -0.31756676397E+03 -0.25004978973E+02  0.23322680500E+04  0.23588852894E+04  0.15294330000E+03 0.  0.
    8880022    1    1    2    0    0  0.31756676397E+03  0.25004978973E+02  0.15899483045E+03  0.38748536447E+03  0.15294330000E+03 0.  0.
<mgrwt>
<rscale>  0 0.35336320E+03</rscale>
<asrwt>0</asrwt>
<pdfrwt beam="1">  1        2 0.40289490E+00 0.35336320E+03</pdfrwt>
<pdfrwt beam="2">  1       -2 0.19623674E-01 0.35336320E+03</pdfrwt>
<totfact> 0.73459619E+01</totfact>
</mgrwt>
</event>
<event>
 4    1  0.3365401E-008  0.1077135E+04  0.7818608E-02  0.9227769E-01
         -2   -1    0    0    0  501 -0.00000000000E+00  0.00000000000E+00  0.14322768786E+04  0.14322768786E+04  0.25500000000E-02 0.  1.
          2   -1    0    0  501    0  0.00000000000E+00 -0.00000000000E+00 -0.10534303774E+04  0.10534303774E+04  0.25500000000E-02 0. -1.
    8880022    1    1    2    0    0 -0.10661835122E+04 -0.89599050229E+01  0.78681300764E+03  0.13339017668E+04  0.15294330000E+03 0.  0.
    8880022    1    1    2    0    0  0.10661835122E+04  0.89599050229E+01 -0.40796650642E+03  0.11518054892E+04  0.15294330000E+03 0.  0.
<mgrwt>
<rscale>  0 0.10771347E+04</rscale>
<asrwt>0</asrwt>
<pdfrwt beam="1">  1        2 0.16206621E+00 0.10771347E+04</pdfrwt>
<pdfrwt beam="2">  1       -2 0.22035029E+00 0.10771347E+04</pdfrwt>
<totfact> 0.22557528E+00</totfact>
</mgrwt>
</event>
<event>
 4    1  0.3365401E-008  0.4557925E+03  0.7818608E-02  0.1026009E+00
         -2   -1    0    0    0  501 -0.00000000000E+00  0.00000000000E+00  0.49948163720E+03  0.49948163721E+03  0.25500000000E-02 0.  1.
          2   -1    0    0  501    0  0.00000000000E+00 -0.00000000000E+00 -0.11528037215E+04  0.11528037215E+04  0.25500000000E-02 0. -1.
    8880022    1    1    2    0    0 -0.15373196935E+03 -0.40090105698E+03 -0.98716499913E+03  0.10873093232E+04  0.15294330000E+03 0.  0.
    8880022    1    1    2    0    0  0.15373196935E+03  0.40090105698E+03  0.33384291481E+03  0.56497603549E+03  0.15294330000E+03 0.  0.
<mgrwt>
<rscale>  0 0.45579253E+03</rscale>
<asrwt>0</asrwt>
<pdfrwt beam="1">  1        2 0.17735442E+00 0.45579253E+03</pdfrwt>
<pdfrwt beam="2">  1       -2 0.76843329E-01 0.45579253E+03</pdfrwt>
<totfact> 0.32352790E+01</totfact>
</mgrwt>
</event>
<event>
 4    1  0.3365401E-008  0.4370521E+03  0.7818608E-02  0.1031655E+00
         -2   -1    0    0    0  501 -0.00000000000E+00  0.00000000000E+00  0.83185375995E+03  0.83185375995E+03  0.25500000000E-02 0.  1.
          2   -1    0    0  501    0  0.00000000000E+00 -0.00000000000E+00 -0.44832784056E+03  0.44832784057E+03  0.25500000000E-02 0. -1.
    8880022    1    1    2    0    0  0.84169398319E+02  0.40067248540E+03 -0.25530212164E+03  0.50615585988E+03  0.15294330000E+03 0.  0.
    8880022    1    1    2    0    0 -0.84169398319E+02 -0.40067248540E+03  0.63882804102E+03  0.77402574064E+03  0.15294330000E+03 0.  0.
<mgrwt>
<rscale>  0 0.43705215E+03</rscale>
<asrwt>0</asrwt>
<pdfrwt beam="1">  1        2 0.68973515E-01 0.43705215E+03</pdfrwt>
<pdfrwt beam="2">  1       -2 0.12797750E+00 0.43705215E+03</pdfrwt>
<totfact> 0.32907331E+01</totfact>
</mgrwt>
</event>
<event>
 4    1  0.3365401E-008  0.4115544E+03  0.7818608E-02  0.1039851E+00
          2   -1    0    0  501    0  0.00000000000E+00  0.00000000000E+00  0.28830272497E+04  0.28830272497E+04  0.25500000000E-02 0. -1.
         -2   -1    0    0    0  501 -0.00000000000E+00 -0.00000000000E+00 -0.37793058185E+03  0.37793058186E+03  0.25500000000E-02 0.  1.
    8880022    1    1    2    0    0  0.35453149051E+02  0.38043194417E+03 -0.24585106736E+03  0.47939523388E+03  0.15294330000E+03 0.  0.
    8880022    1    1    2    0    0 -0.35453149051E+02 -0.38043194417E+03  0.27509477352E+04  0.27815625977E+04  0.15294330000E+03 0.  0.
<mgrwt>
<rscale>  0 0.41155442E+03</rscale>
<asrwt>0</asrwt>
<pdfrwt beam="1">  1        2 0.44354268E+00 0.41155442E+03</pdfrwt>
<pdfrwt beam="2">  1       -2 0.58143164E-01 0.41155442E+03</pdfrwt>
<totfact> 0.65859239E+00</totfact>
</mgrwt>
</event>
<event>
 4    1  0.3365401E-008  0.2431978E+03  0.7818608E-02  0.1117681E+00
          2   -1    0    0  501    0  0.00000000000E+00  0.00000000000E+00  0.31640287913E+04  0.31640287913E+04  0.25500000000E-02 0. -1.
         -2   -1    0    0    0  501 -0.00000000000E+00 -0.00000000000E+00 -0.47370478379E+02  0.47370478447E+02  0.25500000000E-02 0.  1.
    8880022    1    1    2    0    0  0.18903649324E+03 -0.43258053191E+01  0.30898821308E+03  0.39321606936E+03  0.15294330000E+03 0.  0.
    8880022    1    1    2    0    0 -0.18903649324E+03  0.43258053191E+01  0.28076700998E+04  0.28181832004E+04  0.15294330000E+03 0.  0.
<mgrwt>
<rscale>  0 0.24319778E+03</rscale>
<asrwt>0</asrwt>
<pdfrwt beam="1">  1        2 0.48677377E+00 0.24319778E+03</pdfrwt>
<pdfrwt beam="2">  1       -2 0.72877643E-02 0.24319778E+03</pdfrwt>
<totfact> 0.18359983E+02</totfact>
</mgrwt>
</event>
<event>
 4    1  0.3365401E-008  0.2447337E+03  0.7818608E-02  0.1116679E+00
         -2   -1    0    0    0  501 -0.00000000000E+00  0.00000000000E+00  0.51508618214E+02  0.51508618277E+02  0.25500000000E-02 0.  1.
          2   -1    0    0  501    0  0.00000000000E+00 -0.00000000000E+00 -0.15016014645E+04  0.15016014645E+04  0.25500000000E-02 0. -1.
    8880022    1    1    2    0    0  0.17696739798E+03 -0.72010079954E+02 -0.35618497253E+03  0.43216003891E+03  0.15294330000E+03 0.  0.
    8880022    1    1    2    0    0 -0.17696739798E+03  0.72010079954E+02 -0.10939078738E+04  0.11209500439E+04  0.15294330000E+03 0.  0.
<mgrwt>
<rscale>  0 0.24473366E+03</rscale>
<asrwt>0</asrwt>
<pdfrwt beam="1">  1        2 0.23101558E+00 0.24473366E+03</pdfrwt>
<pdfrwt beam="2">  1       -2 0.79244039E-02 0.24473366E+03</pdfrwt>
<totfact> 0.13102606E+03</totfact>
</mgrwt>
</event>
<event>
 4    1  0.3365401E-008  0.2570594E+03  0.7818608E-02  0.1108923E+00
         -2   -1    0    0    0  501 -0.00000000000E+00  0.00000000000E+00  0.10725719046E+03  0.10725719049E+03  0.25500000000E-02 0.  1.
          2   -1    0    0  501    0  0.00000000000E+00 -0.00000000000E+00 -0.13056054144E+04  0.13056054144E+04  0.25500000000E-02 0. -1.
    8880022    1    1    2    0    0  0.18062891769E+03  0.10030484224E+03 -0.11125525261E+04  0.11418636712E+04  0.15294330000E+03 0.  0.
    8880022    1    1    2    0    0 -0.18062891769E+03 -0.10030484224E+03 -0.85795697871E+02  0.27099893371E+03  0.15294330000E+03 0.  0.
<mgrwt>
<rscale>  0 0.25705937E+03</rscale>
<asrwt>0</asrwt>
<pdfrwt beam="1">  1        2 0.20086236E+00 0.25705937E+03</pdfrwt>
<pdfrwt beam="2">  1       -2 0.16501107E-01 0.25705937E+03</pdfrwt>
<totfact> 0.51152724E+02</totfact>
</mgrwt>
</event>
<event>
 4    1  0.3365401E-008  0.4506368E+03  0.7818608E-02  0.1027532E+00
         -2   -1    0    0    0  501 -0.00000000000E+00  0.00000000000E+00  0.30318049399E+03  0.30318049400E+03  0.25500000000E-02 0.  1.
          2   -1    0    0  501    0  0.00000000000E+00 -0.00000000000E+00 -0.28220443887E+04  0.28220443887E+04  0.25500000000E-02 0. -1.
    8880022    1    1    2    0    0  0.88023249486E+02  0.41464896323E+03 -0.26240593258E+04  0.26624726954E+04  0.15294330000E+03 0.  0.
    8880022    1    1    2    0    0 -0.88023249486E+02 -0.41464896323E+03  0.10519543110E+03  0.46275218735E+03  0.15294330000E+03 0.  0.
<mgrwt>
<rscale>  0 0.45063678E+03</rscale>
<asrwt>0</asrwt>
<pdfrwt beam="1">  1        2 0.43416066E+00 0.45063678E+03</pdfrwt>
<pdfrwt beam="2">  1       -2 0.46643155E-01 0.45063678E+03</pdfrwt>
<totfact> 0.11058015E+01</totfact>
</mgrwt>
</event>
<event>
 4    1  0.3365401E-008  0.3513732E+03  0.7818608E-02  0.1062053E+00
         -2   -1    0    0    0  501 -0.00000000000E+00  0.00000000000E+00  0.18622757484E+03  0.18622757486E+03  0.25500000000E-02 0.  1.
          2   -1    0    0  501    0  0.00000000000E+00 -0.00000000000E+00 -0.15932038100E+04  0.15932038100E+04  0.25500000000E-02 0. -1.
    8880022    1    1    2    0    0  0.29072445830E+03 -0.12470275815E+03 -0.13833361346E+04  0.14272638169E+04  0.15294330000E+03 0.  0.
    8880022    1    1    2    0    0 -0.29072445830E+03  0.12470275815E+03 -0.23640100487E+02  0.35216756795E+03  0.15294330000E+03 0.  0.
<mgrwt>
<rscale>  0 0.35137322E+03</rscale>
<asrwt>0</asrwt>
<pdfrwt beam="1">  1        2 0.24510827E+00 0.35137322E+03</pdfrwt>
<pdfrwt beam="2">  1       -2 0.28650397E-01 0.35137322E+03</pdfrwt>
<totfact> 0.13444762E+02</totfact>
</mgrwt>
</event>
<event>
 4    1  0.3365401E-008  0.2751500E+03  0.7818608E-02  0.1098368E+00
         -2   -1    0    0    0  501 -0.00000000000E+00  0.00000000000E+00  0.61253983936E+03  0.61253983937E+03  0.25500000000E-02 0.  1.
          2   -1    0    0  501    0  0.00000000000E+00 -0.00000000000E+00 -0.30496263196E+03  0.30496263197E+03  0.25500000000E-02 0. -1.
    8880022    1    1    2    0    0 -0.18176705989E+03  0.13884017116E+03  0.50756801649E+03  0.57734980867E+03  0.15294330000E+03 0.  1.
    8880022    1    1    2    0    0  0.18176705989E+03 -0.13884017116E+03 -0.19999080909E+03  0.34015266267E+03  0.15294330000E+03 0.  0.
<mgrwt>
<rscale>  0 0.27514998E+03</rscale>
<asrwt>0</asrwt>
<pdfrwt beam="1">  1        2 0.46917329E-01 0.27514998E+03</pdfrwt>
<pdfrwt beam="2">  1       -2 0.94236897E-01 0.27514998E+03</pdfrwt>
<totfact> 0.10657224E+02</totfact>
</mgrwt>
</event>
<event>
 4    1  0.3365401E-008  0.1270727E+04  0.7818608E-02  0.9053106E-01
          2   -1    0    0  501    0  0.00000000000E+00  0.00000000000E+00  0.41243982475E+04  0.41243982475E+04  0.25500000000E-02 0. -1.
         -2   -1    0    0    0  501 -0.00000000000E+00 -0.00000000000E+00 -0.12300038518E+04  0.12300038518E+04  0.25500000000E-02 0.  1.
    8880022    1    1    2    0    0  0.51492954871E+03 -0.11516091539E+04  0.36576304474E+04  0.38720806068E+04  0.15294330000E+03 0.  0.
    8880022    1    1    2    0    0 -0.51492954871E+03  0.11516091539E+04 -0.76323605165E+03  0.14823214925E+04  0.15294330000E+03 0.  0.
<mgrwt>
<rscale>  0 0.12707272E+04</rscale>
<asrwt>0</asrwt>
<pdfrwt beam="1">  1        2 0.63452280E+00 0.12707272E+04</pdfrwt>
<pdfrwt beam="2">  1       -2 0.18923136E+00 0.12707272E+04</pdfrwt>
<totfact> 0.42176215E-02</totfact>
</mgrwt>
</event>
<event>
 4    1  0.3365401E-008  0.3832900E+03  0.7818608E-02  0.1049724E+00
          2   -1    0    0  501    0  0.00000000000E+00  0.00000000000E+00  0.37559651634E+03  0.37559651635E+03  0.25500000000E-02 0. -1.
         -2   -1    0    0    0  501 -0.00000000000E+00 -0.00000000000E+00 -0.47943998810E+03  0.47943998810E+03  0.25500000000E-02 0.  1.
    8880022    1    1    2    0    0  0.31373850818E+03  0.15839111031E+03  0.13154826419E+03  0.40523597343E+03  0.15294330000E+03 0.  0.
    8880022    1    1    2    0    0 -0.31373850818E+03 -0.15839111031E+03 -0.23539173595E+03  0.44980053102E+03  0.15294330000E+03 0.  0.
<mgrwt>
<rscale>  0 0.38329003E+03</rscale>
<asrwt>0</asrwt>
<pdfrwt beam="1">  1        2 0.57784079E-01 0.38329003E+03</pdfrwt>
<pdfrwt beam="2">  1       -2 0.73759999E-01 0.38329003E+03</pdfrwt>
<totfact> 0.14566237E+02</totfact>
</mgrwt>
</event>
<event>
 4    1  0.3365401E-008  0.6515833E+03  0.7818608E-02  0.9803813E-01
          2   -1    0    0  501    0  0.00000000000E+00  0.00000000000E+00  0.19350944519E+03  0.19350944521E+03  0.25500000000E-02 0. -1.
         -2   -1    0    0    0  501 -0.00000000000E+00 -0.00000000000E+00 -0.22904530076E+04  0.22904530076E+04  0.25500000000E-02 0.  1.
    8880022    1    1    2    0    0 -0.34562225123E+03  0.53076771359E+03 -0.13033308931E+04  0.14571314890E+04  0.15294330000E+03 0.  0.
    8880022    1    1    2    0    0  0.34562225123E+03 -0.53076771359E+03 -0.79361266933E+03  0.10268309638E+04  0.15294330000E+03 0.  0.
<mgrwt>
<rscale>  0 0.65158327E+03</rscale>
<asrwt>0</asrwt>
<pdfrwt beam="1">  1        2 0.29770685E-01 0.65158327E+03</pdfrwt>
<pdfrwt beam="2">  1       -2 0.35237737E+00 0.65158327E+03</pdfrwt>
<totfact> 0.28809546E+00</totfact>
</mgrwt>
</event>
<event>
 4    1  0.3365401E-008  0.4563669E+03  0.7818608E-02  0.1025840E+00
          2   -1    0    0  501    0  0.00000000000E+00  0.00000000000E+00  0.60091772659E+03  0.60091772659E+03  0.25500000000E-02 0. -1.
         -2   -1    0    0    0  501 -0.00000000000E+00 -0.00000000000E+00 -0.91296463532E+03  0.91296463533E+03  0.25500000000E-02 0.  1.
    8880022    1    1    2    0    0  0.34406409657E+03  0.25787404115E+03  0.44017093129E+03  0.63405143752E+03  0.15294330000E+03 0.  0.
    8880022    1    1    2    0    0 -0.34406409657E+03 -0.25787404115E+03 -0.75221784003E+03  0.87983092440E+03  0.15294330000E+03 0.  0.
<mgrwt>
<rscale>  0 0.45636693E+03</rscale>
<asrwt>0</asrwt>
<pdfrwt beam="1">  1        2 0.92448881E-01 0.45636693E+03</pdfrwt>
<pdfrwt beam="2">  1       -2 0.14045610E+00 0.45636693E+03</pdfrwt>
<totfact> 0.18502274E+01</totfact>
</mgrwt>
</event>
<event>
 4    1  0.3365401E-008  0.3658352E+03  0.7818608E-02  0.1056297E+00
          2   -1    0    0  501    0  0.00000000000E+00  0.00000000000E+00  0.35689004301E+04  0.35689004301E+04  0.25500000000E-02 0. -1.
         -2   -1    0    0    0  501 -0.00000000000E+00 -0.00000000000E+00 -0.33723726504E+03  0.33723726505E+03  0.25500000000E-02 0.  1.
    8880022    1    1    2    0    0  0.31840916896E+03 -0.95180463392E+02 -0.22544834012E+03  0.42972354668E+03  0.15294330000E+03 0.  0.
    8880022    1    1    2    0    0 -0.31840916896E+03  0.95180463392E+02  0.34571115052E+04  0.34764141485E+04  0.15294330000E+03 0.  0.
<mgrwt>
<rscale>  0 0.36583517E+03</rscale>
<asrwt>0</asrwt>
<pdfrwt beam="1">  1        2 0.54906157E+00 0.36583517E+03</pdfrwt>
<pdfrwt beam="2">  1       -2 0.51882659E-01 0.36583517E+03</pdfrwt>
<totfact> 0.31354531E+00</totfact>
</mgrwt>
</event>
<event>
 4    1  0.3365401E-008  0.1967853E+03  0.7818608E-02  0.1152480E+00
         -2   -1    0    0    0  501 -0.00000000000E+00  0.00000000000E+00  0.28716525561E+03  0.28716525562E+03  0.25500000000E-02 0.  1.
          2   -1    0    0  501    0  0.00000000000E+00 -0.00000000000E+00 -0.16796279381E+04  0.16796279381E+04  0.25500000000E-02 0. -1.
    8880022    1    1    2    0    0  0.55462101975E+02 -0.11071025961E+03 -0.16393255442E+04  0.16510943944E+04  0.15294330000E+03 0. -1.
    8880022    1    1    2    0    0 -0.55462101975E+02  0.11071025961E+03  0.24686286175E+03  0.31569879928E+03  0.15294330000E+03 0.  0.
<mgrwt>
<rscale>  0 0.19678531E+03</rscale>
<asrwt>0</asrwt>
<pdfrwt beam="1">  1        2 0.25840429E+00 0.19678531E+03</pdfrwt>
<pdfrwt beam="2">  1       -2 0.44179271E-01 0.19678531E+03</pdfrwt>
<totfact> 0.56038604E+01</totfact>
</mgrwt>
</event>
<event>
 4    1  0.3365401E-008  0.4003108E+03  0.7818608E-02  0.1043672E+00
          2   -1    0    0  501    0  0.00000000000E+00  0.00000000000E+00  0.20070105975E+04  0.20070105975E+04  0.25500000000E-02 0. -1.
         -2   -1    0    0    0  501 -0.00000000000E+00 -0.00000000000E+00 -0.16362924757E+03  0.16362924759E+03  0.25500000000E-02 0.  1.
    8880022    1    1    2    0    0 -0.99591441007E+02 -0.35628447012E+03  0.14506843233E+03  0.42578584036E+03  0.15294330000E+03 0.  0.
    8880022    1    1    2    0    0  0.99591441007E+02  0.35628447012E+03  0.16983129176E+04  0.17448540048E+04  0.15294330000E+03 0.  0.
<mgrwt>
<rscale>  0 0.40031079E+03</rscale>
<asrwt>0</asrwt>
<pdfrwt beam="1">  1        2 0.30877085E+00 0.40031079E+03</pdfrwt>
<pdfrwt beam="2">  1       -2 0.25173731E-01 0.40031079E+03</pdfrwt>
<totfact> 0.10115752E+02</totfact>
</mgrwt>
</event>
<event>
 4    1  0.3365401E-008  0.2804614E+03  0.7818608E-02  0.1095437E+00
          2   -1    0    0  501    0  0.00000000000E+00  0.00000000000E+00  0.15056985914E+04  0.15056985914E+04  0.25500000000E-02 0. -1.
         -2   -1    0    0    0  501 -0.00000000000E+00 -0.00000000000E+00 -0.14038906735E+03  0.14038906738E+03  0.25500000000E-02 0.  1.
    8880022    1    1    2    0    0  0.10819721763E+03 -0.20871110727E+03  0.13348290457E+04  0.13639747792E+04  0.15294330000E+03 0.  0.
    8880022    1    1    2    0    0 -0.10819721763E+03  0.20871110727E+03  0.30480478316E+02  0.28211287949E+03  0.15294330000E+03 0.  0.
<mgrwt>
<rscale>  0 0.28046144E+03</rscale>
<asrwt>0</asrwt>
<pdfrwt beam="1">  1        2 0.23164594E+00 0.28046144E+03</pdfrwt>
<pdfrwt beam="2">  1       -2 0.21598317E-01 0.28046144E+03</pdfrwt>
<totfact> 0.25069360E+02</totfact>
</mgrwt>
</event>
<event>
 4    1  0.3365401E-008  0.6593229E+03  0.7818608E-02  0.9789441E-01
          2   -1    0    0  501    0  0.00000000000E+00  0.00000000000E+00  0.14348582753E+04  0.14348582753E+04  0.25500000000E-02 0. -1.
         -2   -1    0    0    0  501 -0.00000000000E+00 -0.00000000000E+00 -0.34124311313E+03  0.34124311314E+03  0.25500000000E-02 0.  1.
    8880022    1    1    2    0    0 -0.52935179625E+03 -0.36207976318E+03  0.84424887017E+03  0.10711969412E+04  0.15294330000E+03 0.  0.
    8880022    1    1    2    0    0  0.52935179625E+03  0.36207976318E+03  0.24936629200E+03  0.70490444721E+03  0.15294330000E+03 0.  0.
<mgrwt>
<rscale>  0 0.65932293E+03</rscale>
<asrwt>0</asrwt>
<pdfrwt beam="1">  1        2 0.22074743E+00 0.65932293E+03</pdfrwt>
<pdfrwt beam="2">  1       -2 0.52498941E-01 0.65932293E+03</pdfrwt>
<totfact> 0.48795735E+01</totfact>
</mgrwt>
</event>
<event>
 4    1  0.3365401E-008  0.5082176E+03  0.7818608E-02  0.1011656E+00
         -2   -1    0    0    0  501 -0.00000000000E+00  0.00000000000E+00  0.41448881223E+03  0.41448881224E+03  0.25500000000E-02 0.  1.
          2   -1    0    0  501    0  0.00000000000E+00 -0.00000000000E+00 -0.16700583656E+04  0.16700583656E+04  0.25500000000E-02 0. -1.
    8880022    1    1    2    0    0 -0.46657186050E+03 -0.13116471518E+03  0.19743956194E+03  0.54522244741E+03  0.15294330000E+03 0.  0.
    8880022    1    1    2    0    0  0.46657186050E+03  0.13116471518E+03 -0.14530091153E+04  0.15393247304E+04  0.15294330000E+03 0. -1.
<mgrwt>
<rscale>  0 0.50821761E+03</rscale>
<asrwt>0</asrwt>
<pdfrwt beam="1">  1        2 0.25693205E+00 0.50821761E+03</pdfrwt>
<pdfrwt beam="2">  1       -2 0.63767510E-01 0.50821761E+03</pdfrwt>
<totfact> 0.24691180E+01</totfact>
</mgrwt>
</event>
<event>
 4    1  0.3365401E-008  0.2169253E+03  0.7818608E-02  0.1136196E+00
         -2   -1    0    0    0  501 -0.00000000000E+00  0.00000000000E+00  0.39450951198E+03  0.39450951199E+03  0.25500000000E-02 0.  1.
          2   -1    0    0  501    0  0.00000000000E+00 -0.00000000000E+00 -0.12165440621E+04  0.12165440621E+04  0.25500000000E-02 0. -1.
    8880022    1    1    2    0    0  0.14274644993E+03  0.57344331876E+02 -0.11760357160E+04  0.11958748177E+04  0.15294330000E+03 0.  0.
    8880022    1    1    2    0    0 -0.14274644993E+03 -0.57344331876E+02  0.35400116581E+03  0.41517875642E+03  0.15294330000E+03 0.  1.
<mgrwt>
<rscale>  0 0.21692527E+03</rscale>
<asrwt>0</asrwt>
<pdfrwt beam="1">  1        2 0.18716062E+00 0.21692527E+03</pdfrwt>
<pdfrwt beam="2">  1       -2 0.60693771E-01 0.21692527E+03</pdfrwt>
<totfact> 0.52088774E+01</totfact>
</mgrwt>
</event>
<event>
 4    1  0.3365401E-008  0.3227931E+03  0.7818608E-02  0.1074371E+00
         -2   -1    0    0    0  501 -0.00000000000E+00  0.00000000000E+00  0.74066774306E+02  0.74066774350E+02  0.25500000000E-02 0.  1.
          2   -1    0    0  501    0  0.00000000000E+00 -0.00000000000E+00 -0.18453960922E+04  0.18453960922E+04  0.25500000000E-02 0. -1.
    8880022    1    1    2    0    0 -0.28407683060E+03  0.10202479287E+02 -0.41776902842E+03  0.52794540474E+03  0.15294330000E+03 0.  1.
    8880022    1    1    2    0    0  0.28407683060E+03 -0.10202479287E+02 -0.13535602895E+04  0.13915174619E+04  0.15294330000E+03 0. -1.
<mgrwt>
<rscale>  0 0.32279311E+03</rscale>
<asrwt>0</asrwt>
<pdfrwt beam="1">  1        2 0.28390706E+00 0.32279311E+03</pdfrwt>
<pdfrwt beam="2">  1       -2 0.11394890E-01 0.32279311E+03</pdfrwt>
<totfact> 0.47915161E+02</totfact>
</mgrwt>
</event>
<event>
 4    1  0.3365401E-008  0.6243960E+03  0.7818608E-02  0.9856046E-01
          2   -1    0    0  501    0  0.00000000000E+00  0.00000000000E+00  0.19762519040E+04  0.19762519040E+04  0.25500000000E-02 0. -1.
         -2   -1    0    0    0  501 -0.00000000000E+00 -0.00000000000E+00 -0.38697261917E+03  0.38697261918E+03  0.25500000000E-02 0.  1.
    8880022    1    1    2    0    0 -0.25744788117E+03 -0.54790441302E+03  0.16219391949E+04  0.17379749890E+04  0.15294330000E+03 0.  0.
    8880022    1    1    2    0    0  0.25744788117E+03  0.54790441302E+03 -0.32659910038E+02  0.62524953423E+03  0.15294330000E+03 0.  0.
<mgrwt>
<rscale>  0 0.62439596E+03</rscale>
<asrwt>0</asrwt>
<pdfrwt beam="1">  1        2 0.30403876E+00 0.62439596E+03</pdfrwt>
<pdfrwt beam="2">  1       -2 0.59534249E-01 0.62439596E+03</pdfrwt>
<totfact> 0.19108648E+01</totfact>
</mgrwt>
</event>
<event>
 4    1  0.3365401E-008  0.4077040E+03  0.7818608E-02  0.1041144E+00
         -2   -1    0    0    0  501 -0.00000000000E+00  0.00000000000E+00  0.34383785616E+03  0.34383785617E+03  0.25500000000E-02 0.  1.
          2   -1    0    0  501    0  0.00000000000E+00 -0.00000000000E+00 -0.88699064102E+03  0.88699064102E+03  0.25500000000E-02 0. -1.
    8880022    1    1    2    0    0  0.33741906516E+03  0.17023290411E+03  0.14353140186E+03  0.43223116907E+03  0.15294330000E+03 0.  0.
    8880022    1    1    2    0    0 -0.33741906516E+03 -0.17023290411E+03 -0.68668418672E+03  0.79859732812E+03  0.15294330000E+03 0.  0.
<mgrwt>
<rscale>  0 0.40770396E+03</rscale>
<asrwt>0</asrwt>
<pdfrwt beam="1">  1        2 0.13646010E+00 0.40770396E+03</pdfrwt>
<pdfrwt beam="2">  1       -2 0.52898132E-01 0.40770396E+03</pdfrwt>
<totfact> 0.10537358E+02</totfact>
</mgrwt>
</event>
<event>
 4    1  0.3365401E-008  0.3323212E+03  0.7818608E-02  0.1070114E+00
         -2   -1    0    0    0  501 -0.00000000000E+00  0.00000000000E+00  0.17849811110E+03  0.17849811112E+03  0.25500000000E-02 0.  1.
          2   -1    0    0  501    0  0.00000000000E+00 -0.00000000000E+00 -0.24913351011E+04  0.24913351011E+04  0.25500000000E-02 0. -1.
    8880022    1    1    2    0    0 -0.36840212762E+02  0.29272598937E+03 -0.23137672975E+04  0.23375107414E+04  0.15294330000E+03 0.  0.
    8880022    1    1    2    0    0  0.36840212762E+02 -0.29272598937E+03  0.93030749419E+00  0.33232247083E+03  0.15294330000E+03 0.  0.
<mgrwt>
<rscale>  0 0.33232117E+03</rscale>
<asrwt>0</asrwt>
<pdfrwt beam="1">  1        2 0.38328230E+00 0.33232117E+03</pdfrwt>
<pdfrwt beam="2">  1       -2 0.27461250E-01 0.33232117E+03</pdfrwt>
<totfact> 0.48154162E+01</totfact>
</mgrwt>
</event>
<event>
 4    1  0.3365401E-008  0.1147354E+04  0.7818608E-02  0.9160228E-01
         -2   -1    0    0    0  501 -0.00000000000E+00  0.00000000000E+00  0.99122938625E+03  0.99122938625E+03  0.25500000000E-02 0.  1.
          2   -1    0    0  501    0  0.00000000000E+00 -0.00000000000E+00 -0.29717658764E+04  0.29717658764E+04  0.25500000000E-02 0. -1.
    8880022    1    1    2    0    0 -0.33172024837E+03  0.10876544743E+04 -0.24639271241E+04  0.27179696658E+04  0.15294330000E+03 0.  0.
    8880022    1    1    2    0    0  0.33172024837E+03 -0.10876544743E+04  0.48339063400E+03  0.12450255968E+04  0.15294330000E+03 0.  0.
<mgrwt>
<rscale>  0 0.11473544E+04</rscale>
<asrwt>0</asrwt>
<pdfrwt beam="1">  1        2 0.45719475E+00 0.11473544E+04</pdfrwt>
<pdfrwt beam="2">  1       -2 0.15249683E+00 0.11473544E+04</pdfrwt>
<totfact> 0.51580301E-01</totfact>
</mgrwt>
</event>
<event>
 4    1  0.3365401E-008  0.2675096E+03  0.7818608E-02  0.1102713E+00
          2   -1    0    0  501    0  0.00000000000E+00  0.00000000000E+00  0.11725388671E+04  0.11725388671E+04  0.25500000000E-02 0. -1.
         -2   -1    0    0    0  501 -0.00000000000E+00 -0.00000000000E+00 -0.90258220553E+03  0.90258220553E+03  0.25500000000E-02 0.  1.
    8880022    1    1    2    0    0  0.18948066426E+03 -0.11075554016E+03  0.11368458634E+04  0.11678954927E+04  0.15294330000E+03 0. -1.
    8880022    1    1    2    0    0 -0.18948066426E+03  0.11075554016E+03 -0.86688920176E+03  0.90722557997E+03  0.15294330000E+03 0.  0.
<mgrwt>
<rscale>  0 0.26750956E+03</rscale>
<asrwt>0</asrwt>
<pdfrwt beam="1">  1        2 0.18039059E+00 0.26750956E+03</pdfrwt>
<pdfrwt beam="2">  1       -2 0.13885880E+00 0.26750956E+03</pdfrwt>
<totfact> 0.81682205E+00</totfact>
</mgrwt>
</event>
<event>
 4    1  0.3365401E-008  0.7916944E+03  0.7818608E-02  0.9572118E-01
          2   -1    0    0  501    0  0.00000000000E+00  0.00000000000E+00  0.34323084303E+04  0.34323084303E+04  0.25500000000E-02 0. -1.
         -2   -1    0    0    0  501 -0.00000000000E+00 -0.00000000000E+00 -0.23542963826E+03  0.23542963828E+03  0.25500000000E-02 0.  1.
    8880022    1    1    2    0    0  0.67116719109E+03  0.39105359858E+03  0.72982279884E+03  0.10767642667E+04  0.15294330000E+03 0.  0.
    8880022    1    1    2    0    0 -0.67116719109E+03 -0.39105359858E+03  0.24670559932E+04  0.25909738019E+04  0.15294330000E+03 0.  0.
<mgrwt>
<rscale>  0 0.79169437E+03</rscale>
<asrwt>0</asrwt>
<pdfrwt beam="1">  1        2 0.52804743E+00 0.79169437E+03</pdfrwt>
<pdfrwt beam="2">  1       -2 0.36219946E-01 0.79169437E+03</pdfrwt>
<totfact> 0.69585048E+00</totfact>
</mgrwt>
</event>
<event>
 4    1  0.3365401E-008  0.5009302E+03  0.7818608E-02  0.1013536E+00
          2   -1    0    0  501    0  0.00000000000E+00  0.00000000000E+00  0.10118397503E+04  0.10118397503E+04  0.25500000000E-02 0. -1.
         -2   -1    0    0    0  501 -0.00000000000E+00 -0.00000000000E+00 -0.29908554829E+03  0.29908554830E+03  0.25500000000E-02 0.  1.
    8880022    1    1    2    0    0 -0.46529803861E+03 -0.10505774568E+03  0.85469524236E+02  0.50816934899E+03  0.15294330000E+03 0.  0.
    8880022    1    1    2    0    0  0.46529803861E+03  0.10505774568E+03  0.62728467778E+03  0.80275594963E+03  0.15294330000E+03 0. -1.
<mgrwt>
<rscale>  0 0.50093018E+03</rscale>
<asrwt>0</asrwt>
<pdfrwt beam="1">  1        2 0.15566765E+00 0.50093018E+03</pdfrwt>
<pdfrwt beam="2">  1       -2 0.46013162E-01 0.50093018E+03</pdfrwt>
<totfact> 0.11474649E+02</totfact>
</mgrwt>
</event>
<event>
 4    1  0.3365401E-008  0.3196486E+03  0.7818608E-02  0.1075811E+00
         -2   -1    0    0    0  501 -0.00000000000E+00  0.00000000000E+00  0.42221247931E+03  0.42221247932E+03  0.25500000000E-02 0.  1.
          2   -1    0    0  501    0  0.00000000000E+00 -0.00000000000E+00 -0.49912901970E+03  0.49912901970E+03  0.25500000000E-02 0. -1.
    8880022    1    1    2    0    0 -0.29395058929E+02 -0.27914062890E+03  0.29218538070E+03  0.43306755813E+03  0.15294330000E+03 0.  0.
    8880022    1    1    2    0    0  0.29395058929E+02  0.27914062890E+03 -0.36910192109E+03  0.48827394089E+03  0.15294330000E+03 0. -1.
<mgrwt>
<rscale>  0 0.31964858E+03</rscale>
<asrwt>0</asrwt>
<pdfrwt beam="1">  1        2 0.76789080E-01 0.31964858E+03</pdfrwt>
<pdfrwt beam="2">  1       -2 0.64955766E-01 0.31964858E+03</pdfrwt>
<totfact> 0.14030388E+02</totfact>
</mgrwt>
</event>
<event>
 4    1  0.3365401E-008  0.3808253E+03  0.7818608E-02  0.1050629E+00
          2   -1    0    0  501    0  0.00000000000E+00  0.00000000000E+00  0.27316556014E+04  0.27316556014E+04  0.25500000000E-02 0. -1.
         -2   -1    0    0    0  501 -0.00000000000E+00 -0.00000000000E+00 -0.84185424568E+02  0.84185424606E+02  0.25500000000E-02 0.  1.
    8880022    1    1    2    0    0  0.75089671157E+01 -0.34868308238E+03  0.46808371871E+03  0.60343209830E+03  0.15294330000E+03 0.  0.
    8880022    1    1    2    0    0 -0.75089671157E+01  0.34868308238E+03  0.21793864581E+04  0.22124089277E+04  0.15294330000E+03 0.  0.
<mgrwt>
<rscale>  0 0.38082533E+03</rscale>
<asrwt>0</asrwt>
<pdfrwt beam="1">  1        2 0.42025475E+00 0.38082533E+03</pdfrwt>
<pdfrwt beam="2">  1       -2 0.12951602E-01 0.38082533E+03</pdfrwt>
<totfact> 0.12660796E+02</totfact>
</mgrwt>
</event>
<event>
 4    1  0.3365401E-008  0.2078164E+03  0.7818608E-02  0.1143307E+00
          2   -1    0    0  501    0  0.00000000000E+00  0.00000000000E+00  0.34510737848E+04  0.34510737848E+04  0.25500000000E-02 0. -1.
         -2   -1    0    0    0  501 -0.00000000000E+00 -0.00000000000E+00 -0.80639969932E+02  0.80639969972E+02  0.25500000000E-02 0.  1.
    8880022    1    1    2    0    0  0.10472338235E+03 -0.93962908935E+02  0.33082815318E+04  0.33148023111E+04  0.15294330000E+03 0.  0.
    8880022    1    1    2    0    0 -0.10472338235E+03  0.93962908935E+02  0.62152283001E+02  0.21691144360E+03  0.15294330000E+03 0.  1.
<mgrwt>
<rscale>  0 0.20781643E+03</rscale>
<asrwt>0</asrwt>
<pdfrwt beam="1">  1        2 0.53093438E+00 0.20781643E+03</pdfrwt>
<pdfrwt beam="2">  1       -2 0.12406150E-01 0.20781643E+03</pdfrwt>
<totfact> 0.53043097E+01</totfact>
</mgrwt>
</event>
<event>
 4    1  0.3365401E-008  0.2177579E+03  0.7818608E-02  0.1135566E+00
         -2   -1    0    0    0  501 -0.00000000000E+00  0.00000000000E+00  0.53092286888E+03  0.53092286888E+03  0.25500000000E-02 0.  1.
          2   -1    0    0  501    0  0.00000000000E+00 -0.00000000000E+00 -0.24165282652E+04  0.24165282652E+04  0.25500000000E-02 0. -1.
    8880022    1    1    2    0    0 -0.15004984349E+03 -0.38883059697E+02 -0.23890378861E+04  0.23989415420E+04  0.15294330000E+03 0.  0.
    8880022    1    1    2    0    0  0.15004984349E+03  0.38883059697E+02  0.50343248974E+03  0.54850959208E+03  0.15294330000E+03 0.  1.
<mgrwt>
<rscale>  0 0.21775790E+03</rscale>
<asrwt>0</asrwt>
<pdfrwt beam="1">  1        2 0.37177357E+00 0.21775790E+03</pdfrwt>
<pdfrwt beam="2">  1       -2 0.81680443E-01 0.21775790E+03</pdfrwt>
<totfact> 0.63622922E+00</totfact>
</mgrwt>
</event>
<event>
 4    1  0.3365401E-008  0.2456188E+03  0.7818608E-02  0.1116105E+00
          2   -1    0    0  501    0  0.00000000000E+00  0.00000000000E+00  0.69680370567E+03  0.69680370567E+03  0.25500000000E-02 0. -1.
         -2   -1    0    0    0  501 -0.00000000000E+00 -0.00000000000E+00 -0.86146940257E+03  0.86146940257E+03  0.25500000000E-02 0.  1.
    8880022    1    1    2    0    0 -0.17675859418E+03  0.75454365219E+02 -0.82128067138E+03  0.85722258255E+03  0.15294330000E+03 0.  0.
    8880022    1    1    2    0    0  0.17675859418E+03 -0.75454365219E+02  0.65661497448E+03  0.70105052569E+03  0.15294330000E+03 0. -1.
<mgrwt>
<rscale>  0 0.24561884E+03</rscale>
<asrwt>0</asrwt>
<pdfrwt beam="1">  1        2 0.10720057E+00 0.24561884E+03</pdfrwt>
<pdfrwt beam="2">  1       -2 0.13253375E+00 0.24561884E+03</pdfrwt>
<totfact> 0.18742053E+01</totfact>
</mgrwt>
</event>
<event>
 4    1  0.3365401E-008  0.4665044E+03  0.7818608E-02  0.1022911E+00
          2   -1    0    0  501    0  0.00000000000E+00  0.00000000000E+00  0.23194288293E+04  0.23194288293E+04  0.25500000000E-02 0. -1.
         -2   -1    0    0    0  501 -0.00000000000E+00 -0.00000000000E+00 -0.20800810189E+03  0.20800810190E+03  0.25500000000E-02 0.  1.
    8880022    1    1    2    0    0  0.19897147887E+02 -0.44027125782E+03  0.11942923420E+03  0.48154924147E+03  0.15294330000E+03 0.  0.
    8880022    1    1    2    0    0 -0.19897147887E+02  0.44027125782E+03  0.19919914933E+04  0.20458876898E+04  0.15294330000E+03 0.  0.
<mgrwt>
<rscale>  0 0.46650437E+03</rscale>
<asrwt>0</asrwt>
<pdfrwt beam="1">  1        2 0.35683520E+00 0.46650437E+03</pdfrwt>
<pdfrwt beam="2">  1       -2 0.32001247E-01 0.46650437E+03</pdfrwt>
<totfact> 0.43671630E+01</totfact>
</mgrwt>
</event>
<event>
 4    1  0.3365401E-008  0.5061962E+03  0.7818608E-02  0.1012174E+00
          2   -1    0    0  501    0  0.00000000000E+00  0.00000000000E+00  0.62537843339E+03  0.62537843340E+03  0.25500000000E-02 0. -1.
         -2   -1    0    0    0  501 -0.00000000000E+00 -0.00000000000E+00 -0.80387968660E+03  0.80387968661E+03  0.25500000000E-02 0.  1.
    8880022    1    1    2    0    0 -0.25147338493E+03  0.41183014219E+03  0.41114932165E+03  0.65213368802E+03  0.15294330000E+03 0.  0.
    8880022    1    1    2    0    0  0.25147338493E+03 -0.41183014219E+03 -0.58965057486E+03  0.77712443198E+03  0.15294330000E+03 0.  0.
<mgrwt>
<rscale>  0 0.50619619E+03</rscale>
<asrwt>0</asrwt>
<pdfrwt beam="1">  1        2 0.96212067E-01 0.50619619E+03</pdfrwt>
<pdfrwt beam="2">  1       -2 0.12367380E+00 0.50619619E+03</pdfrwt>
<totfact> 0.24144314E+01</totfact>
</mgrwt>
</event>
<event>
 4    1  0.3365401E-008  0.3335957E+03  0.7818608E-02  0.1069557E+00
          2   -1    0    0  501    0  0.00000000000E+00  0.00000000000E+00  0.66255419974E+03  0.66255419975E+03  0.25500000000E-02 0. -1.
         -2   -1    0    0    0  501 -0.00000000000E+00 -0.00000000000E+00 -0.18434097276E+03  0.18434097278E+03  0.25500000000E-02 0.  1.
    8880022    1    1    2    0    0  0.23467396171E+03 -0.18116992844E+03  0.11289790770E+03  0.35218177388E+03  0.15294330000E+03 0. -1.
    8880022    1    1    2    0    0 -0.23467396171E+03  0.18116992844E+03  0.36531531929E+03  0.49471339864E+03  0.15294330000E+03 0.  0.
<mgrwt>
<rscale>  0 0.33359566E+03</rscale>
<asrwt>0</asrwt>
<pdfrwt beam="1">  1        2 0.10193142E+00 0.33359566E+03</pdfrwt>
<pdfrwt beam="2">  1       -2 0.28360150E-01 0.33359566E+03</pdfrwt>
<totfact> 0.50934634E+02</totfact>
</mgrwt>
</event>
<event>
 4    1  0.3365401E-008  0.4087352E+03  0.7818608E-02  0.1040796E+00
          2   -1    0    0  501    0  0.00000000000E+00  0.00000000000E+00  0.95531213158E+03  0.95531213159E+03  0.25500000000E-02 0. -1.
         -2   -1    0    0    0  501 -0.00000000000E+00 -0.00000000000E+00 -0.27189444073E+03  0.27189444074E+03  0.25500000000E-02 0.  1.
    8880022    1    1    2    0    0 -0.36981586377E+03 -0.83120490304E+02 -0.24819003936E+02  0.40948800346E+03  0.15294330000E+03 0.  1.
    8880022    1    1    2    0    0  0.36981586377E+03  0.83120490304E+02  0.70823669479E+03  0.81771856887E+03  0.15294330000E+03 0.  0.
<mgrwt>
<rscale>  0 0.40873517E+03</rscale>
<asrwt>0</asrwt>
<pdfrwt beam="1">  1        2 0.14697110E+00 0.40873517E+03</pdfrwt>
<pdfrwt beam="2">  1       -2 0.41829915E-01 0.40873517E+03</pdfrwt>
<totfact> 0.15182632E+02</totfact>
</mgrwt>
</event>
<event>
 4    1  0.3365401E-008  0.5324433E+03  0.7818608E-02  0.1005641E+00
          2   -1    0    0  501    0  0.00000000000E+00  0.00000000000E+00  0.22275580374E+04  0.22275580374E+04  0.25500000000E-02 0. -1.
         -2   -1    0    0    0  501 -0.00000000000E+00 -0.00000000000E+00 -0.19880284745E+03  0.19880284747E+03  0.25500000000E-02 0.  1.
    8880022    1    1    2    0    0  0.23502519717E+03  0.45262279151E+03  0.28664094397E+03  0.60469737760E+03  0.15294330000E+03 0.  0.
    8880022    1    1    2    0    0 -0.23502519717E+03 -0.45262279151E+03  0.17421142460E+04  0.18216635073E+04  0.15294330000E+03 0.  0.
<mgrwt>
<rscale>  0 0.53244332E+03</rscale>
<asrwt>0</asrwt>
<pdfrwt beam="1">  1        2 0.34270122E+00 0.53244332E+03</pdfrwt>
<pdfrwt beam="2">  1       -2 0.30585055E-01 0.53244332E+03</pdfrwt>
<totfact> 0.52639105E+01</totfact>
</mgrwt>
</event>
<event>
 4    1  0.3365401E-008  0.8878832E+03  0.7818608E-02  0.9440856E-01
          2   -1    0    0  501    0  0.00000000000E+00  0.00000000000E+00  0.10466415236E+04  0.10466415236E+04  0.25500000000E-02 0. -1.
         -2   -1    0    0    0  501 -0.00000000000E+00 -0.00000000000E+00 -0.82778420979E+03  0.82778420979E+03  0.25500000000E-02 0.  1.
    8880022    1    1    2    0    0  0.84055915672E+03 -0.24167178057E+03 -0.17188179249E+03  0.90436715391E+03  0.15294330000E+03 0.  0.
    8880022    1    1    2    0    0 -0.84055915672E+03  0.24167178057E+03  0.39073910633E+03  0.97005857952E+03  0.15294330000E+03 0.  0.
<mgrwt>
<rscale>  0 0.88788321E+03</rscale>
<asrwt>0</asrwt>
<pdfrwt beam="1">  1        2 0.16102177E+00 0.88788321E+03</pdfrwt>
<pdfrwt beam="2">  1       -2 0.12735142E+00 0.88788321E+03</pdfrwt>
<totfact> 0.10790215E+01</totfact>
</mgrwt>
</event>
<event>
 4    1  0.3365401E-008  0.2562274E+03  0.7818608E-02  0.1109431E+00
          2   -1    0    0  501    0  0.00000000000E+00  0.00000000000E+00  0.46720085113E+03  0.46720085114E+03  0.25500000000E-02 0. -1.
         -2   -1    0    0    0  501 -0.00000000000E+00 -0.00000000000E+00 -0.28193860924E+03  0.28193860926E+03  0.25500000000E-02 0.  1.
    8880022    1    1    2    0    0  0.16904484031E+03 -0.11698152230E+03  0.35791081159E+03  0.44017341658E+03  0.15294330000E+03 0.  0.
    8880022    1    1    2    0    0 -0.16904484031E+03  0.11698152230E+03 -0.17264856971E+03  0.30896604381E+03  0.15294330000E+03 0.  0.
<mgrwt>
<rscale>  0 0.25622741E+03</rscale>
<asrwt>0</asrwt>
<pdfrwt beam="1">  1        2 0.71877054E-01 0.25622741E+03</pdfrwt>
<pdfrwt beam="2">  1       -2 0.43375171E-01 0.25622741E+03</pdfrwt>
<totfact> 0.34472881E+02</totfact>
</mgrwt>
</event>
<event>
 4    1  0.3365401E-008  0.2776055E+03  0.7818608E-02  0.1097004E+00
         -2   -1    0    0    0  501 -0.00000000000E+00  0.00000000000E+00  0.18718432529E+04  0.18718432529E+04  0.25500000000E-02 0.  1.
          2   -1    0    0  501    0  0.00000000000E+00 -0.00000000000E+00 -0.54360832265E+02  0.54360832324E+02  0.25500000000E-02 0. -1.
    8880022    1    1    2    0    0  0.22517007396E+03  0.54512158706E+02  0.13831541492E+04  0.14107374636E+04  0.15294330000E+03 0.  0.
    8880022    1    1    2    0    0 -0.22517007396E+03 -0.54512158706E+02  0.43432827139E+03  0.51546662161E+03  0.15294330000E+03 0.  0.
<mgrwt>
<rscale>  0 0.27760546E+03</rscale>
<asrwt>0</asrwt>
<pdfrwt beam="1">  1        2 0.83632047E-02 0.27760546E+03</pdfrwt>
<pdfrwt beam="2">  1       -2 0.28797590E+00 0.27760546E+03</pdfrwt>
<totfact> 0.34471586E+01</totfact>
</mgrwt>
</event>
<event>
 4    1  0.3365401E-008  0.8006679E+03  0.7818608E-02  0.9559051E-01
         -2   -1    0    0    0  501 -0.00000000000E+00  0.00000000000E+00  0.10350627280E+04  0.10350627280E+04  0.25500000000E-02 0.  1.
          2   -1    0    0  501    0  0.00000000000E+00 -0.00000000000E+00 -0.12463398821E+04  0.12463398821E+04  0.25500000000E-02 0. -1.
    8880022    1    1    2    0    0 -0.74061669238E+03  0.26299130273E+03 -0.91470268206E+03  0.12156274758E+04  0.15294330000E+03 0.  0.
    8880022    1    1    2    0    0  0.74061669238E+03 -0.26299130273E+03  0.70342552802E+03  0.10657751343E+04  0.15294330000E+03 0.  0.
<mgrwt>
<rscale>  0 0.80066795E+03</rscale>
<asrwt>0</asrwt>
<pdfrwt beam="1">  1        2 0.19174460E+00 0.80066795E+03</pdfrwt>
<pdfrwt beam="2">  1       -2 0.15924042E+00 0.80066795E+03</pdfrwt>
<totfact> 0.46065208E+00</totfact>
</mgrwt>
</event>
<event>
 4    1  0.3365401E-008  0.5466593E+03  0.7818608E-02  0.1002270E+00
          2   -1    0    0  501    0  0.00000000000E+00  0.00000000000E+00  0.10249253795E+04  0.10249253795E+04  0.25500000000E-02 0. -1.
         -2   -1    0    0    0  501 -0.00000000000E+00 -0.00000000000E+00 -0.57619642680E+03  0.57619642680E+03  0.25500000000E-02 0.  1.
    8880022    1    1    2    0    0 -0.22692329558E+03  0.47323419151E+03 -0.33829740511E+03  0.64286979196E+03  0.15294330000E+03 0.  0.
    8880022    1    1    2    0    0  0.22692329558E+03 -0.47323419151E+03  0.78702635777E+03  0.95825201431E+03  0.15294330000E+03 0.  0.
<mgrwt>
<rscale>  0 0.54665934E+03</rscale>
<asrwt>0</asrwt>
<pdfrwt beam="1">  1        2 0.15768083E+00 0.54665934E+03</pdfrwt>
<pdfrwt beam="2">  1       -2 0.88645605E-01 0.54665934E+03</pdfrwt>
<totfact> 0.27658822E+01</totfact>
</mgrwt>
</event>
<event>
 4    1  0.3365401E-008  0.5341406E+03  0.7818608E-02  0.1005233E+00
         -2   -1    0    0    0  501 -0.00000000000E+00  0.00000000000E+00  0.42554396905E+03  0.42554396906E+03  0.25500000000E-02 0.  1.
          2   -1    0    0  501    0  0.00000000000E+00 -0.00000000000E+00 -0.12383433897E+04  0.12383433897E+04  0.25500000000E-02 0. -1.
    8880022    1    1    2    0    0 -0.17526614979E+03  0.48082876882E+03  0.15698698168E+03  0.55673251532E+03  0.15294330000E+03 0.  0.
    8880022    1    1    2    0    0  0.17526614979E+03 -0.48082876882E+03 -0.96978640230E+03  0.11071548434E+04  0.15294330000E+03 0.  0.
<mgrwt>
<rscale>  0 0.53414060E+03</rscale>
<asrwt>0</asrwt>
<pdfrwt beam="1">  1        2 0.19051437E+00 0.53414060E+03</pdfrwt>
<pdfrwt beam="2">  1       -2 0.65468303E-01 0.53414060E+03</pdfrwt>
<totfact> 0.40374667E+01</totfact>
</mgrwt>
</event>
<event>
 4    1  0.3365401E-008  0.1079242E+04  0.7818608E-02  0.9225664E-01
         -2   -1    0    0    0  501 -0.00000000000E+00  0.00000000000E+00  0.44534604918E+03  0.44534604918E+03  0.25500000000E-02 0.  1.
          2   -1    0    0  501    0  0.00000000000E+00 -0.00000000000E+00 -0.33530816215E+04  0.33530816215E+04  0.25500000000E-02 0. -1.
    8880022    1    1    2    0    0 -0.51533563760E+03  0.93584189728E+03 -0.23446741861E+04  0.25811353254E+04  0.15294330000E+03 0.  0.
    8880022    1    1    2    0    0  0.51533563760E+03 -0.93584189728E+03 -0.56306138613E+03  0.12172923452E+04  0.15294330000E+03 0.  0.
<mgrwt>
<rscale>  0 0.10792416E+04</rscale>
<asrwt>0</asrwt>
<pdfrwt beam="1">  1        2 0.51585870E+00 0.10792416E+04</pdfrwt>
<pdfrwt beam="2">  1       -2 0.68514779E-01 0.10792416E+04</pdfrwt>
<totfact> 0.20368834E+00</totfact>
</mgrwt>
</event>
<event>
 4    1  0.3365401E-008  0.7357712E+03  0.7818608E-02  0.9657941E-01
         -2   -1    0    0    0  501 -0.00000000000E+00  0.00000000000E+00  0.17864079090E+04  0.17864079090E+04  0.25500000000E-02 0.  1.
          2   -1    0    0  501    0  0.00000000000E+00 -0.00000000000E+00 -0.43959281331E+03  0.43959281331E+03  0.25500000000E-02 0. -1.
    8880022    1    1    2    0    0 -0.71902623030E+03  0.31126462170E+02  0.53088894347E+02  0.73768398399E+03  0.15294330000E+03 0.  0.
    8880022    1    1    2    0    0  0.71902623030E+03 -0.31126462170E+02  0.12937262013E+04  0.14883167383E+04  0.15294330000E+03 0.  0.
<mgrwt>
<rscale>  0 0.73577118E+03</rscale>
<asrwt>0</asrwt>
<pdfrwt beam="1">  1        2 0.67629664E-01 0.73577118E+03</pdfrwt>
<pdfrwt beam="2">  1       -2 0.27483198E+00 0.73577118E+03</pdfrwt>
<totfact> 0.33535835E+00</totfact>
</mgrwt>
</event>
<event>
 4    1  0.3365401E-008  0.2093787E+03  0.7818608E-02  0.1142059E+00
          2   -1    0    0  501    0  0.00000000000E+00  0.00000000000E+00  0.16269469298E+04  0.16269469298E+04  0.25500000000E-02 0. -1.
         -2   -1    0    0    0  501 -0.00000000000E+00 -0.00000000000E+00 -0.36146696441E+02  0.36146696531E+02  0.25500000000E-02 0.  1.
    8880022    1    1    2    0    0  0.91788818797E+02  0.10964761850E+03  0.37586657601E+03  0.43025007086E+03  0.15294330000E+03 0.  0.
    8880022    1    1    2    0    0 -0.91788818797E+02 -0.10964761850E+03  0.12149336574E+04  0.12328435555E+04  0.15294330000E+03 0. -1.
<mgrwt>
<rscale>  0 0.20937870E+03</rscale>
<asrwt>0</asrwt>
<pdfrwt beam="1">  1        2 0.25029954E+00 0.20937870E+03</pdfrwt>
<pdfrwt beam="2">  1       -2 0.55610300E-02 0.20937870E+03</pdfrwt>
<totfact> 0.19471188E+03</totfact>
</mgrwt>
</event>
<event>
 4    1  0.3365401E-008  0.9742189E+03  0.7818608E-02  0.9337282E-01
          2   -1    0    0  501    0  0.00000000000E+00  0.00000000000E+00  0.36880711646E+04  0.36880711646E+04  0.25500000000E-02 0. -1.
         -2   -1    0    0    0  501 -0.00000000000E+00 -0.00000000000E+00 -0.54335367108E+03  0.54335367109E+03  0.25500000000E-02 0.  1.
    8880022    1    1    2    0    0  0.82684921234E+03 -0.49196661738E+03  0.31073496528E+04  0.32564895655E+04  0.15294330000E+03 0.  0.
    8880022    1    1    2    0    0 -0.82684921234E+03  0.49196661738E+03  0.37367840761E+02  0.97493527021E+03  0.15294330000E+03 0.  0.
<mgrwt>
<rscale>  0 0.97421888E+03</rscale>
<asrwt>0</asrwt>
<pdfrwt beam="1">  1        2 0.56739555E+00 0.97421888E+03</pdfrwt>
<pdfrwt beam="2">  1       -2 0.83592875E-01 0.97421888E+03</pdfrwt>
<totfact> 0.77981635E-01</totfact>
</mgrwt>
</event>
<event>
 4    1  0.3365401E-008  0.9146521E+03  0.7818608E-02  0.9407449E-01
         -2   -1    0    0    0  501 -0.00000000000E+00  0.00000000000E+00  0.59642712146E+03  0.59642712147E+03  0.25500000000E-02 0.  1.
          2   -1    0    0  501    0  0.00000000000E+00 -0.00000000000E+00 -0.38820475750E+04  0.38820475750E+04  0.25500000000E-02 0. -1.
    8880022    1    1    2    0    0 -0.45045299606E+03  0.78120987875E+03  0.14672944546E+03  0.92634656554E+03  0.15294330000E+03 0.  0.
    8880022    1    1    2    0    0  0.45045299606E+03 -0.78120987875E+03 -0.34323498990E+04  0.35521281309E+04  0.15294330000E+03 0.  0.
<mgrwt>
<rscale>  0 0.91465208E+03</rscale>
<asrwt>0</asrwt>
<pdfrwt beam="1">  1        2 0.59723807E+00 0.91465208E+03</pdfrwt>
<pdfrwt beam="2">  1       -2 0.91758021E-01 0.91465208E+03</pdfrwt>
<totfact> 0.45716977E-01</totfact>
</mgrwt>
</event>
<event>
 4    1  0.3365401E-008  0.1768719E+03  0.7818608E-02  0.1170865E+00
         -2   -1    0    0    0  501 -0.00000000000E+00  0.00000000000E+00  0.47427449347E+02  0.47427449416E+02  0.25500000000E-02 0.  1.
          2   -1    0    0  501    0  0.00000000000E+00 -0.00000000000E+00 -0.67378319938E+03  0.67378319938E+03  0.25500000000E-02 0. -1.
    8880022    1    1    2    0    0 -0.88318547352E+02  0.95842832550E+01 -0.26087959025E+03  0.31518540245E+03  0.15294330000E+03 0.  1.
    8880022    1    1    2    0    0  0.88318547352E+02 -0.95842832550E+01 -0.36547615978E+03  0.40602524635E+03  0.15294330000E+03 0. -1.
<mgrwt>
<rscale>  0 0.17687192E+03</rscale>
<asrwt>0</asrwt>
<pdfrwt beam="1">  1        2 0.10365895E+00 0.17687192E+03</pdfrwt>
<pdfrwt beam="2">  1       -2 0.72965311E-02 0.17687192E+03</pdfrwt>
<totfact> 0.47076811E+03</totfact>
</mgrwt>
</event>
<event>
 4    1  0.8179463E-008  0.6155508E+03  0.7818608E-02  0.9873658E-01
          2   -1    0    0  501    0  0.00000000000E+00  0.00000000000E+00  0.16802519493E+04  0.16802519493E+04  0.25500000000E-02 0. -1.
         -2   -1    0    0    0  501 -0.00000000000E+00 -0.00000000000E+00 -0.26370631212E+04  0.26370631212E+04  0.25500000000E-02 0.  1.
    8880022    1    1    2    0    0  0.57055099180E+03 -0.17315524650E+03 -0.25427040067E+04  0.26161510836E+04  0.15294330000E+03 0.  0.
    8880022    1    1    2    0    0 -0.57055099180E+03  0.17315524650E+03  0.15858928348E+04  0.17011639869E+04  0.15294330000E+03 0.  0.
<mgrwt>
<rscale>  0 0.61555083E+03</rscale>
<asrwt>0</asrwt>
<pdfrwt beam="1">  1        2 0.25850030E+00 0.61555083E+03</pdfrwt>
<pdfrwt beam="2">  1       -2 0.40570202E+00 0.61555083E+03</pdfrwt>
<totfact> 0.77244839E-02</totfact>
</mgrwt>
</event>
<event>
 4    1  0.3365401E-008  0.8428228E+03  0.7818608E-02  0.9500021E-01
          2   -1    0    0  501    0  0.00000000000E+00  0.00000000000E+00  0.13291155384E+04  0.13291155384E+04  0.25500000000E-02 0. -1.
         -2   -1    0    0    0  501 -0.00000000000E+00 -0.00000000000E+00 -0.62839880191E+03  0.62839880191E+03  0.25500000000E-02 0.  1.
    8880022    1    1    2    0    0  0.80017606999E+03 -0.21604832497E+03 -0.28079966642E+02  0.84329043588E+03  0.15294330000E+03 0.  1.
    8880022    1    1    2    0    0 -0.80017606999E+03  0.21604832497E+03  0.72879670313E+03  0.11142239044E+04  0.15294330000E+03 0.  0.
<mgrwt>
<rscale>  0 0.84282280E+03</rscale>
<asrwt>0</asrwt>
<pdfrwt beam="1">  1        2 0.20447931E+00 0.84282280E+03</pdfrwt>
<pdfrwt beam="2">  1       -2 0.96676740E-01 0.84282280E+03</pdfrwt>
<totfact> 0.14371341E+01</totfact>
</mgrwt>
</event>
<event>
 4    1  0.3365401E-008  0.6196320E+03  0.7818608E-02  0.9865493E-01
          2   -1    0    0  501    0  0.00000000000E+00  0.00000000000E+00  0.16428196344E+04  0.16428196344E+04  0.25500000000E-02 0. -1.
         -2   -1    0    0    0  501 -0.00000000000E+00 -0.00000000000E+00 -0.89788519658E+03  0.89788519658E+03  0.25500000000E-02 0.  1.
    8880022    1    1    2    0    0  0.67950039158E+02  0.59660279806E+03  0.14650517874E+04  0.15906981170E+04  0.15294330000E+03 0.  0.
    8880022    1    1    2    0    0 -0.67950039158E+02 -0.59660279806E+03 -0.72011734960E+03  0.95000671402E+03  0.15294330000E+03 0.  0.
<mgrwt>
<rscale>  0 0.61963195E+03</rscale>
<asrwt>0</asrwt>
<pdfrwt beam="1">  1        2 0.25274148E+00 0.61963195E+03</pdfrwt>
<pdfrwt beam="2">  1       -2 0.13813619E+00 0.61963195E+03</pdfrwt>
<totfact> 0.41314591E+00</totfact>
</mgrwt>
</event>
<event>
 4    1  0.3365401E-008  0.7057203E+03  0.7818608E-02  0.9707500E-01
          2   -1    0    0  501    0  0.00000000000E+00  0.00000000000E+00  0.17683469324E+04  0.17683469324E+04  0.25500000000E-02 0. -1.
         -2   -1    0    0    0  501 -0.00000000000E+00 -0.00000000000E+00 -0.62170945767E+03  0.62170945768E+03  0.25500000000E-02 0.  1.
    8880022    1    1    2    0    0  0.25532236758E+03  0.63989054638E+03 -0.31050739980E+03  0.77100967639E+03  0.15294330000E+03 0.  0.
    8880022    1    1    2    0    0 -0.25532236758E+03 -0.63989054638E+03  0.14571448745E+04  0.16190467137E+04  0.15294330000E+03 0.  0.
<mgrwt>
<rscale>  0 0.70572025E+03</rscale>
<asrwt>0</asrwt>
<pdfrwt beam="1">  1        2 0.27205337E+00 0.70572025E+03</pdfrwt>
<pdfrwt beam="2">  1       -2 0.95647611E-01 0.70572025E+03</pdfrwt>
<totfact> 0.85485999E+00</totfact>
</mgrwt>
</event>
<event>
 4    1  0.3365401E-008  0.3415828E+03  0.7818608E-02  0.1066124E+00
         -2   -1    0    0    0  501 -0.00000000000E+00  0.00000000000E+00  0.26274821869E+03  0.26274821871E+03  0.25500000000E-02 0.  1.
          2   -1    0    0  501    0  0.00000000000E+00 -0.00000000000E+00 -0.15695770358E+04  0.15695770358E+04  0.25500000000E-02 0. -1.
    8880022    1    1    2    0    0  0.27171984321E+03  0.13948292097E+03 -0.14292241110E+04  0.14694762233E+04  0.15294330000E+03 0.  0.
    8880022    1    1    2    0    0 -0.27171984321E+03 -0.13948292097E+03  0.12239529391E+03  0.36284903117E+03  0.15294330000E+03 0.  0.
<mgrwt>
<rscale>  0 0.34158280E+03</rscale>
<asrwt>0</asrwt>
<pdfrwt beam="1">  1        2 0.24147338E+00 0.34158280E+03</pdfrwt>
<pdfrwt beam="2">  1       -2 0.40422804E-01 0.34158280E+03</pdfrwt>
<totfact> 0.72823219E+01</totfact>
</mgrwt>
</event>
<event>
 4    1  0.3365401E-008  0.4875732E+03  0.7818608E-02  0.1017074E+00
         -2   -1    0    0    0  501 -0.00000000000E+00  0.00000000000E+00  0.92153479990E+03  0.92153479990E+03  0.25500000000E-02 0.  1.
          2   -1    0    0  501    0  0.00000000000E+00 -0.00000000000E+00 -0.70824378237E+03  0.70824378237E+03  0.25500000000E-02 0. -1.
    8880022    1    1    2    0    0 -0.41666819460E+03 -0.20180081211E+03 -0.54310396443E+03  0.72985582231E+03  0.15294330000E+03 0.  0.
    8880022    1    1    2    0    0  0.41666819460E+03  0.20180081211E+03  0.75639498196E+03  0.89992275997E+03  0.15294330000E+03 0.  0.
<mgrwt>
<rscale>  0 0.48757318E+03</rscale>
<asrwt>0</asrwt>
<pdfrwt beam="1">  1        2 0.10896058E+00 0.48757318E+03</pdfrwt>
<pdfrwt beam="2">  1       -2 0.14177458E+00 0.48757318E+03</pdfrwt>
<totfact> 0.14714249E+01</totfact>
</mgrwt>
</event>
<event>
 4    1  0.3365401E-008  0.4373405E+03  0.7818608E-02  0.1031566E+00
         -2   -1    0    0    0  501 -0.00000000000E+00  0.00000000000E+00  0.18776749074E+03  0.18776749075E+03  0.25500000000E-02 0.  1.
          2   -1    0    0  501    0  0.00000000000E+00 -0.00000000000E+00 -0.25483155305E+04  0.25483155305E+04  0.25500000000E-02 0. -1.
    8880022    1    1    2    0    0 -0.80877631818E+02  0.40166388210E+03 -0.12035445708E+03  0.45359884685E+03  0.15294330000E+03 0.  0.
    8880022    1    1    2    0    0  0.80877631818E+02 -0.40166388210E+03 -0.22401935827E+04  0.22824841744E+04  0.15294330000E+03 0.  0.
<mgrwt>
<rscale>  0 0.43734051E+03</rscale>
<asrwt>0</asrwt>
<pdfrwt beam="1">  1        2 0.39204852E+00 0.43734051E+03</pdfrwt>
<pdfrwt beam="2">  1       -2 0.28887308E-01 0.43734051E+03</pdfrwt>
<totfact> 0.39660824E+01</totfact>
</mgrwt>
</event>
<event>
 4    1  0.3365401E-008  0.8006243E+03  0.7818608E-02  0.9559114E-01
         -2   -1    0    0    0  501 -0.00000000000E+00  0.00000000000E+00  0.64461720054E+03  0.64461720054E+03  0.25500000000E-02 0.  1.
          2   -1    0    0  501    0  0.00000000000E+00 -0.00000000000E+00 -0.11416087207E+04  0.11416087207E+04  0.25500000000E-02 0. -1.
    8880022    1    1    2    0    0  0.59394014674E+03 -0.51462867719E+03 -0.56922096984E+03  0.98235011010E+03  0.15294330000E+03 0.  0.
    8880022    1    1    2    0    0 -0.59394014674E+03  0.51462867719E+03  0.72229449700E+02  0.80387581112E+03  0.15294330000E+03 0.  0.
<mgrwt>
<rscale>  0 0.80062427E+03</rscale>
<asrwt>0</asrwt>
<pdfrwt beam="1">  1        2 0.17563211E+00 0.80062427E+03</pdfrwt>
<pdfrwt beam="2">  1       -2 0.99171877E-01 0.80062427E+03</pdfrwt>
<totfact> 0.17527614E+01</totfact>
</mgrwt>
</event>
<event>
 4    1  0.3365401E-008  0.2338254E+03  0.7818608E-02  0.1123976E+00
          2   -1    0    0  501    0  0.00000000000E+00  0.00000000000E+00  0.12760173628E+04  0.12760173628E+04  0.25500000000E-02 0. -1.
         -2   -1    0    0    0  501 -0.00000000000E+00 -0.00000000000E+00 -0.49072895763E+02  0.49072895830E+02  0.25500000000E-02 0.  1.
    8880022    1    1    2    0    0 -0.16215514225E+03 -0.70628424146E+02  0.37749308130E+03  0.44404430398E+03  0.15294330000E+03 0. -1.
    8880022    1    1    2    0    0  0.16215514225E+03  0.70628424146E+02  0.84945138574E+03  0.88104595465E+03  0.15294330000E+03 0.  0.
<mgrwt>
<rscale>  0 0.23382540E+03</rscale>
<asrwt>0</asrwt>
<pdfrwt beam="1">  1        2 0.19631036E+00 0.23382540E+03</pdfrwt>
<pdfrwt beam="2">  1       -2 0.75496765E-02 0.23382540E+03</pdfrwt>
<totfact> 0.18747203E+03</totfact>
</mgrwt>
</event>
<event>
 4    1  0.3365401E-008  0.4652256E+03  0.7818608E-02  0.1023276E+00
          2   -1    0    0  501    0  0.00000000000E+00  0.00000000000E+00  0.20814025066E+04  0.20814025066E+04  0.25500000000E-02 0. -1.
         -2   -1    0    0    0  501 -0.00000000000E+00 -0.00000000000E+00 -0.17915652691E+03  0.17915652692E+03  0.25500000000E-02 0.  1.
    8880022    1    1    2    0    0  0.18947340269E+03  0.39641266852E+03  0.16832660762E+04  0.17463732449E+04  0.15294330000E+03 0.  0.
    8880022    1    1    2    0    0 -0.18947340269E+03 -0.39641266852E+03  0.21897990345E+03  0.51418578862E+03  0.15294330000E+03 0.  0.
<mgrwt>
<rscale>  0 0.46522557E+03</rscale>
<asrwt>0</asrwt>
<pdfrwt beam="1">  1        2 0.32021577E+00 0.46522557E+03</pdfrwt>
<pdfrwt beam="2">  1       -2 0.27562542E-01 0.46522557E+03</pdfrwt>
<totfact> 0.77403057E+01</totfact>
</mgrwt>
</event>
<event>
 4    1  0.3365401E-008  0.4057990E+03  0.7818608E-02  0.1041790E+00
         -2   -1    0    0    0  501 -0.00000000000E+00  0.00000000000E+00  0.21552015285E+03  0.21552015286E+03  0.25500000000E-02 0.  1.
          2   -1    0    0  501    0  0.00000000000E+00 -0.00000000000E+00 -0.18006827278E+04  0.18006827278E+04  0.25500000000E-02 0. -1.
    8880022    1    1    2    0    0 -0.28198903359E+03 -0.24852233791E+03 -0.27700809776E+02  0.40674335321E+03  0.15294330000E+03 0.  1.
    8880022    1    1    2    0    0  0.28198903359E+03  0.24852233791E+03 -0.15574617652E+04  0.16094595275E+04  0.15294330000E+03 0.  0.
<mgrwt>
<rscale>  0 0.40579899E+03</rscale>
<asrwt>0</asrwt>
<pdfrwt beam="1">  1        2 0.27702810E+00 0.40579899E+03</pdfrwt>
<pdfrwt beam="2">  1       -2 0.33156948E-01 0.40579899E+03</pdfrwt>
<totfact> 0.78735609E+01</totfact>
</mgrwt>
</event>
<event>
 4    1  0.3365401E-008  0.1442581E+04  0.7818608E-02  0.8923560E-01
          2   -1    0    0  501    0  0.00000000000E+00  0.00000000000E+00  0.83706428214E+03  0.83706428214E+03  0.25500000000E-02 0. -1.
         -2   -1    0    0    0  501 -0.00000000000E+00 -0.00000000000E+00 -0.26930286252E+04  0.26930286252E+04  0.25500000000E-02 0.  1.
    8880022    1    1    2    0    0 -0.12731954571E+04  0.66077306913E+03 -0.43873473088E+03  0.15078221175E+04  0.15294330000E+03 0.  0.
    8880022    1    1    2    0    0  0.12731954571E+04 -0.66077306913E+03 -0.14172296122E+04  0.20222707898E+04  0.15294330000E+03 0.  0.
<mgrwt>
<rscale>  0 0.14425808E+04</rscale>
<asrwt>0</asrwt>
<pdfrwt beam="1">  1        2 0.12877912E+00 0.14425808E+04</pdfrwt>
<pdfrwt beam="2">  1       -2 0.41431209E+00 0.14425808E+04</pdfrwt>
<totfact> 0.18582005E-01</totfact>
</mgrwt>
</event>
<event>
 4    1  0.3365401E-008  0.4754941E+03  0.7818608E-02  0.1020381E+00
         -2   -1    0    0    0  501 -0.00000000000E+00  0.00000000000E+00  0.36801666072E+03  0.36801666073E+03  0.25500000000E-02 0.  1.
          2   -1    0    0  501    0  0.00000000000E+00 -0.00000000000E+00 -0.26919910798E+04  0.26919910798E+04  0.25500000000E-02 0. -1.
    8880022    1    1    2    0    0  0.18302577521E+03  0.41134485536E+03  0.18213868772E+03  0.50918481812E+03  0.15294330000E+03 0.  0.
    8880022    1    1    2    0    0 -0.18302577521E+03 -0.41134485536E+03 -0.25061131068E+04  0.25508229224E+04  0.15294330000E+03 0.  0.
<mgrwt>
<rscale>  0 0.47549414E+03</rscale>
<asrwt>0</asrwt>
<pdfrwt beam="1">  1        2 0.41415246E+00 0.47549414E+03</pdfrwt>
<pdfrwt beam="2">  1       -2 0.56617949E-01 0.47549414E+03</pdfrwt>
<totfact> 0.88051189E+00</totfact>
</mgrwt>
</event>
<event>
 4    1  0.3365401E-008  0.3755984E+03  0.7818608E-02  0.1052573E+00
         -2   -1    0    0    0  501 -0.00000000000E+00  0.00000000000E+00  0.11554757113E+04  0.11554757113E+04  0.25500000000E-02 0.  1.
          2   -1    0    0  501    0  0.00000000000E+00 -0.00000000000E+00 -0.45151637499E+03  0.45151637500E+03  0.25500000000E-02 0. -1.
    8880022    1    1    2    0    0 -0.30344132420E+03  0.16001823367E+03 -0.33433768166E+03  0.50284770133E+03  0.15294330000E+03 0.  0.
    8880022    1    1    2    0    0  0.30344132420E+03 -0.16001823367E+03  0.10382970180E+04  0.11041443850E+04  0.15294330000E+03 0.  0.
<mgrwt>
<rscale>  0 0.37559836E+03</rscale>
<asrwt>0</asrwt>
<pdfrwt beam="1">  1        2 0.69464058E-01 0.37559836E+03</pdfrwt>
<pdfrwt beam="2">  1       -2 0.17776549E+00 0.37559836E+03</pdfrwt>
<totfact> 0.13902838E+01</totfact>
</mgrwt>
</event>
<event>
 4    1  0.3365401E-008  0.6422444E+03  0.7818608E-02  0.9821442E-01
          2   -1    0    0  501    0  0.00000000000E+00  0.00000000000E+00  0.16511342573E+04  0.16511342573E+04  0.25500000000E-02 0. -1.
         -2   -1    0    0    0  501 -0.00000000000E+00 -0.00000000000E+00 -0.28167548584E+03  0.28167548585E+03  0.25500000000E-02 0.  1.
    8880022    1    1    2    0    0  0.28231071580E+03 -0.55622551395E+03  0.10097507986E+04  0.11966931482E+04  0.15294330000E+03 0. -1.
    8880022    1    1    2    0    0 -0.28231071580E+03  0.55622551395E+03  0.35970797284E+03  0.73611659495E+03  0.15294330000E+03 0.  0.
<mgrwt>
<rscale>  0 0.64224436E+03</rscale>
<asrwt>0</asrwt>
<pdfrwt beam="1">  1        2 0.25402066E+00 0.64224436E+03</pdfrwt>
<pdfrwt beam="2">  1       -2 0.43334690E-01 0.64224436E+03</pdfrwt>
<totfact> 0.54651134E+01</totfact>
</mgrwt>
</event>
<event>
 4    1  0.3365401E-008  0.4345989E+03  0.7818608E-02  0.1032417E+00
         -2   -1    0    0    0  501 -0.00000000000E+00  0.00000000000E+00  0.31987001538E+03  0.31987001539E+03  0.25500000000E-02 0.  1.
          2   -1    0    0  501    0  0.00000000000E+00 -0.00000000000E+00 -0.25658631373E+04  0.25658631373E+04  0.25500000000E-02 0. -1.
    8880022    1    1    2    0    0 -0.18752265018E+03 -0.36099832035E+03 -0.23890012903E+04  0.24282099064E+04  0.15294330000E+03 0.  0.
    8880022    1    1    2    0    0  0.18752265018E+03  0.36099832035E+03  0.14300816839E+03  0.45752324626E+03  0.15294330000E+03 0.  0.
<mgrwt>
<rscale>  0 0.43459888E+03</rscale>
<asrwt>0</asrwt>
<pdfrwt beam="1">  1        2 0.39474816E+00 0.43459888E+03</pdfrwt>
<pdfrwt beam="2">  1       -2 0.49210773E-01 0.43459888E+03</pdfrwt>
<totfact> 0.13988410E+01</totfact>
</mgrwt>
</event>
<event>
 4    1  0.3365401E-008  0.2871742E+03  0.7818608E-02  0.1091834E+00
          2   -1    0    0  501    0  0.00000000000E+00  0.00000000000E+00  0.29779186373E+03  0.29779186374E+03  0.25500000000E-02 0. -1.
         -2   -1    0    0    0  501 -0.00000000000E+00 -0.00000000000E+00 -0.28122282286E+03  0.28122282287E+03  0.25500000000E-02 0.  1.
    8880022    1    1    2    0    0 -0.21289892810E+03 -0.11726632855E+03 -0.27463438748E+02  0.28848438239E+03  0.15294330000E+03 0. -1.
    8880022    1    1    2    0    0  0.21289892810E+03  0.11726632855E+03  0.44032479623E+02  0.29053030423E+03  0.15294330000E+03 0.  0.
<mgrwt>
<rscale>  0 0.28717416E+03</rscale>
<asrwt>0</asrwt>
<pdfrwt beam="1">  1        2 0.45814133E-01 0.28717416E+03</pdfrwt>
<pdfrwt beam="2">  1       -2 0.43265050E-01 0.28717416E+03</pdfrwt>
<totfact> 0.56612470E+02</totfact>
</mgrwt>
</event>
<event>
 4    1  0.3365401E-008  0.4680967E+03  0.7818608E-02  0.1022459E+00
         -2   -1    0    0    0  501 -0.00000000000E+00  0.00000000000E+00  0.12171364764E+04  0.12171364764E+04  0.25500000000E-02 0.  1.
          2   -1    0    0  501    0  0.00000000000E+00 -0.00000000000E+00 -0.19043400465E+03  0.19043400467E+03  0.25500000000E-02 0. -1.
    8880022    1    1    2    0    0 -0.43307985951E+03 -0.90358689573E+02  0.34880771140E+03  0.58376479000E+03  0.15294330000E+03 0.  1.
    8880022    1    1    2    0    0  0.43307985951E+03  0.90358689573E+02  0.67789476030E+03  0.82380569102E+03  0.15294330000E+03 0.  0.
<mgrwt>
<rscale>  0 0.46809669E+03</rscale>
<asrwt>0</asrwt>
<pdfrwt beam="1">  1        2 0.29297540E-01 0.46809669E+03</pdfrwt>
<pdfrwt beam="2">  1       -2 0.18725176E+00 0.46809669E+03</pdfrwt>
<totfact> 0.30732238E+01</totfact>
</mgrwt>
</event>
<event>
 4    1  0.4030425E-008  0.5436971E+03  0.7818608E-02  0.1002963E+00
         -2   -1    0    0    0  501 -0.00000000000E+00  0.00000000000E+00  0.15809044005E+04  0.15809044005E+04  0.25500000000E-02 0.  1.
          2   -1    0    0  501    0  0.00000000000E+00 -0.00000000000E+00 -0.16672200905E+04  0.16672200905E+04  0.25500000000E-02 0. -1.
    8880022    1    1    2    0    0 -0.35516786176E+03  0.38219197223E+03 -0.15734397511E+04  0.16647279709E+04  0.15294330000E+03 0.  0.
    8880022    1    1    2    0    0  0.35516786176E+03 -0.38219197223E+03  0.14871240611E+04  0.15833965201E+04  0.15294330000E+03 0.  1.
<mgrwt>
<rscale>  0 0.54369713E+03</rscale>
<asrwt>0</asrwt>
<pdfrwt beam="1">  1        2 0.25649540E+00 0.54369713E+03</pdfrwt>
<pdfrwt beam="2">  1       -2 0.24321606E+00 0.54369713E+03</pdfrwt>
<totfact> 0.79516652E-01</totfact>
</mgrwt>
</event>
<event>
 4    1  0.3365401E-008  0.1048797E+04  0.7818608E-02  0.9256587E-01
         -2   -1    0    0    0  501 -0.00000000000E+00  0.00000000000E+00  0.78197209358E+03  0.78197209359E+03  0.25500000000E-02 0.  1.
          2   -1    0    0  501    0  0.00000000000E+00 -0.00000000000E+00 -0.19035074963E+04  0.19035074963E+04  0.25500000000E-02 0. -1.
    8880022    1    1    2    0    0  0.10321394035E+04  0.10617117319E+03 -0.12467648120E+04  0.16292324008E+04  0.15294330000E+03 0.  0.
    8880022    1    1    2    0    0 -0.10321394035E+04 -0.10617117319E+03  0.12522940936E+03  0.10562471890E+04  0.15294330000E+03 0.  0.
<mgrwt>
<rscale>  0 0.10487973E+04</rscale>
<asrwt>0</asrwt>
<pdfrwt beam="1">  1        2 0.29284731E+00 0.10487973E+04</pdfrwt>
<pdfrwt beam="2">  1       -2 0.12030340E+00 0.10487973E+04</pdfrwt>
<totfact> 0.39567473E+00</totfact>
</mgrwt>
</event>
<event>
 4    1  0.3365401E-008  0.8157663E+03  0.7818608E-02  0.9537472E-01
          2   -1    0    0  501    0  0.00000000000E+00  0.00000000000E+00  0.99406814939E+03  0.99406814940E+03  0.25500000000E-02 0. -1.
         -2   -1    0    0    0  501 -0.00000000000E+00 -0.00000000000E+00 -0.69387887486E+03  0.69387887487E+03  0.25500000000E-02 0.  1.
    8880022    1    1    2    0    0  0.74525666468E+03 -0.29440706477E+03  0.30846603450E+03  0.87213872950E+03  0.15294330000E+03 0.  0.
    8880022    1    1    2    0    0 -0.74525666468E+03  0.29440706477E+03 -0.82767599668E+01  0.81580829477E+03  0.15294330000E+03 0.  0.
<mgrwt>
<rscale>  0 0.81576631E+03</rscale>
<asrwt>0</asrwt>
<pdfrwt beam="1">  1        2 0.15293356E+00 0.81576631E+03</pdfrwt>
<pdfrwt beam="2">  1       -2 0.10675060E+00 0.81576631E+03</pdfrwt>
<totfact> 0.18126048E+01</totfact>
</mgrwt>
</event>
<event>
 4    1  0.3365401E-008  0.7318839E+03  0.7818608E-02  0.9664208E-01
          2   -1    0    0  501    0  0.00000000000E+00  0.00000000000E+00  0.25424396745E+04  0.25424396745E+04  0.25500000000E-02 0. -1.
         -2   -1    0    0    0  501 -0.00000000000E+00 -0.00000000000E+00 -0.29356746712E+03  0.29356746713E+03  0.25500000000E-02 0.  1.
    8880022    1    1    2    0    0  0.45156327520E+03 -0.55529547829E+03  0.18778861784E+04  0.20154678395E+04  0.15294330000E+03 0.  0.
    8880022    1    1    2    0    0 -0.45156327520E+03  0.55529547829E+03  0.37098602893E+03  0.82053930216E+03  0.15294330000E+03 0.  0.
<mgrwt>
<rscale>  0 0.73188395E+03</rscale>
<asrwt>0</asrwt>
<pdfrwt beam="1">  1        2 0.39114457E+00 0.73188395E+03</pdfrwt>
<pdfrwt beam="2">  1       -2 0.45164225E-01 0.73188395E+03</pdfrwt>
<totfact> 0.16068808E+01</totfact>
</mgrwt>
</event>
<event>
 4    1  0.3365401E-008  0.5152236E+03  0.7818608E-02  0.1009880E+00
         -2   -1    0    0    0  501 -0.00000000000E+00  0.00000000000E+00  0.96061434900E+03  0.96061434901E+03  0.25500000000E-02 0.  1.
          2   -1    0    0  501    0  0.00000000000E+00 -0.00000000000E+00 -0.48436073235E+03  0.48436073236E+03  0.25500000000E-02 0. -1.
    8880022    1    1    2    0    0  0.34625754488E+03  0.34952743848E+03  0.71160510519E+03  0.87854265485E+03  0.15294330000E+03 0.  0.
    8880022    1    1    2    0    0 -0.34625754488E+03 -0.34952743848E+03 -0.23535148855E+03  0.56643242652E+03  0.15294330000E+03 0.  0.
<mgrwt>
<rscale>  0 0.51522361E+03</rscale>
<asrwt>0</asrwt>
<pdfrwt beam="1">  1        2 0.74517036E-01 0.51522361E+03</pdfrwt>
<pdfrwt beam="2">  1       -2 0.14778682E+00 0.51522361E+03</pdfrwt>
<totfact> 0.20673789E+01</totfact>
</mgrwt>
</event>
<event>
 4    1  0.3365401E-008  0.9141057E+03  0.7818608E-02  0.9408118E-01
         -2   -1    0    0    0  501 -0.00000000000E+00  0.00000000000E+00  0.77716013292E+03  0.77716013292E+03  0.25500000000E-02 0.  1.
          2   -1    0    0  501    0  0.00000000000E+00 -0.00000000000E+00 -0.15564093226E+04  0.15564093226E+04  0.25500000000E-02 0. -1.
    8880022    1    1    2    0    0 -0.82733767596E+03  0.35736522909E+03 -0.10384137953E+04  0.13834350004E+04  0.15294330000E+03 0.  0.
    8880022    1    1    2    0    0  0.82733767596E+03 -0.35736522909E+03  0.25916460562E+03  0.95013445514E+03  0.15294330000E+03 0.  0.
<mgrwt>
<rscale>  0 0.91410568E+03</rscale>
<asrwt>0</asrwt>
<pdfrwt beam="1">  1        2 0.23944759E+00 0.91410568E+03</pdfrwt>
<pdfrwt beam="2">  1       -2 0.11956310E+00 0.91410568E+03</pdfrwt>
<totfact> 0.63483474E+00</totfact>
</mgrwt>
</event>
<event>
 4    1  0.3365401E-008  0.6055861E+03  0.7818608E-02  0.9893884E-01
         -2   -1    0    0    0  501 -0.00000000000E+00  0.00000000000E+00  0.29503944358E+03  0.29503944359E+03  0.25500000000E-02 0.  1.
          2   -1    0    0  501    0  0.00000000000E+00 -0.00000000000E+00 -0.16266558416E+04  0.16266558416E+04  0.25500000000E-02 0. -1.
    8880022    1    1    2    0    0 -0.43617634164E+03 -0.39127106775E+03 -0.19917386678E+03  0.63749880916E+03  0.15294330000E+03 0.  0.
    8880022    1    1    2    0    0  0.43617634164E+03  0.39127106775E+03 -0.11324425312E+04  0.12841964760E+04  0.15294330000E+03 0.  0.
<mgrwt>
<rscale>  0 0.60558608E+03</rscale>
<asrwt>0</asrwt>
<pdfrwt beam="1">  1        2 0.25025474E+00 0.60558608E+03</pdfrwt>
<pdfrwt beam="2">  1       -2 0.45390685E-01 0.60558608E+03</pdfrwt>
<totfact> 0.51655332E+01</totfact>
</mgrwt>
</event>
<event>
 4    1  0.3365401E-008  0.2592171E+03  0.7818608E-02  0.1107615E+00
          2   -1    0    0  501    0  0.00000000000E+00  0.00000000000E+00  0.19049965109E+04  0.19049965109E+04  0.25500000000E-02 0. -1.
         -2   -1    0    0    0  501 -0.00000000000E+00 -0.00000000000E+00 -0.44727325913E+02  0.44727325985E+02  0.25500000000E-02 0.  1.
    8880022    1    1    2    0    0  0.15385493426E+03  0.14188198291E+03  0.13783527213E+04  0.14025154955E+04  0.15294330000E+03 0.  0.
    8880022    1    1    2    0    0 -0.15385493426E+03 -0.14188198291E+03  0.48191646375E+03  0.54720834142E+03  0.15294330000E+03 0.  0.
<mgrwt>
<rscale>  0 0.25921707E+03</rscale>
<asrwt>0</asrwt>
<pdfrwt beam="1">  1        2 0.29307638E+00 0.25921707E+03</pdfrwt>
<pdfrwt beam="2">  1       -2 0.68811271E-02 0.25921707E+03</pdfrwt>
<totfact> 0.99944530E+02</totfact>
</mgrwt>
</event>
<event>
 4    1  0.3365401E-008  0.6583639E+03  0.7818608E-02  0.9791210E-01
         -2   -1    0    0    0  501 -0.00000000000E+00  0.00000000000E+00  0.38617276625E+03  0.38617276626E+03  0.25500000000E-02 0.  1.
          2   -1    0    0  501    0  0.00000000000E+00 -0.00000000000E+00 -0.11810298873E+04  0.11810298873E+04  0.25500000000E-02 0. -1.
    8880022    1    1    2    0    0 -0.21827530783E+03 -0.60200276059E+03 -0.22284729294E+03  0.69505683419E+03  0.15294330000E+03 0.  0.
    8880022    1    1    2    0    0  0.21827530783E+03  0.60200276059E+03 -0.57200982808E+03  0.87214581934E+03  0.15294330000E+03 0.  0.
<mgrwt>
<rscale>  0 0.65836395E+03</rscale>
<asrwt>0</asrwt>
<pdfrwt beam="1">  1        2 0.18169690E+00 0.65836395E+03</pdfrwt>
<pdfrwt beam="2">  1       -2 0.59411195E-01 0.65836395E+03</pdfrwt>
<totfact> 0.52789553E+01</totfact>
</mgrwt>
</event>
<event>
 4    1  0.3365401E-008  0.2735107E+03  0.7818608E-02  0.1099287E+00
          2   -1    0    0  501    0  0.00000000000E+00  0.00000000000E+00  0.71435490071E+03  0.71435490071E+03  0.25500000000E-02 0. -1.
         -2   -1    0    0    0  501 -0.00000000000E+00 -0.00000000000E+00 -0.11553975732E+03  0.11553975735E+03  0.25500000000E-02 0.  1.
    8880022    1    1    2    0    0  0.22501155629E+03 -0.28040197467E+02  0.42638069977E+03  0.50656550148E+03  0.15294330000E+03 0.  0.
    8880022    1    1    2    0    0 -0.22501155629E+03  0.28040197467E+02  0.17243444361E+03  0.32332915658E+03  0.15294330000E+03 0.  0.
<mgrwt>
<rscale>  0 0.27351071E+03</rscale>
<asrwt>0</asrwt>
<pdfrwt beam="1">  1        2 0.10990076E+00 0.27351071E+03</pdfrwt>
<pdfrwt beam="2">  1       -2 0.17775347E-01 0.27351071E+03</pdfrwt>
<totfact> 0.10541332E+03</totfact>
</mgrwt>
</event>
<event>
 4    1  0.3365401E-008  0.7111085E+03  0.7818608E-02  0.9698422E-01
         -2   -1    0    0    0  501 -0.00000000000E+00  0.00000000000E+00  0.25427458471E+03  0.25427458472E+03  0.25500000000E-02 0.  1.
          2   -1    0    0  501    0  0.00000000000E+00 -0.00000000000E+00 -0.23084274253E+04  0.23084274253E+04  0.25500000000E-02 0. -1.
    8880022    1    1    2    0    0 -0.50702468179E+03  0.47456253351E+03 -0.55020475812E+03  0.89911098037E+03  0.15294330000E+03 0.  0.
    8880022    1    1    2    0    0  0.50702468179E+03 -0.47456253351E+03 -0.15039480825E+04  0.16635910297E+04  0.15294330000E+03 0. -1.
<mgrwt>
<rscale>  0 0.71110849E+03</rscale>
<asrwt>0</asrwt>
<pdfrwt beam="1">  1        2 0.35514267E+00 0.71110849E+03</pdfrwt>
<pdfrwt beam="2">  1       -2 0.39119168E-01 0.71110849E+03</pdfrwt>
<totfact> 0.28948384E+01</totfact>
</mgrwt>
</event>
<event>
 4    1  0.3365401E-008  0.7833008E+03  0.7818608E-02  0.9584508E-01
          2   -1    0    0  501    0  0.00000000000E+00  0.00000000000E+00  0.13153071810E+04  0.13153071810E+04  0.25500000000E-02 0. -1.
         -2   -1    0    0    0  501 -0.00000000000E+00 -0.00000000000E+00 -0.56687538827E+03  0.56687538828E+03  0.25500000000E-02 0.  1.
    8880022    1    1    2    0    0 -0.39218533476E+02  0.76722256312E+03  0.77026759509E+03  0.10985774328E+04  0.15294330000E+03 0.  0.
    8880022    1    1    2    0    0  0.39218533476E+02 -0.76722256312E+03 -0.21835802329E+02  0.78360513654E+03  0.15294330000E+03 0.  0.
<mgrwt>
<rscale>  0 0.78330084E+03</rscale>
<asrwt>0</asrwt>
<pdfrwt beam="1">  1        2 0.20235495E+00 0.78330084E+03</pdfrwt>
<pdfrwt beam="2">  1       -2 0.87211598E-01 0.78330084E+03</pdfrwt>
<totfact> 0.18714277E+01</totfact>
</mgrwt>
</event>
<event>
 4    1  0.3365401E-008  0.1584251E+04  0.7818608E-02  0.8830282E-01
         -2   -1    0    0    0  501 -0.00000000000E+00  0.00000000000E+00  0.21099979965E+04  0.21099979965E+04  0.25500000000E-02 0.  1.
          2   -1    0    0  501    0  0.00000000000E+00 -0.00000000000E+00 -0.25848163650E+04  0.25848163650E+04  0.25500000000E-02 0. -1.
    8880022    1    1    2    0    0 -0.15686148321E+04  0.16095946718E+03  0.14872735924E+04  0.21729783325E+04  0.15294330000E+03 0.  0.
    8880022    1    1    2    0    0  0.15686148321E+04 -0.16095946718E+03 -0.19620919609E+04  0.25218360291E+04  0.15294330000E+03 0.  0.
<mgrwt>
<rscale>  0 0.15842513E+04</rscale>
<asrwt>0</asrwt>
<pdfrwt beam="1">  1        2 0.39766406E+00 0.15842513E+04</pdfrwt>
<pdfrwt beam="2">  1       -2 0.32461508E+00 0.15842513E+04</pdfrwt>
<totfact> 0.64667714E-02</totfact>
</mgrwt>
</event>
<event>
 4    1  0.3365401E-008  0.4914172E+03  0.7818608E-02  0.1016044E+00
          2   -1    0    0  501    0  0.00000000000E+00  0.00000000000E+00  0.98505680934E+03  0.98505680934E+03  0.25500000000E-02 0. -1.
         -2   -1    0    0    0  501 -0.00000000000E+00 -0.00000000000E+00 -0.28303671526E+03  0.28303671527E+03  0.25500000000E-02 0.  1.
    8880022    1    1    2    0    0  0.44146701822E+03 -0.15233556776E+03  0.11904701996E+03  0.50563138684E+03  0.15294330000E+03 0.  0.
    8880022    1    1    2    0    0 -0.44146701822E+03  0.15233556776E+03  0.58297307412E+03  0.76246213778E+03  0.15294330000E+03 0.  0.
<mgrwt>
<rscale>  0 0.49141724E+03</rscale>
<asrwt>0</asrwt>
<pdfrwt beam="1">  1        2 0.15154720E+00 0.49141724E+03</pdfrwt>
<pdfrwt beam="2">  1       -2 0.43544109E-01 0.49141724E+03</pdfrwt>
<totfact> 0.13317836E+02</totfact>
</mgrwt>
</event>
<event>
 4    1  0.3365401E-008  0.7672064E+03  0.7818608E-02  0.9608736E-01
          2   -1    0    0  501    0  0.00000000000E+00  0.00000000000E+00  0.45077941470E+03  0.45077941471E+03  0.25500000000E-02 0. -1.
         -2   -1    0    0    0  501 -0.00000000000E+00 -0.00000000000E+00 -0.16116549586E+04  0.16116549586E+04  0.25500000000E-02 0.  1.
    8880022    1    1    2    0    0 -0.49532482736E+03  0.56556814846E+03 -0.13116855564E+03  0.77833852414E+03  0.15294330000E+03 0.  0.
    8880022    1    1    2    0    0  0.49532482736E+03 -0.56556814846E+03 -0.10297069882E+04  0.12840958491E+04  0.15294330000E+03 0.  0.
<mgrwt>
<rscale>  0 0.76720641E+03</rscale>
<asrwt>0</asrwt>
<pdfrwt beam="1">  1        2 0.69350680E-01 0.76720641E+03</pdfrwt>
<pdfrwt beam="2">  1       -2 0.24794691E+00 0.76720641E+03</pdfrwt>
<totfact> 0.47120723E+00</totfact>
</mgrwt>
</event>
<event>
 4    1  0.3365401E-008  0.5634444E+03  0.7818608E-02  0.9984291E-01
         -2   -1    0    0    0  501 -0.00000000000E+00  0.00000000000E+00  0.54239190826E+03  0.54239190827E+03  0.25500000000E-02 0.  1.
          2   -1    0    0  501    0  0.00000000000E+00 -0.00000000000E+00 -0.22427462394E+04  0.22427462394E+04  0.25500000000E-02 0. -1.
    8880022    1    1    2    0    0 -0.49308883189E+03 -0.22570189710E+03 -0.20473161242E+04  0.21234342250E+04  0.15294330000E+03 0.  0.
    8880022    1    1    2    0    0  0.49308883189E+03  0.22570189710E+03  0.34696179302E+03  0.66170392270E+03  0.15294330000E+03 0.  0.
<mgrwt>
<rscale>  0 0.56344440E+03</rscale>
<asrwt>0</asrwt>
<pdfrwt beam="1">  1        2 0.34503788E+00 0.56344440E+03</pdfrwt>
<pdfrwt beam="2">  1       -2 0.83444910E-01 0.56344440E+03</pdfrwt>
<totfact> 0.66332731E+00</totfact>
</mgrwt>
</event>
<event>
 4    1  0.3365401E-008  0.4988166E+03  0.7818608E-02  0.1014088E+00
          2   -1    0    0  501    0  0.00000000000E+00  0.00000000000E+00  0.60385653499E+03  0.60385653500E+03  0.25500000000E-02 0. -1.
         -2   -1    0    0    0  501 -0.00000000000E+00 -0.00000000000E+00 -0.50495916749E+03  0.50495916750E+03  0.25500000000E-02 0.  1.
    8880022    1    1    2    0    0  0.39001846354E+03  0.27076184760E+03  0.28726113978E+03  0.57561879352E+03  0.15294330000E+03 0. -1.
    8880022    1    1    2    0    0 -0.39001846354E+03 -0.27076184760E+03 -0.18836377227E+03  0.53319690897E+03  0.15294330000E+03 0.  1.
<mgrwt>
<rscale>  0 0.49881663E+03</rscale>
<asrwt>0</asrwt>
<pdfrwt beam="1">  1        2 0.92901006E-01 0.49881663E+03</pdfrwt>
<pdfrwt beam="2">  1       -2 0.77686026E-01 0.49881663E+03</pdfrwt>
<totfact> 0.74954354E+01</totfact>
</mgrwt>
</event>
<event>
 4    1  0.3365401E-008  0.1026094E+04  0.7818608E-02  0.9280379E-01
         -2   -1    0    0    0  501 -0.00000000000E+00  0.00000000000E+00  0.10845390994E+04  0.10845390994E+04  0.25500000000E-02 0.  1.
          2   -1    0    0  501    0  0.00000000000E+00 -0.00000000000E+00 -0.15736790134E+04  0.15736790134E+04  0.25500000000E-02 0. -1.
    8880022    1    1    2    0    0 -0.82945763930E+03  0.58436065029E+03  0.57808580086E+03  0.11777317993E+04  0.15294330000E+03 0.  0.
    8880022    1    1    2    0    0  0.82945763930E+03 -0.58436065029E+03 -0.10672257149E+04  0.14804863135E+04  0.15294330000E+03 0.  0.
<mgrwt>
<rscale>  0 0.10260940E+04</rscale>
<asrwt>0</asrwt>
<pdfrwt beam="1">  1        2 0.24210446E+00 0.10260940E+04</pdfrwt>
<pdfrwt beam="2">  1       -2 0.16685217E+00 0.10260940E+04</pdfrwt>
<totfact> 0.25638458E+00</totfact>
</mgrwt>
</event>
<event>
 4    1  0.3365401E-008  0.7126603E+03  0.7818608E-02  0.9695823E-01
          2   -1    0    0  501    0  0.00000000000E+00  0.00000000000E+00  0.22949633709E+04  0.22949633709E+04  0.25500000000E-02 0. -1.
         -2   -1    0    0    0  501 -0.00000000000E+00 -0.00000000000E+00 -0.26715414652E+03  0.26715414654E+03  0.25500000000E-02 0.  1.
    8880022    1    1    2    0    0 -0.43530577169E+03 -0.54314085239E+03  0.48319361886E+03  0.86102312787E+03  0.15294330000E+03 0.  0.
    8880022    1    1    2    0    0  0.43530577169E+03  0.54314085239E+03  0.15446156056E+04  0.17010943896E+04  0.15294330000E+03 0.  0.
<mgrwt>
<rscale>  0 0.71266034E+03</rscale>
<asrwt>0</asrwt>
<pdfrwt beam="1">  1        2 0.35307129E+00 0.71266034E+03</pdfrwt>
<pdfrwt beam="2">  1       -2 0.41100637E-01 0.71266034E+03</pdfrwt>
<totfact> 0.26739563E+01</totfact>
</mgrwt>
</event>
<event>
 4    1  0.3365401E-008  0.1642848E+04  0.7818608E-02  0.8794649E-01
          2   -1    0    0  501    0  0.00000000000E+00  0.00000000000E+00  0.41556342163E+04  0.41556342163E+04  0.25500000000E-02 0. -1.
         -2   -1    0    0    0  501 -0.00000000000E+00 -0.00000000000E+00 -0.86344010335E+03  0.86344010335E+03  0.25500000000E-02 0.  1.
    8880022    1    1    2    0    0  0.16141383152E+04 -0.26479274780E+03  0.39682619281E+03  0.16900947844E+04  0.15294330000E+03 0.  0.
    8880022    1    1    2    0    0 -0.16141383152E+04  0.26479274780E+03  0.28953679202E+04  0.33289795352E+04  0.15294330000E+03 0.  0.
<mgrwt>
<rscale>  0 0.16428479E+04</rscale>
<asrwt>0</asrwt>
<pdfrwt beam="1">  1        2 0.63932835E+00 0.16428479E+04</pdfrwt>
<pdfrwt beam="2">  1       -2 0.13283694E+00 0.16428479E+04</pdfrwt>
<totfact> 0.99006991E-02</totfact>
</mgrwt>
</event>
<event>
 4    1  0.6221496E-008  0.8849328E+03  0.7818608E-02  0.9444615E-01
         -2   -1    0    0    0  501 -0.00000000000E+00  0.00000000000E+00  0.15908909462E+04  0.15908909462E+04  0.25500000000E-02 0.  1.
          2   -1    0    0  501    0  0.00000000000E+00 -0.00000000000E+00 -0.16570837725E+04  0.16570837725E+04  0.25500000000E-02 0. -1.
    8880022    1    1    2    0    0 -0.64279551928E+03  0.58866659411E+03 -0.13946776508E+04  0.16517360083E+04  0.15294330000E+03 0.  0.
    8880022    1    1    2    0    0  0.64279551928E+03 -0.58866659411E+03  0.13284848245E+04  0.15962387104E+04  0.15294330000E+03 0.  0.
<mgrwt>
<rscale>  0 0.88493282E+03</rscale>
<asrwt>0</asrwt>
<pdfrwt beam="1">  1        2 0.25493596E+00 0.88493282E+03</pdfrwt>
<pdfrwt beam="2">  1       -2 0.24475245E+00 0.88493282E+03</pdfrwt>
<totfact> 0.73015364E-01</totfact>
</mgrwt>
</event>
<event>
 4    1  0.3365401E-008  0.6827038E+03  0.7818608E-02  0.9747277E-01
         -2   -1    0    0    0  501 -0.00000000000E+00  0.00000000000E+00  0.11035082350E+04  0.11035082350E+04  0.25500000000E-02 0.  1.
          2   -1    0    0  501    0  0.00000000000E+00 -0.00000000000E+00 -0.75265464832E+03  0.75265464832E+03  0.25500000000E-02 0. -1.
    8880022    1    1    2    0    0  0.44336168506E+02  0.66387279978E+03  0.79022839205E+03  0.10442917958E+04  0.15294330000E+03 0.  0.
    8880022    1    1    2    0    0 -0.44336168506E+02 -0.66387279978E+03 -0.43937480539E+03  0.81187108752E+03  0.15294330000E+03 0.  0.
<mgrwt>
<rscale>  0 0.68270377E+03</rscale>
<asrwt>0</asrwt>
<pdfrwt beam="1">  1        2 0.11579302E+00 0.68270377E+03</pdfrwt>
<pdfrwt beam="2">  1       -2 0.16977050E+00 0.68270377E+03</pdfrwt>
<totfact> 0.81929756E+00</totfact>
</mgrwt>
</event>
<event>
 4    1  0.3365401E-008  0.4452232E+03  0.7818608E-02  0.1029156E+00
         -2   -1    0    0    0  501 -0.00000000000E+00  0.00000000000E+00  0.10521804407E+03  0.10521804410E+03  0.25500000000E-02 0.  1.
          2   -1    0    0  501    0  0.00000000000E+00 -0.00000000000E+00 -0.21803734340E+04  0.21803734340E+04  0.25500000000E-02 0. -1.
    8880022    1    1    2    0    0  0.29438863472E+03 -0.29692984721E+03 -0.61619905369E+03  0.76021373916E+03  0.15294330000E+03 0.  0.
    8880022    1    1    2    0    0 -0.29438863472E+03  0.29692984721E+03 -0.14589563363E+04  0.15253777390E+04  0.15294330000E+03 0.  0.
<mgrwt>
<rscale>  0 0.44522315E+03</rscale>
<asrwt>0</asrwt>
<pdfrwt beam="1">  1        2 0.33544203E+00 0.44522315E+03</pdfrwt>
<pdfrwt beam="2">  1       -2 0.16187393E-01 0.44522315E+03</pdfrwt>
<totfact> 0.17423193E+02</totfact>
</mgrwt>
</event>
<event>
 4    1  0.3365401E-008  0.1013477E+04  0.7818608E-02  0.9293886E-01
         -2   -1    0    0    0  501 -0.00000000000E+00  0.00000000000E+00  0.19386897756E+04  0.19386897756E+04  0.25500000000E-02 0.  1.
          2   -1    0    0  501    0  0.00000000000E+00 -0.00000000000E+00 -0.13804076470E+04  0.13804076470E+04  0.25500000000E-02 0. -1.
    8880022    1    1    2    0    0  0.83363283655E+00  0.10018694923E+04 -0.10235718876E+04  0.14404284906E+04  0.15294330000E+03 0.  0.
    8880022    1    1    2    0    0 -0.83363283655E+00 -0.10018694923E+04  0.15818540162E+04  0.18786689320E+04  0.15294330000E+03 0.  0.
<mgrwt>
<rscale>  0 0.10134766E+04</rscale>
<asrwt>0</asrwt>
<pdfrwt beam="1">  1        2 0.21237041E+00 0.10134766E+04</pdfrwt>
<pdfrwt beam="2">  1       -2 0.29825997E+00 0.10134766E+04</pdfrwt>
<totfact> 0.48476876E-01</totfact>
</mgrwt>
</event>
<event>
 4    1  0.3365401E-008  0.6129078E+03  0.7818608E-02  0.9878982E-01
          2   -1    0    0  501    0  0.00000000000E+00  0.00000000000E+00  0.51244238621E+03  0.51244238622E+03  0.25500000000E-02 0. -1.
         -2   -1    0    0    0  501 -0.00000000000E+00 -0.00000000000E+00 -0.76733770534E+03  0.76733770534E+03  0.25500000000E-02 0.  1.
    8880022    1    1    2    0    0 -0.54445918546E+03  0.23628069752E+03 -0.26267235481E+03  0.66682290876E+03  0.15294330000E+03 0.  0.
    8880022    1    1    2    0    0  0.54445918546E+03 -0.23628069752E+03  0.77770356800E+01  0.61295718280E+03  0.15294330000E+03 0.  0.
<mgrwt>
<rscale>  0 0.61290784E+03</rscale>
<asrwt>0</asrwt>
<pdfrwt beam="1">  1        2 0.78837290E-01 0.61290784E+03</pdfrwt>
<pdfrwt beam="2">  1       -2 0.11805196E+00 0.61290784E+03</pdfrwt>
<totfact> 0.33877483E+01</totfact>
</mgrwt>
</event>
<event>
 4    1  0.3365401E-008  0.3575983E+03  0.7818608E-02  0.1059539E+00
         -2   -1    0    0    0  501 -0.00000000000E+00  0.00000000000E+00  0.16302172173E+03  0.16302172175E+03  0.25500000000E-02 0.  1.
          2   -1    0    0  501    0  0.00000000000E+00 -0.00000000000E+00 -0.14887470099E+04  0.14887470099E+04  0.25500000000E-02 0. -1.
    8880022    1    1    2    0    0 -0.26575638555E+03 -0.18400663673E+03 -0.94798004350E+02  0.36995028512E+03  0.15294330000E+03 0.  0.
    8880022    1    1    2    0    0  0.26575638555E+03  0.18400663673E+03 -0.12309272838E+04  0.12818184465E+04  0.15294330000E+03 0.  0.
<mgrwt>
<rscale>  0 0.35759831E+03</rscale>
<asrwt>0</asrwt>
<pdfrwt beam="1">  1        2 0.22903799E+00 0.35759831E+03</pdfrwt>
<pdfrwt beam="2">  1       -2 0.25080266E-01 0.35759831E+03</pdfrwt>
<totfact> 0.19430518E+02</totfact>
</mgrwt>
</event>
<event>
 4    1  0.3365401E-008  0.1560898E+04  0.7818608E-02  0.8844937E-01
         -2   -1    0    0    0  501 -0.00000000000E+00  0.00000000000E+00  0.15969701864E+04  0.15969701864E+04  0.25500000000E-02 0.  1.
          2   -1    0    0  501    0  0.00000000000E+00 -0.00000000000E+00 -0.16921674023E+04  0.16921674023E+04  0.25500000000E-02 0. -1.
    8880022    1    1    2    0    0 -0.13197542487E+04  0.81930447747E+03 -0.56350663856E+03  0.16595006745E+04  0.15294330000E+03 0.  0.
    8880022    1    1    2    0    0  0.13197542487E+04 -0.81930447747E+03  0.46830942263E+03  0.16296369142E+04  0.15294330000E+03 0.  0.
<mgrwt>
<rscale>  0 0.15608981E+04</rscale>
<asrwt>0</asrwt>
<pdfrwt beam="1">  1        2 0.26033345E+00 0.15608981E+04</pdfrwt>
<pdfrwt beam="2">  1       -2 0.24568772E+00 0.15608981E+04</pdfrwt>
<totfact> 0.63162461E-01</totfact>
</mgrwt>
</event>
<event>
 4    1  0.3365401E-008  0.7645300E+03  0.7818608E-02  0.9612827E-01
         -2   -1    0    0    0  501 -0.00000000000E+00  0.00000000000E+00  0.65503271809E+03  0.65503271810E+03  0.25500000000E-02 0.  1.
          2   -1    0    0  501    0  0.00000000000E+00 -0.00000000000E+00 -0.13615189712E+04  0.13615189712E+04  0.25500000000E-02 0. -1.
    8880022    1    1    2    0    0 -0.35036493601E+03  0.66208680256E+03 -0.94513288487E+03  0.12156407140E+04  0.15294330000E+03 0.  0.
    8880022    1    1    2    0    0  0.35036493601E+03 -0.66208680256E+03  0.23864663174E+03  0.80091097530E+03  0.15294330000E+03 0.  0.
<mgrwt>
<rscale>  0 0.76453004E+03</rscale>
<asrwt>0</asrwt>
<pdfrwt beam="1">  1        2 0.20946446E+00 0.76453004E+03</pdfrwt>
<pdfrwt beam="2">  1       -2 0.10077426E+00 0.76453004E+03</pdfrwt>
<totfact> 0.12598109E+01</totfact>
</mgrwt>
</event>
<event>
 4    1  0.3365401E-008  0.1694434E+03  0.7818608E-02  0.1178430E+00
          2   -1    0    0  501    0  0.00000000000E+00  0.00000000000E+00  0.46019602900E+03  0.46019602901E+03  0.25500000000E-02 0. -1.
         -2   -1    0    0    0  501 -0.00000000000E+00 -0.00000000000E+00 -0.18208148659E+03  0.18208148661E+03  0.25500000000E-02 0.  1.
    8880022    1    1    2    0    0  0.13601567132E+02  0.71654722811E+02  0.39942893990E+03  0.43388308676E+03  0.15294330000E+03 0. -1.
    8880022    1    1    2    0    0 -0.13601567132E+02 -0.71654722811E+02 -0.12131439749E+03  0.20839442886E+03  0.15294330000E+03 0.  0.
<mgrwt>
<rscale>  0 0.16944337E+03</rscale>
<asrwt>0</asrwt>
<pdfrwt beam="1">  1        2 0.70799388E-01 0.16944337E+03</pdfrwt>
<pdfrwt beam="2">  1       -2 0.28012537E-01 0.16944337E+03</pdfrwt>
<totfact> 0.79264749E+02</totfact>
</mgrwt>
</event>
<event>
 4    1  0.3365401E-008  0.3755912E+03  0.7818608E-02  0.1052575E+00
          2   -1    0    0  501    0  0.00000000000E+00  0.00000000000E+00  0.29757609511E+04  0.29757609511E+04  0.25500000000E-02 0. -1.
         -2   -1    0    0    0  501 -0.00000000000E+00 -0.00000000000E+00 -0.34214568180E+03  0.34214568180E+03  0.25500000000E-02 0.  1.
    8880022    1    1    2    0    0 -0.21404426853E+03  0.26807120919E+03 -0.22293443283E+03  0.43677057644E+03  0.15294330000E+03 0.  0.
    8880022    1    1    2    0    0  0.21404426853E+03 -0.26807120919E+03  0.28565497021E+04  0.28811360564E+04  0.15294330000E+03 0.  0.
<mgrwt>
<rscale>  0 0.37559123E+03</rscale>
<asrwt>0</asrwt>
<pdfrwt beam="1">  1        2 0.45780940E+00 0.37559123E+03</pdfrwt>
<pdfrwt beam="2">  1       -2 0.52637795E-01 0.37559123E+03</pdfrwt>
<totfact> 0.72177291E+00</totfact>
</mgrwt>
</event>
<event>
 4    1  0.3365401E-008  0.6700192E+03  0.7818608E-02  0.9769923E-01
          2   -1    0    0  501    0  0.00000000000E+00  0.00000000000E+00  0.18557080687E+04  0.18557080687E+04  0.25500000000E-02 0. -1.
         -2   -1    0    0    0  501 -0.00000000000E+00 -0.00000000000E+00 -0.58424516821E+03  0.58424516821E+03  0.25500000000E-02 0.  1.
    8880022    1    1    2    0    0 -0.33151688964E+03 -0.56181018967E+03 -0.29811567577E+03  0.73334763004E+03  0.15294330000E+03 0.  1.
    8880022    1    1    2    0    0  0.33151688964E+03  0.56181018967E+03  0.15695785763E+04  0.17066056069E+04  0.15294330000E+03 0.  0.
<mgrwt>
<rscale>  0 0.67001925E+03</rscale>
<asrwt>0</asrwt>
<pdfrwt beam="1">  1        2 0.28549354E+00 0.67001925E+03</pdfrwt>
<pdfrwt beam="2">  1       -2 0.89883874E-01 0.67001925E+03</pdfrwt>
<totfact> 0.89038261E+00</totfact>
</mgrwt>
</event>
<event>
 4    1  0.3365401E-008  0.8893509E+03  0.7818608E-02  0.9438992E-01
          2   -1    0    0  501    0  0.00000000000E+00  0.00000000000E+00  0.77516342264E+03  0.77516342264E+03  0.25500000000E-02 0. -1.
         -2   -1    0    0    0  501 -0.00000000000E+00 -0.00000000000E+00 -0.14139443637E+04  0.14139443637E+04  0.25500000000E-02 0.  1.
    8880022    1    1    2    0    0 -0.11678790726E+03  0.86828214713E+03 -0.89687515836E+03  0.12630637375E+04  0.15294330000E+03 0.  0.
    8880022    1    1    2    0    0  0.11678790726E+03 -0.86828214713E+03  0.25809421732E+03  0.92604404881E+03  0.15294330000E+03 0.  0.
<mgrwt>
<rscale>  0 0.88935086E+03</rscale>
<asrwt>0</asrwt>
<pdfrwt beam="1">  1        2 0.11925591E+00 0.88935086E+03</pdfrwt>
<pdfrwt beam="2">  1       -2 0.21752990E+00 0.88935086E+03</pdfrwt>
<totfact> 0.37042518E+00</totfact>
</mgrwt>
</event>
<event>
 4    1  0.3365401E-008  0.5144841E+03  0.7818608E-02  0.1010066E+00
          2   -1    0    0  501    0  0.00000000000E+00  0.00000000000E+00  0.82389794372E+03  0.82389794372E+03  0.25500000000E-02 0. -1.
         -2   -1    0    0    0  501 -0.00000000000E+00 -0.00000000000E+00 -0.85448708103E+03  0.85448708104E+03  0.25500000000E-02 0.  1.
    8880022    1    1    2    0    0 -0.16828271809E+03 -0.46150099545E+03  0.64762490388E+03  0.82711057976E+03  0.15294330000E+03 0.  0.
    8880022    1    1    2    0    0  0.16828271809E+03  0.46150099545E+03 -0.67821404120E+03  0.85127444500E+03  0.15294330000E+03 0.  0.
<mgrwt>
<rscale>  0 0.51448411E+03</rscale>
<asrwt>0</asrwt>
<pdfrwt beam="1">  1        2 0.12675353E+00 0.51448411E+03</pdfrwt>
<pdfrwt beam="2">  1       -2 0.13145955E+00 0.51448411E+03</pdfrwt>
<totfact> 0.14625291E+01</totfact>
</mgrwt>
</event>
<event>
 4    1  0.3365401E-008  0.3059293E+03  0.7818608E-02  0.1082314E+00
         -2   -1    0    0    0  501 -0.00000000000E+00  0.00000000000E+00  0.54073412022E+03  0.54073412023E+03  0.25500000000E-02 0.  1.
          2   -1    0    0  501    0  0.00000000000E+00 -0.00000000000E+00 -0.51655610274E+03  0.51655610275E+03  0.25500000000E-02 0. -1.
    8880022    1    1    2    0    0  0.25732609096E+03  0.63121597386E+02  0.44316206362E+03  0.53850285124E+03  0.15294330000E+03 0.  1.
    8880022    1    1    2    0    0 -0.25732609096E+03 -0.63121597386E+02 -0.41898404613E+03  0.51878737174E+03  0.15294330000E+03 0.  0.
<mgrwt>
<rscale>  0 0.30592925E+03</rscale>
<asrwt>0</asrwt>
<pdfrwt beam="1">  1        2 0.79470170E-01 0.30592925E+03</pdfrwt>
<pdfrwt beam="2">  1       -2 0.83189864E-01 0.30592925E+03</pdfrwt>
<totfact> 0.78854252E+01</totfact>
</mgrwt>
</event>
<event>
 4    1  0.3365401E-008  0.3983887E+03  0.7818608E-02  0.1044339E+00
         -2   -1    0    0    0  501 -0.00000000000E+00  0.00000000000E+00  0.97905606339E+02  0.97905606373E+02  0.25500000000E-02 0.  1.
          2   -1    0    0  501    0  0.00000000000E+00 -0.00000000000E+00 -0.16453813820E+04  0.16453813820E+04  0.25500000000E-02 0. -1.
    8880022    1    1    2    0    0  0.24458353621E+03 -0.27477409565E+03 -0.87965187420E+03  0.96566090457E+03  0.15294330000E+03 0.  1.
    8880022    1    1    2    0    0 -0.24458353621E+03  0.27477409565E+03 -0.66782390147E+03  0.77762608380E+03  0.15294330000E+03 0.  0.
<mgrwt>
<rscale>  0 0.39838871E+03</rscale>
<asrwt>0</asrwt>
<pdfrwt beam="1">  1        2 0.25313558E+00 0.39838871E+03</pdfrwt>
<pdfrwt beam="2">  1       -2 0.15062402E-01 0.39838871E+03</pdfrwt>
<totfact> 0.38306836E+02</totfact>
</mgrwt>
</event>
<event>
 4    1  0.3365401E-008  0.4056832E+03  0.7818608E-02  0.1041829E+00
         -2   -1    0    0    0  501 -0.00000000000E+00  0.00000000000E+00  0.83750279611E+03  0.83750279611E+03  0.25500000000E-02 0.  1.
          2   -1    0    0  501    0  0.00000000000E+00 -0.00000000000E+00 -0.27861380181E+03  0.27861380182E+03  0.25500000000E-02 0. -1.
    8880022    1    1    2    0    0 -0.11609116837E+03 -0.35736537689E+03 -0.23495249738E+02  0.40636295568E+03  0.15294330000E+03 0.  0.
    8880022    1    1    2    0    0  0.11609116837E+03  0.35736537689E+03  0.58238424404E+03  0.70975364225E+03  0.15294330000E+03 0.  0.
<mgrwt>
<rscale>  0 0.40568316E+03</rscale>
<asrwt>0</asrwt>
<pdfrwt beam="1">  1        2 0.42863662E-01 0.40568316E+03</pdfrwt>
<pdfrwt beam="2">  1       -2 0.12884658E+00 0.40568316E+03</pdfrwt>
<totfact> 0.54879956E+01</totfact>
</mgrwt>
</event>
<event>
 4    1  0.3365401E-008  0.8546156E+03  0.7818608E-02  0.9484163E-01
         -2   -1    0    0    0  501 -0.00000000000E+00  0.00000000000E+00  0.44214660966E+03  0.44214660966E+03  0.25500000000E-02 0.  1.
          2   -1    0    0  501    0  0.00000000000E+00 -0.00000000000E+00 -0.20619943471E+04  0.20619943471E+04  0.25500000000E-02 0. -1.
    8880022    1    1    2    0    0  0.63630367537E+03  0.54963062666E+03 -0.13683218804E+04  0.16132800794E+04  0.15294330000E+03 0.  0.
    8880022    1    1    2    0    0 -0.63630367537E+03 -0.54963062666E+03 -0.25152585699E+03  0.89086087735E+03  0.15294330000E+03 0.  0.
<mgrwt>
<rscale>  0 0.85461561E+03</rscale>
<asrwt>0</asrwt>
<pdfrwt beam="1">  1        2 0.31722989E+00 0.85461561E+03</pdfrwt>
<pdfrwt beam="2">  1       -2 0.68022557E-01 0.85461561E+03</pdfrwt>
<totfact> 0.12472405E+01</totfact>
</mgrwt>
</event>
<event>
 4    1  0.3365401E-008  0.1230976E+04  0.7818608E-02  0.9086167E-01
          2   -1    0    0  501    0  0.00000000000E+00  0.00000000000E+00  0.10211097988E+04  0.10211097988E+04  0.25500000000E-02 0. -1.
         -2   -1    0    0    0  501 -0.00000000000E+00 -0.00000000000E+00 -0.24990291730E+04  0.24990291730E+04  0.25500000000E-02 0.  1.
    8880022    1    1    2    0    0 -0.80265907954E+03 -0.92067828497E+03 -0.18606906030E+04  0.22310247143E+04  0.15294330000E+03 0.  0.
    8880022    1    1    2    0    0  0.80265907954E+03  0.92067828497E+03  0.38277122879E+03  0.12891142575E+04  0.15294330000E+03 0.  0.
<mgrwt>
<rscale>  0 0.12309759E+04</rscale>
<asrwt>0</asrwt>
<pdfrwt beam="1">  1        2 0.15709382E+00 0.12309759E+04</pdfrwt>
<pdfrwt beam="2">  1       -2 0.38446602E+00 0.12309759E+04</pdfrwt>
<totfact> 0.22435557E-01</totfact>
</mgrwt>
</event>
<event>
 4    1  0.3365401E-008  0.3251276E+03  0.7818608E-02  0.1073313E+00
         -2   -1    0    0    0  501 -0.00000000000E+00  0.00000000000E+00  0.84147117585E+02  0.84147117623E+02  0.25500000000E-02 0.  1.
          2   -1    0    0  501    0  0.00000000000E+00 -0.00000000000E+00 -0.15041465704E+04  0.15041465704E+04  0.25500000000E-02 0. -1.
    8880022    1    1    2    0    0 -0.24612622977E+03  0.14743871500E+03 -0.38758829074E+03  0.50589784719E+03  0.15294330000E+03 0.  0.
    8880022    1    1    2    0    0  0.24612622977E+03 -0.14743871500E+03 -0.10324111621E+04  0.10823958409E+04  0.15294330000E+03 0.  1.
<mgrwt>
<rscale>  0 0.32512759E+03</rscale>
<asrwt>0</asrwt>
<pdfrwt beam="1">  1        2 0.23140714E+00 0.32512759E+03</pdfrwt>
<pdfrwt beam="2">  1       -2 0.12945712E-01 0.32512759E+03</pdfrwt>
<totfact> 0.59130257E+02</totfact>
</mgrwt>
</event>
<event>
 4    1  0.3961966E-008  0.5434701E+03  0.7818608E-02  0.1003017E+00
          2   -1    0    0  501    0  0.00000000000E+00  0.00000000000E+00  0.15717645457E+04  0.15717645457E+04  0.25500000000E-02 0. -1.
         -2   -1    0    0    0  501 -0.00000000000E+00 -0.00000000000E+00 -0.97657186335E+03  0.97657186336E+03  0.25500000000E-02 0.  1.
    8880022    1    1    2    0    0 -0.51621952787E+03  0.74064424507E+02  0.14426304212E+04  0.15416038158E+04  0.15294330000E+03 0. -1.
    8880022    1    1    2    0    0  0.51621952787E+03 -0.74064424507E+02 -0.84743773885E+03  0.10067325932E+04  0.15294330000E+03 0.  0.
<mgrwt>
<rscale>  0 0.54347014E+03</rscale>
<asrwt>0</asrwt>
<pdfrwt beam="1">  1        2 0.24180993E+00 0.54347014E+03</pdfrwt>
<pdfrwt beam="2">  1       -2 0.15024182E+00 0.54347014E+03</pdfrwt>
<totfact> 0.36891630E+00</totfact>
</mgrwt>
</event>
<event>
 4    1  0.3365401E-008  0.6002403E+03  0.7818608E-02  0.9904908E-01
         -2   -1    0    0    0  501 -0.00000000000E+00  0.00000000000E+00  0.50355761242E+03  0.50355761243E+03  0.25500000000E-02 0.  1.
          2   -1    0    0  501    0  0.00000000000E+00 -0.00000000000E+00 -0.10889808421E+04  0.10889808421E+04  0.25500000000E-02 0. -1.
    8880022    1    1    2    0    0 -0.52237332024E+03 -0.25302752025E+03  0.17361700208E+03  0.62484504330E+03  0.15294330000E+03 0.  0.
    8880022    1    1    2    0    0  0.52237332024E+03  0.25302752025E+03 -0.75904023177E+03  0.96769341124E+03  0.15294330000E+03 0.  0.
<mgrwt>
<rscale>  0 0.60024034E+03</rscale>
<asrwt>0</asrwt>
<pdfrwt beam="1">  1        2 0.16753551E+00 0.60024034E+03</pdfrwt>
<pdfrwt beam="2">  1       -2 0.77470402E-01 0.60024034E+03</pdfrwt>
<totfact> 0.33991423E+01</totfact>
</mgrwt>
</event>
<event>
 4    1  0.3365401E-008  0.6001231E+03  0.7818608E-02  0.9905151E-01
          2   -1    0    0  501    0  0.00000000000E+00  0.00000000000E+00  0.12454623817E+04  0.12454623817E+04  0.25500000000E-02 0. -1.
         -2   -1    0    0    0  501 -0.00000000000E+00 -0.00000000000E+00 -0.88660476131E+03  0.88660476131E+03  0.25500000000E-02 0.  1.
    8880022    1    1    2    0    0 -0.52617945878E+03  0.24472692753E+03 -0.69565945166E+03  0.91874360819E+03  0.15294330000E+03 0.  0.
    8880022    1    1    2    0    0  0.52617945878E+03 -0.24472692753E+03  0.10545170721E+04  0.12133235348E+04  0.15294330000E+03 0.  0.
<mgrwt>
<rscale>  0 0.60012311E+03</rscale>
<asrwt>0</asrwt>
<pdfrwt beam="1">  1        2 0.19160960E+00 0.60012311E+03</pdfrwt>
<pdfrwt beam="2">  1       -2 0.13640073E+00 0.60012311E+03</pdfrwt>
<totfact> 0.71433296E+00</totfact>
</mgrwt>
</event>
<event>
 4    1  0.3365401E-008  0.6525237E+03  0.7818608E-02  0.9802055E-01
         -2   -1    0    0    0  501 -0.00000000000E+00  0.00000000000E+00  0.31688666815E+03  0.31688666816E+03  0.25500000000E-02 0.  1.
          2   -1    0    0  501    0  0.00000000000E+00 -0.00000000000E+00 -0.21710526124E+04  0.21710526124E+04  0.25500000000E-02 0. -1.
    8880022    1    1    2    0    0 -0.50446396302E+03 -0.38459285175E+03 -0.16950295973E+04  0.18162908744E+04  0.15294330000E+03 0.  0.
    8880022    1    1    2    0    0  0.50446396302E+03  0.38459285175E+03 -0.15913634695E+03  0.67164840619E+03  0.15294330000E+03 0.  0.
<mgrwt>
<rscale>  0 0.65252372E+03</rscale>
<asrwt>0</asrwt>
<pdfrwt beam="1">  1        2 0.33400809E+00 0.65252372E+03</pdfrwt>
<pdfrwt beam="2">  1       -2 0.48751796E-01 0.65252372E+03</pdfrwt>
<totfact> 0.22491721E+01</totfact>
</mgrwt>
</event>
<event>
 4    1  0.3365401E-008  0.3397493E+03  0.7818608E-02  0.1066903E+00
          2   -1    0    0  501    0  0.00000000000E+00  0.00000000000E+00  0.19342860068E+04  0.19342860068E+04  0.25500000000E-02 0. -1.
         -2   -1    0    0    0  501 -0.00000000000E+00 -0.00000000000E+00 -0.70193660057E+02  0.70193660103E+02  0.25500000000E-02 0.  1.
    8880022    1    1    2    0    0  0.24311414385E+03  0.18147580496E+03  0.54408229764E+03  0.64144770196E+03  0.15294330000E+03 0.  0.
    8880022    1    1    2    0    0 -0.24311414385E+03 -0.18147580496E+03  0.13200100491E+04  0.13630319649E+04  0.15294330000E+03 0.  0.
<mgrwt>
<rscale>  0 0.33974933E+03</rscale>
<asrwt>0</asrwt>
<pdfrwt beam="1">  1        2 0.29758245E+00 0.33974933E+03</pdfrwt>
<pdfrwt beam="2">  1       -2 0.10799025E-01 0.33974933E+03</pdfrwt>
<totfact> 0.46780970E+02</totfact>
</mgrwt>
</event>
<event>
 4    1  0.3365401E-008  0.7424685E+03  0.7818608E-02  0.9647241E-01
          2   -1    0    0  501    0  0.00000000000E+00  0.00000000000E+00  0.11042654381E+04  0.11042654381E+04  0.25500000000E-02 0. -1.
         -2   -1    0    0    0  501 -0.00000000000E+00 -0.00000000000E+00 -0.71626958877E+03  0.71626958877E+03  0.25500000000E-02 0.  1.
    8880022    1    1    2    0    0 -0.34381409579E+03  0.64004668152E+03  0.69509400826E+03  0.10170620533E+04  0.15294330000E+03 0.  0.
    8880022    1    1    2    0    0  0.34381409579E+03 -0.64004668152E+03 -0.30709815892E+03  0.80347297355E+03  0.15294330000E+03 0.  0.
<mgrwt>
<rscale>  0 0.74246854E+03</rscale>
<asrwt>0</asrwt>
<pdfrwt beam="1">  1        2 0.16988699E+00 0.74246854E+03</pdfrwt>
<pdfrwt beam="2">  1       -2 0.11019532E+00 0.74246854E+03</pdfrwt>
<totfact> 0.14435621E+01</totfact>
</mgrwt>
</event>
<event>
 4    1  0.3365401E-008  0.1804915E+03  0.7818608E-02  0.1167328E+00
          2   -1    0    0  501    0  0.00000000000E+00  0.00000000000E+00  0.22340494695E+03  0.22340494697E+03  0.25500000000E-02 0. -1.
         -2   -1    0    0    0  501 -0.00000000000E+00 -0.00000000000E+00 -0.42788516302E+03  0.42788516302E+03  0.25500000000E-02 0.  1.
    8880022    1    1    2    0    0  0.89441638964E+02  0.34434310697E+02  0.16215575868E+03  0.24263485244E+03  0.15294330000E+03 0.  0.
    8880022    1    1    2    0    0 -0.89441638964E+02 -0.34434310697E+02 -0.36663597474E+03  0.40865525755E+03  0.15294330000E+03 0.  1.
<mgrwt>
<rscale>  0 0.18049150E+03</rscale>
<asrwt>0</asrwt>
<pdfrwt beam="1">  1        2 0.34369992E-01 0.18049150E+03</pdfrwt>
<pdfrwt beam="2">  1       -2 0.65828486E-01 0.18049150E+03</pdfrwt>
<totfact> 0.33025934E+02</totfact>
</mgrwt>
</event>
<event>
 4    1  0.3365401E-008  0.2874347E+03  0.7818608E-02  0.1091696E+00
          2   -1    0    0  501    0  0.00000000000E+00  0.00000000000E+00  0.14018821645E+04  0.14018821645E+04  0.25500000000E-02 0. -1.
         -2   -1    0    0    0  501 -0.00000000000E+00 -0.00000000000E+00 -0.18027531259E+03  0.18027531261E+03  0.25500000000E-02 0.  1.
    8880022    1    1    2    0    0 -0.17451693836E+03 -0.16961978907E+03  0.12598198966E+04  0.12921938166E+04  0.15294330000E+03 0. -1.
    8880022    1    1    2    0    0  0.17451693836E+03  0.16961978907E+03 -0.38213044733E+02  0.28996366052E+03  0.15294330000E+03 0.  0.
<mgrwt>
<rscale>  0 0.28743467E+03</rscale>
<asrwt>0</asrwt>
<pdfrwt beam="1">  1        2 0.21567418E+00 0.28743467E+03</pdfrwt>
<pdfrwt beam="2">  1       -2 0.27734663E-01 0.28743467E+03</pdfrwt>
<totfact> 0.18310742E+02</totfact>
</mgrwt>
</event>
<event>
 4    1  0.3365401E-008  0.6079763E+03  0.7818608E-02  0.9888995E-01
          2   -1    0    0  501    0  0.00000000000E+00  0.00000000000E+00  0.39374039287E+04  0.39374039287E+04  0.25500000000E-02 0. -1.
         -2   -1    0    0    0  501 -0.00000000000E+00 -0.00000000000E+00 -0.17555274256E+03  0.17555274258E+03  0.25500000000E-02 0.  1.
    8880022    1    1    2    0    0  0.48538660170E+03  0.33263105218E+03  0.32836245537E+04  0.33394348972E+04  0.15294330000E+03 0.  0.
    8880022    1    1    2    0    0 -0.48538660170E+03 -0.33263105218E+03  0.47822663243E+03  0.77352177407E+03  0.15294330000E+03 0.  0.
<mgrwt>
<rscale>  0 0.60797633E+03</rscale>
<asrwt>0</asrwt>
<pdfrwt beam="1">  1        2 0.60575445E+00 0.60797633E+03</pdfrwt>
<pdfrwt beam="2">  1       -2 0.27008114E-01 0.60797633E+03</pdfrwt>
<totfact> 0.54484503E+00</totfact>
</mgrwt>
</event>
<event>
 4    1  0.3365401E-008  0.6551489E+03  0.7818608E-02  0.9797165E-01
         -2   -1    0    0    0  501 -0.00000000000E+00  0.00000000000E+00  0.81429907444E+03  0.81429907444E+03  0.25500000000E-02 0.  1.
          2   -1    0    0  501    0  0.00000000000E+00 -0.00000000000E+00 -0.11568520374E+04  0.11568520374E+04  0.25500000000E-02 0. -1.
    8880022    1    1    2    0    0 -0.51656458968E+03  0.37281292655E+03 -0.89844406259E+03  0.11119450706E+04  0.15294330000E+03 0.  0.
    8880022    1    1    2    0    0  0.51656458968E+03 -0.37281292655E+03  0.55589109965E+03  0.85920604118E+03  0.15294330000E+03 0.  0.
<mgrwt>
<rscale>  0 0.65514892E+03</rscale>
<asrwt>0</asrwt>
<pdfrwt beam="1">  1        2 0.17797724E+00 0.65514892E+03</pdfrwt>
<pdfrwt beam="2">  1       -2 0.12527678E+00 0.65514892E+03</pdfrwt>
<totfact> 0.98988124E+00</totfact>
</mgrwt>
</event>
<event>
 4    1  0.3365401E-008  0.6270589E+03  0.7818608E-02  0.9850805E-01
          2   -1    0    0  501    0  0.00000000000E+00  0.00000000000E+00  0.17822874753E+04  0.17822874753E+04  0.25500000000E-02 0. -1.
         -2   -1    0    0    0  501 -0.00000000000E+00 -0.00000000000E+00 -0.25502228089E+03  0.25502228091E+03  0.25500000000E-02 0.  1.
    8880022    1    1    2    0    0 -0.17067995095E+03 -0.58367759493E+03  0.11377869934E+04  0.12991389748E+04  0.15294330000E+03 0.  0.
    8880022    1    1    2    0    0  0.17067995095E+03  0.58367759493E+03  0.38947820106E+03  0.73817078145E+03  0.15294330000E+03 0.  0.
<mgrwt>
<rscale>  0 0.62705888E+03</rscale>
<asrwt>0</asrwt>
<pdfrwt beam="1">  1        2 0.27419808E+00 0.62705888E+03</pdfrwt>
<pdfrwt beam="2">  1       -2 0.39234196E-01 0.62705888E+03</pdfrwt>
<totfact> 0.56437795E+01</totfact>
</mgrwt>
</event>
<event>
 4    1  0.3365401E-008  0.3370116E+03  0.7818608E-02  0.1068076E+00
          2   -1    0    0  501    0  0.00000000000E+00  0.00000000000E+00  0.53358822310E+03  0.53358822311E+03  0.25500000000E-02 0. -1.
         -2   -1    0    0    0  501 -0.00000000000E+00 -0.00000000000E+00 -0.95781314880E+03  0.95781314881E+03  0.25500000000E-02 0.  1.
    8880022    1    1    2    0    0  0.84049691017E+02 -0.28830680706E+03 -0.86975536752E+03  0.93276536058E+03  0.15294330000E+03 0.  0.
    8880022    1    1    2    0    0 -0.84049691017E+02  0.28830680706E+03  0.44553044182E+03  0.55863601133E+03  0.15294330000E+03 0.  0.
<mgrwt>
<rscale>  0 0.33701160E+03</rscale>
<asrwt>0</asrwt>
<pdfrwt beam="1">  1        2 0.82090496E-01 0.33701160E+03</pdfrwt>
<pdfrwt beam="2">  1       -2 0.14735587E+00 0.33701160E+03</pdfrwt>
<totfact> 0.19172639E+01</totfact>
</mgrwt>
</event>
<event>
 4    1  0.3365401E-008  0.5919204E+03  0.7818608E-02  0.9922312E-01
         -2   -1    0    0    0  501 -0.00000000000E+00  0.00000000000E+00  0.27813846005E+03  0.27813846006E+03  0.25500000000E-02 0.  1.
          2   -1    0    0  501    0  0.00000000000E+00 -0.00000000000E+00 -0.17012514940E+04  0.17012514940E+04  0.25500000000E-02 0. -1.
    8880022    1    1    2    0    0  0.23341692795E+03 -0.52201023094E+03 -0.12157647648E+04  0.13522032983E+04  0.15294330000E+03 0.  0.
    8880022    1    1    2    0    0 -0.23341692795E+03  0.52201023094E+03 -0.20734826911E+03  0.62718665577E+03  0.15294330000E+03 0.  0.
<mgrwt>
<rscale>  0 0.59192043E+03</rscale>
<asrwt>0</asrwt>
<pdfrwt beam="1">  1        2 0.26173099E+00 0.59192043E+03</pdfrwt>
<pdfrwt beam="2">  1       -2 0.42790533E-01 0.59192043E+03</pdfrwt>
<totfact> 0.52969847E+01</totfact>
</mgrwt>
</event>
<event>
 4    1  0.3365401E-008  0.5968481E+03  0.7818608E-02  0.9911967E-01
         -2   -1    0    0    0  501 -0.00000000000E+00  0.00000000000E+00  0.28394519360E+03  0.28394519361E+03  0.25500000000E-02 0.  1.
          2   -1    0    0  501    0  0.00000000000E+00 -0.00000000000E+00 -0.25993481286E+04  0.25993481286E+04  0.25500000000E-02 0. -1.
    8880022    1    1    2    0    0 -0.83525215003E+02  0.57084106864E+03 -0.12076352165E+03  0.60894291059E+03  0.15294330000E+03 0.  0.
    8880022    1    1    2    0    0  0.83525215003E+02 -0.57084106864E+03 -0.21946394134E+04  0.22743504116E+04  0.15294330000E+03 0.  0.
<mgrwt>
<rscale>  0 0.59684809E+03</rscale>
<asrwt>0</asrwt>
<pdfrwt beam="1">  1        2 0.39989970E+00 0.59684809E+03</pdfrwt>
<pdfrwt beam="2">  1       -2 0.43683878E-01 0.59684809E+03</pdfrwt>
<totfact> 0.16327396E+01</totfact>
</mgrwt>
</event>
<event>
 4    1  0.3365401E-008  0.2869162E+03  0.7818608E-02  0.1091970E+00
          2   -1    0    0  501    0  0.00000000000E+00  0.00000000000E+00  0.64821845372E+03  0.64821845373E+03  0.25500000000E-02 0. -1.
         -2   -1    0    0    0  501 -0.00000000000E+00 -0.00000000000E+00 -0.17820796024E+03  0.17820796026E+03  0.25500000000E-02 0.  1.
    8880022    1    1    2    0    0  0.24274400658E+03 -0.21453802803E+01  0.13492904477E+02  0.28723329694E+03  0.15294330000E+03 0.  0.
    8880022    1    1    2    0    0 -0.24274400658E+03  0.21453802803E+01  0.45651758901E+03  0.53919311705E+03  0.15294330000E+03 0.  0.
<mgrwt>
<rscale>  0 0.28691620E+03</rscale>
<asrwt>0</asrwt>
<pdfrwt beam="1">  1        2 0.99725917E-01 0.28691620E+03</pdfrwt>
<pdfrwt beam="2">  1       -2 0.27416609E-01 0.28691620E+03</pdfrwt>
<totfact> 0.55701603E+02</totfact>
</mgrwt>
</event>
<event>
 4    1  0.3365401E-008  0.2246802E+03  0.7818608E-02  0.1130441E+00
         -2   -1    0    0    0  501 -0.00000000000E+00  0.00000000000E+00  0.16474929458E+03  0.16474929460E+03  0.25500000000E-02 0.  1.
          2   -1    0    0  501    0  0.00000000000E+00 -0.00000000000E+00 -0.69228373270E+03  0.69228373271E+03  0.25500000000E-02 0. -1.
    8880022    1    1    2    0    0  0.16448748486E+03 -0.57802339765E+01 -0.58369124726E+03  0.62544117942E+03  0.15294330000E+03 0. -1.
    8880022    1    1    2    0    0 -0.16448748486E+03  0.57802339765E+01  0.56156809130E+02  0.23159184788E+03  0.15294330000E+03 0.  1.
<mgrwt>
<rscale>  0 0.22468021E+03</rscale>
<asrwt>0</asrwt>
<pdfrwt beam="1">  1        2 0.10650519E+00 0.22468021E+03</pdfrwt>
<pdfrwt beam="2">  1       -2 0.25346046E-01 0.22468021E+03</pdfrwt>
<totfact> 0.59368250E+02</totfact>
</mgrwt>
</event>
<event>
 4    1  0.3365401E-008  0.5925490E+03  0.7818608E-02  0.9920986E-01
         -2   -1    0    0    0  501 -0.00000000000E+00  0.00000000000E+00  0.43696482970E+03  0.43696482970E+03  0.25500000000E-02 0.  1.
          2   -1    0    0  501    0  0.00000000000E+00 -0.00000000000E+00 -0.10526282225E+04  0.10526282225E+04  0.25500000000E-02 0. -1.
    8880022    1    1    2    0    0 -0.47419927043E+03  0.32071434644E+03  0.54482677886E+02  0.59504844785E+03  0.15294330000E+03 0.  0.
    8880022    1    1    2    0    0  0.47419927043E+03 -0.32071434644E+03 -0.67014607064E+03  0.89454460431E+03  0.15294330000E+03 0. -1.
<mgrwt>
<rscale>  0 0.59254898E+03</rscale>
<asrwt>0</asrwt>
<pdfrwt beam="1">  1        2 0.16194280E+00 0.59254898E+03</pdfrwt>
<pdfrwt beam="2">  1       -2 0.67225359E-01 0.59254898E+03</pdfrwt>
<totfact> 0.48868630E+01</totfact>
</mgrwt>
</event>
<event>
 4    1  0.3365401E-008  0.5911940E+03  0.7818608E-02  0.9923846E-01
          2   -1    0    0  501    0  0.00000000000E+00  0.00000000000E+00  0.53727234133E+03  0.53727234133E+03  0.25500000000E-02 0. -1.
         -2   -1    0    0    0  501 -0.00000000000E+00 -0.00000000000E+00 -0.90801121905E+03  0.90801121905E+03  0.25500000000E-02 0.  1.
    8880022    1    1    2    0    0  0.28294728330E+03  0.49604387243E+03  0.19944600218E+03  0.62393032408E+03  0.15294330000E+03 0.  0.
    8880022    1    1    2    0    0 -0.28294728330E+03 -0.49604387243E+03 -0.57018487990E+03  0.82135323630E+03  0.15294330000E+03 0.  0.
<mgrwt>
<rscale>  0 0.59119400E+03</rscale>
<asrwt>0</asrwt>
<pdfrwt beam="1">  1        2 0.82657283E-01 0.59119400E+03</pdfrwt>
<pdfrwt beam="2">  1       -2 0.13969403E+00 0.59119400E+03</pdfrwt>
<totfact> 0.21040110E+01</totfact>
</mgrwt>
</event>
<event>
 4    1  0.3365401E-008  0.3220129E+03  0.7818608E-02  0.1074727E+00
          2   -1    0    0  501    0  0.00000000000E+00  0.00000000000E+00  0.11720991422E+04  0.11720991422E+04  0.25500000000E-02 0. -1.
         -2   -1    0    0    0  501 -0.00000000000E+00 -0.00000000000E+00 -0.43751513427E+03  0.43751513428E+03  0.25500000000E-02 0.  1.
    8880022    1    1    2    0    0 -0.14679301521E+03  0.24238901730E+03 -0.35155727705E+03  0.47674395338E+03  0.15294330000E+03 0.  1.
    8880022    1    1    2    0    0  0.14679301521E+03 -0.24238901730E+03  0.10861412850E+04  0.11328703231E+04  0.15294330000E+03 0.  0.
<mgrwt>
<rscale>  0 0.32201285E+03</rscale>
<asrwt>0</asrwt>
<pdfrwt beam="1">  1        2 0.18032294E+00 0.32201285E+03</pdfrwt>
<pdfrwt beam="2">  1       -2 0.67310021E-01 0.32201285E+03</pdfrwt>
<totfact> 0.43154026E+01</totfact>
</mgrwt>
</event>
<event>
 4    1  0.3365401E-008  0.1586324E+03  0.7818608E-02  0.1190249E+00
          2   -1    0    0  501    0  0.00000000000E+00  0.00000000000E+00  0.10546817159E+04  0.10546817159E+04  0.25500000000E-02 0. -1.
         -2   -1    0    0    0  501 -0.00000000000E+00 -0.00000000000E+00 -0.46611222403E+03  0.46611222404E+03  0.25500000000E-02 0.  1.
    8880022    1    1    2    0    0  0.13425499235E+02 -0.39904121525E+02  0.10349643108E+04  0.10470507918E+04  0.15294330000E+03 0.  0.
    8880022    1    1    2    0    0 -0.13425499235E+02  0.39904121525E+02 -0.44639481898E+03  0.47374314810E+03  0.15294330000E+03 0.  1.
<mgrwt>
<rscale>  0 0.15863239E+03</rscale>
<asrwt>0</asrwt>
<pdfrwt beam="1">  1        2 0.16225872E+00 0.15863239E+03</pdfrwt>
<pdfrwt beam="2">  1       -2 0.71709574E-01 0.15863239E+03</pdfrwt>
<totfact> 0.46382561E+01</totfact>
</mgrwt>
</event>
<event>
 4    1  0.3365401E-008  0.2499848E+03  0.7818608E-02  0.1113314E+00
         -2   -1    0    0    0  501 -0.00000000000E+00  0.00000000000E+00  0.20793317924E+03  0.20793317925E+03  0.25500000000E-02 0.  1.
          2   -1    0    0  501    0  0.00000000000E+00 -0.00000000000E+00 -0.48548233084E+03  0.48548233085E+03  0.25500000000E-02 0. -1.
    8880022    1    1    2    0    0 -0.19742292875E+03 -0.11177261775E+02  0.75215733085E+02  0.26105517327E+03  0.15294330000E+03 0.  1.
    8880022    1    1    2    0    0  0.19742292875E+03  0.11177261775E+02 -0.35276488469E+03  0.43236033683E+03  0.15294330000E+03 0. -1.
<mgrwt>
<rscale>  0 0.24998479E+03</rscale>
<asrwt>0</asrwt>
<pdfrwt beam="1">  1        2 0.74689589E-01 0.24998479E+03</pdfrwt>
<pdfrwt beam="2">  1       -2 0.31989720E-01 0.24998479E+03</pdfrwt>
<totfact> 0.58754675E+02</totfact>
</mgrwt>
</event>
<event>
 4    1  0.3365401E-008  0.6978082E+03  0.7818608E-02  0.9720988E-01
         -2   -1    0    0    0  501 -0.00000000000E+00  0.00000000000E+00  0.56562255815E+03  0.56562255816E+03  0.25500000000E-02 0.  1.
          2   -1    0    0  501    0  0.00000000000E+00 -0.00000000000E+00 -0.13928611138E+04  0.13928611138E+04  0.25500000000E-02 0. -1.
    8880022    1    1    2    0    0 -0.28845772358E+03 -0.61671454153E+03 -0.10187955033E+04  0.12348605648E+04  0.15294330000E+03 0.  0.
    8880022    1    1    2    0    0  0.28845772358E+03  0.61671454153E+03  0.19155694762E+03  0.72362310716E+03  0.15294330000E+03 0.  0.
<mgrwt>
<rscale>  0 0.69780824E+03</rscale>
<asrwt>0</asrwt>
<pdfrwt beam="1">  1        2 0.21428632E+00 0.69780824E+03</pdfrwt>
<pdfrwt beam="2">  1       -2 0.87018856E-01 0.69780824E+03</pdfrwt>
<totfact> 0.17165804E+01</totfact>
</mgrwt>
</event>
<event>
 4    1  0.3365401E-008  0.5704304E+03  0.7818608E-02  0.9968727E-01
          2   -1    0    0  501    0  0.00000000000E+00  0.00000000000E+00  0.12415090807E+04  0.12415090807E+04  0.25500000000E-02 0. -1.
         -2   -1    0    0    0  501 -0.00000000000E+00 -0.00000000000E+00 -0.42538020890E+03  0.42538020891E+03  0.25500000000E-02 0.  1.
    8880022    1    1    2    0    0  0.33484453037E+03 -0.43575036140E+03 -0.10830930503E+03  0.58062190412E+03  0.15294330000E+03 0.  0.
    8880022    1    1    2    0    0 -0.33484453037E+03  0.43575036140E+03  0.92443817680E+03  0.10862673855E+04  0.15294330000E+03 0.  0.
<mgrwt>
<rscale>  0 0.57043044E+03</rscale>
<asrwt>0</asrwt>
<pdfrwt beam="1">  1        2 0.19100139E+00 0.57043044E+03</pdfrwt>
<pdfrwt beam="2">  1       -2 0.65443111E-01 0.57043044E+03</pdfrwt>
<totfact> 0.40038298E+01</totfact>
</mgrwt>
</event>
<event>
 4    1  0.3365401E-008  0.3023293E+03  0.7818608E-02  0.1084082E+00
          2   -1    0    0  501    0  0.00000000000E+00  0.00000000000E+00  0.14709755842E+04  0.14709755842E+04  0.25500000000E-02 0. -1.
         -2   -1    0    0    0  501 -0.00000000000E+00 -0.00000000000E+00 -0.18608564284E+03  0.18608564286E+03  0.25500000000E-02 0.  1.
    8880022    1    1    2    0    0 -0.24175770943E+03  0.97798579981E+02  0.13186397739E+04  0.13528539679E+04  0.15294330000E+03 0. -1.
    8880022    1    1    2    0    0  0.24175770943E+03 -0.97798579981E+02 -0.33749832476E+02  0.30420725915E+03  0.15294330000E+03 0.  0.
<mgrwt>
<rscale>  0 0.30232930E+03</rscale>
<asrwt>0</asrwt>
<pdfrwt beam="1">  1        2 0.22630394E+00 0.30232930E+03</pdfrwt>
<pdfrwt beam="2">  1       -2 0.28628560E-01 0.30232930E+03</pdfrwt>
<totfact> 0.15813697E+02</totfact>
</mgrwt>
</event>
<event>
 4    1  0.3365401E-008  0.3426624E+03  0.7818608E-02  0.1065668E+00
          2   -1    0    0  501    0  0.00000000000E+00  0.00000000000E+00  0.58524015386E+03  0.58524015386E+03  0.25500000000E-02 0. -1.
         -2   -1    0    0    0  501 -0.00000000000E+00 -0.00000000000E+00 -0.47475206283E+03  0.47475206283E+03  0.25500000000E-02 0.  1.
    8880022    1    1    2    0    0  0.28216222667E+03  0.12004314590E+03  0.45797050427E+03  0.57197422567E+03  0.15294330000E+03 0.  0.
    8880022    1    1    2    0    0 -0.28216222667E+03 -0.12004314590E+03 -0.34748241324E+03  0.48801799102E+03  0.15294330000E+03 0.  1.
<mgrwt>
<rscale>  0 0.34266242E+03</rscale>
<asrwt>0</asrwt>
<pdfrwt beam="1">  1        2 0.90036947E-01 0.34266242E+03</pdfrwt>
<pdfrwt beam="2">  1       -2 0.73038779E-01 0.34266242E+03</pdfrwt>
<totfact> 0.90583475E+01</totfact>
</mgrwt>
</event>
<event>
 4    1  0.3365401E-008  0.6047933E+03  0.7818608E-02  0.9895511E-01
         -2   -1    0    0    0  501 -0.00000000000E+00  0.00000000000E+00  0.44588464882E+03  0.44588464883E+03  0.25500000000E-02 0.  1.
          2   -1    0    0  501    0  0.00000000000E+00 -0.00000000000E+00 -0.10410911724E+04  0.10410911724E+04  0.25500000000E-02 0. -1.
    8880022    1    1    2    0    0 -0.40991995055E+03  0.41755103868E+03  0.44758871902E+02  0.60644723216E+03  0.15294330000E+03 0.  1.
    8880022    1    1    2    0    0  0.40991995055E+03 -0.41755103868E+03 -0.63996539549E+03  0.88052858909E+03  0.15294330000E+03 0.  0.
<mgrwt>
<rscale>  0 0.60479326E+03</rscale>
<asrwt>0</asrwt>
<pdfrwt beam="1">  1        2 0.16016787E+00 0.60479326E+03</pdfrwt>
<pdfrwt beam="2">  1       -2 0.68597638E-01 0.60479326E+03</pdfrwt>
<totfact> 0.47491805E+01</totfact>
</mgrwt>
</event>
<event>
 4    1  0.3365401E-008  0.1064940E+04  0.7818608E-02  0.9240054E-01
         -2   -1    0    0    0  501 -0.00000000000E+00  0.00000000000E+00  0.12260221023E+04  0.12260221023E+04  0.25500000000E-02 0.  1.
          2   -1    0    0  501    0  0.00000000000E+00 -0.00000000000E+00 -0.15327405876E+04  0.15327405876E+04  0.25500000000E-02 0. -1.
    8880022    1    1    2    0    0  0.95114262567E+03  0.45390941404E+03 -0.10219219843E+04  0.14759479142E+04  0.15294330000E+03 0.  0.
    8880022    1    1    2    0    0 -0.95114262567E+03 -0.45390941404E+03  0.71520349901E+03  0.12828147756E+04  0.15294330000E+03 0.  0.
<mgrwt>
<rscale>  0 0.10649402E+04</rscale>
<asrwt>0</asrwt>
<pdfrwt beam="1">  1        2 0.23580624E+00 0.10649402E+04</pdfrwt>
<pdfrwt beam="2">  1       -2 0.18861878E+00 0.10649402E+04</pdfrwt>
<totfact> 0.18978651E+00</totfact>
</mgrwt>
</event>
<event>
 4    1  0.3365401E-008  0.1944400E+03  0.7818608E-02  0.1154517E+00
          2   -1    0    0  501    0  0.00000000000E+00  0.00000000000E+00  0.14446570543E+04  0.14446570543E+04  0.25500000000E-02 0. -1.
         -2   -1    0    0    0  501 -0.00000000000E+00 -0.00000000000E+00 -0.80360455645E+03  0.80360455645E+03  0.25500000000E-02 0.  1.
    8880022    1    1    2    0    0 -0.11148284112E+03  0.44573755384E+02  0.14262013548E+04  0.14393947342E+04  0.15294330000E+03 0.  0.
    8880022    1    1    2    0    0  0.11148284112E+03 -0.44573755384E+02 -0.78514885689E+03  0.80886687657E+03  0.15294330000E+03 0.  1.
<mgrwt>
<rscale>  0 0.19443996E+03</rscale>
<asrwt>0</asrwt>
<pdfrwt beam="1">  1        2 0.22225493E+00 0.19443996E+03</pdfrwt>
<pdfrwt beam="2">  1       -2 0.12363147E+00 0.19443996E+03</pdfrwt>
<totfact> 0.79811867E+00</totfact>
</mgrwt>
</event>
<event>
 4    1  0.3365401E-008  0.6366819E+03  0.7818608E-02  0.9832096E-01
         -2   -1    0    0    0  501 -0.00000000000E+00  0.00000000000E+00  0.73649126921E+03  0.73649126922E+03  0.25500000000E-02 0.  1.
          2   -1    0    0  501    0  0.00000000000E+00 -0.00000000000E+00 -0.10480684919E+04  0.10480684919E+04  0.25500000000E-02 0. -1.
    8880022    1    1    2    0    0  0.31697521000E+03  0.53056472108E+03 -0.77064953702E+03  0.99963221684E+03  0.15294330000E+03 0.  0.
    8880022    1    1    2    0    0 -0.31697521000E+03 -0.53056472108E+03  0.45907231432E+03  0.78492754430E+03  0.15294330000E+03 0.  0.
<mgrwt>
<rscale>  0 0.63668191E+03</rscale>
<asrwt>0</asrwt>
<pdfrwt beam="1">  1        2 0.16124131E+00 0.63668191E+03</pdfrwt>
<pdfrwt beam="2">  1       -2 0.11330635E+00 0.63668191E+03</pdfrwt>
<totfact> 0.14805988E+01</totfact>
</mgrwt>
</event>
<event>
 4    1  0.3365401E-008  0.8503489E+03  0.7818608E-02  0.9489869E-01
          2   -1    0    0  501    0  0.00000000000E+00  0.00000000000E+00  0.19887294010E+04  0.19887294010E+04  0.25500000000E-02 0. -1.
         -2   -1    0    0    0  501 -0.00000000000E+00 -0.00000000000E+00 -0.69257056155E+03  0.69257056155E+03  0.25500000000E-02 0.  1.
    8880022    1    1    2    0    0  0.41481542126E+03  0.72638128176E+03  0.15720641993E+04  0.17873105774E+04  0.15294330000E+03 0.  0.
    8880022    1    1    2    0    0 -0.41481542126E+03 -0.72638128176E+03 -0.27590535986E+03  0.89398938518E+03  0.15294330000E+03 0.  0.
<mgrwt>
<rscale>  0 0.85034890E+03</rscale>
<asrwt>0</asrwt>
<pdfrwt beam="1">  1        2 0.30595836E+00 0.85034890E+03</pdfrwt>
<pdfrwt beam="2">  1       -2 0.10654932E+00 0.85034890E+03</pdfrwt>
<totfact> 0.49058144E+00</totfact>
</mgrwt>
</event>
<event>
 4    1  0.3365401E-008  0.8364785E+03  0.7818608E-02  0.9508667E-01
          2   -1    0    0  501    0  0.00000000000E+00  0.00000000000E+00  0.78797487055E+03  0.78797487056E+03  0.25500000000E-02 0. -1.
         -2   -1    0    0    0  501 -0.00000000000E+00 -0.00000000000E+00 -0.14847353707E+04  0.14847353707E+04  0.25500000000E-02 0.  1.
    8880022    1    1    2    0    0  0.77077008970E+03  0.28673697200E+03  0.37205038206E+03  0.91548771816E+03  0.15294330000E+03 0.  0.
    8880022    1    1    2    0    0 -0.77077008970E+03 -0.28673697200E+03 -0.10688108822E+04  0.13572225231E+04  0.15294330000E+03 0.  1.
<mgrwt>
<rscale>  0 0.83647850E+03</rscale>
<asrwt>0</asrwt>
<pdfrwt beam="1">  1        2 0.12122690E+00 0.83647850E+03</pdfrwt>
<pdfrwt beam="2">  1       -2 0.22842083E+00 0.83647850E+03</pdfrwt>
<totfact> 0.31195238E+00</totfact>
</mgrwt>
</event>
<event>
 4    1  0.3365401E-008  0.7015990E+03  0.7818608E-02  0.9714502E-01
         -2   -1    0    0    0  501 -0.00000000000E+00  0.00000000000E+00  0.53754228660E+03  0.53754228660E+03  0.25500000000E-02 0.  1.
          2   -1    0    0  501    0  0.00000000000E+00 -0.00000000000E+00 -0.13856738423E+04  0.13856738423E+04  0.25500000000E-02 0. -1.
    8880022    1    1    2    0    0  0.61303676836E+03 -0.30501697777E+03  0.13594028116E+03  0.71464735999E+03  0.15294330000E+03 0.  0.
    8880022    1    1    2    0    0 -0.61303676836E+03  0.30501697777E+03 -0.98407183689E+03  0.12085687689E+04  0.15294330000E+03 0. -1.
<mgrwt>
<rscale>  0 0.70159895E+03</rscale>
<asrwt>0</asrwt>
<pdfrwt beam="1">  1        2 0.21318059E+00 0.70159895E+03</pdfrwt>
<pdfrwt beam="2">  1       -2 0.82698814E-01 0.70159895E+03</pdfrwt>
<totfact> 0.19444624E+01</totfact>
</mgrwt>
</event>
<event>
 4    1  0.3365401E-008  0.2980017E+03  0.7818608E-02  0.1086244E+00
         -2   -1    0    0    0  501 -0.00000000000E+00  0.00000000000E+00  0.26026969807E+03  0.26026969808E+03  0.25500000000E-02 0.  1.
          2   -1    0    0  501    0  0.00000000000E+00 -0.00000000000E+00 -0.34697951586E+03  0.34697951587E+03  0.25500000000E-02 0. -1.
    8880022    1    1    2    0    0  0.24023044895E+03  0.87764991305E+02 -0.82527941244E+02  0.30921816959E+03  0.15294330000E+03 0.  0.
    8880022    1    1    2    0    0 -0.24023044895E+03 -0.87764991305E+02 -0.41818765503E+01  0.29803104437E+03  0.15294330000E+03 0.  0.
<mgrwt>
<rscale>  0 0.29800170E+03</rscale>
<asrwt>0</asrwt>
<pdfrwt beam="1">  1        2 0.53381464E-01 0.29800170E+03</pdfrwt>
<pdfrwt beam="2">  1       -2 0.40041492E-01 0.29800170E+03</pdfrwt>
<totfact> 0.55697927E+02</totfact>
</mgrwt>
</event>
<event>
 4    1  0.3365401E-008  0.2910144E+03  0.7818608E-02  0.1089821E+00
          2   -1    0    0  501    0  0.00000000000E+00  0.00000000000E+00  0.72337202021E+03  0.72337202021E+03  0.25500000000E-02 0. -1.
         -2   -1    0    0    0  501 -0.00000000000E+00 -0.00000000000E+00 -0.29668689061E+03  0.29668689063E+03  0.25500000000E-02 0.  1.
    8880022    1    1    2    0    0  0.24455664548E+03 -0.38597389216E+02 -0.18349487965E+03  0.34403449708E+03  0.15294330000E+03 0.  0.
    8880022    1    1    2    0    0 -0.24455664548E+03  0.38597389216E+02  0.61018000925E+03  0.67602441376E+03  0.15294330000E+03 0. -1.
<mgrwt>
<rscale>  0 0.29101437E+03</rscale>
<asrwt>0</asrwt>
<pdfrwt beam="1">  1        2 0.11128800E+00 0.29101437E+03</pdfrwt>
<pdfrwt beam="2">  1       -2 0.45644138E-01 0.29101437E+03</pdfrwt>
<totfact> 0.18696692E+02</totfact>
</mgrwt>
</event>
<event>
 4    1  0.3365401E-008  0.4997485E+03  0.7818608E-02  0.1013845E+00
          2   -1    0    0  501    0  0.00000000000E+00  0.00000000000E+00  0.34951981407E+04  0.34951981407E+04  0.25500000000E-02 0. -1.
         -2   -1    0    0    0  501 -0.00000000000E+00 -0.00000000000E+00 -0.24688766175E+03  0.24688766176E+03  0.25500000000E-02 0.  1.
    8880022    1    1    2    0    0 -0.40294242250E+03 -0.25297096723E+03  0.32013654157E+04  0.32401372014E+04  0.15294330000E+03 0.  0.
    8880022    1    1    2    0    0  0.40294242250E+03  0.25297096723E+03  0.46945063243E+02  0.50194860105E+03  0.15294330000E+03 0.  0.
<mgrwt>
<rscale>  0 0.49974850E+03</rscale>
<asrwt>0</asrwt>
<pdfrwt beam="1">  1        2 0.53772276E+00 0.49974850E+03</pdfrwt>
<pdfrwt beam="2">  1       -2 0.37982719E-01 0.49974850E+03</pdfrwt>
<totfact> 0.61790362E+00</totfact>
</mgrwt>
</event>
<event>
 4    1  0.3365401E-008  0.7562141E+03  0.7818608E-02  0.9625652E-01
          2   -1    0    0  501    0  0.00000000000E+00  0.00000000000E+00  0.14374965394E+04  0.14374965395E+04  0.25500000000E-02 0. -1.
         -2   -1    0    0    0  501 -0.00000000000E+00 -0.00000000000E+00 -0.67835779964E+03  0.67835779964E+03  0.25500000000E-02 0.  1.
    8880022    1    1    2    0    0  0.39959592763E+03  0.62353125237E+03  0.10599074726E+04  0.13020228997E+04  0.15294330000E+03 0.  0.
    8880022    1    1    2    0    0 -0.39959592763E+03 -0.62353125237E+03 -0.30076873274E+03  0.81383143935E+03  0.15294330000E+03 0.  0.
<mgrwt>
<rscale>  0 0.75621411E+03</rscale>
<asrwt>0</asrwt>
<pdfrwt beam="1">  1        2 0.22115331E+00 0.75621411E+03</pdfrwt>
<pdfrwt beam="2">  1       -2 0.10436274E+00 0.75621411E+03</pdfrwt>
<totfact> 0.10507139E+01</totfact>
</mgrwt>
</event>
<event>
 4    1  0.3365401E-008  0.7934507E+03  0.7818608E-02  0.9569546E-01
          2   -1    0    0  501    0  0.00000000000E+00  0.00000000000E+00  0.24971557524E+04  0.24971557524E+04  0.25500000000E-02 0. -1.
         -2   -1    0    0    0  501 -0.00000000000E+00 -0.00000000000E+00 -0.34808263392E+03  0.34808263393E+03  0.25500000000E-02 0.  1.
    8880022    1    1    2    0    0  0.97038395309E+02 -0.77249980220E+03  0.32754506712E+03  0.85839956813E+03  0.15294330000E+03 0.  1.
    8880022    1    1    2    0    0 -0.97038395309E+02  0.77249980220E+03  0.18215280513E+04  0.19868388182E+04  0.15294330000E+03 0.  0.
<mgrwt>
<rscale>  0 0.79345072E+03</rscale>
<asrwt>0</asrwt>
<pdfrwt beam="1">  1        2 0.38417779E+00 0.79345072E+03</pdfrwt>
<pdfrwt beam="2">  1       -2 0.53551177E-01 0.79345072E+03</pdfrwt>
<totfact> 0.11950911E+01</totfact>
</mgrwt>
</event>
<event>
 4    1  0.3365401E-008  0.5747827E+03  0.7818608E-02  0.9959151E-01
          2   -1    0    0  501    0  0.00000000000E+00  0.00000000000E+00  0.24179977689E+04  0.24179977689E+04  0.25500000000E-02 0. -1.
         -2   -1    0    0    0  501 -0.00000000000E+00 -0.00000000000E+00 -0.76027468435E+03  0.76027468435E+03  0.25500000000E-02 0.  1.
    8880022    1    1    2    0    0 -0.95111629605E+02 -0.54583627726E+03 -0.61041380990E+03  0.83843910691E+03  0.15294330000E+03 0.  0.
    8880022    1    1    2    0    0  0.95111629605E+02  0.54583627726E+03  0.22681368944E+04  0.23398333463E+04  0.15294330000E+03 0.  0.
<mgrwt>
<rscale>  0 0.57478267E+03</rscale>
<asrwt>0</asrwt>
<pdfrwt beam="1">  1        2 0.37199966E+00 0.57478267E+03</pdfrwt>
<pdfrwt beam="2">  1       -2 0.11696533E+00 0.57478267E+03</pdfrwt>
<totfact> 0.23929153E+00</totfact>
</mgrwt>
</event>
<event>
 4    1  0.3365401E-008  0.4247131E+03  0.7818608E-02  0.1035543E+00
         -2   -1    0    0    0  501 -0.00000000000E+00  0.00000000000E+00  0.60590123388E+03  0.60590123389E+03  0.25500000000E-02 0.  1.
          2   -1    0    0  501    0  0.00000000000E+00 -0.00000000000E+00 -0.91006794270E+03  0.91006794270E+03  0.25500000000E-02 0. -1.
    8880022    1    1    2    0    0 -0.29100806976E+03 -0.26889377910E+03  0.46968284043E+03  0.63323233076E+03  0.15294330000E+03 0.  0.
    8880022    1    1    2    0    0  0.29100806976E+03  0.26889377910E+03 -0.77384954925E+03  0.88273684583E+03  0.15294330000E+03 0.  0.
<mgrwt>
<rscale>  0 0.42471310E+03</rscale>
<asrwt>0</asrwt>
<pdfrwt beam="1">  1        2 0.14001045E+00 0.42471310E+03</pdfrwt>
<pdfrwt beam="2">  1       -2 0.93215574E-01 0.42471310E+03</pdfrwt>
<totfact> 0.29720711E+01</totfact>
</mgrwt>
</event>
<event>
 4    1  0.3365401E-008  0.5187676E+03  0.7818608E-02  0.1008993E+00
          2   -1    0    0  501    0  0.00000000000E+00  0.00000000000E+00  0.16604782036E+04  0.16604782036E+04  0.25500000000E-02 0. -1.
         -2   -1    0    0    0  501 -0.00000000000E+00 -0.00000000000E+00 -0.20134911537E+03  0.20134911538E+03  0.25500000000E-02 0.  1.
    8880022    1    1    2    0    0  0.45703845857E+03  0.19194800079E+03  0.11407094863E+04  0.12531312671E+04  0.15294330000E+03 0.  0.
    8880022    1    1    2    0    0 -0.45703845857E+03 -0.19194800079E+03  0.31841960201E+03  0.60869605188E+03  0.15294330000E+03 0.  0.
<mgrwt>
<rscale>  0 0.51876762E+03</rscale>
<asrwt>0</asrwt>
<pdfrwt beam="1">  1        2 0.25545819E+00 0.51876762E+03</pdfrwt>
<pdfrwt beam="2">  1       -2 0.30976786E-01 0.51876762E+03</pdfrwt>
<totfact> 0.10433967E+02</totfact>
</mgrwt>
</event>
<event>
 4    1  0.3365401E-008  0.1602191E+03  0.7818608E-02  0.1188450E+00
          2   -1    0    0  501    0  0.00000000000E+00  0.00000000000E+00  0.11438956345E+03  0.11438956348E+03  0.25500000000E-02 0. -1.
         -2   -1    0    0    0  501 -0.00000000000E+00 -0.00000000000E+00 -0.33642628436E+03  0.33642628437E+03  0.25500000000E-02 0.  1.
    8880022    1    1    2    0    0  0.47713807571E+02  0.13761578140E+01  0.19047982989E+02  0.16134738893E+03  0.15294330000E+03 0. -1.
    8880022    1    1    2    0    0 -0.47713807571E+02 -0.13761578140E+01 -0.24108470390E+03  0.28946845893E+03  0.15294330000E+03 0.  0.
<mgrwt>
<rscale>  0 0.16021908E+03</rscale>
<asrwt>0</asrwt>
<pdfrwt beam="1">  1        2 0.17598395E-01 0.16021908E+03</pdfrwt>
<pdfrwt beam="2">  1       -2 0.51757889E-01 0.16021908E+03</pdfrwt>
<totfact> 0.11377671E+03</totfact>
</mgrwt>
</event>
<event>
 4    1  0.3365401E-008  0.2656144E+03  0.7818608E-02  0.1103816E+00
          2   -1    0    0  501    0  0.00000000000E+00  0.00000000000E+00  0.17941468433E+04  0.17941468433E+04  0.25500000000E-02 0. -1.
         -2   -1    0    0    0  501 -0.00000000000E+00 -0.00000000000E+00 -0.53629392045E+03  0.53629392046E+03  0.25500000000E-02 0.  1.
    8880022    1    1    2    0    0 -0.72202570170E+02  0.20480762780E+03  0.17506147230E+04  0.17706504277E+04  0.15294330000E+03 0.  0.
    8880022    1    1    2    0    0  0.72202570170E+02 -0.20480762780E+03 -0.49276180022E+03  0.55979033604E+03  0.15294330000E+03 0.  1.
<mgrwt>
<rscale>  0 0.26561444E+03</rscale>
<asrwt>0</asrwt>
<pdfrwt beam="1">  1        2 0.27602259E+00 0.26561444E+03</pdfrwt>
<pdfrwt beam="2">  1       -2 0.82506757E-01 0.26561444E+03</pdfrwt>
<totfact> 0.12936158E+01</totfact>
</mgrwt>
</event>
<event>
 4    1  0.3365401E-008  0.5744648E+03  0.7818608E-02  0.9959847E-01
          2   -1    0    0  501    0  0.00000000000E+00  0.00000000000E+00  0.10166124370E+04  0.10166124370E+04  0.25500000000E-02 0. -1.
         -2   -1    0    0    0  501 -0.00000000000E+00 -0.00000000000E+00 -0.84187400707E+03  0.84187400707E+03  0.25500000000E-02 0.  1.
    8880022    1    1    2    0    0 -0.53252826278E+03  0.15176214172E+03  0.81575089360E+03  0.99772705273E+03  0.15294330000E+03 0.  0.
    8880022    1    1    2    0    0  0.53252826278E+03 -0.15176214172E+03 -0.64101246363E+03  0.86075939139E+03  0.15294330000E+03 0.  0.
<mgrwt>
<rscale>  0 0.57446475E+03</rscale>
<asrwt>0</asrwt>
<pdfrwt beam="1">  1        2 0.15640191E+00 0.57446475E+03</pdfrwt>
<pdfrwt beam="2">  1       -2 0.12951908E+00 0.57446475E+03</pdfrwt>
<totfact> 0.11226286E+01</totfact>
</mgrwt>
</event>
<event>
 4    1  0.3365401E-008  0.5851847E+03  0.7818608E-02  0.9936629E-01
         -2   -1    0    0    0  501 -0.00000000000E+00  0.00000000000E+00  0.12187831878E+04  0.12187831878E+04  0.25500000000E-02 0.  1.
          2   -1    0    0  501    0  0.00000000000E+00 -0.00000000000E+00 -0.46072494420E+03  0.46072494420E+03  0.25500000000E-02 0. -1.
    8880022    1    1    2    0    0 -0.21877803627E+03  0.52075485133E+03  0.90356123966E+03  0.10765054627E+04  0.15294330000E+03 0.  0.
    8880022    1    1    2    0    0  0.21877803627E+03 -0.52075485133E+03 -0.14550299606E+03  0.60300266933E+03  0.15294330000E+03 0.  0.
<mgrwt>
<rscale>  0 0.58518467E+03</rscale>
<asrwt>0</asrwt>
<pdfrwt beam="1">  1        2 0.70880761E-01 0.58518467E+03</pdfrwt>
<pdfrwt beam="2">  1       -2 0.18750510E+00 0.58518467E+03</pdfrwt>
<totfact> 0.11306419E+01</totfact>
</mgrwt>
</event>
<event>
 4    1  0.3365401E-008  0.7246218E+03  0.7818608E-02  0.9676028E-01
         -2   -1    0    0    0  501 -0.00000000000E+00  0.00000000000E+00  0.49554290228E+03  0.49554290228E+03  0.25500000000E-02 0.  1.
          2   -1    0    0  501    0  0.00000000000E+00 -0.00000000000E+00 -0.17579777148E+04  0.17579777148E+04  0.25500000000E-02 0. -1.
    8880022    1    1    2    0    0 -0.25838324632E+03 -0.65948709657E+03  0.78965706116E+02  0.72891176989E+03  0.15294330000E+03 0.  1.
    8880022    1    1    2    0    0  0.25838324632E+03  0.65948709657E+03 -0.13414005187E+04  0.15246088472E+04  0.15294330000E+03 0.  0.
<mgrwt>
<rscale>  0 0.72462182E+03</rscale>
<asrwt>0</asrwt>
<pdfrwt beam="1">  1        2 0.27045811E+00 0.72462182E+03</pdfrwt>
<pdfrwt beam="2">  1       -2 0.76237371E-01 0.72462182E+03</pdfrwt>
<totfact> 0.14483331E+01</totfact>
</mgrwt>
</event>
<event>
 4    1  0.3365401E-008  0.4943066E+03  0.7818608E-02  0.1015276E+00
         -2   -1    0    0    0  501 -0.00000000000E+00  0.00000000000E+00  0.30223192347E+03  0.30223192348E+03  0.25500000000E-02 0.  1.
          2   -1    0    0  501    0  0.00000000000E+00 -0.00000000000E+00 -0.12342462118E+04  0.12342462118E+04  0.25500000000E-02 0. -1.
    8880022    1    1    2    0    0 -0.16754915833E+03  0.43917496886E+03 -0.14778136048E+02  0.49452747148E+03  0.15294330000E+03 0.  0.
    8880022    1    1    2    0    0  0.16754915833E+03 -0.43917496886E+03 -0.91723615226E+03  0.10419506638E+04  0.15294330000E+03 0.  0.
<mgrwt>
<rscale>  0 0.49430661E+03</rscale>
<asrwt>0</asrwt>
<pdfrwt beam="1">  1        2 0.18988403E+00 0.49430661E+03</pdfrwt>
<pdfrwt beam="2">  1       -2 0.46497220E-01 0.49430661E+03</pdfrwt>
<totfact> 0.82743388E+01</totfact>
</mgrwt>
</event>
<event>
 4    1  0.3365401E-008  0.4122275E+03  0.7818608E-02  0.1039626E+00
         -2   -1    0    0    0  501 -0.00000000000E+00  0.00000000000E+00  0.11624666141E+04  0.11624666141E+04  0.25500000000E-02 0.  1.
          2   -1    0    0  501    0  0.00000000000E+00 -0.00000000000E+00 -0.69977642842E+03  0.69977642843E+03  0.25500000000E-02 0. -1.
    8880022    1    1    2    0    0 -0.16664153772E+03  0.34463091258E+03 -0.59683087492E+03  0.72535413025E+03  0.15294330000E+03 0. -1.
    8880022    1    1    2    0    0  0.16664153772E+03 -0.34463091258E+03  0.10595210606E+04  0.11368889123E+04  0.15294330000E+03 0.  0.
<mgrwt>
<rscale>  0 0.41222751E+03</rscale>
<asrwt>0</asrwt>
<pdfrwt beam="1">  1        2 0.10765791E+00 0.41222751E+03</pdfrwt>
<pdfrwt beam="2">  1       -2 0.17884102E+00 0.41222751E+03</pdfrwt>
<totfact> 0.81271848E+00</totfact>
</mgrwt>
</event>
<event>
 4    1  0.3365401E-008  0.1241405E+04  0.7818608E-02  0.9077367E-01
          2   -1    0    0  501    0  0.00000000000E+00  0.00000000000E+00  0.31612178746E+04  0.31612178746E+04  0.25500000000E-02 0. -1.
         -2   -1    0    0    0  501 -0.00000000000E+00 -0.00000000000E+00 -0.98825385365E+03  0.98825385365E+03  0.25500000000E-02 0.  1.
    8880022    1    1    2    0    0 -0.70014039599E+03  0.10136559613E+04  0.25633499990E+04  0.28481309401E+04  0.15294330000E+03 0.  0.
    8880022    1    1    2    0    0  0.70014039599E+03 -0.10136559613E+04 -0.39038597804E+03  0.13013407881E+04  0.15294330000E+03 0.  0.
<mgrwt>
<rscale>  0 0.12414051E+04</rscale>
<asrwt>0</asrwt>
<pdfrwt beam="1">  1        2 0.48634122E+00 0.12414051E+04</pdfrwt>
<pdfrwt beam="2">  1       -2 0.15203905E+00 0.12414051E+04</pdfrwt>
<totfact> 0.38991869E-01</totfact>
</mgrwt>
</event>
<event>
 4    1  0.3365401E-008  0.1915005E+03  0.7818608E-02  0.1157115E+00
         -2   -1    0    0    0  501 -0.00000000000E+00  0.00000000000E+00  0.61169230204E+02  0.61169230257E+02  0.25500000000E-02 0.  1.
          2   -1    0    0  501    0  0.00000000000E+00 -0.00000000000E+00 -0.10987894699E+04  0.10987894699E+04  0.25500000000E-02 0. -1.
    8880022    1    1    2    0    0 -0.46485159528E+02 -0.10545099632E+03 -0.90975988040E+03  0.92969644276E+03  0.15294330000E+03 0.  0.
    8880022    1    1    2    0    0  0.46485159528E+02  0.10545099632E+03 -0.12786035926E+03  0.23026225737E+03  0.15294330000E+03 0.  1.
<mgrwt>
<rscale>  0 0.19150048E+03</rscale>
<asrwt>0</asrwt>
<pdfrwt beam="1">  1        2 0.16904452E+00 0.19150048E+03</pdfrwt>
<pdfrwt beam="2">  1       -2 0.94106516E-02 0.19150048E+03</pdfrwt>
<totfact> 0.16727718E+03</totfact>
</mgrwt>
</event>
<event>
 4    1  0.3365401E-008  0.3974801E+03  0.7818608E-02  0.1044656E+00
         -2   -1    0    0    0  501 -0.00000000000E+00  0.00000000000E+00  0.65945421940E+03  0.65945421941E+03  0.25500000000E-02 0.  1.
          2   -1    0    0  501    0  0.00000000000E+00 -0.00000000000E+00 -0.85067572868E+03  0.85067572868E+03  0.25500000000E-02 0. -1.
    8880022    1    1    2    0    0  0.35883410382E+03  0.76399566943E+02  0.54435653961E+03  0.67402856254E+03  0.15294330000E+03 0.  0.
    8880022    1    1    2    0    0 -0.35883410382E+03 -0.76399566943E+02 -0.73557804888E+03  0.83610138554E+03  0.15294330000E+03 0.  0.
<mgrwt>
<rscale>  0 0.39748014E+03</rscale>
<asrwt>0</asrwt>
<pdfrwt beam="1">  1        2 0.13087319E+00 0.39748014E+03</pdfrwt>
<pdfrwt beam="2">  1       -2 0.10145450E+00 0.39748014E+03</pdfrwt>
<totfact> 0.26853736E+01</totfact>
</mgrwt>
</event>
<event>
 4    1  0.3365401E-008  0.1016713E+04  0.7818608E-02  0.9290402E-01
          2   -1    0    0  501    0  0.00000000000E+00  0.00000000000E+00  0.41307002608E+04  0.41307002608E+04  0.25500000000E-02 0. -1.
         -2   -1    0    0    0  501 -0.00000000000E+00 -0.00000000000E+00 -0.52726842920E+03  0.52726842920E+03  0.25500000000E-02 0.  1.
    8880022    1    1    2    0    0 -0.38780995787E+03 -0.92731716181E+03  0.11358752921E+03  0.10230383482E+04  0.15294330000E+03 0.  0.
    8880022    1    1    2    0    0  0.38780995787E+03  0.92731716181E+03  0.34898443024E+04  0.36349303418E+04  0.15294330000E+03 0.  0.
<mgrwt>
<rscale>  0 0.10167130E+04</rscale>
<asrwt>0</asrwt>
<pdfrwt beam="1">  1        2 0.63549233E+00 0.10167130E+04</pdfrwt>
<pdfrwt beam="2">  1       -2 0.81118223E-01 0.10167130E+04</pdfrwt>
<totfact> 0.37665845E-01</totfact>
</mgrwt>
</event>
<event>
 4    1  0.3365401E-008  0.4311253E+03  0.7818608E-02  0.1033505E+00
          2   -1    0    0  501    0  0.00000000000E+00  0.00000000000E+00  0.84415175601E+03  0.84415175602E+03  0.25500000000E-02 0. -1.
         -2   -1    0    0    0  501 -0.00000000000E+00 -0.00000000000E+00 -0.21379774386E+04  0.21379774386E+04  0.25500000000E-02 0.  1.
    8880022    1    1    2    0    0 -0.24896376461E+03 -0.31700850181E+03  0.76528575428E+03  0.87836853600E+03  0.15294330000E+03 0.  0.
    8880022    1    1    2    0    0  0.24896376461E+03  0.31700850181E+03 -0.20591114369E+04  0.21037606586E+04  0.15294330000E+03 0.  1.
<mgrwt>
<rscale>  0 0.43112527E+03</rscale>
<asrwt>0</asrwt>
<pdfrwt beam="1">  1        2 0.12986950E+00 0.43112527E+03</pdfrwt>
<pdfrwt beam="2">  1       -2 0.32891960E+00 0.43112527E+03</pdfrwt>
<totfact> 0.77202959E-01</totfact>
</mgrwt>
</event>
<event>
 4    1  0.3365401E-008  0.1103270E+04  0.7818608E-02  0.9202010E-01
         -2   -1    0    0    0  501 -0.00000000000E+00  0.00000000000E+00  0.32701795801E+04  0.32701795801E+04  0.25500000000E-02 0.  1.
          2   -1    0    0  501    0  0.00000000000E+00 -0.00000000000E+00 -0.81428601163E+03  0.81428601163E+03  0.25500000000E-02 0. -1.
    8880022    1    1    2    0    0  0.44593779485E+03  0.99747327501E+03  0.27326938218E+04  0.29470019728E+04  0.15294330000E+03 0.  0.
    8880022    1    1    2    0    0 -0.44593779485E+03 -0.99747327501E+03 -0.27680025326E+03  0.11374636190E+04  0.15294330000E+03 0.  0.
<mgrwt>
<rscale>  0 0.11032702E+04</rscale>
<asrwt>0</asrwt>
<pdfrwt beam="1">  1        2 0.12527477E+00 0.11032702E+04</pdfrwt>
<pdfrwt beam="2">  1       -2 0.50310455E+00 0.11032702E+04</pdfrwt>
<totfact> 0.52714219E-02</totfact>
</mgrwt>
</event>
<event>
 4    1  0.3365401E-008  0.9150663E+03  0.7818608E-02  0.9406941E-01
          2   -1    0    0  501    0  0.00000000000E+00  0.00000000000E+00  0.15024321655E+04  0.15024321655E+04  0.25500000000E-02 0. -1.
         -2   -1    0    0    0  501 -0.00000000000E+00 -0.00000000000E+00 -0.63816320605E+03  0.63816320606E+03  0.25500000000E-02 0.  1.
    8880022    1    1    2    0    0 -0.69597321467E+03  0.57408707141E+03  0.51208064028E+02  0.91649800869E+03  0.15294330000E+03 0.  0.
    8880022    1    1    2    0    0  0.69597321467E+03 -0.57408707141E+03  0.81306089541E+03  0.12240973629E+04  0.15294330000E+03 0.  0.
<mgrwt>
<rscale>  0 0.91506630E+03</rscale>
<asrwt>0</asrwt>
<pdfrwt beam="1">  1        2 0.23114341E+00 0.91506630E+03</pdfrwt>
<pdfrwt beam="2">  1       -2 0.98178955E-01 0.91506630E+03</pdfrwt>
<totfact> 0.10964758E+01</totfact>
</mgrwt>
</event>
<event>
 4    1  0.3365401E-008  0.5766669E+03  0.7818608E-02  0.9955033E-01
         -2   -1    0    0    0  501 -0.00000000000E+00  0.00000000000E+00  0.12753749801E+04  0.12753749801E+04  0.25500000000E-02 0.  1.
          2   -1    0    0  501    0  0.00000000000E+00 -0.00000000000E+00 -0.86540104238E+03  0.86540104238E+03  0.25500000000E-02 0. -1.
    8880022    1    1    2    0    0  0.40842197055E+03 -0.37728584416E+03 -0.68973384264E+03  0.89904256903E+03  0.15294330000E+03 0.  0.
    8880022    1    1    2    0    0 -0.40842197055E+03  0.37728584416E+03  0.10997077804E+04  0.12417334535E+04  0.15294330000E+03 0.  0.
<mgrwt>
<rscale>  0 0.57666695E+03</rscale>
<asrwt>0</asrwt>
<pdfrwt beam="1">  1        2 0.13313862E+00 0.57666695E+03</pdfrwt>
<pdfrwt beam="2">  1       -2 0.19621153E+00 0.57666695E+03</pdfrwt>
<totfact> 0.45812341E+00</totfact>
</mgrwt>
</event>
<event>
 4    1  0.3365401E-008  0.2865074E+03  0.7818608E-02  0.1092187E+00
         -2   -1    0    0    0  501 -0.00000000000E+00  0.00000000000E+00  0.38906150029E+03  0.38906150030E+03  0.25500000000E-02 0.  1.
          2   -1    0    0  501    0  0.00000000000E+00 -0.00000000000E+00 -0.44953782915E+03  0.44953782915E+03  0.25500000000E-02 0. -1.
    8880022    1    1    2    0    0 -0.82071834155E+02 -0.22794524927E+03  0.27520674751E+03  0.39727223602E+03  0.15294330000E+03 0.  0.
    8880022    1    1    2    0    0  0.82071834155E+02  0.22794524927E+03 -0.33568307636E+03  0.44132709343E+03  0.15294330000E+03 0. -1.
<mgrwt>
<rscale>  0 0.28650737E+03</rscale>
<asrwt>0</asrwt>
<pdfrwt beam="1">  1        2 0.69159666E-01 0.28650737E+03</pdfrwt>
<pdfrwt beam="2">  1       -2 0.59855615E-01 0.28650737E+03</pdfrwt>
<totfact> 0.18787987E+02</totfact>
</mgrwt>
</event>
<event>
 4    1  0.3365401E-008  0.3798095E+03  0.7818608E-02  0.1051004E+00
          2   -1    0    0  501    0  0.00000000000E+00  0.00000000000E+00  0.16873579708E+04  0.16873579708E+04  0.25500000000E-02 0. -1.
         -2   -1    0    0    0  501 -0.00000000000E+00 -0.00000000000E+00 -0.20521768824E+03  0.20521768826E+03  0.25500000000E-02 0.  1.
    8880022    1    1    2    0    0 -0.34237899194E+03 -0.60334051817E+02  0.18283792405E+02  0.38024928929E+03  0.15294330000E+03 0.  1.
    8880022    1    1    2    0    0  0.34237899194E+03  0.60334051817E+02  0.14638564901E+04  0.15123263697E+04  0.15294330000E+03 0.  0.
<mgrwt>
<rscale>  0 0.37980946E+03</rscale>
<asrwt>0</asrwt>
<pdfrwt beam="1">  1        2 0.25959354E+00 0.37980946E+03</pdfrwt>
<pdfrwt beam="2">  1       -2 0.31571952E-01 0.37980946E+03</pdfrwt>
<totfact> 0.99642411E+01</totfact>
</mgrwt>
</event>
<event>
 4    1  0.3365401E-008  0.2416663E+03  0.7818608E-02  0.1118688E+00
         -2   -1    0    0    0  501 -0.00000000000E+00  0.00000000000E+00  0.23309463458E+02  0.23309463597E+02  0.25500000000E-02 0.  1.
          2   -1    0    0  501    0  0.00000000000E+00 -0.00000000000E+00 -0.33098767564E+04  0.33098767564E+04  0.25500000000E-02 0. -1.
    8880022    1    1    2    0    0  0.18383494945E+03  0.34866504703E+02 -0.82171341462E+03  0.85651360210E+03  0.15294330000E+03 0.  1.
    8880022    1    1    2    0    0 -0.18383494945E+03 -0.34866504703E+02 -0.24648538783E+04  0.24766726179E+04  0.15294330000E+03 0. -1.
<mgrwt>
<rscale>  0 0.24166633E+03</rscale>
<asrwt>0</asrwt>
<pdfrwt beam="1">  1        2 0.50921144E+00 0.24166633E+03</pdfrwt>
<pdfrwt beam="2">  1       -2 0.35860739E-02 0.24166633E+03</pdfrwt>
<totfact> 0.43998377E+02</totfact>
</mgrwt>
</event>
<event>
 4    1  0.3365401E-008  0.5999775E+03  0.7818608E-02  0.9905453E-01
          2   -1    0    0  501    0  0.00000000000E+00  0.00000000000E+00  0.66159575563E+03  0.66159575563E+03  0.25500000000E-02 0. -1.
         -2   -1    0    0    0  501 -0.00000000000E+00 -0.00000000000E+00 -0.82146461510E+03  0.82146461510E+03  0.25500000000E-02 0.  1.
    8880022    1    1    2    0    0 -0.27758506407E+03  0.50943877983E+03 -0.51081947564E+03  0.78797812654E+03  0.15294330000E+03 0.  0.
    8880022    1    1    2    0    0  0.27758506407E+03 -0.50943877983E+03  0.35095061617E+03  0.69508224420E+03  0.15294330000E+03 0.  0.
<mgrwt>
<rscale>  0 0.59997749E+03</rscale>
<asrwt>0</asrwt>
<pdfrwt beam="1">  1        2 0.10178396E+00 0.59997749E+03</pdfrwt>
<pdfrwt beam="2">  1       -2 0.12637917E+00 0.59997749E+03</pdfrwt>
<totfact> 0.21116893E+01</totfact>
</mgrwt>
</event>
<event>
 4    1  0.3365401E-008  0.1663509E+03  0.7818608E-02  0.1181708E+00
         -2   -1    0    0    0  501 -0.00000000000E+00  0.00000000000E+00  0.10788787857E+02  0.10788788158E+02  0.25500000000E-02 0.  1.
          2   -1    0    0  501    0  0.00000000000E+00 -0.00000000000E+00 -0.42535890223E+04  0.42535890223E+04  0.25500000000E-02 0. -1.
    8880022    1    1    2    0    0 -0.21244867029E+02  0.61884093801E+02 -0.77796380907E+03  0.79555032945E+03  0.15294330000E+03 0.  0.
    8880022    1    1    2    0    0  0.21244867029E+02 -0.61884093801E+02 -0.34648364253E+04  0.34688274810E+04  0.15294330000E+03 0. -1.
<mgrwt>
<rscale>  0 0.16635095E+03</rscale>
<asrwt>0</asrwt>
<pdfrwt beam="1">  1        2 0.65439697E+00 0.16635095E+03</pdfrwt>
<pdfrwt beam="2">  1       -2 0.16598169E-02 0.16635095E+03</pdfrwt>
<totfact> 0.29860222E+02</totfact>
</mgrwt>
</event>
<event>
 4    1  0.3365401E-008  0.8530668E+03  0.7818608E-02  0.9486230E-01
          2   -1    0    0  501    0  0.00000000000E+00  0.00000000000E+00  0.10962016567E+04  0.10962016567E+04  0.25500000000E-02 0. -1.
         -2   -1    0    0    0  501 -0.00000000000E+00 -0.00000000000E+00 -0.81693789655E+03  0.81693789655E+03  0.25500000000E-02 0.  1.
    8880022    1    1    2    0    0 -0.81248371087E+03  0.21024141138E+03  0.55370818474E+03  0.10170130965E+04  0.15294330000E+03 0.  0.
    8880022    1    1    2    0    0  0.81248371087E+03 -0.21024141138E+03 -0.27444442454E+03  0.89612645685E+03  0.15294330000E+03 0.  0.
<mgrwt>
<rscale>  0 0.85306675E+03</rscale>
<asrwt>0</asrwt>
<pdfrwt beam="1">  1        2 0.16864641E+00 0.85306675E+03</pdfrwt>
<pdfrwt beam="2">  1       -2 0.12568275E+00 0.85306675E+03</pdfrwt>
<totfact> 0.10428127E+01</totfact>
</mgrwt>
</event>
<event>
 4    1  0.3365401E-008  0.7587966E+03  0.7818608E-02  0.9621650E-01
          2   -1    0    0  501    0  0.00000000000E+00  0.00000000000E+00  0.14245107115E+04  0.14245107115E+04  0.25500000000E-02 0. -1.
         -2   -1    0    0    0  501 -0.00000000000E+00 -0.00000000000E+00 -0.49851343951E+03  0.49851343952E+03  0.25500000000E-02 0.  1.
    8880022    1    1    2    0    0 -0.51635738364E+03 -0.53456119224E+03  0.88124028512E+03  0.11629087277E+04  0.15294330000E+03 0.  0.
    8880022    1    1    2    0    0  0.51635738364E+03  0.53456119224E+03  0.44756986901E+02  0.76011542333E+03  0.15294330000E+03 0.  0.
<mgrwt>
<rscale>  0 0.75879659E+03</rscale>
<asrwt>0</asrwt>
<pdfrwt beam="1">  1        2 0.21915549E+00 0.75879659E+03</pdfrwt>
<pdfrwt beam="2">  1       -2 0.76694377E-01 0.75879659E+03</pdfrwt>
<totfact> 0.21745493E+01</totfact>
</mgrwt>
</event>
<event>
 4    1  0.3365401E-008  0.2560508E+03  0.7818608E-02  0.1109539E+00
         -2   -1    0    0    0  501 -0.00000000000E+00  0.00000000000E+00  0.29377029640E+03  0.29377029641E+03  0.25500000000E-02 0.  1.
          2   -1    0    0  501    0  0.00000000000E+00 -0.00000000000E+00 -0.59681756697E+03  0.59681756698E+03  0.25500000000E-02 0. -1.
    8880022    1    1    2    0    0  0.52741266952E+01  0.20528649561E+03  0.20081031256E+03  0.32540251434E+03  0.15294330000E+03 0.  0.
    8880022    1    1    2    0    0 -0.52741266952E+01 -0.20528649561E+03 -0.50385758313E+03  0.56518534905E+03  0.15294330000E+03 0.  0.
<mgrwt>
<rscale>  0 0.25605080E+03</rscale>
<asrwt>0</asrwt>
<pdfrwt beam="1">  1        2 0.91818087E-01 0.25605080E+03</pdfrwt>
<pdfrwt beam="2">  1       -2 0.45195430E-01 0.25605080E+03</pdfrwt>
<totfact> 0.24092906E+02</totfact>
</mgrwt>
</event>
<event>
 4    1  0.3365401E-008  0.4436565E+03  0.7818608E-02  0.1029631E+00
          2   -1    0    0  501    0  0.00000000000E+00  0.00000000000E+00  0.38751709761E+04  0.38751709761E+04  0.25500000000E-02 0. -1.
         -2   -1    0    0    0  501 -0.00000000000E+00 -0.00000000000E+00 -0.15279287550E+03  0.15279287552E+03  0.25500000000E-02 0.  1.
    8880022    1    1    2    0    0 -0.39025540991E+03  0.14539654893E+03  0.35067125654E+04  0.35346660537E+04  0.15294330000E+03 0.  0.
    8880022    1    1    2    0    0  0.39025540991E+03 -0.14539654893E+03  0.21566553518E+03  0.49329779797E+03  0.15294330000E+03 0.  1.
<mgrwt>
<rscale>  0 0.44365650E+03</rscale>
<asrwt>0</asrwt>
<pdfrwt beam="1">  1        2 0.59618012E+00 0.44365650E+03</pdfrwt>
<pdfrwt beam="2">  1       -2 0.23506597E-01 0.44365650E+03</pdfrwt>
<totfact> 0.82009123E+00</totfact>
</mgrwt>
</event>
<event>
 4    1  0.3365401E-008  0.6889052E+03  0.7818608E-02  0.9736396E-01
         -2   -1    0    0    0  501 -0.00000000000E+00  0.00000000000E+00  0.17400428431E+04  0.17400428431E+04  0.25500000000E-02 0.  1.
          2   -1    0    0  501    0  0.00000000000E+00 -0.00000000000E+00 -0.51907968118E+03  0.51907968119E+03  0.25500000000E-02 0. -1.
    8880022    1    1    2    0    0  0.60304720181E+03  0.29585940304E+03 -0.16765234175E+03  0.70901175920E+03  0.15294330000E+03 0.  0.
    8880022    1    1    2    0    0 -0.60304720181E+03 -0.29585940304E+03  0.13886155037E+04  0.15501107651E+04  0.15294330000E+03 0.  1.
<mgrwt>
<rscale>  0 0.68890519E+03</rscale>
<asrwt>0</asrwt>
<pdfrwt beam="1">  1        2 0.79858413E-01 0.68890519E+03</pdfrwt>
<pdfrwt beam="2">  1       -2 0.26769890E+00 0.68890519E+03</pdfrwt>
<totfact> 0.30776886E+00</totfact>
</mgrwt>
</event>
<event>
 4    1  0.3365401E-008  0.2620084E+03  0.7818608E-02  0.1105943E+00
          2   -1    0    0  501    0  0.00000000000E+00  0.00000000000E+00  0.13854977300E+04  0.13854977300E+04  0.25500000000E-02 0. -1.
         -2   -1    0    0    0  501 -0.00000000000E+00 -0.00000000000E+00 -0.42430656430E+03  0.42430656431E+03  0.25500000000E-02 0.  1.
    8880022    1    1    2    0    0  0.94114131088E+02 -0.19078590271E+03  0.13310237471E+04  0.13565664741E+04  0.15294330000E+03 0.  0.
    8880022    1    1    2    0    0 -0.94114131088E+02  0.19078590271E+03 -0.36983258142E+03  0.45323782018E+03  0.15294330000E+03 0.  0.
<mgrwt>
<rscale>  0 0.26200837E+03</rscale>
<asrwt>0</asrwt>
<pdfrwt beam="1">  1        2 0.21315350E+00 0.26200837E+03</pdfrwt>
<pdfrwt beam="2">  1       -2 0.65277933E-01 0.26200837E+03</pdfrwt>
<totfact> 0.35542046E+01</totfact>
</mgrwt>
</event>
<event>
 4    1  0.3365401E-008  0.2084074E+03  0.7818608E-02  0.1142833E+00
         -2   -1    0    0    0  501 -0.00000000000E+00  0.00000000000E+00  0.10059132830E+03  0.10059132834E+03  0.25500000000E-02 0.  1.
          2   -1    0    0  501    0  0.00000000000E+00 -0.00000000000E+00 -0.13683382542E+04  0.13683382542E+04  0.25500000000E-02 0. -1.
    8880022    1    1    2    0    0 -0.11297694179E+03  0.85312465987E+02 -0.26241134842E+02  0.21005298475E+03  0.15294330000E+03 0.  0.
    8880022    1    1    2    0    0  0.11297694179E+03 -0.85312465987E+02 -0.12415057911E+04  0.12588765978E+04  0.15294330000E+03 0. -1.
<mgrwt>
<rscale>  0 0.20840744E+03</rscale>
<asrwt>0</asrwt>
<pdfrwt beam="1">  1        2 0.21051356E+00 0.20840744E+03</pdfrwt>
<pdfrwt beam="2">  1       -2 0.15475590E-01 0.20840744E+03</pdfrwt>
<totfact> 0.52934863E+02</totfact>
</mgrwt>
</event>
<event>
 4    1  0.3365401E-008  0.1996176E+03  0.7818608E-02  0.1150062E+00
          2   -1    0    0  501    0  0.00000000000E+00  0.00000000000E+00  0.56417662647E+03  0.56417662647E+03  0.25500000000E-02 0. -1.
         -2   -1    0    0    0  501 -0.00000000000E+00 -0.00000000000E+00 -0.12376791853E+04  0.12376791853E+04  0.25500000000E-02 0.  1.
    8880022    1    1    2    0    0  0.12801184201E+03 -0.82775317465E+01 -0.12115955885E+04  0.12279295876E+04  0.15294330000E+03 0.  0.
    8880022    1    1    2    0    0 -0.12801184201E+03  0.82775317465E+01  0.53809302961E+03  0.57392622414E+03  0.15294330000E+03 0. -1.
<mgrwt>
<rscale>  0 0.19961764E+03</rscale>
<asrwt>0</asrwt>
<pdfrwt beam="1">  1        2 0.86796404E-01 0.19961764E+03</pdfrwt>
<pdfrwt beam="2">  1       -2 0.19041218E+00 0.19961764E+03</pdfrwt>
<totfact> 0.93667397E+00</totfact>
</mgrwt>
</event>
<event>
 4    1  0.3365401E-008  0.4961132E+03  0.7818608E-02  0.1014798E+00
          2   -1    0    0  501    0  0.00000000000E+00  0.00000000000E+00  0.64066167897E+03  0.64066167897E+03  0.25500000000E-02 0. -1.
         -2   -1    0    0    0  501 -0.00000000000E+00 -0.00000000000E+00 -0.69963888472E+03  0.69963888473E+03  0.25500000000E-02 0.  1.
    8880022    1    1    2    0    0  0.32485416349E+03 -0.34235428749E+03  0.42050647287E+03  0.65034916195E+03  0.15294330000E+03 0. -1.
    8880022    1    1    2    0    0 -0.32485416349E+03  0.34235428749E+03 -0.47948367862E+03  0.68995140176E+03  0.15294330000E+03 0.  0.
<mgrwt>
<rscale>  0 0.49611323E+03</rscale>
<asrwt>0</asrwt>
<pdfrwt beam="1">  1        2 0.98563335E-01 0.49611323E+03</pdfrwt>
<pdfrwt beam="2">  1       -2 0.10763675E+00 0.49611323E+03</pdfrwt>
<totfact> 0.32926746E+01</totfact>
</mgrwt>
</event>
<event>
 4    1  0.3365401E-008  0.5014662E+03  0.7818608E-02  0.1013397E+00
         -2   -1    0    0    0  501 -0.00000000000E+00  0.00000000000E+00  0.34388626018E+03  0.34388626019E+03  0.25500000000E-02 0.  1.
          2   -1    0    0  501    0  0.00000000000E+00 -0.00000000000E+00 -0.15009683046E+04  0.15009683046E+04  0.25500000000E-02 0. -1.
    8880022    1    1    2    0    0  0.25044333941E+03  0.40663848006E+03 -0.12390991164E+04  0.13367254740E+04  0.15294330000E+03 0.  0.
    8880022    1    1    2    0    0 -0.25044333941E+03 -0.40663848006E+03  0.82017071992E+02  0.50812909072E+03  0.15294330000E+03 0.  0.
<mgrwt>
<rscale>  0 0.50146622E+03</rscale>
<asrwt>0</asrwt>
<pdfrwt beam="1">  1        2 0.23091820E+00 0.50146622E+03</pdfrwt>
<pdfrwt beam="2">  1       -2 0.52905579E-01 0.50146622E+03</pdfrwt>
<totfact> 0.45111122E+01</totfact>
</mgrwt>
</event>
<event>
 4    1  0.3365401E-008  0.2344809E+03  0.7818608E-02  0.1123525E+00
          2   -1    0    0  501    0  0.00000000000E+00  0.00000000000E+00  0.16106972551E+04  0.16106972551E+04  0.25500000000E-02 0. -1.
         -2   -1    0    0    0  501 -0.00000000000E+00 -0.00000000000E+00 -0.76362176085E+02  0.76362176128E+02  0.25500000000E-02 0.  1.
    8880022    1    1    2    0    0 -0.16940737653E+03 -0.53766153215E+02  0.13989432179E+03  0.27304163188E+03  0.15294330000E+03 0.  0.
    8880022    1    1    2    0    0  0.16940737653E+03  0.53766153215E+02  0.13944407572E+04  0.14140177993E+04  0.15294330000E+03 0. -1.
<mgrwt>
<rscale>  0 0.23448094E+03</rscale>
<asrwt>0</asrwt>
<pdfrwt beam="1">  1        2 0.24779958E+00 0.23448094E+03</pdfrwt>
<pdfrwt beam="2">  1       -2 0.11748027E-01 0.23448094E+03</pdfrwt>
<totfact> 0.61432027E+02</totfact>
</mgrwt>
</event>
<event>
 4    1  0.3365401E-008  0.5883516E+03  0.7818608E-02  0.9929872E-01
          2   -1    0    0  501    0  0.00000000000E+00  0.00000000000E+00  0.35185353496E+04  0.35185353496E+04  0.25500000000E-02 0. -1.
         -2   -1    0    0    0  501 -0.00000000000E+00 -0.00000000000E+00 -0.13029563754E+03  0.13029563757E+03  0.25500000000E-02 0.  1.
    8880022    1    1    2    0    0 -0.56730599816E+03  0.30492961635E+02  0.25970470276E+04  0.26628576441E+04  0.15294330000E+03 0.  0.
    8880022    1    1    2    0    0  0.56730599816E+03 -0.30492961635E+02  0.79119268445E+03  0.98597334304E+03  0.15294330000E+03 0.  0.
<mgrwt>
<rscale>  0 0.58835157E+03</rscale>
<asrwt>0</asrwt>
<pdfrwt beam="1">  1        2 0.54131312E+00 0.58835157E+03</pdfrwt>
<pdfrwt beam="2">  1       -2 0.20045483E-01 0.58835157E+03</pdfrwt>
<totfact> 0.18677034E+01</totfact>
</mgrwt>
</event>
<event>
 4    1  0.3365401E-008  0.5970081E+03  0.7818608E-02  0.9911633E-01
          2   -1    0    0  501    0  0.00000000000E+00  0.00000000000E+00  0.11356093673E+04  0.11356093673E+04  0.25500000000E-02 0. -1.
         -2   -1    0    0    0  501 -0.00000000000E+00 -0.00000000000E+00 -0.33042409229E+03  0.33042409229E+03  0.25500000000E-02 0.  1.
    8880022    1    1    2    0    0  0.48686853384E+02  0.57502748382E+03  0.56672884858E+03  0.82316478160E+03  0.15294330000E+03 0.  0.
    8880022    1    1    2    0    0 -0.48686853384E+02 -0.57502748382E+03  0.23845642644E+03  0.64286867801E+03  0.15294330000E+03 0.  0.
<mgrwt>
<rscale>  0 0.59700810E+03</rscale>
<asrwt>0</asrwt>
<pdfrwt beam="1">  1        2 0.17470913E+00 0.59700810E+03</pdfrwt>
<pdfrwt beam="2">  1       -2 0.50834477E-01 0.59700810E+03</pdfrwt>
<totfact> 0.78077286E+01</totfact>
</mgrwt>
</event>
<event>
 4    1  0.3365401E-008  0.3353165E+03  0.7818608E-02  0.1068808E+00
         -2   -1    0    0    0  501 -0.00000000000E+00  0.00000000000E+00  0.10116179327E+04  0.10116179327E+04  0.25500000000E-02 0.  1.
          2   -1    0    0  501    0  0.00000000000E+00 -0.00000000000E+00 -0.74435254410E+03  0.74435254411E+03  0.25500000000E-02 0. -1.
    8880022    1    1    2    0    0  0.29835640275E+03  0.53808057703E+01 -0.67615396833E+03  0.75473262686E+03  0.15294330000E+03 0.  0.
    8880022    1    1    2    0    0 -0.29835640275E+03 -0.53808057703E+01  0.94341935689E+03  0.10012378499E+04  0.15294330000E+03 0.  0.
<mgrwt>
<rscale>  0 0.33531649E+03</rscale>
<asrwt>0</asrwt>
<pdfrwt beam="1">  1        2 0.11451578E+00 0.33531649E+03</pdfrwt>
<pdfrwt beam="2">  1       -2 0.15563353E+00 0.33531649E+03</pdfrwt>
<totfact> 0.11172341E+01</totfact>
</mgrwt>
</event>
<event>
 4    1  0.3365401E-008  0.4389054E+03  0.7818608E-02  0.1031083E+00
         -2   -1    0    0    0  501 -0.00000000000E+00  0.00000000000E+00  0.34099313486E+03  0.34099313487E+03  0.25500000000E-02 0.  1.
          2   -1    0    0  501    0  0.00000000000E+00 -0.00000000000E+00 -0.36883075770E+04  0.36883075770E+04  0.25500000000E-02 0. -1.
    8880022    1    1    2    0    0 -0.30980306803E+03  0.27068124469E+03  0.18029366661E+03  0.47449313633E+03  0.15294330000E+03 0.  0.
    8880022    1    1    2    0    0  0.30980306803E+03 -0.27068124469E+03 -0.35276081087E+04  0.35548075755E+04  0.15294330000E+03 0.  0.
<mgrwt>
<rscale>  0 0.43890538E+03</rscale>
<asrwt>0</asrwt>
<pdfrwt beam="1">  1        2 0.56743191E+00 0.43890538E+03</pdfrwt>
<pdfrwt beam="2">  1       -2 0.52460485E-01 0.43890538E+03</pdfrwt>
<totfact> 0.24540006E+00</totfact>
</mgrwt>
</event>
<event>
 4    1  0.3365401E-008  0.4894322E+03  0.7818608E-02  0.1016575E+00
          2   -1    0    0  501    0  0.00000000000E+00  0.00000000000E+00  0.21209923163E+04  0.21209923163E+04  0.25500000000E-02 0. -1.
         -2   -1    0    0    0  501 -0.00000000000E+00 -0.00000000000E+00 -0.65935243225E+03  0.65935243226E+03  0.25500000000E-02 0.  1.
    8880022    1    1    2    0    0  0.21829212578E+03  0.41048848432E+03  0.19963437377E+04  0.20554639914E+04  0.15294330000E+03 0.  0.
    8880022    1    1    2    0    0 -0.21829212578E+03 -0.41048848432E+03 -0.53470385366E+03  0.72488075714E+03  0.15294330000E+03 0.  0.
<mgrwt>
<rscale>  0 0.48943222E+03</rscale>
<asrwt>0</asrwt>
<pdfrwt beam="1">  1        2 0.32630651E+00 0.48943222E+03</pdfrwt>
<pdfrwt beam="2">  1       -2 0.10143884E+00 0.48943222E+03</pdfrwt>
<totfact> 0.50131267E+00</totfact>
</mgrwt>
</event>
<event>
 4    1  0.3365401E-008  0.6801561E+03  0.7818608E-02  0.9751783E-01
          2   -1    0    0  501    0  0.00000000000E+00  0.00000000000E+00  0.78159961912E+03  0.78159961913E+03  0.25500000000E-02 0. -1.
         -2   -1    0    0    0  501 -0.00000000000E+00 -0.00000000000E+00 -0.13438314118E+04  0.13438314118E+04  0.25500000000E-02 0.  1.
    8880022    1    1    2    0    0  0.10304588093E+03 -0.65467718883E+03 -0.10760659303E+04  0.12730004771E+04  0.15294330000E+03 0.  0.
    8880022    1    1    2    0    0 -0.10304588093E+03  0.65467718883E+03  0.51383413765E+03  0.85243055388E+03  0.15294330000E+03 0.  0.
<mgrwt>
<rscale>  0 0.68015611E+03</rscale>
<asrwt>0</asrwt>
<pdfrwt beam="1">  1        2 0.12024610E+00 0.68015611E+03</pdfrwt>
<pdfrwt beam="2">  1       -2 0.20674329E+00 0.68015611E+03</pdfrwt>
<totfact> 0.44111971E+00</totfact>
</mgrwt>
</event>
<event>
 4    1  0.3365401E-008  0.2134981E+03  0.7818608E-02  0.1138825E+00
         -2   -1    0    0    0  501 -0.00000000000E+00  0.00000000000E+00  0.54775340818E+03  0.54775340819E+03  0.25500000000E-02 0.  1.
          2   -1    0    0  501    0  0.00000000000E+00 -0.00000000000E+00 -0.21945740745E+04  0.21945740745E+04  0.25500000000E-02 0. -1.
    8880022    1    1    2    0    0  0.92025111679E+02  0.11713730883E+03 -0.21683265323E+04  0.21788119180E+04  0.15294330000E+03 0.  0.
    8880022    1    1    2    0    0 -0.92025111679E+02 -0.11713730883E+03  0.52150586602E+03  0.56351556466E+03  0.15294330000E+03 0.  1.
<mgrwt>
<rscale>  0 0.21349806E+03</rscale>
<asrwt>0</asrwt>
<pdfrwt beam="1">  1        2 0.33762678E+00 0.21349806E+03</pdfrwt>
<pdfrwt beam="2">  1       -2 0.84269756E-01 0.21349806E+03</pdfrwt>
<totfact> 0.78135400E+00</totfact>
</mgrwt>
</event>
<event>
 4    1  0.3365401E-008  0.9924344E+03  0.7818608E-02  0.9316882E-01
          2   -1    0    0  501    0  0.00000000000E+00  0.00000000000E+00  0.92113028620E+03  0.92113028621E+03  0.25500000000E-02 0. -1.
         -2   -1    0    0    0  501 -0.00000000000E+00 -0.00000000000E+00 -0.11524838942E+04  0.11524838942E+04  0.25500000000E-02 0.  1.
    8880022    1    1    2    0    0  0.50566597918E+03  0.84014070193E+03 -0.39429480678E+03  0.10678925644E+04  0.15294330000E+03 0.  0.
    8880022    1    1    2    0    0 -0.50566597918E+03 -0.84014070193E+03  0.16294119879E+03  0.10057216160E+04  0.15294330000E+03 0.  0.
<mgrwt>
<rscale>  0 0.99243445E+03</rscale>
<asrwt>0</asrwt>
<pdfrwt beam="1">  1        2 0.14171235E+00 0.99243445E+03</pdfrwt>
<pdfrwt beam="2">  1       -2 0.17730521E+00 0.99243445E+03</pdfrwt>
<totfact> 0.53300562E+00</totfact>
</mgrwt>
</event>
<event>
 4    1  0.3365401E-008  0.4509340E+03  0.7818608E-02  0.1027444E+00
         -2   -1    0    0    0  501 -0.00000000000E+00  0.00000000000E+00  0.30937660557E+03  0.30937660558E+03  0.25500000000E-02 0.  1.
          2   -1    0    0  501    0  0.00000000000E+00 -0.00000000000E+00 -0.97541144634E+03  0.97541144634E+03  0.25500000000E-02 0. -1.
    8880022    1    1    2    0    0 -0.30054772657E+03 -0.29936742123E+03 -0.69989675871E+03  0.83258447902E+03  0.15294330000E+03 0.  0.
    8880022    1    1    2    0    0  0.30054772657E+03  0.29936742123E+03  0.33861917949E+02  0.45220357290E+03  0.15294330000E+03 0.  0.
<mgrwt>
<rscale>  0 0.45093397E+03</rscale>
<asrwt>0</asrwt>
<pdfrwt beam="1">  1        2 0.15006330E+00 0.45093397E+03</pdfrwt>
<pdfrwt beam="2">  1       -2 0.47596401E-01 0.45093397E+03</pdfrwt>
<totfact> 0.11370349E+02</totfact>
</mgrwt>
</event>
<event>
 4    1  0.3365401E-008  0.5760597E+03  0.7818608E-02  0.9956358E-01
          2   -1    0    0  501    0  0.00000000000E+00  0.00000000000E+00  0.19494330101E+04  0.19494330101E+04  0.25500000000E-02 0. -1.
         -2   -1    0    0    0  501 -0.00000000000E+00 -0.00000000000E+00 -0.32146671647E+03  0.32146671648E+03  0.25500000000E-02 0.  1.
    8880022    1    1    2    0    0  0.33351608237E+03  0.44409476657E+03  0.35168930915E+02  0.57713226007E+03  0.15294330000E+03 0.  0.
    8880022    1    1    2    0    0 -0.33351608237E+03 -0.44409476657E+03  0.15927973627E+04  0.16937674665E+04  0.15294330000E+03 0.  0.
<mgrwt>
<rscale>  0 0.57605971E+03</rscale>
<asrwt>0</asrwt>
<pdfrwt beam="1">  1        2 0.29991278E+00 0.57605971E+03</pdfrwt>
<pdfrwt beam="2">  1       -2 0.49456417E-01 0.57605971E+03</pdfrwt>
<totfact> 0.29203341E+01</totfact>
</mgrwt>
</event>
<event>
 4    1  0.3365401E-008  0.6459807E+03  0.7818608E-02  0.9814351E-01
         -2   -1    0    0    0  501 -0.00000000000E+00  0.00000000000E+00  0.83516035556E+03  0.83516035556E+03  0.25500000000E-02 0.  1.
          2   -1    0    0  501    0  0.00000000000E+00 -0.00000000000E+00 -0.13442000997E+04  0.13442000997E+04  0.25500000000E-02 0. -1.
    8880022    1    1    2    0    0 -0.69001208594E+02  0.62380942537E+03  0.60921180763E+03  0.88793583414E+03  0.15294330000E+03 0.  0.
    8880022    1    1    2    0    0  0.69001208594E+02 -0.62380942537E+03 -0.11182515517E+04  0.12914246211E+04  0.15294330000E+03 0.  0.
<mgrwt>
<rscale>  0 0.64598066E+03</rscale>
<asrwt>0</asrwt>
<pdfrwt beam="1">  1        2 0.20680002E+00 0.64598066E+03</pdfrwt>
<pdfrwt beam="2">  1       -2 0.12848621E+00 0.64598066E+03</pdfrwt>
<totfact> 0.72391461E+00</totfact>
</mgrwt>
</event>
<event>
 4    1  0.3365401E-008  0.4146313E+03  0.7818608E-02  0.1038828E+00
          2   -1    0    0  501    0  0.00000000000E+00  0.00000000000E+00  0.55889900043E+04  0.55889900043E+04  0.25500000000E-02 0. -1.
         -2   -1    0    0    0  501 -0.00000000000E+00 -0.00000000000E+00 -0.54565339907E+02  0.54565339966E+02  0.25500000000E-02 0.  1.
    8880022    1    1    2    0    0  0.34281799051E+03 -0.17607759491E+03  0.90341540078E+03  0.99402139485E+03  0.15294330000E+03 0.  0.
    8880022    1    1    2    0    0 -0.34281799051E+03  0.17607759491E+03  0.46310092636E+04  0.46495339494E+04  0.15294330000E+03 0.  0.
<mgrwt>
<rscale>  0 0.41463134E+03</rscale>
<asrwt>0</asrwt>
<pdfrwt beam="1">  1        2 0.85984425E+00 0.41463134E+03</pdfrwt>
<pdfrwt beam="2">  1       -2 0.83946713E-02 0.41463134E+03</pdfrwt>
<totfact> 0.52597972E-01</totfact>
</mgrwt>
</event>
<event>
 4    1  0.3365401E-008  0.5742532E+03  0.7818608E-02  0.9960311E-01
         -2   -1    0    0    0  501 -0.00000000000E+00  0.00000000000E+00  0.77891849770E+03  0.77891849770E+03  0.25500000000E-02 0.  1.
          2   -1    0    0  501    0  0.00000000000E+00 -0.00000000000E+00 -0.60152310022E+03  0.60152310022E+03  0.25500000000E-02 0. -1.
    8880022    1    1    2    0    0  0.36567775750E+03 -0.41551760556E+03  0.46433160722E+03  0.73849211055E+03  0.15294330000E+03 0.  0.
    8880022    1    1    2    0    0 -0.36567775750E+03  0.41551760556E+03 -0.28693620974E+03  0.64194948737E+03  0.15294330000E+03 0.  0.
<mgrwt>
<rscale>  0 0.57425322E+03</rscale>
<asrwt>0</asrwt>
<pdfrwt beam="1">  1        2 0.92542016E-01 0.57425322E+03</pdfrwt>
<pdfrwt beam="2">  1       -2 0.11983361E+00 0.57425322E+03</pdfrwt>
<totfact> 0.27137350E+01</totfact>
</mgrwt>
</event>
<event>
 4    1  0.3365401E-008  0.8567207E+03  0.7818608E-02  0.9481361E-01
          2   -1    0    0  501    0  0.00000000000E+00  0.00000000000E+00  0.31427967924E+04  0.31427967924E+04  0.25500000000E-02 0. -1.
         -2   -1    0    0    0  501 -0.00000000000E+00 -0.00000000000E+00 -0.23899108174E+03  0.23899108175E+03  0.25500000000E-02 0.  1.
    8880022    1    1    2    0    0 -0.80651707474E+03 -0.24517125805E+03  0.17072589537E+04  0.19101579845E+04  0.15294330000E+03 0.  0.
    8880022    1    1    2    0    0  0.80651707474E+03  0.24517125805E+03  0.11965467570E+04  0.14716298897E+04  0.15294330000E+03 0.  0.
<mgrwt>
<rscale>  0 0.85672072E+03</rscale>
<asrwt>0</asrwt>
<pdfrwt beam="1">  1        2 0.48350719E+00 0.85672072E+03</pdfrwt>
<pdfrwt beam="2">  1       -2 0.36767859E-01 0.85672072E+03</pdfrwt>
<totfact> 0.10316225E+01</totfact>
</mgrwt>
</event>
<event>
 4    1  0.3365401E-008  0.1865791E+03  0.7818608E-02  0.1161583E+00
         -2   -1    0    0    0  501 -0.00000000000E+00  0.00000000000E+00  0.24580187478E+03  0.24580187479E+03  0.25500000000E-02 0.  1.
          2   -1    0    0  501    0  0.00000000000E+00 -0.00000000000E+00 -0.14439213601E+03  0.14439213603E+03  0.25500000000E-02 0. -1.
    8880022    1    1    2    0    0  0.52161978879E+02  0.93269738764E+02  0.77711410060E+02  0.20211588873E+03  0.15294330000E+03 0.  0.
    8880022    1    1    2    0    0 -0.52161978879E+02 -0.93269738764E+02  0.23698328708E+02  0.18807812209E+03  0.15294330000E+03 0.  0.
<mgrwt>
<rscale>  0 0.18657912E+03</rscale>
<asrwt>0</asrwt>
<pdfrwt beam="1">  1        2 0.22214175E-01 0.18657912E+03</pdfrwt>
<pdfrwt beam="2">  1       -2 0.37815673E-01 0.18657912E+03</pdfrwt>
<totfact> 0.16113361E+03</totfact>
</mgrwt>
</event>
<event>
 4    1  0.3365401E-008  0.4602930E+03  0.7818608E-02  0.1024696E+00
         -2   -1    0    0    0  501 -0.00000000000E+00  0.00000000000E+00  0.31512292886E+03  0.31512292887E+03  0.25500000000E-02 0.  1.
          2   -1    0    0  501    0  0.00000000000E+00 -0.00000000000E+00 -0.80325174916E+03  0.80325174916E+03  0.25500000000E-02 0. -1.
    8880022    1    1    2    0    0 -0.73339441220E+02 -0.42790103398E+03 -0.46981114562E+03  0.65771736642E+03  0.15294330000E+03 0.  0.
    8880022    1    1    2    0    0  0.73339441220E+02  0.42790103398E+03 -0.18317674675E+02  0.46065731161E+03  0.15294330000E+03 0.  0.
<mgrwt>
<rscale>  0 0.46029297E+03</rscale>
<asrwt>0</asrwt>
<pdfrwt beam="1">  1        2 0.12357719E+00 0.46029297E+03</pdfrwt>
<pdfrwt beam="2">  1       -2 0.48480451E-01 0.46029297E+03</pdfrwt>
<totfact> 0.14262714E+02</totfact>
</mgrwt>
</event>
<event>
 4    1  0.3365401E-008  0.6848024E+03  0.7818608E-02  0.9743581E-01
          2   -1    0    0  501    0  0.00000000000E+00  0.00000000000E+00  0.18366290381E+04  0.18366290381E+04  0.25500000000E-02 0. -1.
         -2   -1    0    0    0  501 -0.00000000000E+00 -0.00000000000E+00 -0.10235056021E+04  0.10235056021E+04  0.25500000000E-02 0.  1.
    8880022    1    1    2    0    0  0.46326403969E+03 -0.48057166461E+03 -0.83235015734E+03  0.10778502367E+04  0.15294330000E+03 0.  0.
    8880022    1    1    2    0    0 -0.46326403969E+03  0.48057166461E+03  0.16454735934E+04  0.17822844035E+04  0.15294330000E+03 0.  0.
<mgrwt>
<rscale>  0 0.68480242E+03</rscale>
<asrwt>0</asrwt>
<pdfrwt beam="1">  1        2 0.28255831E+00 0.68480242E+03</pdfrwt>
<pdfrwt beam="2">  1       -2 0.15746240E+00 0.68480242E+03</pdfrwt>
<totfact> 0.22686071E+00</totfact>
</mgrwt>
</event>
<event>
 4    1  0.3365401E-008  0.5377718E+03  0.7818608E-02  0.1004365E+00
         -2   -1    0    0    0  501 -0.00000000000E+00  0.00000000000E+00  0.14254014850E+04  0.14254014850E+04  0.25500000000E-02 0.  1.
          2   -1    0    0  501    0  0.00000000000E+00 -0.00000000000E+00 -0.46713531268E+03  0.46713531269E+03  0.25500000000E-02 0. -1.
    8880022    1    1    2    0    0 -0.45837505647E+02 -0.51352293558E+03 -0.23256747676E+03  0.58590627796E+03  0.15294330000E+03 0.  0.
    8880022    1    1    2    0    0  0.45837505647E+02  0.51352293558E+03  0.11908336491E+04  0.13066305197E+04  0.15294330000E+03 0.  0.
<mgrwt>
<rscale>  0 0.53777182E+03</rscale>
<asrwt>0</asrwt>
<pdfrwt beam="1">  1        2 0.71866971E-01 0.53777182E+03</pdfrwt>
<pdfrwt beam="2">  1       -2 0.21929254E+00 0.53777182E+03</pdfrwt>
<totfact> 0.70043041E+00</totfact>
</mgrwt>
</event>
<event>
 4    1  0.3365401E-008  0.2359325E+03  0.7818608E-02  0.1122532E+00
          2   -1    0    0  501    0  0.00000000000E+00  0.00000000000E+00  0.18671252179E+04  0.18671252179E+04  0.25500000000E-02 0. -1.
         -2   -1    0    0    0  501 -0.00000000000E+00 -0.00000000000E+00 -0.39336736608E+02  0.39336736690E+02  0.25500000000E-02 0.  1.
    8880022    1    1    2    0    0 -0.17686115189E+03  0.31506101444E+02  0.13829323846E+04  0.14029134453E+04  0.15294330000E+03 0.  0.
    8880022    1    1    2    0    0  0.17686115189E+03 -0.31506101444E+02  0.44485609667E+03  0.50354850931E+03  0.15294330000E+03 0.  0.
<mgrwt>
<rscale>  0 0.23593252E+03</rscale>
<asrwt>0</asrwt>
<pdfrwt beam="1">  1        2 0.28725006E+00 0.23593252E+03</pdfrwt>
<pdfrwt beam="2">  1       -2 0.60518051E-02 0.23593252E+03</pdfrwt>
<totfact> 0.12788830E+03</totfact>
</mgrwt>
</event>
<event>
 4    1  0.3365401E-008  0.5626988E+03  0.7818608E-02  0.9985967E-01
         -2   -1    0    0    0  501 -0.00000000000E+00  0.00000000000E+00  0.99594305979E+03  0.99594305980E+03  0.25500000000E-02 0.  1.
          2   -1    0    0  501    0  0.00000000000E+00 -0.00000000000E+00 -0.64786729650E+03  0.64786729651E+03  0.25500000000E-02 0. -1.
    8880022    1    1    2    0    0 -0.22153321231E+03 -0.49412679132E+03 -0.41250690981E+03  0.69770470380E+03  0.15294330000E+03 0.  0.
    8880022    1    1    2    0    0  0.22153321231E+03  0.49412679132E+03  0.76058267310E+03  0.94610565250E+03  0.15294330000E+03 0.  0.
<mgrwt>
<rscale>  0 0.56269877E+03</rscale>
<asrwt>0</asrwt>
<pdfrwt beam="1">  1        2 0.99671891E-01 0.56269877E+03</pdfrwt>
<pdfrwt beam="2">  1       -2 0.15322201E+00 0.56269877E+03</pdfrwt>
<totfact> 0.13263812E+01</totfact>
</mgrwt>
</event>
<event>
 4    1  0.3365401E-008  0.3227541E+03  0.7818608E-02  0.1074389E+00
          2   -1    0    0  501    0  0.00000000000E+00  0.00000000000E+00  0.15691840363E+04  0.15691840363E+04  0.25500000000E-02 0. -1.
         -2   -1    0    0    0  501 -0.00000000000E+00 -0.00000000000E+00 -0.20712250251E+03  0.20712250253E+03  0.25500000000E-02 0.  1.
    8880022    1    1    2    0    0 -0.90893527383E+01 -0.28407026164E+03  0.14131457485E+04  0.14495347838E+04  0.15294330000E+03 0.  0.
    8880022    1    1    2    0    0  0.90893527383E+01  0.28407026164E+03 -0.51084214724E+02  0.32677175504E+03  0.15294330000E+03 0.  1.
<mgrwt>
<rscale>  0 0.32275406E+03</rscale>
<asrwt>0</asrwt>
<pdfrwt beam="1">  1        2 0.24141292E+00 0.32275406E+03</pdfrwt>
<pdfrwt beam="2">  1       -2 0.31865001E-01 0.32275406E+03</pdfrwt>
<totfact> 0.11461357E+02</totfact>
</mgrwt>
</event>
<event>
 4    1  0.3365401E-008  0.7934430E+03  0.7818608E-02  0.9569557E-01
         -2   -1    0    0    0  501 -0.00000000000E+00  0.00000000000E+00  0.29659111467E+03  0.29659111468E+03  0.25500000000E-02 0.  1.
          2   -1    0    0  501    0  0.00000000000E+00 -0.00000000000E+00 -0.28904799485E+04  0.28904799485E+04  0.25500000000E-02 0. -1.
    8880022    1    1    2    0    0  0.77038528355E+03 -0.11254643176E+03 -0.21182716967E+04  0.22619962021E+04  0.15294330000E+03 0.  0.
    8880022    1    1    2    0    0 -0.77038528355E+03  0.11254643176E+03 -0.47561713714E+03  0.92507486106E+03  0.15294330000E+03 0.  0.
<mgrwt>
<rscale>  0 0.79344303E+03</rscale>
<asrwt>0</asrwt>
<pdfrwt beam="1">  1        2 0.44468920E+00 0.79344303E+03</pdfrwt>
<pdfrwt beam="2">  1       -2 0.45629404E-01 0.79344303E+03</pdfrwt>
<totfact> 0.97579614E+00</totfact>
</mgrwt>
</event>
<event>
 4    1  0.3365401E-008  0.1897396E+03  0.7818608E-02  0.1158696E+00
         -2   -1    0    0    0  501 -0.00000000000E+00  0.00000000000E+00  0.17684429412E+03  0.17684429413E+03  0.25500000000E-02 0.  1.
          2   -1    0    0  501    0  0.00000000000E+00 -0.00000000000E+00 -0.15308743233E+04  0.15308743233E+04  0.25500000000E-02 0. -1.
    8880022    1    1    2    0    0 -0.27367314379E+02  0.10890587921E+03 -0.14720769305E+04  0.14842545613E+04  0.15294330000E+03 0. -1.
    8880022    1    1    2    0    0  0.27367314379E+02 -0.10890587921E+03  0.11804690137E+03  0.22346405608E+03  0.15294330000E+03 0.  0.
<mgrwt>
<rscale>  0 0.18973959E+03</rscale>
<asrwt>0</asrwt>
<pdfrwt beam="1">  1        2 0.23551912E+00 0.18973959E+03</pdfrwt>
<pdfrwt beam="2">  1       -2 0.27206815E-01 0.18973959E+03</pdfrwt>
<totfact> 0.16550200E+02</totfact>
</mgrwt>
</event>
<event>
 4    1  0.3365401E-008  0.6883240E+03  0.7818608E-02  0.9737411E-01
          2   -1    0    0  501    0  0.00000000000E+00  0.00000000000E+00  0.47766850098E+03  0.47766850098E+03  0.25500000000E-02 0. -1.
         -2   -1    0    0    0  501 -0.00000000000E+00 -0.00000000000E+00 -0.21431469776E+04  0.21431469776E+04  0.25500000000E-02 0.  1.
    8880022    1    1    2    0    0 -0.65934868502E+03  0.12513049404E+03 -0.17931752514E+04  0.19207465903E+04  0.15294330000E+03 0.  0.
    8880022    1    1    2    0    0  0.65934868502E+03 -0.12513049404E+03  0.12769677480E+03  0.70006888824E+03  0.15294330000E+03 0.  0.
<mgrwt>
<rscale>  0 0.68832404E+03</rscale>
<asrwt>0</asrwt>
<pdfrwt beam="1">  1        2 0.73487463E-01 0.68832404E+03</pdfrwt>
<pdfrwt beam="2">  1       -2 0.32971491E+00 0.68832404E+03</pdfrwt>
<totfact> 0.14351310E+00</totfact>
</mgrwt>
</event>
<event>
 4    1  0.3365401E-008  0.4381846E+03  0.7818608E-02  0.1031305E+00
          2   -1    0    0  501    0  0.00000000000E+00  0.00000000000E+00  0.44287105607E+03  0.44287105608E+03  0.25500000000E-02 0. -1.
         -2   -1    0    0    0  501 -0.00000000000E+00 -0.00000000000E+00 -0.75935687894E+03  0.75935687894E+03  0.25500000000E-02 0.  1.
    8880022    1    1    2    0    0  0.23317037494E+03  0.33800248358E+03  0.23550246699E+03  0.49746071969E+03  0.15294330000E+03 0.  0.
    8880022    1    1    2    0    0 -0.23317037494E+03 -0.33800248358E+03 -0.55198828985E+03  0.70476721533E+03  0.15294330000E+03 0.  1.
<mgrwt>
<rscale>  0 0.43818461E+03</rscale>
<asrwt>0</asrwt>
<pdfrwt beam="1">  1        2 0.68134009E-01 0.43818461E+03</pdfrwt>
<pdfrwt beam="2">  1       -2 0.11682414E+00 0.43818461E+03</pdfrwt>
<totfact> 0.41782688E+01</totfact>
</mgrwt>
</event>
<event>
 4    1  0.3365401E-008  0.3366865E+03  0.7818608E-02  0.1068216E+00
         -2   -1    0    0    0  501 -0.00000000000E+00  0.00000000000E+00  0.33780006488E+03  0.33780006489E+03  0.25500000000E-02 0.  1.
          2   -1    0    0  501    0  0.00000000000E+00 -0.00000000000E+00 -0.63344462291E+03  0.63344462291E+03  0.25500000000E-02 0. -1.
    8880022    1    1    2    0    0 -0.25016060031E+03 -0.16548656446E+03 -0.48083153754E+03  0.58698956505E+03  0.15294330000E+03 0.  0.
    8880022    1    1    2    0    0  0.25016060031E+03  0.16548656446E+03  0.18518697951E+03  0.38425512275E+03  0.15294330000E+03 0.  1.
<mgrwt>
<rscale>  0 0.33668647E+03</rscale>
<asrwt>0</asrwt>
<pdfrwt beam="1">  1        2 0.97453018E-01 0.33668647E+03</pdfrwt>
<pdfrwt beam="2">  1       -2 0.51969241E-01 0.33668647E+03</pdfrwt>
<totfact> 0.16867189E+02</totfact>
</mgrwt>
</event>
<event>
 4    1  0.3365401E-008  0.8244201E+03  0.7818608E-02  0.9525328E-01
         -2   -1    0    0    0  501 -0.00000000000E+00  0.00000000000E+00  0.83452588593E+03  0.83452588594E+03  0.25500000000E-02 0.  1.
          2   -1    0    0  501    0  0.00000000000E+00 -0.00000000000E+00 -0.10091817845E+04  0.10091817845E+04  0.25500000000E-02 0. -1.
    8880022    1    1    2    0    0 -0.39757193064E+02  0.80913296122E+03  0.31763073255E+03  0.88349177620E+03  0.15294330000E+03 0.  0.
    8880022    1    1    2    0    0  0.39757193064E+02 -0.80913296122E+03 -0.49228663108E+03  0.96021589421E+03  0.15294330000E+03 0.  0.
<mgrwt>
<rscale>  0 0.82442006E+03</rscale>
<asrwt>0</asrwt>
<pdfrwt beam="1">  1        2 0.15525874E+00 0.82442006E+03</pdfrwt>
<pdfrwt beam="2">  1       -2 0.12838860E+00 0.82442006E+03</pdfrwt>
<totfact> 0.11237929E+01</totfact>
</mgrwt>
</event>
<event>
 4    1  0.3365401E-008  0.5347796E+03  0.7818608E-02  0.1005080E+00
         -2   -1    0    0    0  501 -0.00000000000E+00  0.00000000000E+00  0.32135776479E+03  0.32135776480E+03  0.25500000000E-02 0.  1.
          2   -1    0    0  501    0  0.00000000000E+00 -0.00000000000E+00 -0.10696814478E+04  0.10696814478E+04  0.25500000000E-02 0. -1.
    8880022    1    1    2    0    0  0.44111882481E+03  0.26079065441E+03 -0.89056166953E+02  0.54214411084E+03  0.15294330000E+03 0.  0.
    8880022    1    1    2    0    0 -0.44111882481E+03 -0.26079065441E+03 -0.65926751603E+03  0.84889510173E+03  0.15294330000E+03 0.  0.
<mgrwt>
<rscale>  0 0.53477961E+03</rscale>
<asrwt>0</asrwt>
<pdfrwt beam="1">  1        2 0.16456637E+00 0.53477961E+03</pdfrwt>
<pdfrwt beam="2">  1       -2 0.49439657E-01 0.53477961E+03</pdfrwt>
<totfact> 0.91165657E+01</totfact>
</mgrwt>
</event>
<event>
 4    1  0.3365401E-008  0.1745223E+03  0.7818608E-02  0.1173212E+00
         -2   -1    0    0    0  501 -0.00000000000E+00  0.00000000000E+00  0.59170889054E+02  0.59170889109E+02  0.25500000000E-02 0.  1.
          2   -1    0    0  501    0  0.00000000000E+00 -0.00000000000E+00 -0.10446467843E+04  0.10446467843E+04  0.25500000000E-02 0. -1.
    8880022    1    1    2    0    0 -0.84055750131E+02 -0.10094647960E+01 -0.88581660033E+03  0.90284499809E+03  0.15294330000E+03 0. -1.
    8880022    1    1    2    0    0  0.84055750131E+02  0.10094647960E+01 -0.99659294932E+02  0.20097267533E+03  0.15294330000E+03 0.  0.
<mgrwt>
<rscale>  0 0.17452232E+03</rscale>
<asrwt>0</asrwt>
<pdfrwt beam="1">  1        2 0.16071488E+00 0.17452232E+03</pdfrwt>
<pdfrwt beam="2">  1       -2 0.91032145E-02 0.17452232E+03</pdfrwt>
<totfact> 0.18950980E+03</totfact>
</mgrwt>
</event>
<event>
 4    1  0.3365401E-008  0.2736857E+03  0.7818608E-02  0.1099189E+00
          2   -1    0    0  501    0  0.00000000000E+00  0.00000000000E+00  0.42979926108E+03  0.42979926109E+03  0.25500000000E-02 0. -1.
         -2   -1    0    0    0  501 -0.00000000000E+00 -0.00000000000E+00 -0.54597998807E+03  0.54597998807E+03  0.25500000000E-02 0.  1.
    8880022    1    1    2    0    0 -0.32071546588E+02  0.22468563795E+03  0.34447053615E+03  0.43995888818E+03  0.15294330000E+03 0.  0.
    8880022    1    1    2    0    0  0.32071546588E+02 -0.22468563795E+03 -0.46065126313E+03  0.53582036098E+03  0.15294330000E+03 0.  0.
<mgrwt>
<rscale>  0 0.27368572E+03</rscale>
<asrwt>0</asrwt>
<pdfrwt beam="1">  1        2 0.66122963E-01 0.27368572E+03</pdfrwt>
<pdfrwt beam="2">  1       -2 0.83996922E-01 0.27368572E+03</pdfrwt>
<totfact> 0.95184392E+01</totfact>
</mgrwt>
</event>
<event>
 4    1  0.3365401E-008  0.5096988E+03  0.7818608E-02  0.1011278E+00
         -2   -1    0    0    0  501 -0.00000000000E+00  0.00000000000E+00  0.10289878354E+04  0.10289878354E+04  0.25500000000E-02 0.  1.
          2   -1    0    0  501    0  0.00000000000E+00 -0.00000000000E+00 -0.76996011758E+03  0.76996011759E+03  0.25500000000E-02 0. -1.
    8880022    1    1    2    0    0  0.24626372927E+03  0.41923195258E+03 -0.60788717932E+03  0.79329674789E+03  0.15294330000E+03 0.  0.
    8880022    1    1    2    0    0 -0.24626372927E+03 -0.41923195258E+03  0.86691489715E+03  0.10056512051E+04  0.15294330000E+03 0.  0.
<mgrwt>
<rscale>  0 0.50969884E+03</rscale>
<asrwt>0</asrwt>
<pdfrwt beam="1">  1        2 0.11845540E+00 0.50969884E+03</pdfrwt>
<pdfrwt beam="2">  1       -2 0.15830582E+00 0.50969884E+03</pdfrwt>
<totfact> 0.98714347E+00</totfact>
</mgrwt>
</event>
<event>
 4    1  0.3851190E-008  0.6803256E+03  0.7818608E-02  0.9751482E-01
         -2   -1    0    0    0  501 -0.00000000000E+00  0.00000000000E+00  0.15400404711E+04  0.15400404711E+04  0.25500000000E-02 0.  1.
          2   -1    0    0  501    0  0.00000000000E+00 -0.00000000000E+00 -0.10142980082E+04  0.10142980082E+04  0.25500000000E-02 0. -1.
    8880022    1    1    2    0    0 -0.23014653811E+03  0.62167820632E+03  0.13342458078E+04  0.14976831273E+04  0.15294330000E+03 0.  0.
    8880022    1    1    2    0    0  0.23014653811E+03 -0.62167820632E+03 -0.80850334487E+03  0.10566553520E+04  0.15294330000E+03 0.  0.
<mgrwt>
<rscale>  0 0.68032556E+03</rscale>
<asrwt>0</asrwt>
<pdfrwt beam="1">  1        2 0.15604585E+00 0.68032556E+03</pdfrwt>
<pdfrwt beam="2">  1       -2 0.23692930E+00 0.68032556E+03</pdfrwt>
<totfact> 0.19926768E+00</totfact>
</mgrwt>
</event>
<event>
 4    1  0.3365401E-008  0.3555276E+03  0.7818608E-02  0.1060369E+00
          2   -1    0    0  501    0  0.00000000000E+00  0.00000000000E+00  0.95819652753E+03  0.95819652754E+03  0.25500000000E-02 0. -1.
         -2   -1    0    0    0  501 -0.00000000000E+00 -0.00000000000E+00 -0.58815520923E+03  0.58815520923E+03  0.25500000000E-02 0.  1.
    8880022    1    1    2    0    0  0.13370343205E+02  0.32067030263E+03  0.86599290216E+03  0.93613223888E+03  0.15294330000E+03 0. -1.
    8880022    1    1    2    0    0 -0.13370343205E+02 -0.32067030263E+03 -0.49595158385E+03  0.61021949789E+03  0.15294330000E+03 0.  0.
<mgrwt>
<rscale>  0 0.35552758E+03</rscale>
<asrwt>0</asrwt>
<pdfrwt beam="1">  1        2 0.14741485E+00 0.35552758E+03</pdfrwt>
<pdfrwt beam="2">  1       -2 0.90485417E-01 0.35552758E+03</pdfrwt>
<totfact> 0.30003438E+01</totfact>
</mgrwt>
</event>
<event>
 4    1  0.5002228E-008  0.6863655E+03  0.7818608E-02  0.9740837E-01
         -2   -1    0    0    0  501 -0.00000000000E+00  0.00000000000E+00  0.96576112053E+03  0.96576112054E+03  0.25500000000E-02 0.  1.
          2   -1    0    0  501    0  0.00000000000E+00 -0.00000000000E+00 -0.17835910049E+04  0.17835910049E+04  0.25500000000E-02 0. -1.
    8880022    1    1    2    0    0 -0.41513376182E+02 -0.66781923677E+03 -0.15806254925E+04  0.17232163224E+04  0.15294330000E+03 0.  0.
    8880022    1    1    2    0    0  0.41513376182E+02  0.66781923677E+03  0.76279560812E+03  0.10261358030E+04  0.15294330000E+03 0.  0.
<mgrwt>
<rscale>  0 0.68636546E+03</rscale>
<asrwt>0</asrwt>
<pdfrwt beam="1">  1        2 0.27439862E+00 0.68636546E+03</pdfrwt>
<pdfrwt beam="2">  1       -2 0.14857863E+00 0.68636546E+03</pdfrwt>
<totfact> 0.28281309E+00</totfact>
</mgrwt>
</event>
<event>
 4    1  0.3365401E-008  0.3414803E+03  0.7818608E-02  0.1066167E+00
         -2   -1    0    0    0  501 -0.00000000000E+00  0.00000000000E+00  0.15011530359E+03  0.15011530362E+03  0.25500000000E-02 0.  1.
          2   -1    0    0  501    0  0.00000000000E+00 -0.00000000000E+00 -0.18596867084E+04  0.18596867084E+04  0.25500000000E-02 0. -1.
    8880022    1    1    2    0    0  0.15990213917E+02 -0.30489582002E+03 -0.16216101022E+04  0.16571747417E+04  0.15294330000E+03 0.  0.
    8880022    1    1    2    0    0 -0.15990213917E+02  0.30489582002E+03 -0.87961302637E+02  0.35262727033E+03  0.15294330000E+03 0.  1.
<mgrwt>
<rscale>  0 0.34148031E+03</rscale>
<asrwt>0</asrwt>
<pdfrwt beam="1">  1        2 0.28610563E+00 0.34148031E+03</pdfrwt>
<pdfrwt beam="2">  1       -2 0.23094663E-01 0.34148031E+03</pdfrwt>
<totfact> 0.14286518E+02</totfact>
</mgrwt>
</event>
<event>
 4    1  0.3365401E-008  0.1726740E+03  0.7818608E-02  0.1175088E+00
         -2   -1    0    0    0  501 -0.00000000000E+00  0.00000000000E+00  0.12157981116E+03  0.12157981119E+03  0.25500000000E-02 0.  1.
          2   -1    0    0  501    0  0.00000000000E+00 -0.00000000000E+00 -0.83283164303E+03  0.83283164304E+03  0.25500000000E-02 0. -1.
    8880022    1    1    2    0    0 -0.25265395917E+02  0.76067830717E+02  0.45208141537E+02  0.17849393317E+03  0.15294330000E+03 0.  0.
    8880022    1    1    2    0    0  0.25265395917E+02 -0.76067830717E+02 -0.75645997341E+03  0.77591752106E+03  0.15294330000E+03 0. -1.
<mgrwt>
<rscale>  0 0.17267399E+03</rscale>
<asrwt>0</asrwt>
<pdfrwt beam="1">  1        2 0.12812794E+00 0.17267399E+03</pdfrwt>
<pdfrwt beam="2">  1       -2 0.18704587E-01 0.17267399E+03</pdfrwt>
<totfact> 0.79930982E+02</totfact>
</mgrwt>
</event>
<event>
 4    1  0.3365401E-008  0.2411970E+03  0.7818608E-02  0.1118998E+00
          2   -1    0    0  501    0  0.00000000000E+00  0.00000000000E+00  0.27390976851E+04  0.27390976851E+04  0.25500000000E-02 0. -1.
         -2   -1    0    0    0  501 -0.00000000000E+00 -0.00000000000E+00 -0.49075544494E+02  0.49075544560E+02  0.25500000000E-02 0.  1.
    8880022    1    1    2    0    0  0.16247931199E+03 -0.91568702144E+02  0.23949498310E+04  0.24070647478E+04  0.15294330000E+03 0.  0.
    8880022    1    1    2    0    0 -0.16247931199E+03  0.91568702144E+02  0.29507230957E+03  0.38110848184E+03  0.15294330000E+03 0.  1.
<mgrwt>
<rscale>  0 0.24119703E+03</rscale>
<asrwt>0</asrwt>
<pdfrwt beam="1">  1        2 0.42139967E+00 0.24119703E+03</pdfrwt>
<pdfrwt beam="2">  1       -2 0.75500833E-02 0.24119703E+03</pdfrwt>
<totfact> 0.30847832E+02</totfact>
</mgrwt>
</event>
<event>
 4    1  0.3365401E-008  0.9871137E+03  0.7818608E-02  0.9322792E-01
          2   -1    0    0  501    0  0.00000000000E+00  0.00000000000E+00  0.78426093949E+03  0.78426093949E+03  0.25500000000E-02 0. -1.
         -2   -1    0    0    0  501 -0.00000000000E+00 -0.00000000000E+00 -0.14588494646E+04  0.14588494646E+04  0.25500000000E-02 0.  1.
    8880022    1    1    2    0    0 -0.53105411780E+03 -0.81791402989E+03 -0.76926888892E+03  0.12514663850E+04  0.15294330000E+03 0.  0.
    8880022    1    1    2    0    0  0.53105411780E+03  0.81791402989E+03  0.94680363797E+02  0.99164401910E+03  0.15294330000E+03 0.  0.
<mgrwt>
<rscale>  0 0.98711372E+03</rscale>
<asrwt>0</asrwt>
<pdfrwt beam="1">  1        2 0.12065553E+00 0.98711372E+03</pdfrwt>
<pdfrwt beam="2">  1       -2 0.22443838E+00 0.98711372E+03</pdfrwt>
<totfact> 0.32644960E+00</totfact>
</mgrwt>
</event>
<event>
 4    1  0.3365401E-008  0.1020914E+04  0.7818608E-02  0.9285900E-01
          2   -1    0    0  501    0  0.00000000000E+00  0.00000000000E+00  0.23353437681E+04  0.23353437681E+04  0.25500000000E-02 0. -1.
         -2   -1    0    0    0  501 -0.00000000000E+00 -0.00000000000E+00 -0.11883950667E+04  0.11883950667E+04  0.25500000000E-02 0.  1.
    8880022    1    1    2    0    0  0.98985488029E+03  0.19763834844E+03  0.19657425468E+04  0.22150415378E+04  0.15294330000E+03 0.  0.
    8880022    1    1    2    0    0 -0.98985488029E+03 -0.19763834844E+03 -0.81879384537E+03  0.13086972969E+04  0.15294330000E+03 0.  0.
<mgrwt>
<rscale>  0 0.10209139E+04</rscale>
<asrwt>0</asrwt>
<pdfrwt beam="1">  1        2 0.35928365E+00 0.10209139E+04</pdfrwt>
<pdfrwt beam="2">  1       -2 0.18283001E+00 0.10209139E+04</pdfrwt>
<totfact> 0.75016314E-01</totfact>
</mgrwt>
</event>
<event>
 4    1  0.3365401E-008  0.5495517E+03  0.7818608E-02  0.1001598E+00
          2   -1    0    0  501    0  0.00000000000E+00  0.00000000000E+00  0.68625561804E+03  0.68625561804E+03  0.25500000000E-02 0. -1.
         -2   -1    0    0    0  501 -0.00000000000E+00 -0.00000000000E+00 -0.85345056700E+03  0.85345056701E+03  0.25500000000E-02 0.  1.
    8880022    1    1    2    0    0  0.49525739057E+03 -0.18258031223E+03 -0.61938013194E+03  0.82803312384E+03  0.15294330000E+03 0.  0.
    8880022    1    1    2    0    0 -0.49525739057E+03  0.18258031223E+03  0.45218518297E+03  0.71167306120E+03  0.15294330000E+03 0.  0.
<mgrwt>
<rscale>  0 0.54955173E+03</rscale>
<asrwt>0</asrwt>
<pdfrwt beam="1">  1        2 0.10557779E+00 0.54955173E+03</pdfrwt>
<pdfrwt beam="2">  1       -2 0.13130009E+00 0.54955173E+03</pdfrwt>
<totfact> 0.18448496E+01</totfact>
</mgrwt>
</event>
<event>
 4    1  0.3538770E-008  0.9797986E+03  0.7818608E-02  0.9330983E-01
          2   -1    0    0  501    0  0.00000000000E+00  0.00000000000E+00  0.22418674840E+04  0.22418674840E+04  0.25500000000E-02 0. -1.
         -2   -1    0    0    0  501 -0.00000000000E+00 -0.00000000000E+00 -0.15283969739E+04  0.15283969739E+04  0.25500000000E-02 0.  1.
    8880022    1    1    2    0    0  0.96604565415E+03 -0.58047512188E+02  0.19561298954E+04  0.21877955892E+04  0.15294330000E+03 0.  0.
    8880022    1    1    2    0    0 -0.96604565415E+03  0.58047512188E+02 -0.12426593853E+04  0.15824688687E+04  0.15294330000E+03 0.  0.
<mgrwt>
<rscale>  0 0.97979864E+03</rscale>
<asrwt>0</asrwt>
<pdfrwt beam="1">  1        2 0.34490269E+00 0.97979864E+03</pdfrwt>
<pdfrwt beam="2">  1       -2 0.23513799E+00 0.97979864E+03</pdfrwt>
<totfact> 0.39175040E-01</totfact>
</mgrwt>
</event>
<event>
 4    1  0.3365401E-008  0.4063715E+03  0.7818608E-02  0.1041596E+00
          2   -1    0    0  501    0  0.00000000000E+00  0.00000000000E+00  0.25872212261E+04  0.25872212261E+04  0.25500000000E-02 0. -1.
         -2   -1    0    0    0  501 -0.00000000000E+00 -0.00000000000E+00 -0.54708332551E+03  0.54708332552E+03  0.25500000000E-02 0.  1.
    8880022    1    1    2    0    0 -0.32945334499E+03 -0.18222684939E+03 -0.45282905471E+03  0.60843400379E+03  0.15294330000E+03 0.  0.
    8880022    1    1    2    0    0  0.32945334499E+03  0.18222684939E+03  0.24929669553E+04  0.25258705479E+04  0.15294330000E+03 0. -1.
<mgrwt>
<rscale>  0 0.40637149E+03</rscale>
<asrwt>0</asrwt>
<pdfrwt beam="1">  1        2 0.39803404E+00 0.40637149E+03</pdfrwt>
<pdfrwt beam="2">  1       -2 0.84166665E-01 0.40637149E+03</pdfrwt>
<totfact> 0.43826818E+00</totfact>
</mgrwt>
</event>
<event>
 4    1  0.3365401E-008  0.3670574E+03  0.7818608E-02  0.1055824E+00
          2   -1    0    0  501    0  0.00000000000E+00  0.00000000000E+00  0.66695964230E+03  0.66695964231E+03  0.25500000000E-02 0. -1.
         -2   -1    0    0    0  501 -0.00000000000E+00 -0.00000000000E+00 -0.98867193987E+03  0.98867193987E+03  0.25500000000E-02 0.  1.
    8880022    1    1    2    0    0  0.32172575779E+03 -0.88498728793E+02  0.57756179443E+03  0.68433089044E+03  0.15294330000E+03 0.  0.
    8880022    1    1    2    0    0 -0.32172575779E+03  0.88498728793E+02 -0.89927409199E+03  0.97130069173E+03  0.15294330000E+03 0.  0.
<mgrwt>
<rscale>  0 0.36705741E+03</rscale>
<asrwt>0</asrwt>
<pdfrwt beam="1">  1        2 0.10260918E+00 0.36705741E+03</pdfrwt>
<pdfrwt beam="2">  1       -2 0.15210338E+00 0.36705741E+03</pdfrwt>
<totfact> 0.13489414E+01</totfact>
</mgrwt>
</event>
<event>
 4    1  0.3365401E-008  0.3176076E+03  0.7818608E-02  0.1076756E+00
          2   -1    0    0  501    0  0.00000000000E+00  0.00000000000E+00  0.15476740943E+04  0.15476740943E+04  0.25500000000E-02 0. -1.
         -2   -1    0    0    0  501 -0.00000000000E+00 -0.00000000000E+00 -0.19356983660E+04  0.19356983660E+04  0.25500000000E-02 0.  1.
    8880022    1    1    2    0    0  0.13476700627E+03 -0.24355859628E+03  0.15181002758E+04  0.15509684188E+04  0.15294330000E+03 0.  0.
    8880022    1    1    2    0    0 -0.13476700627E+03  0.24355859628E+03 -0.19061245475E+04  0.19324040414E+04  0.15294330000E+03 0.  1.
<mgrwt>
<rscale>  0 0.31760760E+03</rscale>
<asrwt>0</asrwt>
<pdfrwt beam="1">  1        2 0.23810371E+00 0.31760760E+03</pdfrwt>
<pdfrwt beam="2">  1       -2 0.29779975E+00 0.31760760E+03</pdfrwt>
<totfact> 0.47984270E-01</totfact>
</mgrwt>
</event>
<event>
 4    1  0.3365401E-008  0.2807700E+04  0.7818608E-02  0.8300882E-01
          2   -1    0    0  501    0  0.00000000000E+00  0.00000000000E+00  0.29007439744E+04  0.29007439744E+04  0.25500000000E-02 0. -1.
         -2   -1    0    0    0  501 -0.00000000000E+00 -0.00000000000E+00 -0.27548777658E+04  0.27548777658E+04  0.25500000000E-02 0.  1.
    8880022    1    1    2    0    0  0.12990925936E+04 -0.24843808573E+04  0.40169671743E+03  0.28362901327E+04  0.15294330000E+03 0.  0.
    8880022    1    1    2    0    0 -0.12990925936E+04  0.24843808573E+04 -0.25583050879E+03  0.28193316075E+04  0.15294330000E+03 0.  0.
<mgrwt>
<rscale>  0 0.28077004E+04</rscale>
<asrwt>0</asrwt>
<pdfrwt beam="1">  1        2 0.44626830E+00 0.28077004E+04</pdfrwt>
<pdfrwt beam="2">  1       -2 0.42382735E+00 0.28077004E+04</pdfrwt>
<totfact> 0.84211511E-03</totfact>
</mgrwt>
</event>
<event>
 4    1  0.3365401E-008  0.4708681E+03  0.7818608E-02  0.1021675E+00
         -2   -1    0    0    0  501 -0.00000000000E+00  0.00000000000E+00  0.64132596344E+03  0.64132596344E+03  0.25500000000E-02 0.  1.
          2   -1    0    0  501    0  0.00000000000E+00 -0.00000000000E+00 -0.75473136083E+03  0.75473136083E+03  0.25500000000E-02 0. -1.
    8880022    1    1    2    0    0  0.43795103906E+03  0.80771026564E+02 -0.57056505343E+03  0.73977104874E+03  0.15294330000E+03 0.  0.
    8880022    1    1    2    0    0 -0.43795103906E+03 -0.80771026564E+02  0.45715965604E+03  0.65628627554E+03  0.15294330000E+03 0.  1.
<mgrwt>
<rscale>  0 0.47086805E+03</rscale>
<asrwt>0</asrwt>
<pdfrwt beam="1">  1        2 0.11611252E+00 0.47086805E+03</pdfrwt>
<pdfrwt beam="2">  1       -2 0.98665532E-01 0.47086805E+03</pdfrwt>
<totfact> 0.33127633E+01</totfact>
</mgrwt>
</event>
<event>
 4    1  0.3365401E-008  0.6559069E+03  0.7818608E-02  0.9795758E-01
         -2   -1    0    0    0  501 -0.00000000000E+00  0.00000000000E+00  0.20306157421E+03  0.20306157422E+03  0.25500000000E-02 0.  1.
          2   -1    0    0  501    0  0.00000000000E+00 -0.00000000000E+00 -0.24629205857E+04  0.24629205857E+04  0.25500000000E-02 0. -1.
    8880022    1    1    2    0    0 -0.48529367897E+03 -0.41389885069E+03 -0.16283086736E+04  0.17554495159E+04  0.15294330000E+03 0.  0.
    8880022    1    1    2    0    0  0.48529367897E+03  0.41389885069E+03 -0.63155033790E+03  0.91053264399E+03  0.15294330000E+03 0.  0.
<mgrwt>
<rscale>  0 0.65590690E+03</rscale>
<asrwt>0</asrwt>
<pdfrwt beam="1">  1        2 0.37891084E+00 0.65590690E+03</pdfrwt>
<pdfrwt beam="2">  1       -2 0.31240244E-01 0.65590690E+03</pdfrwt>
<totfact> 0.36711541E+01</totfact>
</mgrwt>
</event>
<event>
 4    1  0.3365401E-008  0.3519620E+03  0.7818608E-02  0.1061813E+00
          2   -1    0    0  501    0  0.00000000000E+00  0.00000000000E+00  0.21814793212E+04  0.21814793212E+04  0.25500000000E-02 0. -1.
         -2   -1    0    0    0  501 -0.00000000000E+00 -0.00000000000E+00 -0.90074524112E+02  0.90074524148E+02  0.25500000000E-02 0.  1.
    8880022    1    1    2    0    0  0.25824812043E+03 -0.18383004143E+03  0.35523991256E+03  0.50007261905E+03  0.15294330000E+03 0. -1.
    8880022    1    1    2    0    0 -0.25824812043E+03  0.18383004143E+03  0.17361648845E+04  0.17714812263E+04  0.15294330000E+03 0.  0.
<mgrwt>
<rscale>  0 0.35196197E+03</rscale>
<asrwt>0</asrwt>
<pdfrwt beam="1">  1        2 0.33561222E+00 0.35196197E+03</pdfrwt>
<pdfrwt beam="2">  1       -2 0.13857618E-01 0.35196197E+03</pdfrwt>
<totfact> 0.22938279E+02</totfact>
</mgrwt>
</event>
<event>
 4    1  0.3365401E-008  0.6095668E+03  0.7818608E-02  0.9885754E-01
          2   -1    0    0  501    0  0.00000000000E+00  0.00000000000E+00  0.16848941616E+04  0.16848941616E+04  0.25500000000E-02 0. -1.
         -2   -1    0    0    0  501 -0.00000000000E+00 -0.00000000000E+00 -0.23634438226E+03  0.23634438227E+03  0.25500000000E-02 0.  1.
    8880022    1    1    2    0    0 -0.46799783867E+03 -0.35938570399E+03  0.47579661042E+03  0.77327493735E+03  0.15294330000E+03 0.  0.
    8880022    1    1    2    0    0  0.46799783867E+03  0.35938570399E+03  0.97275316890E+03  0.11479636065E+04  0.15294330000E+03 0.  0.
<mgrwt>
<rscale>  0 0.60956683E+03</rscale>
<asrwt>0</asrwt>
<pdfrwt beam="1">  1        2 0.25921449E+00 0.60956683E+03</pdfrwt>
<pdfrwt beam="2">  1       -2 0.36360674E-01 0.60956683E+03</pdfrwt>
<totfact> 0.73960165E+01</totfact>
</mgrwt>
</event>
<event>
 4    1  0.3365401E-008  0.6436280E+03  0.7818608E-02  0.9818810E-01
         -2   -1    0    0    0  501 -0.00000000000E+00  0.00000000000E+00  0.77136342608E+03  0.77136342609E+03  0.25500000000E-02 0.  1.
          2   -1    0    0  501    0  0.00000000000E+00 -0.00000000000E+00 -0.81806801830E+03  0.81806801831E+03  0.25500000000E-02 0. -1.
    8880022    1    1    2    0    0 -0.59584821036E+03 -0.18928887309E+03 -0.48913986662E+03  0.80840264064E+03  0.15294330000E+03 0.  0.
    8880022    1    1    2    0    0  0.59584821036E+03  0.18928887309E+03  0.44243527439E+03  0.78102880376E+03  0.15294330000E+03 0.  0.
<mgrwt>
<rscale>  0 0.64362801E+03</rscale>
<asrwt>0</asrwt>
<pdfrwt beam="1">  1        2 0.12585662E+00 0.64362801E+03</pdfrwt>
<pdfrwt beam="2">  1       -2 0.11867130E+00 0.64362801E+03</pdfrwt>
<totfact> 0.18733198E+01</totfact>
</mgrwt>
</event>
<event>
 4    1  0.3365401E-008  0.9289399E+03  0.7818608E-02  0.9390111E-01
          2   -1    0    0  501    0  0.00000000000E+00  0.00000000000E+00  0.18849193033E+04  0.18849193033E+04  0.25500000000E-02 0. -1.
         -2   -1    0    0    0  501 -0.00000000000E+00 -0.00000000000E+00 -0.56073392548E+03  0.56073392549E+03  0.25500000000E-02 0.  1.
    8880022    1    1    2    0    0 -0.39493779665E+02 -0.91541132066E+03  0.13818965361E+03  0.93916222135E+03  0.15294330000E+03 0.  0.
    8880022    1    1    2    0    0  0.39493779665E+02  0.91541132066E+03  0.11859957242E+04  0.15064910074E+04  0.15294330000E+03 0.  0.
<mgrwt>
<rscale>  0 0.92893988E+03</rscale>
<asrwt>0</asrwt>
<pdfrwt beam="1">  1        2 0.28998758E+00 0.92893988E+03</pdfrwt>
<pdfrwt beam="2">  1       -2 0.86266758E-01 0.92893988E+03</pdfrwt>
<totfact> 0.90934975E+00</totfact>
</mgrwt>
</event>
<event>
 4    1  0.3365401E-008  0.5463910E+03  0.7818608E-02  0.1002333E+00
          2   -1    0    0  501    0  0.00000000000E+00  0.00000000000E+00  0.27267785702E+04  0.27267785702E+04  0.25500000000E-02 0. -1.
         -2   -1    0    0    0  501 -0.00000000000E+00 -0.00000000000E+00 -0.14261857568E+03  0.14261857570E+03  0.25500000000E-02 0.  1.
    8880022    1    1    2    0    0  0.70942521514E+02 -0.51972934840E+03  0.19835965724E+04  0.20574738035E+04  0.15294330000E+03 0.  0.
    8880022    1    1    2    0    0 -0.70942521514E+02  0.51972934840E+03  0.60056342207E+03  0.81192334237E+03  0.15294330000E+03 0.  0.
<mgrwt>
<rscale>  0 0.54639097E+03</rscale>
<asrwt>0</asrwt>
<pdfrwt beam="1">  1        2 0.41950438E+00 0.54639097E+03</pdfrwt>
<pdfrwt beam="2">  1       -2 0.21941320E-01 0.54639097E+03</pdfrwt>
<totfact> 0.50196260E+01</totfact>
</mgrwt>
</event>
<event>
 4    1  0.3365401E-008  0.1577947E+03  0.7818608E-02  0.1191209E+00
          2   -1    0    0  501    0  0.00000000000E+00  0.00000000000E+00  0.15673004655E+04  0.15673004655E+04  0.25500000000E-02 0. -1.
         -2   -1    0    0    0  501 -0.00000000000E+00 -0.00000000000E+00 -0.12102825079E+03  0.12102825081E+03  0.25500000000E-02 0.  1.
    8880022    1    1    2    0    0  0.37327046621E+02 -0.10687033037E+02  0.15099479704E+04  0.15181706252E+04  0.15294330000E+03 0.  0.
    8880022    1    1    2    0    0 -0.37327046621E+02  0.10687033037E+02 -0.63675755661E+02  0.17015809108E+03  0.15294330000E+03 0.  1.
<mgrwt>
<rscale>  0 0.15779472E+03</rscale>
<asrwt>0</asrwt>
<pdfrwt beam="1">  1        2 0.24112313E+00 0.15779472E+03</pdfrwt>
<pdfrwt beam="2">  1       -2 0.18619732E-01 0.15779472E+03</pdfrwt>
<totfact> 0.30823439E+02</totfact>
</mgrwt>
</event>
<event>
 4    1  0.3365401E-008  0.7860345E+03  0.7818608E-02  0.9580455E-01
         -2   -1    0    0    0  501 -0.00000000000E+00  0.00000000000E+00  0.26014161095E+03  0.26014161096E+03  0.25500000000E-02 0.  1.
          2   -1    0    0  501    0  0.00000000000E+00 -0.00000000000E+00 -0.27536041791E+04  0.27536041791E+04  0.25500000000E-02 0. -1.
    8880022    1    1    2    0    0  0.73229428371E+03  0.24125432979E+03 -0.68801937819E+03  0.10446151863E+04  0.15294330000E+03 0.  0.
    8880022    1    1    2    0    0 -0.73229428371E+03 -0.24125432979E+03 -0.18054431899E+04  0.19691306038E+04  0.15294330000E+03 0.  0.
<mgrwt>
<rscale>  0 0.78603449E+03</rscale>
<asrwt>0</asrwt>
<pdfrwt beam="1">  1        2 0.42363139E+00 0.78603449E+03</pdfrwt>
<pdfrwt beam="2">  1       -2 0.40021788E-01 0.78603449E+03</pdfrwt>
<totfact> 0.15266600E+01</totfact>
</mgrwt>
</event>
<event>
 4    1  0.3365401E-008  0.4245515E+03  0.7818608E-02  0.1035595E+00
          2   -1    0    0  501    0  0.00000000000E+00  0.00000000000E+00  0.11559141544E+04  0.11559141544E+04  0.25500000000E-02 0. -1.
         -2   -1    0    0    0  501 -0.00000000000E+00 -0.00000000000E+00 -0.17242491777E+03  0.17242491779E+03  0.25500000000E-02 0.  1.
    8880022    1    1    2    0    0 -0.36103609504E+03 -0.16280440965E+03  0.69715758634E+03  0.81625528539E+03  0.15294330000E+03 0.  0.
    8880022    1    1    2    0    0  0.36103609504E+03  0.16280440965E+03  0.28633165027E+03  0.51208378678E+03  0.15294330000E+03 0.  1.
<mgrwt>
<rscale>  0 0.42455152E+03</rscale>
<asrwt>0</asrwt>
<pdfrwt beam="1">  1        2 0.17783295E+00 0.42455152E+03</pdfrwt>
<pdfrwt beam="2">  1       -2 0.26526910E-01 0.42455152E+03</pdfrwt>
<totfact> 0.26809001E+02</totfact>
</mgrwt>
</event>
<event>
 4    1  0.3365401E-008  0.4377798E+03  0.7818608E-02  0.1031430E+00
         -2   -1    0    0    0  501 -0.00000000000E+00  0.00000000000E+00  0.23367957978E+03  0.23367957980E+03  0.25500000000E-02 0.  1.
          2   -1    0    0  501    0  0.00000000000E+00 -0.00000000000E+00 -0.23767152694E+04  0.23767152694E+04  0.25500000000E-02 0. -1.
    8880022    1    1    2    0    0  0.20625409579E+03 -0.35456843123E+03 -0.21277806150E+04  0.21723493096E+04  0.15294330000E+03 0.  0.
    8880022    1    1    2    0    0 -0.20625409579E+03  0.35456843123E+03 -0.15255074656E+02  0.43804553961E+03  0.15294330000E+03 0.  0.
<mgrwt>
<rscale>  0 0.43777983E+03</rscale>
<asrwt>0</asrwt>
<pdfrwt beam="1">  1        2 0.36564849E+00 0.43777983E+03</pdfrwt>
<pdfrwt beam="2">  1       -2 0.35950706E-01 0.43777983E+03</pdfrwt>
<totfact> 0.32862151E+01</totfact>
</mgrwt>
</event>
<event>
 4    1  0.3365401E-008  0.1560794E+03  0.7818608E-02  0.1193196E+00
         -2   -1    0    0    0  501 -0.00000000000E+00  0.00000000000E+00  0.11042795546E+03  0.11042795549E+03  0.25500000000E-02 0.  1.
          2   -1    0    0  501    0  0.00000000000E+00 -0.00000000000E+00 -0.11183882280E+04  0.11183882280E+04  0.25500000000E-02 0. -1.
    8880022    1    1    2    0    0  0.21031911673E+01 -0.31059521479E+02 -0.10544667855E+04  0.10659554269E+04  0.15294330000E+03 0.  0.
    8880022    1    1    2    0    0 -0.21031911673E+01  0.31059521479E+02  0.46506512977E+02  0.16286075664E+03  0.15294330000E+03 0.  1.
<mgrwt>
<rscale>  0 0.15607937E+03</rscale>
<asrwt>0</asrwt>
<pdfrwt beam="1">  1        2 0.17205972E+00 0.15607937E+03</pdfrwt>
<pdfrwt beam="2">  1       -2 0.16988917E-01 0.15607937E+03</pdfrwt>
<totfact> 0.62839004E+02</totfact>
</mgrwt>
</event>
<event>
 4    1  0.3365401E-008  0.2915358E+03  0.7818608E-02  0.1089550E+00
         -2   -1    0    0    0  501 -0.00000000000E+00  0.00000000000E+00  0.43318918884E+03  0.43318918885E+03  0.25500000000E-02 0.  1.
          2   -1    0    0  501    0  0.00000000000E+00 -0.00000000000E+00 -0.85807282353E+03  0.85807282354E+03  0.25500000000E-02 0. -1.
    8880022    1    1    2    0    0  0.62568201077E+02 -0.24018051752E+03 -0.77947506408E+03  0.83221060395E+03  0.15294330000E+03 0.  0.
    8880022    1    1    2    0    0 -0.62568201077E+02  0.24018051752E+03  0.35459142939E+03  0.45905140844E+03  0.15294330000E+03 0.  0.
<mgrwt>
<rscale>  0 0.29153578E+03</rscale>
<asrwt>0</asrwt>
<pdfrwt beam="1">  1        2 0.13201120E+00 0.29153578E+03</pdfrwt>
<pdfrwt beam="2">  1       -2 0.66644490E-01 0.29153578E+03</pdfrwt>
<totfact> 0.69294976E+01</totfact>
</mgrwt>
</event>
<event>
 4    1  0.3365401E-008  0.7782416E+03  0.7818608E-02  0.9592057E-01
          2   -1    0    0  501    0  0.00000000000E+00  0.00000000000E+00  0.37908319354E+04  0.37908319354E+04  0.25500000000E-02 0. -1.
         -2   -1    0    0    0  501 -0.00000000000E+00 -0.00000000000E+00 -0.38552773409E+03  0.38552773410E+03  0.25500000000E-02 0.  1.
    8880022    1    1    2    0    0 -0.22131047211E+03 -0.73026712054E+03  0.33005966364E+04  0.33911057491E+04  0.15294330000E+03 0.  0.
    8880022    1    1    2    0    0  0.22131047211E+03  0.73026712054E+03  0.10470756497E+03  0.78525392045E+03  0.15294330000E+03 0.  0.
<mgrwt>
<rscale>  0 0.77824164E+03</rscale>
<asrwt>0</asrwt>
<pdfrwt beam="1">  1        2 0.58320489E+00 0.77824164E+03</pdfrwt>
<pdfrwt beam="2">  1       -2 0.59311961E-01 0.77824164E+03</pdfrwt>
<totfact> 0.14489683E+00</totfact>
</mgrwt>
</event>
<event>
 4    1  0.3365401E-008  0.2871102E+03  0.7818608E-02  0.1091868E+00
          2   -1    0    0  501    0  0.00000000000E+00  0.00000000000E+00  0.12799457164E+04  0.12799457164E+04  0.25500000000E-02 0. -1.
         -2   -1    0    0    0  501 -0.00000000000E+00 -0.00000000000E+00 -0.34354988666E+03  0.34354988667E+03  0.25500000000E-02 0.  1.
    8880022    1    1    2    0    0  0.24173825926E+03 -0.24560618046E+02 -0.26351826741E+03  0.38971032861E+03  0.15294330000E+03 0.  0.
    8880022    1    1    2    0    0 -0.24173825926E+03  0.24560618046E+02  0.11999140972E+04  0.12337852745E+04  0.15294330000E+03 0.  0.
<mgrwt>
<rscale>  0 0.28711019E+03</rscale>
<asrwt>0</asrwt>
<pdfrwt beam="1">  1        2 0.19691472E+00 0.28711019E+03</pdfrwt>
<pdfrwt beam="2">  1       -2 0.52853830E-01 0.28711019E+03</pdfrwt>
<totfact> 0.62485423E+01</totfact>
</mgrwt>
</event>
<event>
 4    1  0.3365401E-008  0.2898563E+03  0.7818608E-02  0.1090424E+00
         -2   -1    0    0    0  501 -0.00000000000E+00  0.00000000000E+00  0.29608231288E+03  0.29608231290E+03  0.25500000000E-02 0.  1.
          2   -1    0    0  501    0  0.00000000000E+00 -0.00000000000E+00 -0.69597239215E+03  0.69597239215E+03  0.25500000000E-02 0. -1.
    8880022    1    1    2    0    0 -0.18599611848E+03 -0.16133951947E+03 -0.58168669244E+03  0.64990465286E+03  0.15294330000E+03 0.  0.
    8880022    1    1    2    0    0  0.18599611848E+03  0.16133951947E+03  0.18179661318E+03  0.34215005219E+03  0.15294330000E+03 0.  0.
<mgrwt>
<rscale>  0 0.28985626E+03</rscale>
<asrwt>0</asrwt>
<pdfrwt beam="1">  1        2 0.10707268E+00 0.28985626E+03</pdfrwt>
<pdfrwt beam="2">  1       -2 0.45551125E-01 0.28985626E+03</pdfrwt>
<totfact> 0.19686284E+02</totfact>
</mgrwt>
</event>
<event>
 4    1  0.3365401E-008  0.4777862E+03  0.7818608E-02  0.1019745E+00
         -2   -1    0    0    0  501 -0.00000000000E+00  0.00000000000E+00  0.20689303389E+03  0.20689303391E+03  0.25500000000E-02 0.  1.
          2   -1    0    0  501    0  0.00000000000E+00 -0.00000000000E+00 -0.19982782691E+04  0.19982782691E+04  0.25500000000E-02 0. -1.
    8880022    1    1    2    0    0  0.28341902469E+03  0.35293287652E+03 -0.16335519276E+04  0.17019904559E+04  0.15294330000E+03 0.  0.
    8880022    1    1    2    0    0 -0.28341902469E+03 -0.35293287652E+03 -0.15783330764E+03  0.50318084712E+03  0.15294330000E+03 0.  0.
<mgrwt>
<rscale>  0 0.47778616E+03</rscale>
<asrwt>0</asrwt>
<pdfrwt beam="1">  1        2 0.30742741E+00 0.47778616E+03</pdfrwt>
<pdfrwt beam="2">  1       -2 0.31829699E-01 0.47778616E+03</pdfrwt>
<totfact> 0.65700477E+01</totfact>
</mgrwt>
</event>
<event>
 4    1  0.3365401E-008  0.2333932E+03  0.7818608E-02  0.1124274E+00
         -2   -1    0    0    0  501 -0.00000000000E+00  0.00000000000E+00  0.17971219293E+03  0.17971219295E+03  0.25500000000E-02 0.  1.
          2   -1    0    0  501    0  0.00000000000E+00 -0.00000000000E+00 -0.71278607027E+03  0.71278607028E+03  0.25500000000E-02 0. -1.
    8880022    1    1    2    0    0 -0.19001435981E+02  0.17527032808E+03  0.71775973884E+02  0.24418064198E+03  0.15294330000E+03 0.  0.
    8880022    1    1    2    0    0  0.19001435981E+02 -0.17527032808E+03 -0.60484985123E+03  0.64831762125E+03  0.15294330000E+03 0. -1.
<mgrwt>
<rscale>  0 0.23339322E+03</rscale>
<asrwt>0</asrwt>
<pdfrwt beam="1">  1        2 0.10965939E+00 0.23339322E+03</pdfrwt>
<pdfrwt beam="2">  1       -2 0.27648030E-01 0.23339322E+03</pdfrwt>
<totfact> 0.49060975E+02</totfact>
</mgrwt>
</event>
<event>
 4    1  0.3365401E-008  0.3628072E+03  0.7818608E-02  0.1057478E+00
          2   -1    0    0  501    0  0.00000000000E+00  0.00000000000E+00  0.75844308169E+03  0.75844308169E+03  0.25500000000E-02 0. -1.
         -2   -1    0    0    0  501 -0.00000000000E+00 -0.00000000000E+00 -0.25749939155E+03  0.25749939157E+03  0.25500000000E-02 0.  1.
    8880022    1    1    2    0    0 -0.20712290316E+03 -0.25561204130E+03 -0.39566532363E+02  0.36495832114E+03  0.15294330000E+03 0.  0.
    8880022    1    1    2    0    0  0.20712290316E+03  0.25561204130E+03  0.54051022250E+03  0.65098415212E+03  0.15294330000E+03 0. -1.
<mgrwt>
<rscale>  0 0.36280720E+03</rscale>
<asrwt>0</asrwt>
<pdfrwt beam="1">  1        2 0.11668355E+00 0.36280720E+03</pdfrwt>
<pdfrwt beam="2">  1       -2 0.39615291E-01 0.36280720E+03</pdfrwt>
<totfact> 0.23043449E+02</totfact>
</mgrwt>
</event>
<event>
 4    1  0.3365401E-008  0.1472872E+04  0.7818608E-02  0.8902696E-01
         -2   -1    0    0    0  501 -0.00000000000E+00  0.00000000000E+00  0.10386745285E+04  0.10386745285E+04  0.25500000000E-02 0.  1.
          2   -1    0    0  501    0  0.00000000000E+00 -0.00000000000E+00 -0.33963371344E+04  0.33963371344E+04  0.25500000000E-02 0. -1.
    8880022    1    1    2    0    0 -0.90185904504E+03  0.11543878960E+04 -0.25548465598E+04  0.29489987705E+04  0.15294330000E+03 0.  0.
    8880022    1    1    2    0    0  0.90185904504E+03 -0.11543878960E+04  0.19718395394E+03  0.14860128923E+04  0.15294330000E+03 0.  0.
<mgrwt>
<rscale>  0 0.14728723E+04</rscale>
<asrwt>0</asrwt>
<pdfrwt beam="1">  1        2 0.52251340E+00 0.14728723E+04</pdfrwt>
<pdfrwt beam="2">  1       -2 0.15979608E+00 0.14728723E+04</pdfrwt>
<totfact> 0.23118611E-01</totfact>
</mgrwt>
</event>
<event>
 4    1  0.3365401E-008  0.4982358E+03  0.7818608E-02  0.1014240E+00
         -2   -1    0    0    0  501 -0.00000000000E+00  0.00000000000E+00  0.50424722016E+03  0.50424722016E+03  0.25500000000E-02 0.  1.
          2   -1    0    0  501    0  0.00000000000E+00 -0.00000000000E+00 -0.11456520905E+04  0.11456520905E+04  0.25500000000E-02 0. -1.
    8880022    1    1    2    0    0  0.42822428756E+03 -0.20364476225E+03 -0.94368522020E+03  0.10671366724E+04  0.15294330000E+03 0.  0.
    8880022    1    1    2    0    0 -0.42822428756E+03  0.20364476225E+03  0.30228034988E+03  0.58276263829E+03  0.15294330000E+03 0.  0.
<mgrwt>
<rscale>  0 0.49823577E+03</rscale>
<asrwt>0</asrwt>
<pdfrwt beam="1">  1        2 0.17625417E+00 0.49823577E+03</pdfrwt>
<pdfrwt beam="2">  1       -2 0.77576496E-01 0.49823577E+03</pdfrwt>
<totfact> 0.31771389E+01</totfact>
</mgrwt>
</event>
<event>
 4    1  0.3365401E-008  0.1311259E+04  0.7818608E-02  0.9020684E-01
          2   -1    0    0  501    0  0.00000000000E+00  0.00000000000E+00  0.11711025354E+04  0.11711025354E+04  0.25500000000E-02 0. -1.
         -2   -1    0    0    0  501 -0.00000000000E+00 -0.00000000000E+00 -0.18661542492E+04  0.18661542492E+04  0.25500000000E-02 0.  1.
    8880022    1    1    2    0    0  0.10545388131E+04  0.76416999970E+03  0.35376869683E+03  0.13581427910E+04  0.15294330000E+03 0.  0.
    8880022    1    1    2    0    0 -0.10545388131E+04 -0.76416999970E+03 -0.10488204106E+04  0.16791139936E+04  0.15294330000E+03 0.  0.
<mgrwt>
<rscale>  0 0.13112588E+04</rscale>
<asrwt>0</asrwt>
<pdfrwt beam="1">  1        2 0.18016962E+00 0.13112588E+04</pdfrwt>
<pdfrwt beam="2">  1       -2 0.28710065E+00 0.13112588E+04</pdfrwt>
<totfact> 0.72369331E-01</totfact>
</mgrwt>
</event>
<event>
 4    1  0.3365401E-008  0.1672994E+03  0.7818608E-02  0.1180694E+00
          2   -1    0    0  501    0  0.00000000000E+00  0.00000000000E+00  0.12754093684E+04  0.12754093684E+04  0.25500000000E-02 0. -1.
         -2   -1    0    0    0  501 -0.00000000000E+00 -0.00000000000E+00 -0.74104169194E+03  0.74104169195E+03  0.25500000000E-02 0.  1.
    8880022    1    1    2    0    0  0.55441202445E+02  0.39034851840E+02 -0.72600071730E+03  0.74502761098E+03  0.15294330000E+03 0.  0.
    8880022    1    1    2    0    0 -0.55441202445E+02 -0.39034851840E+02  0.12603683938E+04  0.12714234494E+04  0.15294330000E+03 0.  0.
<mgrwt>
<rscale>  0 0.16729943E+03</rscale>
<asrwt>0</asrwt>
<pdfrwt beam="1">  1        2 0.19621682E+00 0.16729943E+03</pdfrwt>
<pdfrwt beam="2">  1       -2 0.11400642E+00 0.16729943E+03</pdfrwt>
<totfact> 0.12163744E+01</totfact>
</mgrwt>
</event>
<event>
 4    1  0.3365401E-008  0.5474025E+03  0.7818608E-02  0.1002097E+00
          2   -1    0    0  501    0  0.00000000000E+00  0.00000000000E+00  0.18680479520E+04  0.18680479520E+04  0.25500000000E-02 0. -1.
         -2   -1    0    0    0  501 -0.00000000000E+00 -0.00000000000E+00 -0.20179724166E+03  0.20179724168E+03  0.25500000000E-02 0.  1.
    8880022    1    1    2    0    0  0.37880735076E+03 -0.36436636421E+03  0.36442540382E+03  0.65761340035E+03  0.15294330000E+03 0.  0.
    8880022    1    1    2    0    0 -0.37880735076E+03  0.36436636421E+03  0.13018253065E+04  0.14122317933E+04  0.15294330000E+03 0.  0.
<mgrwt>
<rscale>  0 0.54740251E+03</rscale>
<asrwt>0</asrwt>
<pdfrwt beam="1">  1        2 0.28739200E+00 0.54740251E+03</pdfrwt>
<pdfrwt beam="2">  1       -2 0.31045728E-01 0.54740251E+03</pdfrwt>
<totfact> 0.79954769E+01</totfact>
</mgrwt>
</event>
<event>
 4    1  0.3365401E-008  0.5321043E+03  0.7818608E-02  0.1005723E+00
         -2   -1    0    0    0  501 -0.00000000000E+00  0.00000000000E+00  0.28305478374E+03  0.28305478375E+03  0.25500000000E-02 0.  1.
          2   -1    0    0  501    0  0.00000000000E+00 -0.00000000000E+00 -0.11679749993E+04  0.11679749993E+04  0.25500000000E-02 0. -1.
    8880022    1    1    2    0    0  0.12838465386E+03  0.49321468555E+03 -0.16755347078E+03  0.55786124079E+03  0.15294330000E+03 0.  1.
    8880022    1    1    2    0    0 -0.12838465386E+03 -0.49321468555E+03 -0.71736674483E+03  0.89316854232E+03  0.15294330000E+03 0.  0.
<mgrwt>
<rscale>  0 0.53210431E+03</rscale>
<asrwt>0</asrwt>
<pdfrwt beam="1">  1        2 0.17968846E+00 0.53210431E+03</pdfrwt>
<pdfrwt beam="2">  1       -2 0.43546891E-01 0.53210431E+03</pdfrwt>
<totfact> 0.10254000E+02</totfact>
</mgrwt>
</event>
<event>
 4    1  0.3365401E-008  0.7696244E+03  0.7818608E-02  0.9605056E-01
         -2   -1    0    0    0  501 -0.00000000000E+00  0.00000000000E+00  0.34015881894E+03  0.34015881895E+03  0.25500000000E-02 0.  1.
          2   -1    0    0  501    0  0.00000000000E+00 -0.00000000000E+00 -0.20458791845E+04  0.20458791845E+04  0.25500000000E-02 0. -1.
    8880022    1    1    2    0    0  0.73033199785E+03 -0.18853425903E+03 -0.39254956694E+03  0.86395417091E+03  0.15294330000E+03 0.  0.
    8880022    1    1    2    0    0 -0.73033199785E+03  0.18853425903E+03 -0.13131707986E+04  0.15220838325E+04  0.15294330000E+03 0.  0.
<mgrwt>
<rscale>  0 0.76962435E+03</rscale>
<asrwt>0</asrwt>
<pdfrwt beam="1">  1        2 0.31475064E+00 0.76962435E+03</pdfrwt>
<pdfrwt beam="2">  1       -2 0.52332127E-01 0.76962435E+03</pdfrwt>
<totfact> 0.22401944E+01</totfact>
</mgrwt>
</event>
<event>
 4    1  0.3365401E-008  0.7664278E+03  0.7818608E-02  0.9609924E-01
         -2   -1    0    0    0  501 -0.00000000000E+00  0.00000000000E+00  0.14529717798E+03  0.14529717800E+03  0.25500000000E-02 0.  1.
          2   -1    0    0  501    0  0.00000000000E+00 -0.00000000000E+00 -0.43793811048E+04  0.43793811048E+04  0.25500000000E-02 0. -1.
    8880022    1    1    2    0    0  0.74871865293E+03  0.58654615018E+02 -0.14898831577E+04  0.16754591794E+04  0.15294330000E+03 0.  0.
    8880022    1    1    2    0    0 -0.74871865293E+03 -0.58654615018E+02 -0.27442007691E+04  0.28492191034E+04  0.15294330000E+03 0.  0.
<mgrwt>
<rscale>  0 0.76642784E+03</rscale>
<asrwt>0</asrwt>
<pdfrwt beam="1">  1        2 0.67375084E+00 0.76642784E+03</pdfrwt>
<pdfrwt beam="2">  1       -2 0.22353415E-01 0.76642784E+03</pdfrwt>
<totfact> 0.31533174E+00</totfact>
</mgrwt>
</event>
<event>
 4    1  0.3365401E-008  0.1453869E+04  0.7818608E-02  0.8915723E-01
         -2   -1    0    0    0  501 -0.00000000000E+00  0.00000000000E+00  0.66566219423E+03  0.66566219423E+03  0.25500000000E-02 0.  1.
          2   -1    0    0  501    0  0.00000000000E+00 -0.00000000000E+00 -0.39869270535E+04  0.39869270535E+04  0.25500000000E-02 0. -1.
    8880022    1    1    2    0    0 -0.14384605353E+04  0.14551424809E+03 -0.61108835965E+03  0.15770744258E+04  0.15294330000E+03 0.  0.
    8880022    1    1    2    0    0  0.14384605353E+04 -0.14551424809E+03 -0.27101764996E+04  0.30755148220E+04  0.15294330000E+03 0.  0.
<mgrwt>
<rscale>  0 0.14538689E+04</rscale>
<asrwt>0</asrwt>
<pdfrwt beam="1">  1        2 0.61337338E+00 0.14538689E+04</pdfrwt>
<pdfrwt beam="2">  1       -2 0.10240957E+00 0.14538689E+04</pdfrwt>
<totfact> 0.26682136E-01</totfact>
</mgrwt>
</event>
<event>
 4    1  0.3365401E-008  0.4680434E+03  0.7818608E-02  0.1022474E+00
         -2   -1    0    0    0  501 -0.00000000000E+00  0.00000000000E+00  0.94903554357E+03  0.94903554357E+03  0.25500000000E-02 0.  1.
          2   -1    0    0  501    0  0.00000000000E+00 -0.00000000000E+00 -0.82435259984E+03  0.82435259985E+03  0.25500000000E-02 0. -1.
    8880022    1    1    2    0    0 -0.42318582160E+03 -0.12878949797E+03 -0.69003708572E+03  0.83379602246E+03  0.15294330000E+03 0.  0.
    8880022    1    1    2    0    0  0.42318582160E+03  0.12878949797E+03  0.81472002944E+03  0.93959212096E+03  0.15294330000E+03 0.  0.
<mgrwt>
<rscale>  0 0.46804340E+03</rscale>
<asrwt>0</asrwt>
<pdfrwt beam="1">  1        2 0.12682348E+00 0.46804340E+03</pdfrwt>
<pdfrwt beam="2">  1       -2 0.14600547E+00 0.46804340E+03</pdfrwt>
<totfact> 0.11258110E+01</totfact>
</mgrwt>
</event>
<event>
 4    1  0.3365401E-008  0.4280556E+03  0.7818608E-02  0.1034476E+00
          2   -1    0    0  501    0  0.00000000000E+00  0.00000000000E+00  0.14487258905E+04  0.14487258905E+04  0.25500000000E-02 0. -1.
         -2   -1    0    0    0  501 -0.00000000000E+00 -0.00000000000E+00 -0.27345673675E+03  0.27345673676E+03  0.25500000000E-02 0.  1.
    8880022    1    1    2    0    0 -0.39645678080E+03  0.51594204184E+02  0.12189298192E+04  0.12919061491E+04  0.15294330000E+03 0.  0.
    8880022    1    1    2    0    0  0.39645678080E+03 -0.51594204184E+02 -0.43660665443E+02  0.43027647817E+03  0.15294330000E+03 0.  0.
<mgrwt>
<rscale>  0 0.42805560E+03</rscale>
<asrwt>0</asrwt>
<pdfrwt beam="1">  1        2 0.22288091E+00 0.42805560E+03</pdfrwt>
<pdfrwt beam="2">  1       -2 0.42070267E-01 0.42805560E+03</pdfrwt>
<totfact> 0.77100291E+01</totfact>
</mgrwt>
</event>
<event>
 4    1  0.3365401E-008  0.6273350E+03  0.7818608E-02  0.9850263E-01
          2   -1    0    0  501    0  0.00000000000E+00  0.00000000000E+00  0.74984964676E+03  0.74984964676E+03  0.25500000000E-02 0. -1.
         -2   -1    0    0    0  501 -0.00000000000E+00 -0.00000000000E+00 -0.79302722450E+03  0.79302722451E+03  0.25500000000E-02 0.  1.
    8880022    1    1    2    0    0 -0.29431025160E+03  0.53248383548E+03 -0.47020844030E+03  0.78399310557E+03  0.15294330000E+03 0.  0.
    8880022    1    1    2    0    0  0.29431025160E+03 -0.53248383548E+03  0.42703086255E+03  0.75888376570E+03  0.15294330000E+03 0.  0.
<mgrwt>
<rscale>  0 0.62733501E+03</rscale>
<asrwt>0</asrwt>
<pdfrwt beam="1">  1        2 0.11536148E+00 0.62733501E+03</pdfrwt>
<pdfrwt beam="2">  1       -2 0.12200419E+00 0.62733501E+03</pdfrwt>
<totfact> 0.19636154E+01</totfact>
</mgrwt>
</event>
<event>
 4    1  0.3365401E-008  0.4701839E+03  0.7818608E-02  0.1021868E+00
         -2   -1    0    0    0  501 -0.00000000000E+00  0.00000000000E+00  0.15563253053E+04  0.15563253053E+04  0.25500000000E-02 0.  1.
          2   -1    0    0  501    0  0.00000000000E+00 -0.00000000000E+00 -0.21373411426E+03  0.21373411427E+03  0.25500000000E-02 0. -1.
    8880022    1    1    2    0    0  0.44461203715E+03 -0.11790693899E+01  0.15874301078E+03  0.49625824957E+03  0.15294330000E+03 0.  0.
    8880022    1    1    2    0    0 -0.44461203715E+03  0.11790693899E+01  0.11838481803E+04  0.12738011700E+04  0.15294330000E+03 0.  0.
<mgrwt>
<rscale>  0 0.47018391E+03</rscale>
<asrwt>0</asrwt>
<pdfrwt beam="1">  1        2 0.32882171E-01 0.47018391E+03</pdfrwt>
<pdfrwt beam="2">  1       -2 0.23943467E+00 0.47018391E+03</pdfrwt>
<totfact> 0.12691183E+01</totfact>
</mgrwt>
</event>
<event>
 4    1  0.3365401E-008  0.1175641E+04  0.7818608E-02  0.9134449E-01
         -2   -1    0    0    0  501 -0.00000000000E+00  0.00000000000E+00  0.67968491621E+03  0.67968491621E+03  0.25500000000E-02 0.  1.
          2   -1    0    0  501    0  0.00000000000E+00 -0.00000000000E+00 -0.22197098476E+04  0.22197098476E+04  0.25500000000E-02 0. -1.
    8880022    1    1    2    0    0 -0.95178082950E+03 -0.67294443500E+03 -0.11899087251E+04  0.16727269314E+04  0.15294330000E+03 0.  0.
    8880022    1    1    2    0    0  0.95178082950E+03  0.67294443500E+03 -0.35011620621E+03  0.12266678323E+04  0.15294330000E+03 0.  0.
<mgrwt>
<rscale>  0 0.11756414E+04</rscale>
<asrwt>0</asrwt>
<pdfrwt beam="1">  1        2 0.34149382E+00 0.11756414E+04</pdfrwt>
<pdfrwt beam="2">  1       -2 0.10456691E+00 0.11756414E+04</pdfrwt>
<totfact> 0.36715489E+00</totfact>
</mgrwt>
</event>
<event>
 4    1  0.3365401E-008  0.2730524E+03  0.7818608E-02  0.1099545E+00
          2   -1    0    0  501    0  0.00000000000E+00  0.00000000000E+00  0.37849028854E+03  0.37849028855E+03  0.25500000000E-02 0. -1.
         -2   -1    0    0    0  501 -0.00000000000E+00 -0.00000000000E+00 -0.28758141634E+03  0.28758141635E+03  0.25500000000E-02 0.  1.
    8880022    1    1    2    0    0  0.13028251509E+03  0.18491192852E+03  0.23237697264E+03  0.35854799605E+03  0.15294330000E+03 0.  0.
    8880022    1    1    2    0    0 -0.13028251509E+03 -0.18491192852E+03 -0.14146810043E+03  0.30752370885E+03  0.15294330000E+03 0.  0.
<mgrwt>
<rscale>  0 0.27305239E+03</rscale>
<asrwt>0</asrwt>
<pdfrwt beam="1">  1        2 0.58229275E-01 0.27305239E+03</pdfrwt>
<pdfrwt beam="2">  1       -2 0.44243295E-01 0.27305239E+03</pdfrwt>
<totfact> 0.41774820E+02</totfact>
</mgrwt>
</event>
<event>
 4    1  0.3365401E-008  0.2641888E+03  0.7818608E-02  0.1104652E+00
          2   -1    0    0  501    0  0.00000000000E+00  0.00000000000E+00  0.30136849187E+04  0.30136849187E+04  0.25500000000E-02 0. -1.
         -2   -1    0    0    0  501 -0.00000000000E+00 -0.00000000000E+00 -0.13090558773E+03  0.13090558776E+03  0.25500000000E-02 0.  1.
    8880022    1    1    2    0    0 -0.40959880989E+02  0.21148611835E+03  0.28678364038E+04  0.28799794066E+04  0.15294330000E+03 0. -1.
    8880022    1    1    2    0    0  0.40959880989E+02 -0.21148611835E+03  0.14942927153E+02  0.26461109991E+03  0.15294330000E+03 0.  0.
<mgrwt>
<rscale>  0 0.26418884E+03</rscale>
<asrwt>0</asrwt>
<pdfrwt beam="1">  1        2 0.46364380E+00 0.26418884E+03</pdfrwt>
<pdfrwt beam="2">  1       -2 0.20139322E-01 0.26418884E+03</pdfrwt>
<totfact> 0.42920396E+01</totfact>
</mgrwt>
</event>
<event>
 4    1  0.3365401E-008  0.2659792E+03  0.7818608E-02  0.1103603E+00
         -2   -1    0    0    0  501 -0.00000000000E+00  0.00000000000E+00  0.68388977478E+03  0.68388977478E+03  0.25500000000E-02 0.  1.
          2   -1    0    0  501    0  0.00000000000E+00 -0.00000000000E+00 -0.64765002965E+03  0.64765002965E+03  0.25500000000E-02 0. -1.
    8880022    1    1    2    0    0  0.15127296851E+03  0.15642822184E+03  0.62840846667E+03  0.68237977226E+03  0.15294330000E+03 0.  0.
    8880022    1    1    2    0    0 -0.15127296851E+03 -0.15642822184E+03 -0.59216872154E+03  0.64916003218E+03  0.15294330000E+03 0. -1.
<mgrwt>
<rscale>  0 0.26597923E+03</rscale>
<asrwt>0</asrwt>
<pdfrwt beam="1">  1        2 0.99638466E-01 0.26597923E+03</pdfrwt>
<pdfrwt beam="2">  1       -2 0.10521381E+00 0.26597923E+03</pdfrwt>
<totfact> 0.35613745E+01</totfact>
</mgrwt>
</event>
<event>
 4    1  0.3365401E-008  0.6001956E+03  0.7818608E-02  0.9905000E-01
          2   -1    0    0  501    0  0.00000000000E+00  0.00000000000E+00  0.11857336702E+04  0.11857336702E+04  0.25500000000E-02 0. -1.
         -2   -1    0    0    0  501 -0.00000000000E+00 -0.00000000000E+00 -0.68012608178E+03  0.68012608178E+03  0.25500000000E-02 0.  1.
    8880022    1    1    2    0    0 -0.53359354778E+03  0.22830035054E+03  0.94676009002E+03  0.11209770048E+04  0.15294330000E+03 0.  0.
    8880022    1    1    2    0    0  0.53359354778E+03 -0.22830035054E+03 -0.44115250161E+03  0.74488274714E+03  0.15294330000E+03 0.  0.
<mgrwt>
<rscale>  0 0.60019562E+03</rscale>
<asrwt>0</asrwt>
<pdfrwt beam="1">  1        2 0.18242056E+00 0.60019562E+03</pdfrwt>
<pdfrwt beam="2">  1       -2 0.10463478E+00 0.60019562E+03</pdfrwt>
<totfact> 0.14884954E+01</totfact>
</mgrwt>
</event>
<event>
 4    1  0.3365401E-008  0.6699843E+03  0.7818608E-02  0.9769986E-01
          2   -1    0    0  501    0  0.00000000000E+00  0.00000000000E+00  0.27460672459E+04  0.27460672459E+04  0.25500000000E-02 0. -1.
         -2   -1    0    0    0  501 -0.00000000000E+00 -0.00000000000E+00 -0.19505993070E+03  0.19505993072E+03  0.25500000000E-02 0.  1.
    8880022    1    1    2    0    0  0.49301550886E+03 -0.42711000497E+03  0.68363417116E+03  0.95720143194E+03  0.15294330000E+03 0.  0.
    8880022    1    1    2    0    0 -0.49301550886E+03  0.42711000497E+03  0.18673731440E+04  0.19839257447E+04  0.15294330000E+03 0.  0.
<mgrwt>
<rscale>  0 0.66998425E+03</rscale>
<asrwt>0</asrwt>
<pdfrwt beam="1">  1        2 0.42247186E+00 0.66998425E+03</pdfrwt>
<pdfrwt beam="2">  1       -2 0.30009222E-01 0.66998425E+03</pdfrwt>
<totfact> 0.27171580E+01</totfact>
</mgrwt>
</event>
<event>
 4    1  0.3365401E-008  0.4801264E+03  0.7818608E-02  0.1019100E+00
          2   -1    0    0  501    0  0.00000000000E+00  0.00000000000E+00  0.65951781166E+03  0.65951781166E+03  0.25500000000E-02 0. -1.
         -2   -1    0    0    0  501 -0.00000000000E+00 -0.00000000000E+00 -0.42365172217E+03  0.42365172218E+03  0.25500000000E-02 0.  1.
    8880022    1    1    2    0    0  0.35752997576E+03 -0.28160607156E+03 -0.10860150995E+03  0.49225562880E+03  0.15294330000E+03 0.  0.
    8880022    1    1    2    0    0 -0.35752997576E+03  0.28160607156E+03  0.34446759944E+03  0.59091390505E+03  0.15294330000E+03 0.  0.
<mgrwt>
<rscale>  0 0.48012635E+03</rscale>
<asrwt>0</asrwt>
<pdfrwt beam="1">  1        2 0.10146428E+00 0.48012635E+03</pdfrwt>
<pdfrwt beam="2">  1       -2 0.65177189E-01 0.48012635E+03</pdfrwt>
<totfact> 0.98930288E+01</totfact>
</mgrwt>
</event>
<event>
 4    1  0.3365401E-008  0.1903645E+03  0.7818608E-02  0.1158133E+00
          2   -1    0    0  501    0  0.00000000000E+00  0.00000000000E+00  0.10522891456E+04  0.10522891456E+04  0.25500000000E-02 0. -1.
         -2   -1    0    0    0  501 -0.00000000000E+00 -0.00000000000E+00 -0.35512144158E+03  0.35512144158E+03  0.25500000000E-02 0.  1.
    8880022    1    1    2    0    0 -0.24226131991E+02  0.11072522048E+03  0.10172982949E+04  0.10349562569E+04  0.15294330000E+03 0. -1.
    8880022    1    1    2    0    0  0.24226131991E+02 -0.11072522048E+03 -0.32013059086E+03  0.37245433028E+03  0.15294330000E+03 0.  0.
<mgrwt>
<rscale>  0 0.19036447E+03</rscale>
<asrwt>0</asrwt>
<pdfrwt beam="1">  1        2 0.16189064E+00 0.19036447E+03</pdfrwt>
<pdfrwt beam="2">  1       -2 0.54634068E-01 0.19036447E+03</pdfrwt>
<totfact> 0.81044528E+01</totfact>
</mgrwt>
</event>
<event>
 4    1  0.3365401E-008  0.4163438E+03  0.7818608E-02  0.1038263E+00
          2   -1    0    0  501    0  0.00000000000E+00  0.00000000000E+00  0.30111138567E+03  0.30111138568E+03  0.25500000000E-02 0. -1.
         -2   -1    0    0    0  501 -0.00000000000E+00 -0.00000000000E+00 -0.59526735487E+03  0.59526735488E+03  0.25500000000E-02 0.  1.
    8880022    1    1    2    0    0 -0.23235358246E+03 -0.30977792076E+03 -0.22838956257E+03  0.47487260689E+03  0.15294330000E+03 0. -1.
    8880022    1    1    2    0    0  0.23235358246E+03  0.30977792076E+03 -0.65766406627E+02  0.42150613367E+03  0.15294330000E+03 0.  0.
<mgrwt>
<rscale>  0 0.41634385E+03</rscale>
<asrwt>0</asrwt>
<pdfrwt beam="1">  1        2 0.46324829E-01 0.41634385E+03</pdfrwt>
<pdfrwt beam="2">  1       -2 0.91579593E-01 0.41634385E+03</pdfrwt>
<totfact> 0.11406359E+02</totfact>
</mgrwt>
</event>
<event>
 4    1  0.3365401E-008  0.4177637E+03  0.7818608E-02  0.1037797E+00
          2   -1    0    0  501    0  0.00000000000E+00  0.00000000000E+00  0.12395386484E+04  0.12395386484E+04  0.25500000000E-02 0. -1.
         -2   -1    0    0    0  501 -0.00000000000E+00 -0.00000000000E+00 -0.18289346101E+03  0.18289346103E+03  0.25500000000E-02 0.  1.
    8880022    1    1    2    0    0 -0.38838120449E+03  0.17171583186E+02  0.18712014954E+03  0.45775585922E+03  0.15294330000E+03 0.  1.
    8880022    1    1    2    0    0  0.38838120449E+03 -0.17171583186E+02  0.86952503786E+03  0.96467625023E+03  0.15294330000E+03 0.  0.
<mgrwt>
<rscale>  0 0.41776366E+03</rscale>
<asrwt>0</asrwt>
<pdfrwt beam="1">  1        2 0.19069826E+00 0.41776366E+03</pdfrwt>
<pdfrwt beam="2">  1       -2 0.28137455E-01 0.41776366E+03</pdfrwt>
<totfact> 0.21563116E+02</totfact>
</mgrwt>
</event>
<event>
 4    1  0.3365401E-008  0.2262820E+03  0.7818608E-02  0.1129284E+00
          2   -1    0    0  501    0  0.00000000000E+00  0.00000000000E+00  0.37309704232E+03  0.37309704233E+03  0.25500000000E-02 0. -1.
         -2   -1    0    0    0  501 -0.00000000000E+00 -0.00000000000E+00 -0.32333842012E+03  0.32333842013E+03  0.25500000000E-02 0.  1.
    8880022    1    1    2    0    0 -0.16657903575E+03 -0.79570671788E+01 -0.23929737705E+03  0.32934294853E+03  0.15294330000E+03 0.  0.
    8880022    1    1    2    0    0  0.16657903575E+03  0.79570671788E+01  0.28905599924E+03  0.36709251393E+03  0.15294330000E+03 0. -1.
<mgrwt>
<rscale>  0 0.22628200E+03</rscale>
<asrwt>0</asrwt>
<pdfrwt beam="1">  1        2 0.57399545E-01 0.22628200E+03</pdfrwt>
<pdfrwt beam="2">  1       -2 0.49744372E-01 0.22628200E+03</pdfrwt>
<totfact> 0.33720667E+02</totfact>
</mgrwt>
</event>
<event>
 4    1  0.3365401E-008  0.5818908E+03  0.7818608E-02  0.9943706E-01
         -2   -1    0    0    0  501 -0.00000000000E+00  0.00000000000E+00  0.48803674751E+03  0.48803674752E+03  0.25500000000E-02 0.  1.
          2   -1    0    0  501    0  0.00000000000E+00 -0.00000000000E+00 -0.13508087269E+04  0.13508087269E+04  0.25500000000E-02 0. -1.
    8880022    1    1    2    0    0 -0.10824399382E+03  0.55089785363E+03  0.20983235001E+03  0.61856808473E+03  0.15294330000E+03 0.  0.
    8880022    1    1    2    0    0  0.10824399382E+03 -0.55089785363E+03 -0.10726043294E+04  0.12202773897E+04  0.15294330000E+03 0.  0.
<mgrwt>
<rscale>  0 0.58189076E+03</rscale>
<asrwt>0</asrwt>
<pdfrwt beam="1">  1        2 0.20781673E+00 0.58189076E+03</pdfrwt>
<pdfrwt beam="2">  1       -2 0.75082577E-01 0.58189076E+03</pdfrwt>
<totfact> 0.25670012E+01</totfact>
</mgrwt>
</event>
<event>
 4    1  0.3365401E-008  0.3999748E+03  0.7818608E-02  0.1043788E+00
         -2   -1    0    0    0  501 -0.00000000000E+00  0.00000000000E+00  0.18935672113E+03  0.18935672114E+03  0.25500000000E-02 0.  1.
          2   -1    0    0  501    0  0.00000000000E+00 -0.00000000000E+00 -0.14876349917E+04  0.14876349917E+04  0.25500000000E-02 0. -1.
    8880022    1    1    2    0    0  0.23260725937E+03  0.28719689943E+03 -0.97973236744E+02  0.41179922812E+03  0.15294330000E+03 0.  0.
    8880022    1    1    2    0    0 -0.23260725937E+03 -0.28719689943E+03 -0.12003050338E+04  0.12651924847E+04  0.15294330000E+03 0.  0.
<mgrwt>
<rscale>  0 0.39997481E+03</rscale>
<asrwt>0</asrwt>
<pdfrwt beam="1">  1        2 0.22886691E+00 0.39997481E+03</pdfrwt>
<pdfrwt beam="2">  1       -2 0.29131804E-01 0.39997481E+03</pdfrwt>
<totfact> 0.14753330E+02</totfact>
</mgrwt>
</event>
<event>
 4    1  0.3365401E-008  0.1627716E+04  0.7818608E-02  0.8803700E-01
          2   -1    0    0  501    0  0.00000000000E+00  0.00000000000E+00  0.24212512527E+04  0.24212512527E+04  0.25500000000E-02 0. -1.
         -2   -1    0    0    0  501 -0.00000000000E+00 -0.00000000000E+00 -0.12564463590E+04  0.12564463590E+04  0.25500000000E-02 0.  1.
    8880022    1    1    2    0    0  0.13126165692E+04  0.95031817583E+03  0.12430840047E+04  0.20481006784E+04  0.15294330000E+03 0.  0.
    8880022    1    1    2    0    0 -0.13126165692E+04 -0.95031817583E+03 -0.78279111013E+02  0.16295969333E+04  0.15294330000E+03 0.  0.
<mgrwt>
<rscale>  0 0.16277157E+04</rscale>
<asrwt>0</asrwt>
<pdfrwt beam="1">  1        2 0.37250019E+00 0.16277157E+04</pdfrwt>
<pdfrwt beam="2">  1       -2 0.19329944E+00 0.16277157E+04</pdfrwt>
<totfact> 0.52819608E-01</totfact>
</mgrwt>
</event>
<event>
 4    1  0.3365401E-008  0.4787847E+03  0.7818608E-02  0.1019470E+00
         -2   -1    0    0    0  501 -0.00000000000E+00  0.00000000000E+00  0.23371388419E+03  0.23371388420E+03  0.25500000000E-02 0.  1.
          2   -1    0    0  501    0  0.00000000000E+00 -0.00000000000E+00 -0.10412189034E+04  0.10412189034E+04  0.25500000000E-02 0. -1.
    8880022    1    1    2    0    0 -0.31019864352E+03  0.33108894759E+03 -0.55726619358E+03  0.73469745690E+03  0.15294330000E+03 0.  0.
    8880022    1    1    2    0    0  0.31019864352E+03 -0.33108894759E+03 -0.25023882560E+03  0.54023533067E+03  0.15294330000E+03 0.  1.
<mgrwt>
<rscale>  0 0.47878465E+03</rscale>
<asrwt>0</asrwt>
<pdfrwt beam="1">  1        2 0.16018752E+00 0.47878465E+03</pdfrwt>
<pdfrwt beam="2">  1       -2 0.35955983E-01 0.47878465E+03</pdfrwt>
<totfact> 0.17809342E+02</totfact>
</mgrwt>
</event>
<event>
 4    1  0.3365401E-008  0.4430289E+03  0.7818608E-02  0.1029822E+00
          2   -1    0    0  501    0  0.00000000000E+00  0.00000000000E+00  0.97770852870E+03  0.97770852870E+03  0.25500000000E-02 0. -1.
         -2   -1    0    0    0  501 -0.00000000000E+00 -0.00000000000E+00 -0.63696017372E+03  0.63696017373E+03  0.25500000000E-02 0.  1.
    8880022    1    1    2    0    0  0.22196788423E+03  0.35158676865E+03  0.83848015731E+03  0.94832674999E+03  0.15294330000E+03 0.  0.
    8880022    1    1    2    0    0 -0.22196788423E+03 -0.35158676865E+03 -0.49773180234E+03  0.66634195245E+03  0.15294330000E+03 0.  0.
<mgrwt>
<rscale>  0 0.44302895E+03</rscale>
<asrwt>0</asrwt>
<pdfrwt beam="1">  1        2 0.15041670E+00 0.44302895E+03</pdfrwt>
<pdfrwt beam="2">  1       -2 0.97993873E-01 0.44302895E+03</pdfrwt>
<totfact> 0.23864220E+01</totfact>
</mgrwt>
</event>
<event>
 4    1  0.3365401E-008  0.5543779E+03  0.7818608E-02  0.1000486E+00
         -2   -1    0    0    0  501 -0.00000000000E+00  0.00000000000E+00  0.18836326052E+03  0.18836326053E+03  0.25500000000E-02 0.  1.
          2   -1    0    0  501    0  0.00000000000E+00 -0.00000000000E+00 -0.33910682349E+04  0.33910682349E+04  0.25500000000E-02 0. -1.
    8880022    1    1    2    0    0  0.25800217189E+02 -0.53223826461E+03 -0.28905088815E+04  0.29431915447E+04  0.15294330000E+03 0.  0.
    8880022    1    1    2    0    0 -0.25800217189E+02  0.53223826461E+03 -0.31219609287E+03  0.63623995076E+03  0.15294330000E+03 0.  0.
<mgrwt>
<rscale>  0 0.55437792E+03</rscale>
<asrwt>0</asrwt>
<pdfrwt beam="1">  1        2 0.52170276E+00 0.55437792E+03</pdfrwt>
<pdfrwt beam="2">  1       -2 0.28978966E-01 0.55437792E+03</pdfrwt>
<totfact> 0.11861654E+01</totfact>
</mgrwt>
</event>
<event>
 4    1  0.3365401E-008  0.6679251E+03  0.7818608E-02  0.9773713E-01
          2   -1    0    0  501    0  0.00000000000E+00  0.00000000000E+00  0.19024183245E+04  0.19024183245E+04  0.25500000000E-02 0. -1.
         -2   -1    0    0    0  501 -0.00000000000E+00 -0.00000000000E+00 -0.39200728496E+03  0.39200728497E+03  0.25500000000E-02 0.  1.
    8880022    1    1    2    0    0  0.61407517307E+03  0.21364461476E+03  0.28024989574E+02  0.66851282160E+03  0.15294330000E+03 0.  0.
    8880022    1    1    2    0    0 -0.61407517307E+03 -0.21364461476E+03  0.14823860500E+04  0.16259127879E+04  0.15294330000E+03 0.  0.
<mgrwt>
<rscale>  0 0.66792514E+03</rscale>
<asrwt>0</asrwt>
<pdfrwt beam="1">  1        2 0.29267973E+00 0.66792514E+03</pdfrwt>
<pdfrwt beam="2">  1       -2 0.60308815E-01 0.66792514E+03</pdfrwt>
<totfact> 0.20250334E+01</totfact>
</mgrwt>
</event>
<event>
 4    1  0.3365401E-008  0.7432613E+03  0.7818608E-02  0.9645982E-01
         -2   -1    0    0    0  501 -0.00000000000E+00  0.00000000000E+00  0.10936107316E+04  0.10936107316E+04  0.25500000000E-02 0.  1.
          2   -1    0    0  501    0  0.00000000000E+00 -0.00000000000E+00 -0.63545228219E+03  0.63545228219E+03  0.25500000000E-02 0. -1.
    8880022    1    1    2    0    0  0.33497232722E+03  0.64563092791E+03 -0.16240606269E+03  0.76079769801E+03  0.15294330000E+03 0. -1.
    8880022    1    1    2    0    0 -0.33497232722E+03 -0.64563092791E+03  0.62056451214E+03  0.96826531582E+03  0.15294330000E+03 0.  0.
<mgrwt>
<rscale>  0 0.74326133E+03</rscale>
<asrwt>0</asrwt>
<pdfrwt beam="1">  1        2 0.97761891E-01 0.74326133E+03</pdfrwt>
<pdfrwt beam="2">  1       -2 0.16824780E+00 0.74326133E+03</pdfrwt>
<totfact> 0.10315744E+01</totfact>
</mgrwt>
</event>
<event>
 4    1  0.3365401E-008  0.2653259E+03  0.7818608E-02  0.1103985E+00
         -2   -1    0    0    0  501 -0.00000000000E+00  0.00000000000E+00  0.74423656724E+03  0.74423656724E+03  0.25500000000E-02 0.  1.
          2   -1    0    0  501    0  0.00000000000E+00 -0.00000000000E+00 -0.11172668609E+03  0.11172668612E+03  0.25500000000E-02 0. -1.
    8880022    1    1    2    0    0  0.82957979216E+02  0.20031008992E+03  0.14864413738E+03  0.30412643922E+03  0.15294330000E+03 0.  0.
    8880022    1    1    2    0    0 -0.82957979216E+02 -0.20031008992E+03  0.48386574376E+03  0.55183681414E+03  0.15294330000E+03 0.  0.
<mgrwt>
<rscale>  0 0.26532586E+03</rscale>
<asrwt>0</asrwt>
<pdfrwt beam="1">  1        2 0.17188721E-01 0.26532586E+03</pdfrwt>
<pdfrwt beam="2">  1       -2 0.11449793E+00 0.26532586E+03</pdfrwt>
<totfact> 0.20687671E+02</totfact>
</mgrwt>
</event>
<event>
 4    1  0.3365401E-008  0.3306958E+03  0.7818608E-02  0.1070829E+00
          2   -1    0    0  501    0  0.00000000000E+00  0.00000000000E+00  0.24327043363E+04  0.24327043363E+04  0.25500000000E-02 0. -1.
         -2   -1    0    0    0  501 -0.00000000000E+00 -0.00000000000E+00 -0.22676417441E+03  0.22676417442E+03  0.25500000000E-02 0.  1.
    8880022    1    1    2    0    0 -0.10435830636E+03  0.27400255719E+03  0.22936273462E+04  0.23173446256E+04  0.15294330000E+03 0.  0.
    8880022    1    1    2    0    0  0.10435830636E+03 -0.27400255719E+03 -0.87687184335E+02  0.34212388512E+03  0.15294330000E+03 0.  0.
<mgrwt>
<rscale>  0 0.33069580E+03</rscale>
<asrwt>0</asrwt>
<pdfrwt beam="1">  1        2 0.37426221E+00 0.33069580E+03</pdfrwt>
<pdfrwt beam="2">  1       -2 0.34886796E-01 0.33069580E+03</pdfrwt>
<totfact> 0.33406003E+01</totfact>
</mgrwt>
</event>
<event>
 4    1  0.3365401E-008  0.6868121E+03  0.7818608E-02  0.9740055E-01
         -2   -1    0    0    0  501 -0.00000000000E+00  0.00000000000E+00  0.24621127353E+03  0.24621127355E+03  0.25500000000E-02 0.  1.
          2   -1    0    0  501    0  0.00000000000E+00 -0.00000000000E+00 -0.23913278688E+04  0.23913278688E+04  0.25500000000E-02 0. -1.
    8880022    1    1    2    0    0 -0.22104509376E+03  0.63202713870E+03 -0.48452558971E+03  0.84052122973E+03  0.15294330000E+03 0.  0.
    8880022    1    1    2    0    0  0.22104509376E+03 -0.63202713870E+03 -0.16605910055E+04  0.17970179126E+04  0.15294330000E+03 0.  0.
<mgrwt>
<rscale>  0 0.68681212E+03</rscale>
<asrwt>0</asrwt>
<pdfrwt beam="1">  1        2 0.36789658E+00 0.68681212E+03</pdfrwt>
<pdfrwt beam="2">  1       -2 0.37878659E-01 0.68681212E+03</pdfrwt>
<totfact> 0.27807344E+01</totfact>
</mgrwt>
</event>
<event>
 4    1  0.3365401E-008  0.3691223E+03  0.7818608E-02  0.1055029E+00
         -2   -1    0    0    0  501 -0.00000000000E+00  0.00000000000E+00  0.11424876170E+03  0.11424876173E+03  0.25500000000E-02 0.  1.
          2   -1    0    0  501    0  0.00000000000E+00 -0.00000000000E+00 -0.29103965257E+04  0.29103965257E+04  0.25500000000E-02 0. -1.
    8880022    1    1    2    0    0 -0.31560549039E+03  0.11512090950E+03 -0.23620748200E+03  0.43822970796E+03  0.15294330000E+03 0.  0.
    8880022    1    1    2    0    0  0.31560549039E+03 -0.11512090950E+03 -0.25599402820E+04  0.25864155795E+04  0.15294330000E+03 0. -1.
<mgrwt>
<rscale>  0 0.36912234E+03</rscale>
<asrwt>0</asrwt>
<pdfrwt beam="1">  1        2 0.44775326E+00 0.36912234E+03</pdfrwt>
<pdfrwt beam="2">  1       -2 0.17576735E-01 0.36912234E+03</pdfrwt>
<totfact> 0.60026112E+01</totfact>
</mgrwt>
</event>
<event>
 4    1  0.3365401E-008  0.5797795E+03  0.7818608E-02  0.9948268E-01
         -2   -1    0    0    0  501 -0.00000000000E+00  0.00000000000E+00  0.32244742883E+03  0.32244742884E+03  0.25500000000E-02 0.  1.
          2   -1    0    0  501    0  0.00000000000E+00 -0.00000000000E+00 -0.13015612536E+04  0.13015612536E+04  0.25500000000E-02 0. -1.
    8880022    1    1    2    0    0 -0.26094506738E+03 -0.49463150307E+03 -0.85183814385E+03  0.10304234704E+04  0.15294330000E+03 0.  0.
    8880022    1    1    2    0    0  0.26094506738E+03  0.49463150307E+03 -0.12727568095E+03  0.59358521208E+03  0.15294330000E+03 0.  0.
<mgrwt>
<rscale>  0 0.57977953E+03</rscale>
<asrwt>0</asrwt>
<pdfrwt beam="1">  1        2 0.20024019E+00 0.57977953E+03</pdfrwt>
<pdfrwt beam="2">  1       -2 0.49607298E-01 0.57977953E+03</pdfrwt>
<totfact> 0.65757097E+01</totfact>
</mgrwt>
</event>
<event>
 4    1  0.3365401E-008  0.1607658E+03  0.7818608E-02  0.1187835E+00
          2   -1    0    0  501    0  0.00000000000E+00  0.00000000000E+00  0.10968548015E+04  0.10968548015E+04  0.25500000000E-02 0. -1.
         -2   -1    0    0    0  501 -0.00000000000E+00 -0.00000000000E+00 -0.71307305431E+02  0.71307305476E+02  0.25500000000E-02 0.  1.
    8880022    1    1    2    0    0  0.16318030537E+02  0.46772901342E+02  0.99070457918E+03  0.10036638873E+04  0.15294330000E+03 0.  0.
    8880022    1    1    2    0    0 -0.16318030537E+02 -0.46772901342E+02  0.34842916931E+02  0.16449821973E+03  0.15294330000E+03 0.  1.
<mgrwt>
<rscale>  0 0.16076578E+03</rscale>
<asrwt>0</asrwt>
<pdfrwt beam="1">  1        2 0.16874689E+00 0.16076578E+03</pdfrwt>
<pdfrwt beam="2">  1       -2 0.10970355E-01 0.16076578E+03</pdfrwt>
<totfact> 0.13153029E+03</totfact>
</mgrwt>
</event>
<event>
 4    1  0.3365401E-008  0.4892803E+03  0.7818608E-02  0.1016615E+00
          2   -1    0    0  501    0  0.00000000000E+00  0.00000000000E+00  0.73592170394E+03  0.73592170394E+03  0.25500000000E-02 0. -1.
         -2   -1    0    0    0  501 -0.00000000000E+00 -0.00000000000E+00 -0.96414299203E+03  0.96414299203E+03  0.25500000000E-02 0.  1.
    8880022    1    1    2    0    0  0.38640880149E+03  0.25824754727E+03  0.57781886329E+03  0.75714585737E+03  0.15294330000E+03 0.  0.
    8880022    1    1    2    0    0 -0.38640880149E+03 -0.25824754727E+03 -0.80604015138E+03  0.94291883861E+03  0.15294330000E+03 0.  0.
<mgrwt>
<rscale>  0 0.48928030E+03</rscale>
<asrwt>0</asrwt>
<pdfrwt beam="1">  1        2 0.11321872E+00 0.48928030E+03</pdfrwt>
<pdfrwt beam="2">  1       -2 0.14832969E+00 0.48928030E+03</pdfrwt>
<totfact> 0.12464739E+01</totfact>
</mgrwt>
</event>
<event>
 4    1  0.3365401E-008  0.3880345E+03  0.7818608E-02  0.1048004E+00
         -2   -1    0    0    0  501 -0.00000000000E+00  0.00000000000E+00  0.50987946388E+03  0.50987946389E+03  0.25500000000E-02 0.  1.
          2   -1    0    0  501    0  0.00000000000E+00 -0.00000000000E+00 -0.69873616770E+03  0.69873616771E+03  0.25500000000E-02 0. -1.
    8880022    1    1    2    0    0 -0.35321933103E+03  0.49144687964E+02  0.36475431361E+03  0.53255653078E+03  0.15294330000E+03 0.  1.
    8880022    1    1    2    0    0  0.35321933103E+03 -0.49144687964E+02 -0.55361101743E+03  0.67605910082E+03  0.15294330000E+03 0.  0.
<mgrwt>
<rscale>  0 0.38803447E+03</rscale>
<asrwt>0</asrwt>
<pdfrwt beam="1">  1        2 0.10749787E+00 0.38803447E+03</pdfrwt>
<pdfrwt beam="2">  1       -2 0.78442995E-01 0.38803447E+03</pdfrwt>
<totfact> 0.62221052E+01</totfact>
</mgrwt>
</event>
<event>
 4    1  0.3365401E-008  0.2551797E+03  0.7818608E-02  0.1110074E+00
         -2   -1    0    0    0  501 -0.00000000000E+00  0.00000000000E+00  0.18825881500E+04  0.18825881500E+04  0.25500000000E-02 0.  1.
          2   -1    0    0  501    0  0.00000000000E+00 -0.00000000000E+00 -0.27590422107E+03  0.27590422108E+03  0.25500000000E-02 0. -1.
    8880022    1    1    2    0    0 -0.16029716293E+01  0.20426069955E+03 -0.20598946457E+03  0.32794559827E+03  0.15294330000E+03 0.  0.
    8880022    1    1    2    0    0  0.16029716293E+01 -0.20426069955E+03  0.18126733935E+04  0.18305467728E+04  0.15294330000E+03 0.  0.
<mgrwt>
<rscale>  0 0.25517965E+03</rscale>
<asrwt>0</asrwt>
<pdfrwt beam="1">  1        2 0.42446803E-01 0.25517965E+03</pdfrwt>
<pdfrwt beam="2">  1       -2 0.28962895E+00 0.25517965E+03</pdfrwt>
<totfact> 0.51076338E+00</totfact>
</mgrwt>
</event>
<event>
 4    1  0.3365401E-008  0.6008859E+03  0.7818608E-02  0.9903570E-01
          2   -1    0    0  501    0  0.00000000000E+00  0.00000000000E+00  0.13507887846E+04  0.13507887846E+04  0.25500000000E-02 0. -1.
         -2   -1    0    0    0  501 -0.00000000000E+00 -0.00000000000E+00 -0.36202183675E+03  0.36202183676E+03  0.25500000000E-02 0.  1.
    8880022    1    1    2    0    0 -0.46449524908E+03 -0.34916533219E+03  0.56316726861E+02  0.60351925600E+03  0.15294330000E+03 0.  0.
    8880022    1    1    2    0    0  0.46449524908E+03  0.34916533219E+03  0.93245022095E+03  0.11092913653E+04  0.15294330000E+03 0.  0.
<mgrwt>
<rscale>  0 0.60088594E+03</rscale>
<asrwt>0</asrwt>
<pdfrwt beam="1">  1        2 0.20781366E+00 0.60088594E+03</pdfrwt>
<pdfrwt beam="2">  1       -2 0.55695668E-01 0.60088594E+03</pdfrwt>
<totfact> 0.48507689E+01</totfact>
</mgrwt>
</event>
<event>
 4    1  0.3365401E-008  0.3097079E+03  0.7818608E-02  0.1080486E+00
         -2   -1    0    0    0  501 -0.00000000000E+00  0.00000000000E+00  0.11445562160E+04  0.11445562160E+04  0.25500000000E-02 0.  1.
          2   -1    0    0  501    0  0.00000000000E+00 -0.00000000000E+00 -0.63486608892E+03  0.63486608893E+03  0.25500000000E-02 0. -1.
    8880022    1    1    2    0    0  0.14805735513E+03  0.22495851269E+03  0.10837563212E+04  0.11271409537E+04  0.15294330000E+03 0.  0.
    8880022    1    1    2    0    0 -0.14805735513E+03 -0.22495851269E+03 -0.57406619413E+03  0.65228135118E+03  0.15294330000E+03 0. -1.
<mgrwt>
<rscale>  0 0.30970787E+03</rscale>
<asrwt>0</asrwt>
<pdfrwt beam="1">  1        2 0.97671707E-01 0.30970787E+03</pdfrwt>
<pdfrwt beam="2">  1       -2 0.17608557E+00 0.30970787E+03</pdfrwt>
<totfact> 0.97897200E+00</totfact>
</mgrwt>
</event>
<event>
 4    1  0.3365401E-008  0.1570158E+04  0.7818608E-02  0.8839094E-01
          2   -1    0    0  501    0  0.00000000000E+00  0.00000000000E+00  0.31144748203E+04  0.31144748203E+04  0.25500000000E-02 0. -1.
         -2   -1    0    0    0  501 -0.00000000000E+00 -0.00000000000E+00 -0.14593647976E+04  0.14593647976E+04  0.25500000000E-02 0.  1.
    8880022    1    1    2    0    0  0.32815397708E+03  0.15278474854E+04  0.23745297866E+04  0.28467150071E+04  0.15294330000E+03 0.  0.
    8880022    1    1    2    0    0 -0.32815397708E+03 -0.15278474854E+04 -0.71941976384E+03  0.17271246108E+04  0.15294330000E+03 0.  0.
<mgrwt>
<rscale>  0 0.15701575E+04</rscale>
<asrwt>0</asrwt>
<pdfrwt beam="1">  1        2 0.47914997E+00 0.15701575E+04</pdfrwt>
<pdfrwt beam="2">  1       -2 0.22451766E+00 0.15701575E+04</pdfrwt>
<totfact> 0.12730431E-01</totfact>
</mgrwt>
</event>
<event>
 4    1  0.3365401E-008  0.4115522E+03  0.7818608E-02  0.1039851E+00
         -2   -1    0    0    0  501 -0.00000000000E+00  0.00000000000E+00  0.12234467753E+04  0.12234467753E+04  0.25500000000E-02 0.  1.
          2   -1    0    0  501    0  0.00000000000E+00 -0.00000000000E+00 -0.33757722454E+03  0.33757722455E+03  0.25500000000E-02 0. -1.
    8880022    1    1    2    0    0 -0.39656332215E+02 -0.38001435788E+03 -0.15653619139E+03  0.44031666912E+03  0.15294330000E+03 0.  0.
    8880022    1    1    2    0    0  0.39656332215E+02  0.38001435788E+03  0.10424057421E+04  0.11207073307E+04  0.15294330000E+03 0.  1.
<mgrwt>
<rscale>  0 0.41155217E+03</rscale>
<asrwt>0</asrwt>
<pdfrwt beam="1">  1        2 0.51934958E-01 0.41155217E+03</pdfrwt>
<pdfrwt beam="2">  1       -2 0.18822258E+00 0.41155217E+03</pdfrwt>
<totfact> 0.16217105E+01</totfact>
</mgrwt>
</event>
<event>
 4    1  0.3365401E-008  0.1446661E+04  0.7818608E-02  0.8920719E-01
          2   -1    0    0  501    0  0.00000000000E+00  0.00000000000E+00  0.15144544423E+04  0.15144544423E+04  0.25500000000E-02 0. -1.
         -2   -1    0    0    0  501 -0.00000000000E+00 -0.00000000000E+00 -0.15981140864E+04  0.15981140864E+04  0.25500000000E-02 0.  1.
    8880022    1    1    2    0    0  0.99764565302E+02  0.14350898292E+04  0.53060381021E+03  0.15408983882E+04  0.15294330000E+03 0.  0.
    8880022    1    1    2    0    0 -0.99764565302E+02 -0.14350898292E+04 -0.61426345436E+03  0.15716701405E+04  0.15294330000E+03 0.  0.
<mgrwt>
<rscale>  0 0.14466608E+04</rscale>
<asrwt>0</asrwt>
<pdfrwt beam="1">  1        2 0.23299299E+00 0.14466608E+04</pdfrwt>
<pdfrwt beam="2">  1       -2 0.24586371E+00 0.14466608E+04</pdfrwt>
<totfact> 0.80252949E-01</totfact>
</mgrwt>
</event>
<event>
 4    1  0.3365401E-008  0.2854400E+03  0.7818608E-02  0.1092754E+00
          2   -1    0    0  501    0  0.00000000000E+00  0.00000000000E+00  0.25873273502E+04  0.25873273502E+04  0.25500000000E-02 0. -1.
         -2   -1    0    0    0  501 -0.00000000000E+00 -0.00000000000E+00 -0.85556381185E+03  0.85556381186E+03  0.25500000000E-02 0.  1.
    8880022    1    1    2    0    0 -0.23489332625E+03  0.53939661756E+02  0.25553500468E+04  0.25712428661E+04  0.15294330000E+03 0.  0.
    8880022    1    1    2    0    0  0.23489332625E+03 -0.53939661756E+02 -0.82358650847E+03  0.87164829592E+03  0.15294330000E+03 0.  1.
<mgrwt>
<rscale>  0 0.28544004E+03</rscale>
<asrwt>0</asrwt>
<pdfrwt beam="1">  1        2 0.39805035E+00 0.28544004E+03</pdfrwt>
<pdfrwt beam="2">  1       -2 0.13162520E+00 0.28544004E+03</pdfrwt>
<totfact> 0.16047111E+00</totfact>
</mgrwt>
</event>
<event>
 4    1  0.3365401E-008  0.5562636E+03  0.7818608E-02  0.1000054E+00
         -2   -1    0    0    0  501 -0.00000000000E+00  0.00000000000E+00  0.33203189227E+03  0.33203189228E+03  0.25500000000E-02 0.  1.
          2   -1    0    0  501    0  0.00000000000E+00 -0.00000000000E+00 -0.19386081414E+04  0.19386081414E+04  0.25500000000E-02 0. -1.
    8880022    1    1    2    0    0 -0.12363047711E+03  0.52033937693E+03  0.14836417501E+02  0.55646144013E+03  0.15294330000E+03 0.  0.
    8880022    1    1    2    0    0  0.12363047711E+03 -0.52033937693E+03 -0.16214126666E+04  0.17141785935E+04  0.15294330000E+03 0.  0.
<mgrwt>
<rscale>  0 0.55626362E+03</rscale>
<asrwt>0</asrwt>
<pdfrwt beam="1">  1        2 0.29824740E+00 0.55626362E+03</pdfrwt>
<pdfrwt beam="2">  1       -2 0.51081831E-01 0.55626362E+03</pdfrwt>
<totfact> 0.27815700E+01</totfact>
</mgrwt>
</event>
<event>
 4    1  0.3365401E-008  0.7462483E+03  0.7818608E-02  0.9641255E-01
          2   -1    0    0  501    0  0.00000000000E+00  0.00000000000E+00  0.21787801733E+04  0.21787801733E+04  0.25500000000E-02 0. -1.
         -2   -1    0    0    0  501 -0.00000000000E+00 -0.00000000000E+00 -0.31533167268E+03  0.31533167269E+03  0.25500000000E-02 0.  1.
    8880022    1    1    2    0    0 -0.70306140999E+03 -0.19798863894E+03  0.38894820229E+03  0.84152671048E+03  0.15294330000E+03 0.  0.
    8880022    1    1    2    0    0  0.70306140999E+03  0.19798863894E+03  0.14745002984E+04  0.16525851355E+04  0.15294330000E+03 0.  0.
<mgrwt>
<rscale>  0 0.74624828E+03</rscale>
<asrwt>0</asrwt>
<pdfrwt beam="1">  1        2 0.33519696E+00 0.74624828E+03</pdfrwt>
<pdfrwt beam="2">  1       -2 0.48512563E-01 0.74624828E+03</pdfrwt>
<totfact> 0.22176098E+01</totfact>
</mgrwt>
</event>
<event>
 4    1  0.3365401E-008  0.7554606E+03  0.7818608E-02  0.9626822E-01
          2   -1    0    0  501    0  0.00000000000E+00  0.00000000000E+00  0.98766641129E+03  0.98766641129E+03  0.25500000000E-02 0. -1.
         -2   -1    0    0    0  501 -0.00000000000E+00 -0.00000000000E+00 -0.13667075749E+04  0.13667075749E+04  0.25500000000E-02 0.  1.
    8880022    1    1    2    0    0 -0.21024117779E+03  0.70931494806E+03 -0.10838707743E+04  0.13211724175E+04  0.15294330000E+03 0.  0.
    8880022    1    1    2    0    0  0.21024117779E+03 -0.70931494806E+03  0.70482961070E+03  0.10332015687E+04  0.15294330000E+03 0.  0.
<mgrwt>
<rscale>  0 0.75546059E+03</rscale>
<asrwt>0</asrwt>
<pdfrwt beam="1">  1        2 0.15194868E+00 0.75546059E+03</pdfrwt>
<pdfrwt beam="2">  1       -2 0.21026270E+00 0.75546059E+03</pdfrwt>
<totfact> 0.29991094E+00</totfact>
</mgrwt>
</event>
<event>
 4    1  0.3365401E-008  0.9081994E+03  0.7818608E-02  0.9415389E-01
          2   -1    0    0  501    0  0.00000000000E+00  0.00000000000E+00  0.13819567840E+04  0.13819567840E+04  0.25500000000E-02 0. -1.
         -2   -1    0    0    0  501 -0.00000000000E+00 -0.00000000000E+00 -0.11059581973E+04  0.11059581973E+04  0.25500000000E-02 0.  1.
    8880022    1    1    2    0    0  0.28681813156E+03 -0.84803882472E+03  0.98199378597E+03  0.13375866094E+04  0.15294330000E+03 0.  0.
    8880022    1    1    2    0    0 -0.28681813156E+03  0.84803882472E+03 -0.70599519924E+03  0.11503283719E+04  0.15294330000E+03 0.  0.
<mgrwt>
<rscale>  0 0.90819940E+03</rscale>
<asrwt>0</asrwt>
<pdfrwt beam="1">  1        2 0.21260874E+00 0.90819940E+03</pdfrwt>
<pdfrwt beam="2">  1       -2 0.17014742E+00 0.90819940E+03</pdfrwt>
<totfact> 0.31610498E+00</totfact>
</mgrwt>
</event>
<event>
 4    1  0.3365401E-008  0.3903470E+03  0.7818608E-02  0.1047174E+00
          2   -1    0    0  501    0  0.00000000000E+00  0.00000000000E+00  0.43981446914E+03  0.43981446915E+03  0.25500000000E-02 0. -1.
         -2   -1    0    0    0  501 -0.00000000000E+00 -0.00000000000E+00 -0.41733305029E+03  0.41733305029E+03  0.25500000000E-02 0.  1.
    8880022    1    1    2    0    0 -0.28299496846E+03  0.22111759200E+03  0.18787531013E+03  0.43320656370E+03  0.15294330000E+03 0. -1.
    8880022    1    1    2    0    0  0.28299496846E+03 -0.22111759200E+03 -0.16539389128E+03  0.42394095574E+03  0.15294330000E+03 0.  1.
<mgrwt>
<rscale>  0 0.39034702E+03</rscale>
<asrwt>0</asrwt>
<pdfrwt beam="1">  1        2 0.67663765E-01 0.39034702E+03</pdfrwt>
<pdfrwt beam="2">  1       -2 0.64205085E-01 0.39034702E+03</pdfrwt>
<totfact> 0.16479364E+02</totfact>
</mgrwt>
</event>
<event>
 4    1  0.3365401E-008  0.4948787E+03  0.7818608E-02  0.1015124E+00
          2   -1    0    0  501    0  0.00000000000E+00  0.00000000000E+00  0.14964994026E+04  0.14964994026E+04  0.25500000000E-02 0. -1.
         -2   -1    0    0    0  501 -0.00000000000E+00 -0.00000000000E+00 -0.45581318668E+03  0.45581318668E+03  0.25500000000E-02 0.  1.
    8880022    1    1    2    0    0  0.37426869788E+03 -0.28537032547E+03 -0.26117180378E+03  0.55956737304E+03  0.15294330000E+03 0.  0.
    8880022    1    1    2    0    0 -0.37426869788E+03  0.28537032547E+03  0.13018580197E+04  0.13927452162E+04  0.15294330000E+03 0. -1.
<mgrwt>
<rscale>  0 0.49487871E+03</rscale>
<asrwt>0</asrwt>
<pdfrwt beam="1">  1        2 0.23023068E+00 0.49487871E+03</pdfrwt>
<pdfrwt beam="2">  1       -2 0.70125105E-01 0.49487871E+03</pdfrwt>
<totfact> 0.25085270E+01</totfact>
</mgrwt>
</event>
<event>
 4    1  0.3365401E-008  0.5985307E+03  0.7818608E-02  0.9908459E-01
          2   -1    0    0  501    0  0.00000000000E+00  0.00000000000E+00  0.16029775195E+04  0.16029775195E+04  0.25500000000E-02 0. -1.
         -2   -1    0    0    0  501 -0.00000000000E+00 -0.00000000000E+00 -0.33508965947E+03  0.33508965948E+03  0.25500000000E-02 0.  1.
    8880022    1    1    2    0    0  0.97112775923E+01 -0.57857845951E+03  0.11931893516E+04  0.13348931884E+04  0.15294330000E+03 0.  0.
    8880022    1    1    2    0    0 -0.97112775923E+01  0.57857845951E+03  0.74698508453E+02  0.60317399057E+03  0.15294330000E+03 0.  0.
<mgrwt>
<rscale>  0 0.59853070E+03</rscale>
<asrwt>0</asrwt>
<pdfrwt beam="1">  1        2 0.24661193E+00 0.59853070E+03</pdfrwt>
<pdfrwt beam="2">  1       -2 0.51552255E-01 0.59853070E+03</pdfrwt>
<totfact> 0.41213974E+01</totfact>
</mgrwt>
</event>
<event>
 4    1  0.3365401E-008  0.5700553E+03  0.7818608E-02  0.9969556E-01
          2   -1    0    0  501    0  0.00000000000E+00  0.00000000000E+00  0.55144088924E+03  0.55144088925E+03  0.25500000000E-02 0. -1.
         -2   -1    0    0    0  501 -0.00000000000E+00 -0.00000000000E+00 -0.96775398724E+03  0.96775398724E+03  0.25500000000E-02 0.  1.
    8880022    1    1    2    0    0  0.29665940986E+03  0.46213047558E+03 -0.68317302582E+03  0.88976874419E+03  0.15294330000E+03 0.  0.
    8880022    1    1    2    0    0 -0.29665940986E+03 -0.46213047558E+03  0.26685992782E+03  0.62942613229E+03  0.15294330000E+03 0.  0.
<mgrwt>
<rscale>  0 0.57005529E+03</rscale>
<asrwt>0</asrwt>
<pdfrwt beam="1">  1        2 0.84837060E-01 0.57005529E+03</pdfrwt>
<pdfrwt beam="2">  1       -2 0.14888523E+00 0.57005529E+03</pdfrwt>
<totfact> 0.17332386E+01</totfact>
</mgrwt>
</event>
<event>
 4    1  0.3365401E-008  0.1259718E+04  0.7818608E-02  0.9062134E-01
         -2   -1    0    0    0  501 -0.00000000000E+00  0.00000000000E+00  0.51798226301E+03  0.51798226301E+03  0.25500000000E-02 0.  1.
          2   -1    0    0  501    0  0.00000000000E+00 -0.00000000000E+00 -0.35838486292E+04  0.35838486292E+04  0.25500000000E-02 0. -1.
    8880022    1    1    2    0    0  0.31562957489E+03  0.12099069499E+04 -0.75152137077E+03  0.14668581662E+04  0.15294330000E+03 0.  0.
    8880022    1    1    2    0    0 -0.31562957489E+03 -0.12099069499E+04 -0.23143449954E+04  0.26349727260E+04  0.15294330000E+03 0.  0.
<mgrwt>
<rscale>  0 0.12597176E+04</rscale>
<asrwt>0</asrwt>
<pdfrwt beam="1">  1        2 0.55136131E+00 0.12597176E+04</pdfrwt>
<pdfrwt beam="2">  1       -2 0.79689581E-01 0.12597176E+04</pdfrwt>
<totfact> 0.98576655E-01</totfact>
</mgrwt>
</event>
<event>
 4    1  0.3365401E-008  0.6258799E+03  0.7818608E-02  0.9853122E-01
         -2   -1    0    0    0  501 -0.00000000000E+00  0.00000000000E+00  0.28804712312E+03  0.28804712313E+03  0.25500000000E-02 0.  1.
          2   -1    0    0  501    0  0.00000000000E+00 -0.00000000000E+00 -0.16423359206E+04  0.16423359206E+04  0.25500000000E-02 0. -1.
    8880022    1    1    2    0    0  0.55953648743E+03  0.23505934473E+03 -0.10773792006E+04  0.12459821713E+04  0.15294330000E+03 0.  0.
    8880022    1    1    2    0    0 -0.55953648743E+03 -0.23505934473E+03 -0.27690959686E+03  0.68440087241E+03  0.15294330000E+03 0.  0.
<mgrwt>
<rscale>  0 0.62587988E+03</rscale>
<asrwt>0</asrwt>
<pdfrwt beam="1">  1        2 0.25266706E+00 0.62587988E+03</pdfrwt>
<pdfrwt beam="2">  1       -2 0.44314943E-01 0.62587988E+03</pdfrwt>
<totfact> 0.52977188E+01</totfact>
</mgrwt>
</event>
<event>
 4    1  0.3365401E-008  0.2881549E+03  0.7818608E-02  0.1091316E+00
         -2   -1    0    0    0  501 -0.00000000000E+00  0.00000000000E+00  0.62305565094E+03  0.62305565094E+03  0.25500000000E-02 0.  1.
          2   -1    0    0  501    0  0.00000000000E+00 -0.00000000000E+00 -0.19430347652E+04  0.19430347652E+04  0.25500000000E-02 0. -1.
    8880022    1    1    2    0    0 -0.18861992669E+03  0.15512606208E+03  0.57827376074E+03  0.64609114470E+03  0.15294330000E+03 0.  1.
    8880022    1    1    2    0    0  0.18861992669E+03 -0.15512606208E+03 -0.18982528750E+04  0.19199992714E+04  0.15294330000E+03 0.  0.
<mgrwt>
<rscale>  0 0.28815486E+03</rscale>
<asrwt>0</asrwt>
<pdfrwt beam="1">  1        2 0.29892842E+00 0.28815486E+03</pdfrwt>
<pdfrwt beam="2">  1       -2 0.95854716E-01 0.28815486E+03</pdfrwt>
<totfact> 0.76164852E+00</totfact>
</mgrwt>
</event>
<event>
 4    1  0.3365401E-008  0.3898948E+03  0.7818608E-02  0.1047336E+00
          2   -1    0    0  501    0  0.00000000000E+00  0.00000000000E+00  0.26473989056E+04  0.26473989056E+04  0.25500000000E-02 0. -1.
         -2   -1    0    0    0  501 -0.00000000000E+00 -0.00000000000E+00 -0.41966910535E+03  0.41966910536E+03  0.25500000000E-02 0.  1.
    8880022    1    1    2    0    0 -0.35821127279E+03  0.17635797292E+02 -0.31089796801E+03  0.49867377796E+03  0.15294330000E+03 0.  0.
    8880022    1    1    2    0    0  0.35821127279E+03 -0.17635797292E+02  0.25386277683E+04  0.25683942330E+04  0.15294330000E+03 0.  0.
<mgrwt>
<rscale>  0 0.38989485E+03</rscale>
<asrwt>0</asrwt>
<pdfrwt beam="1">  1        2 0.40729214E+00 0.38989485E+03</pdfrwt>
<pdfrwt beam="2">  1       -2 0.64564478E-01 0.38989485E+03</pdfrwt>
<totfact> 0.72825775E+00</totfact>
</mgrwt>
</event>
<event>
 4    1  0.3365401E-008  0.6594597E+03  0.7818608E-02  0.9789189E-01
          2   -1    0    0  501    0  0.00000000000E+00  0.00000000000E+00  0.42626281506E+04  0.42626281506E+04  0.25500000000E-02 0. -1.
         -2   -1    0    0    0  501 -0.00000000000E+00 -0.00000000000E+00 -0.66034711410E+03  0.66034711411E+03  0.25500000000E-02 0.  1.
    8880022    1    1    2    0    0  0.64032144011E+03  0.38522136962E+02  0.40645056105E+04  0.41176562524E+04  0.15294330000E+03 0.  0.
    8880022    1    1    2    0    0 -0.64032144011E+03 -0.38522136962E+02 -0.46222457406E+03  0.80531901230E+03  0.15294330000E+03 0.  0.
<mgrwt>
<rscale>  0 0.65945974E+03</rscale>
<asrwt>0</asrwt>
<pdfrwt beam="1">  1        2 0.65578894E+00 0.65945974E+03</pdfrwt>
<pdfrwt beam="2">  1       -2 0.10159186E+00 0.65945974E+03</pdfrwt>
<totfact> 0.18940954E-01</totfact>
</mgrwt>
</event>
<event>
 4    1  0.3365401E-008  0.5568887E+03  0.7818608E-02  0.9999119E-01
          2   -1    0    0  501    0  0.00000000000E+00  0.00000000000E+00  0.11480760675E+04  0.11480760675E+04  0.25500000000E-02 0. -1.
         -2   -1    0    0    0  501 -0.00000000000E+00 -0.00000000000E+00 -0.64079120632E+03  0.64079120632E+03  0.25500000000E-02 0.  1.
    8880022    1    1    2    0    0  0.46546975754E+03  0.26470971182E+03  0.93391173167E+03  0.10873435990E+04  0.15294330000E+03 0.  0.
    8880022    1    1    2    0    0 -0.46546975754E+03 -0.26470971182E+03 -0.42662687048E+03  0.70152367483E+03  0.15294330000E+03 0.  0.
<mgrwt>
<rscale>  0 0.55688866E+03</rscale>
<asrwt>0</asrwt>
<pdfrwt beam="1">  1        2 0.17662709E+00 0.55688866E+03</pdfrwt>
<pdfrwt beam="2">  1       -2 0.98583264E-01 0.55688866E+03</pdfrwt>
<totfact> 0.18165720E+01</totfact>
</mgrwt>
</event>
<event>
 4    1  0.3365401E-008  0.3762615E+03  0.7818608E-02  0.1052324E+00
         -2   -1    0    0    0  501 -0.00000000000E+00  0.00000000000E+00  0.78945460780E+03  0.78945460781E+03  0.25500000000E-02 0.  1.
          2   -1    0    0  501    0  0.00000000000E+00 -0.00000000000E+00 -0.12619848645E+04  0.12619848645E+04  0.25500000000E-02 0. -1.
    8880022    1    1    2    0    0 -0.30579361678E+03 -0.15707100863E+03 -0.11863156624E+04  0.12445551582E+04  0.15294330000E+03 0.  0.
    8880022    1    1    2    0    0  0.30579361678E+03  0.15707100863E+03  0.71378540577E+03  0.80688431409E+03  0.15294330000E+03 0.  0.
<mgrwt>
<rscale>  0 0.37626147E+03</rscale>
<asrwt>0</asrwt>
<pdfrwt beam="1">  1        2 0.19415152E+00 0.37626147E+03</pdfrwt>
<pdfrwt beam="2">  1       -2 0.12145456E+00 0.37626147E+03</pdfrwt>
<totfact> 0.97979388E+00</totfact>
</mgrwt>
</event>
<event>
 4    1  0.3365401E-008  0.7135243E+03  0.7818608E-02  0.9694379E-01
          2   -1    0    0  501    0  0.00000000000E+00  0.00000000000E+00  0.22132256682E+04  0.22132256682E+04  0.25500000000E-02 0. -1.
         -2   -1    0    0    0  501 -0.00000000000E+00 -0.00000000000E+00 -0.67100577037E+03  0.67100577038E+03  0.25500000000E-02 0.  1.
    8880022    1    1    2    0    0  0.93737653734E+02 -0.69060737786E+03  0.19401850806E+04  0.20672288451E+04  0.15294330000E+03 0.  0.
    8880022    1    1    2    0    0 -0.93737653734E+02  0.69060737786E+03 -0.39796518274E+03  0.81700259349E+03  0.15294330000E+03 0.  0.
<mgrwt>
<rscale>  0 0.71352432E+03</rscale>
<asrwt>0</asrwt>
<pdfrwt beam="1">  1        2 0.34049626E+00 0.71352432E+03</pdfrwt>
<pdfrwt beam="2">  1       -2 0.10323166E+00 0.71352432E+03</pdfrwt>
<totfact> 0.40754529E+00</totfact>
</mgrwt>
</event>
<event>
 4    1  0.3365401E-008  0.7882867E+03  0.7818608E-02  0.9577128E-01
          2   -1    0    0  501    0  0.00000000000E+00  0.00000000000E+00  0.94818070647E+03  0.94818070647E+03  0.25500000000E-02 0. -1.
         -2   -1    0    0    0  501 -0.00000000000E+00 -0.00000000000E+00 -0.16856496986E+04  0.16856496986E+04  0.25500000000E-02 0.  1.
    8880022    1    1    2    0    0  0.51732229513E+03  0.57478863825E+03  0.66083259653E+03  0.10286377931E+04  0.15294330000E+03 0.  0.
    8880022    1    1    2    0    0 -0.51732229513E+03 -0.57478863825E+03 -0.13983015886E+04  0.16051926120E+04  0.15294330000E+03 0.  0.
<mgrwt>
<rscale>  0 0.78828674E+03</rscale>
<asrwt>0</asrwt>
<pdfrwt beam="1">  1        2 0.14587395E+00 0.78828674E+03</pdfrwt>
<pdfrwt beam="2">  1       -2 0.25933072E+00 0.78828674E+03</pdfrwt>
<totfact> 0.15777692E+00</totfact>
</mgrwt>
</event>
<event>
 4    1  0.3365401E-008  0.3599062E+03  0.7818608E-02  0.1058621E+00
          2   -1    0    0  501    0  0.00000000000E+00  0.00000000000E+00  0.24955916554E+04  0.24955916554E+04  0.25500000000E-02 0. -1.
         -2   -1    0    0    0  501 -0.00000000000E+00 -0.00000000000E+00 -0.15823970250E+03  0.15823970252E+03  0.25500000000E-02 0.  1.
    8880022    1    1    2    0    0  0.20569039048E+03  0.25265044845E+03  0.22564135404E+04  0.22849364332E+04  0.15294330000E+03 0.  0.
    8880022    1    1    2    0    0 -0.20569039048E+03 -0.25265044845E+03  0.80938412589E+02  0.36889492472E+03  0.15294330000E+03 0.  0.
<mgrwt>
<rscale>  0 0.35990615E+03</rscale>
<asrwt>0</asrwt>
<pdfrwt beam="1">  1        2 0.38393717E+00 0.35990615E+03</pdfrwt>
<pdfrwt beam="2">  1       -2 0.24344570E-01 0.35990615E+03</pdfrwt>
<totfact> 0.58930104E+01</totfact>
</mgrwt>
</event>
<event>
 4    1  0.3365401E-008  0.6738170E+03  0.7818608E-02  0.9763087E-01
         -2   -1    0    0    0  501 -0.00000000000E+00  0.00000000000E+00  0.28011407191E+03  0.28011407193E+03  0.25500000000E-02 0.  1.
          2   -1    0    0  501    0  0.00000000000E+00 -0.00000000000E+00 -0.37839024781E+04  0.37839024781E+04  0.25500000000E-02 0. -1.
    8880022    1    1    2    0    0  0.54703298384E+03 -0.36248127118E+03 -0.21555646977E+03  0.70745600714E+03  0.15294330000E+03 0.  0.
    8880022    1    1    2    0    0 -0.54703298384E+03  0.36248127118E+03 -0.32882319364E+04  0.33565605429E+04  0.15294330000E+03 0.  0.
<mgrwt>
<rscale>  0 0.67381705E+03</rscale>
<asrwt>0</asrwt>
<pdfrwt beam="1">  1        2 0.58213881E+00 0.67381705E+03</pdfrwt>
<pdfrwt beam="2">  1       -2 0.43094475E-01 0.67381705E+03</pdfrwt>
<totfact> 0.28841201E+00</totfact>
</mgrwt>
</event>
<event>
 4    1  0.3365401E-008  0.3464304E+03  0.7818608E-02  0.1064090E+00
          2   -1    0    0  501    0  0.00000000000E+00  0.00000000000E+00  0.39473410926E+03  0.39473410927E+03  0.25500000000E-02 0. -1.
         -2   -1    0    0    0  501 -0.00000000000E+00 -0.00000000000E+00 -0.52486486000E+03  0.52486486001E+03  0.25500000000E-02 0.  1.
    8880022    1    1    2    0    0  0.25158876103E+03  0.18255255018E+03 -0.36330896856E+03  0.50200338436E+03  0.15294330000E+03 0.  1.
    8880022    1    1    2    0    0 -0.25158876103E+03 -0.18255255018E+03  0.23317821782E+03  0.41759558491E+03  0.15294330000E+03 0.  0.
<mgrwt>
<rscale>  0 0.34643036E+03</rscale>
<asrwt>0</asrwt>
<pdfrwt beam="1">  1        2 0.60728324E-01 0.34643036E+03</pdfrwt>
<pdfrwt beam="2">  1       -2 0.80748440E-01 0.34643036E+03</pdfrwt>
<totfact> 0.11327573E+02</totfact>
</mgrwt>
</event>
<event>
 4    1  0.3365401E-008  0.7769831E+03  0.7818608E-02  0.9593944E-01
          2   -1    0    0  501    0  0.00000000000E+00  0.00000000000E+00  0.29711879862E+04  0.29711879862E+04  0.25500000000E-02 0. -1.
         -2   -1    0    0    0  501 -0.00000000000E+00 -0.00000000000E+00 -0.26393707733E+03  0.26393707734E+03  0.25500000000E-02 0.  1.
    8880022    1    1    2    0    0  0.11128760090E+03 -0.75360872885E+03  0.57757636140E+03  0.96814108093E+03  0.15294330000E+03 0.  0.
    8880022    1    1    2    0    0 -0.11128760090E+03  0.75360872885E+03  0.21296745475E+04  0.22669839826E+04  0.15294330000E+03 0. -1.
<mgrwt>
<rscale>  0 0.77698308E+03</rscale>
<asrwt>0</asrwt>
<pdfrwt beam="1">  1        2 0.45710586E+00 0.77698308E+03</pdfrwt>
<pdfrwt beam="2">  1       -2 0.40605703E-01 0.77698308E+03</pdfrwt>
<totfact> 0.11014583E+01</totfact>
</mgrwt>
</event>
<event>
 4    1  0.3365401E-008  0.1867223E+03  0.7818608E-02  0.1161451E+00
         -2   -1    0    0    0  501 -0.00000000000E+00  0.00000000000E+00  0.69751271628E+02  0.69751271675E+02  0.25500000000E-02 0.  1.
          2   -1    0    0  501    0  0.00000000000E+00 -0.00000000000E+00 -0.21821661338E+04  0.21821661338E+04  0.25500000000E-02 0. -1.
    8880022    1    1    2    0    0 -0.20195672314E+02  0.10519359843E+03 -0.20448340291E+04  0.20533415249E+04  0.15294330000E+03 0.  0.
    8880022    1    1    2    0    0  0.20195672314E+02 -0.10519359843E+03 -0.67580833076E+02  0.19857588057E+03  0.15294330000E+03 0.  0.
<mgrwt>
<rscale>  0 0.18672228E+03</rscale>
<asrwt>0</asrwt>
<pdfrwt beam="1">  1        2 0.33571782E+00 0.18672228E+03</pdfrwt>
<pdfrwt beam="2">  1       -2 0.10730967E-01 0.18672228E+03</pdfrwt>
<totfact> 0.36116447E+02</totfact>
</mgrwt>
</event>
<event>
 4    1  0.3365401E-008  0.3853615E+03  0.7818608E-02  0.1048970E+00
          2   -1    0    0  501    0  0.00000000000E+00  0.00000000000E+00  0.28290073521E+04  0.28290073521E+04  0.25500000000E-02 0. -1.
         -2   -1    0    0    0  501 -0.00000000000E+00 -0.00000000000E+00 -0.13270599723E+03  0.13270599725E+03  0.25500000000E-02 0.  1.
    8880022    1    1    2    0    0  0.26225086289E+03  0.23735279421E+03  0.19684748453E+03  0.43272676042E+03  0.15294330000E+03 0.  0.
    8880022    1    1    2    0    0 -0.26225086289E+03 -0.23735279421E+03  0.24994538703E+04  0.25289865889E+04  0.15294330000E+03 0.  0.
<mgrwt>
<rscale>  0 0.38536154E+03</rscale>
<asrwt>0</asrwt>
<pdfrwt beam="1">  1        2 0.43523186E+00 0.38536154E+03</pdfrwt>
<pdfrwt beam="2">  1       -2 0.20416309E-01 0.38536154E+03</pdfrwt>
<totfact> 0.51559082E+01</totfact>
</mgrwt>
</event>
<event>
 4    1  0.3365401E-008  0.2580265E+03  0.7818608E-02  0.1108335E+00
         -2   -1    0    0    0  501 -0.00000000000E+00  0.00000000000E+00  0.81400011427E+02  0.81400011467E+02  0.25500000000E-02 0.  1.
          2   -1    0    0  501    0  0.00000000000E+00 -0.00000000000E+00 -0.11406873174E+04  0.11406873174E+04  0.25500000000E-02 0. -1.
    8880022    1    1    2    0    0 -0.78801790596E+01  0.20766295246E+03 -0.20459950267E+03  0.32930018001E+03  0.15294330000E+03 0.  0.
    8880022    1    1    2    0    0  0.78801790596E+01 -0.20766295246E+03 -0.85468780326E+03  0.89278714883E+03  0.15294330000E+03 0.  0.
<mgrwt>
<rscale>  0 0.25802646E+03</rscale>
<asrwt>0</asrwt>
<pdfrwt beam="1">  1        2 0.17549035E+00 0.25802646E+03</pdfrwt>
<pdfrwt beam="2">  1       -2 0.12523079E-01 0.25802646E+03</pdfrwt>
<totfact> 0.99954818E+02</totfact>
</mgrwt>
</event>
<event>
 4    1  0.3365401E-008  0.5877704E+03  0.7818608E-02  0.9931108E-01
          2   -1    0    0  501    0  0.00000000000E+00  0.00000000000E+00  0.57006247276E+03  0.57006247276E+03  0.25500000000E-02 0. -1.
         -2   -1    0    0    0  501 -0.00000000000E+00 -0.00000000000E+00 -0.91390814798E+03  0.91390814798E+03  0.25500000000E-02 0.  1.
    8880022    1    1    2    0    0 -0.56461778854E+03  0.57351557665E+02  0.25873715462E+03  0.64219858026E+03  0.15294330000E+03 0.  0.
    8880022    1    1    2    0    0  0.56461778854E+03 -0.57351557665E+02 -0.60258282984E+03  0.84177204048E+03  0.15294330000E+03 0.  0.
<mgrwt>
<rscale>  0 0.58777045E+03</rscale>
<asrwt>0</asrwt>
<pdfrwt beam="1">  1        2 0.87701918E-01 0.58777045E+03</pdfrwt>
<pdfrwt beam="2">  1       -2 0.14060125E+00 0.58777045E+03</pdfrwt>
<totfact> 0.19306118E+01</totfact>
</mgrwt>
</event>
<event>
 4    1  0.3365401E-008  0.5158926E+03  0.7818608E-02  0.1009712E+00
         -2   -1    0    0    0  501 -0.00000000000E+00  0.00000000000E+00  0.84498324423E+03  0.84498324424E+03  0.25500000000E-02 0.  1.
          2   -1    0    0  501    0  0.00000000000E+00 -0.00000000000E+00 -0.86386153007E+03  0.86386153008E+03  0.25500000000E-02 0. -1.
    8880022    1    1    2    0    0 -0.36285579677E+03  0.33330050057E+03 -0.69051177053E+03  0.86194646654E+03  0.15294330000E+03 0.  0.
    8880022    1    1    2    0    0  0.36285579677E+03 -0.33330050057E+03  0.67163348469E+03  0.84689830777E+03  0.15294330000E+03 0.  0.
<mgrwt>
<rscale>  0 0.51589263E+03</rscale>
<asrwt>0</asrwt>
<pdfrwt beam="1">  1        2 0.13290177E+00 0.51589263E+03</pdfrwt>
<pdfrwt beam="2">  1       -2 0.12999742E+00 0.51589263E+03</pdfrwt>
<totfact> 0.14116011E+01</totfact>
</mgrwt>
</event>
<event>
 4    1  0.3365401E-008  0.3800254E+03  0.7818608E-02  0.1050924E+00
          2   -1    0    0  501    0  0.00000000000E+00  0.00000000000E+00  0.16963491920E+04  0.16963491920E+04  0.25500000000E-02 0. -1.
         -2   -1    0    0    0  501 -0.00000000000E+00 -0.00000000000E+00 -0.26787502919E+03  0.26787502920E+03  0.25500000000E-02 0.  1.
    8880022    1    1    2    0    0  0.32936494663E+03 -0.11201079912E+03  0.15254060703E+04  0.15720314945E+04  0.15294330000E+03 0.  0.
    8880022    1    1    2    0    0 -0.32936494663E+03  0.11201079912E+03 -0.96931907520E+02  0.39219272673E+03  0.15294330000E+03 0.  0.
<mgrwt>
<rscale>  0 0.38002545E+03</rscale>
<asrwt>0</asrwt>
<pdfrwt beam="1">  1        2 0.26097680E+00 0.38002545E+03</pdfrwt>
<pdfrwt beam="2">  1       -2 0.41211543E-01 0.38002545E+03</pdfrwt>
<totfact> 0.59496946E+01</totfact>
</mgrwt>
</event>
<event>
 4    1  0.3365401E-008  0.1010764E+04  0.7818608E-02  0.9296817E-01
         -2   -1    0    0    0  501 -0.00000000000E+00  0.00000000000E+00  0.69579388123E+03  0.69579388123E+03  0.25500000000E-02 0.  1.
          2   -1    0    0  501    0  0.00000000000E+00 -0.00000000000E+00 -0.14988505115E+04  0.14988505115E+04  0.25500000000E-02 0. -1.
    8880022    1    1    2    0    0 -0.59700158511E+02  0.99734081381E+03 -0.24490408424E+03  0.10400108035E+04  0.15294330000E+03 0.  0.
    8880022    1    1    2    0    0  0.59700158511E+02 -0.99734081381E+03 -0.55815254602E+03  0.11546335893E+04  0.15294330000E+03 0.  0.
<mgrwt>
<rscale>  0 0.10107643E+04</rscale>
<asrwt>0</asrwt>
<pdfrwt beam="1">  1        2 0.23059239E+00 0.10107643E+04</pdfrwt>
<pdfrwt beam="2">  1       -2 0.10704521E+00 0.10107643E+04</pdfrwt>
<totfact> 0.88660696E+00</totfact>
</mgrwt>
</event>
<event>
 4    1  0.3365401E-008  0.2363715E+03  0.7818608E-02  0.1122234E+00
          2   -1    0    0  501    0  0.00000000000E+00  0.00000000000E+00  0.86644278435E+03  0.86644278436E+03  0.25500000000E-02 0. -1.
         -2   -1    0    0    0  501 -0.00000000000E+00 -0.00000000000E+00 -0.81201547218E+03  0.81201547218E+03  0.25500000000E-02 0.  1.
    8880022    1    1    2    0    0  0.36573573415E+02  0.17647149078E+03 -0.77800386250E+03  0.81311836556E+03  0.15294330000E+03 0.  1.
    8880022    1    1    2    0    0 -0.36573573415E+02 -0.17647149078E+03  0.83243117468E+03  0.86533989098E+03  0.15294330000E+03 0.  0.
<mgrwt>
<rscale>  0 0.23637146E+03</rscale>
<asrwt>0</asrwt>
<pdfrwt beam="1">  1        2 0.13329889E+00 0.23637146E+03</pdfrwt>
<pdfrwt beam="2">  1       -2 0.12492546E+00 0.23637146E+03</pdfrwt>
<totfact> 0.16530098E+01</totfact>
</mgrwt>
</event>
<event>
 4    1  0.3365401E-008  0.8562613E+03  0.7818608E-02  0.9481972E-01
         -2   -1    0    0    0  501 -0.00000000000E+00  0.00000000000E+00  0.54213531998E+03  0.54213531999E+03  0.25500000000E-02 0.  1.
          2   -1    0    0  501    0  0.00000000000E+00 -0.00000000000E+00 -0.15288321961E+04  0.15288321961E+04  0.25500000000E-02 0. -1.
    8880022    1    1    2    0    0 -0.80720792451E+03  0.24126168758E+03 -0.14158311541E+03  0.86788781929E+03  0.15294330000E+03 0.  0.
    8880022    1    1    2    0    0  0.80720792451E+03 -0.24126168758E+03 -0.84511376070E+03  0.12030796968E+04  0.15294330000E+03 0.  0.
<mgrwt>
<rscale>  0 0.85626134E+03</rscale>
<asrwt>0</asrwt>
<pdfrwt beam="1">  1        2 0.23520495E+00 0.85626134E+03</pdfrwt>
<pdfrwt beam="2">  1       -2 0.83405434E-01 0.85626134E+03</pdfrwt>
<totfact> 0.15563172E+01</totfact>
</mgrwt>
</event>
<event>
 4    1  0.3365401E-008  0.5534939E+03  0.7818608E-02  0.1000688E+00
         -2   -1    0    0    0  501 -0.00000000000E+00  0.00000000000E+00  0.10194889563E+04  0.10194889563E+04  0.25500000000E-02 0.  1.
          2   -1    0    0  501    0  0.00000000000E+00 -0.00000000000E+00 -0.18992910375E+04  0.18992910375E+04  0.25500000000E-02 0. -1.
    8880022    1    1    2    0    0 -0.33538489680E+03  0.41289319078E+03  0.89907124028E+03  0.10557862303E+04  0.15294330000E+03 0.  0.
    8880022    1    1    2    0    0  0.33538489680E+03 -0.41289319078E+03 -0.17788733214E+04  0.18629937635E+04  0.15294330000E+03 0.  0.
<mgrwt>
<rscale>  0 0.55349387E+03</rscale>
<asrwt>0</asrwt>
<pdfrwt beam="1">  1        2 0.29219862E+00 0.55349387E+03</pdfrwt>
<pdfrwt beam="2">  1       -2 0.15684445E+00 0.55349387E+03</pdfrwt>
<totfact> 0.21831985E+00</totfact>
</mgrwt>
</event>
<event>
 4    1  0.3365401E-008  0.5079617E+03  0.7818608E-02  0.1011721E+00
         -2   -1    0    0    0  501 -0.00000000000E+00  0.00000000000E+00  0.61234892825E+03  0.61234892826E+03  0.25500000000E-02 0.  1.
          2   -1    0    0  501    0  0.00000000000E+00 -0.00000000000E+00 -0.51597906284E+03  0.51597906285E+03  0.25500000000E-02 0. -1.
    8880022    1    1    2    0    0 -0.45202204925E+03 -0.17409629866E+03  0.28976274769E+03  0.58479702221E+03  0.15294330000E+03 0.  0.
    8880022    1    1    2    0    0  0.45202204925E+03  0.17409629866E+03 -0.19339288228E+03  0.54353096890E+03  0.15294330000E+03 0.  0.
<mgrwt>
<rscale>  0 0.50796172E+03</rscale>
<asrwt>0</asrwt>
<pdfrwt beam="1">  1        2 0.79381394E-01 0.50796172E+03</pdfrwt>
<pdfrwt beam="2">  1       -2 0.94207528E-01 0.50796172E+03</pdfrwt>
<totfact> 0.58156080E+01</totfact>
</mgrwt>
</event>
<event>
 4    1  0.3365401E-008  0.3375712E+03  0.7818608E-02  0.1067835E+00
         -2   -1    0    0    0  501 -0.00000000000E+00  0.00000000000E+00  0.43994638097E+03  0.43994638098E+03  0.25500000000E-02 0.  1.
          2   -1    0    0  501    0  0.00000000000E+00 -0.00000000000E+00 -0.72565827516E+03  0.72565827517E+03  0.25500000000E-02 0. -1.
    8880022    1    1    2    0    0 -0.23392533076E+03 -0.18931876721E+03 -0.61021000544E+03  0.69735970614E+03  0.15294330000E+03 0. -1.
    8880022    1    1    2    0    0  0.23392533076E+03  0.18931876721E+03  0.32449811125E+03  0.46824495001E+03  0.15294330000E+03 0.  0.
<mgrwt>
<rscale>  0 0.33757119E+03</rscale>
<asrwt>0</asrwt>
<pdfrwt beam="1">  1        2 0.11163973E+00 0.33757119E+03</pdfrwt>
<pdfrwt beam="2">  1       -2 0.67684058E-01 0.33757119E+03</pdfrwt>
<totfact> 0.82456144E+01</totfact>
</mgrwt>
</event>
<event>
 4    1  0.3365401E-008  0.3631795E+03  0.7818608E-02  0.1057332E+00
          2   -1    0    0  501    0  0.00000000000E+00  0.00000000000E+00  0.15556764273E+04  0.15556764273E+04  0.25500000000E-02 0. -1.
         -2   -1    0    0    0  501 -0.00000000000E+00 -0.00000000000E+00 -0.17391846796E+03  0.17391846798E+03  0.25500000000E-02 0.  1.
    8880022    1    1    2    0    0  0.32920447249E+03 -0.11492697929E+02  0.13099777258E+04  0.13593899227E+04  0.15294330000E+03 0. -1.
    8880022    1    1    2    0    0 -0.32920447249E+03  0.11492697929E+02  0.71780233578E+02  0.37020497263E+03  0.15294330000E+03 0.  0.
<mgrwt>
<rscale>  0 0.36317946E+03</rscale>
<asrwt>0</asrwt>
<pdfrwt beam="1">  1        2 0.23933485E+00 0.36317946E+03</pdfrwt>
<pdfrwt beam="2">  1       -2 0.26756686E-01 0.36317946E+03</pdfrwt>
<totfact> 0.15906164E+02</totfact>
</mgrwt>
</event>
<event>
 4    1  0.3365401E-008  0.6177666E+03  0.7818608E-02  0.9869216E-01
         -2   -1    0    0    0  501 -0.00000000000E+00  0.00000000000E+00  0.16596119576E+04  0.16596119576E+04  0.25500000000E-02 0.  1.
          2   -1    0    0  501    0  0.00000000000E+00 -0.00000000000E+00 -0.25625816879E+03  0.25625816880E+03  0.25500000000E-02 0. -1.
    8880022    1    1    2    0    0 -0.16047134383E+02  0.59831968224E+03  0.10085815985E+04  0.11827393823E+04  0.15294330000E+03 0.  0.
    8880022    1    1    2    0    0  0.16047134383E+02 -0.59831968224E+03  0.39477219035E+03  0.73313074411E+03  0.15294330000E+03 0.  0.
<mgrwt>
<rscale>  0 0.61776663E+03</rscale>
<asrwt>0</asrwt>
<pdfrwt beam="1">  1        2 0.39424333E-01 0.61776663E+03</pdfrwt>
<pdfrwt beam="2">  1       -2 0.25532492E+00 0.61776663E+03</pdfrwt>
<totfact> 0.81491893E+00</totfact>
</mgrwt>
</event>
<event>
 4    1  0.3365401E-008  0.6731406E+03  0.7818608E-02  0.9764301E-01
          2   -1    0    0  501    0  0.00000000000E+00  0.00000000000E+00  0.23549925062E+04  0.23549925062E+04  0.25500000000E-02 0. -1.
         -2   -1    0    0    0  501 -0.00000000000E+00 -0.00000000000E+00 -0.29755858588E+03  0.29755858589E+03  0.25500000000E-02 0.  1.
    8880022    1    1    2    0    0 -0.49835825330E+03  0.42587054167E+03  0.18171309338E+04  0.19378036925E+04  0.15294330000E+03 0.  0.
    8880022    1    1    2    0    0  0.49835825330E+03 -0.42587054167E+03  0.24030298648E+03  0.71474739959E+03  0.15294330000E+03 0.  0.
<mgrwt>
<rscale>  0 0.67314064E+03</rscale>
<asrwt>0</asrwt>
<pdfrwt beam="1">  1        2 0.36230655E+00 0.67314064E+03</pdfrwt>
<pdfrwt beam="2">  1       -2 0.45778243E-01 0.67314064E+03</pdfrwt>
<totfact> 0.20135544E+01</totfact>
</mgrwt>
</event>
<event>
 4    1  0.3365401E-008  0.1915023E+03  0.7818608E-02  0.1157113E+00
         -2   -1    0    0    0  501 -0.00000000000E+00  0.00000000000E+00  0.57328101307E+03  0.57328101307E+03  0.25500000000E-02 0.  1.
          2   -1    0    0  501    0  0.00000000000E+00 -0.00000000000E+00 -0.24736827028E+03  0.24736827029E+03  0.25500000000E-02 0. -1.
    8880022    1    1    2    0    0 -0.67686746866E+02 -0.93273712898E+02 -0.19035084008E+03  0.27001217853E+03  0.15294330000E+03 0. -1.
    8880022    1    1    2    0    0  0.67686746866E+02  0.93273712898E+02  0.51626358286E+03  0.55063710484E+03  0.15294330000E+03 0.  0.
<mgrwt>
<rscale>  0 0.19150231E+03</rscale>
<asrwt>0</asrwt>
<pdfrwt beam="1">  1        2 0.38056657E-01 0.19150231E+03</pdfrwt>
<pdfrwt beam="2">  1       -2 0.88197079E-01 0.19150231E+03</pdfrwt>
<totfact> 0.15646569E+02</totfact>
</mgrwt>
</event>
<event>
 4    1  0.3365401E-008  0.9302715E+03  0.7818608E-02  0.9388512E-01
          2   -1    0    0  501    0  0.00000000000E+00  0.00000000000E+00  0.14335010592E+04  0.14335010592E+04  0.25500000000E-02 0. -1.
         -2   -1    0    0    0  501 -0.00000000000E+00 -0.00000000000E+00 -0.10398702389E+04  0.10398702389E+04  0.25500000000E-02 0.  1.
    8880022    1    1    2    0    0  0.50269566029E+03  0.76766563780E+03 -0.60412015736E+03  0.11092187683E+04  0.15294330000E+03 0.  0.
    8880022    1    1    2    0    0 -0.50269566029E+03 -0.76766563780E+03  0.99775097758E+03  0.13641525298E+04  0.15294330000E+03 0.  0.
<mgrwt>
<rscale>  0 0.93027153E+03</rscale>
<asrwt>0</asrwt>
<pdfrwt beam="1">  1        2 0.22053862E+00 0.93027153E+03</pdfrwt>
<pdfrwt beam="2">  1       -2 0.15998004E+00 0.93027153E+03</pdfrwt>
<totfact> 0.34909437E+00</totfact>
</mgrwt>
</event>
<event>
 4    1  0.3365401E-008  0.5459564E+03  0.7818608E-02  0.1002434E+00
         -2   -1    0    0    0  501 -0.00000000000E+00  0.00000000000E+00  0.28705098044E+04  0.28705098044E+04  0.25500000000E-02 0.  1.
          2   -1    0    0  501    0  0.00000000000E+00 -0.00000000000E+00 -0.18605979746E+04  0.18605979746E+04  0.25500000000E-02 0. -1.
    8880022    1    1    2    0    0  0.36450059394E+03  0.37658467372E+03 -0.17936407536E+04  0.18748907983E+04  0.15294330000E+03 0.  0.
    8880022    1    1    2    0    0 -0.36450059394E+03 -0.37658467372E+03  0.28035525835E+04  0.28562169807E+04  0.15294330000E+03 0.  0.
<mgrwt>
<rscale>  0 0.54595636E+03</rscale>
<asrwt>0</asrwt>
<pdfrwt beam="1">  1        2 0.28624584E+00 0.54595636E+03</pdfrwt>
<pdfrwt beam="2">  1       -2 0.44161689E+00 0.54595636E+03</pdfrwt>
<totfact> 0.36818955E-02</totfact>
</mgrwt>
</event>
<event>
 4    1  0.3365401E-008  0.4125542E+03  0.7818608E-02  0.1039517E+00
          2   -1    0    0  501    0  0.00000000000E+00  0.00000000000E+00  0.23573664972E+04  0.23573664972E+04  0.25500000000E-02 0. -1.
         -2   -1    0    0    0  501 -0.00000000000E+00 -0.00000000000E+00 -0.39078929059E+03  0.39078929060E+03  0.25500000000E-02 0.  1.
    8880022    1    1    2    0    0  0.36855300416E+03  0.10477611435E+03  0.22239574015E+04  0.22618990976E+04  0.15294330000E+03 0.  0.
    8880022    1    1    2    0    0 -0.36855300416E+03 -0.10477611435E+03 -0.25738019491E+03  0.48625669019E+03  0.15294330000E+03 0.  1.
<mgrwt>
<rscale>  0 0.41255424E+03</rscale>
<asrwt>0</asrwt>
<pdfrwt beam="1">  1        2 0.36267178E+00 0.41255424E+03</pdfrwt>
<pdfrwt beam="2">  1       -2 0.60121428E-01 0.41255424E+03</pdfrwt>
<totfact> 0.12179815E+01</totfact>
</mgrwt>
</event>
<event>
 4    1  0.3365401E-008  0.4511892E+03  0.7818608E-02  0.1027368E+00
          2   -1    0    0  501    0  0.00000000000E+00  0.00000000000E+00  0.16873736074E+04  0.16873736074E+04  0.25500000000E-02 0. -1.
         -2   -1    0    0    0  501 -0.00000000000E+00 -0.00000000000E+00 -0.27732279262E+03  0.27732279264E+03  0.25500000000E-02 0.  1.
    8880022    1    1    2    0    0 -0.42304286180E+03  0.34854072137E+02  0.14434014516E+04  0.15122762554E+04  0.15294330000E+03 0. -1.
    8880022    1    1    2    0    0  0.42304286180E+03 -0.34854072137E+02 -0.33350636806E+02  0.45242014462E+03  0.15294330000E+03 0.  0.
<mgrwt>
<rscale>  0 0.45118923E+03</rscale>
<asrwt>0</asrwt>
<pdfrwt beam="1">  1        2 0.25959594E+00 0.45118923E+03</pdfrwt>
<pdfrwt beam="2">  1       -2 0.42665044E-01 0.45118923E+03</pdfrwt>
<totfact> 0.55439843E+01</totfact>
</mgrwt>
</event>
<event>
 4    1  0.3365401E-008  0.1161409E+04  0.7818608E-02  0.9147322E-01
         -2   -1    0    0    0  501 -0.00000000000E+00  0.00000000000E+00  0.52850842970E+04  0.52850842970E+04  0.25500000000E-02 0.  1.
          2   -1    0    0  501    0  0.00000000000E+00 -0.00000000000E+00 -0.69806758573E+03  0.69806758574E+03  0.25500000000E-02 0. -1.
    8880022    1    1    2    0    0 -0.45974401837E+03  0.10555168122E+04 -0.89234929101E+02  0.11648325325E+04  0.15294330000E+03 0.  0.
    8880022    1    1    2    0    0  0.45974401837E+03 -0.10555168122E+04  0.46762516403E+04  0.48183193501E+04  0.15294330000E+03 0.  0.
<mgrwt>
<rscale>  0 0.11614095E+04</rscale>
<asrwt>0</asrwt>
<pdfrwt beam="1">  1        2 0.10739501E+00 0.11614095E+04</pdfrwt>
<pdfrwt beam="2">  1       -2 0.81308990E+00 0.11614095E+04</pdfrwt>
<totfact> 0.27649617E-03</totfact>
</mgrwt>
</event>
<event>
 4    1  0.3365401E-008  0.3964482E+03  0.7818608E-02  0.1045017E+00
          2   -1    0    0  501    0  0.00000000000E+00  0.00000000000E+00  0.11862377336E+04  0.11862377336E+04  0.25500000000E-02 0. -1.
         -2   -1    0    0    0  501 -0.00000000000E+00 -0.00000000000E+00 -0.50144560664E+03  0.50144560664E+03  0.25500000000E-02 0.  1.
    8880022    1    1    2    0    0  0.22310966919E+03  0.28983029713E+03 -0.38142774485E+03  0.55014389315E+03  0.15294330000E+03 0.  0.
    8880022    1    1    2    0    0 -0.22310966919E+03 -0.28983029713E+03  0.10662198718E+04  0.11375394471E+04  0.15294330000E+03 0.  0.
<mgrwt>
<rscale>  0 0.39644820E+03</rscale>
<asrwt>0</asrwt>
<pdfrwt beam="1">  1        2 0.18249811E+00 0.39644820E+03</pdfrwt>
<pdfrwt beam="2">  1       -2 0.77145479E-01 0.39644820E+03</pdfrwt>
<totfact> 0.30993303E+01</totfact>
</mgrwt>
</event>
<event>
 4    1  0.3365401E-008  0.6857536E+03  0.7818608E-02  0.9741910E-01
         -2   -1    0    0    0  501 -0.00000000000E+00  0.00000000000E+00  0.23247458590E+03  0.23247458592E+03  0.25500000000E-02 0.  1.
          2   -1    0    0  501    0  0.00000000000E+00 -0.00000000000E+00 -0.43948801046E+04  0.43948801046E+04  0.25500000000E-02 0. -1.
    8880022    1    1    2    0    0 -0.50323567004E+03 -0.44002293051E+03 -0.38143082537E+03  0.78469576686E+03  0.15294330000E+03 0.  0.
    8880022    1    1    2    0    0  0.50323567004E+03  0.44002293051E+03 -0.37809746934E+04  0.38426589237E+04  0.15294330000E+03 0.  0.
<mgrwt>
<rscale>  0 0.68575358E+03</rscale>
<asrwt>0</asrwt>
<pdfrwt beam="1">  1        2 0.67613534E+00 0.68575358E+03</pdfrwt>
<pdfrwt beam="2">  1       -2 0.35765324E-01 0.68575358E+03</pdfrwt>
<totfact> 0.13127934E+00</totfact>
</mgrwt>
</event>
<event>
 4    1  0.3365401E-008  0.3831602E+03  0.7818608E-02  0.1049772E+00
          2   -1    0    0  501    0  0.00000000000E+00  0.00000000000E+00  0.34284161111E+04  0.34284161111E+04  0.25500000000E-02 0. -1.
         -2   -1    0    0    0  501 -0.00000000000E+00 -0.00000000000E+00 -0.30063691326E+03  0.30063691327E+03  0.25500000000E-02 0.  1.
    8880022    1    1    2    0    0 -0.35014298480E+03 -0.28635635201E+02 -0.16274881015E+03  0.41629188994E+03  0.15294330000E+03 0.  0.
    8880022    1    1    2    0    0  0.35014298480E+03  0.28635635201E+02  0.32905280080E+04  0.33127611344E+04  0.15294330000E+03 0.  0.
<mgrwt>
<rscale>  0 0.38316023E+03</rscale>
<asrwt>0</asrwt>
<pdfrwt beam="1">  1        2 0.52744865E+00 0.38316023E+03</pdfrwt>
<pdfrwt beam="2">  1       -2 0.46251831E-01 0.38316023E+03</pdfrwt>
<totfact> 0.48633096E+00</totfact>
</mgrwt>
</event>
<event>
 4    1  0.3365401E-008  0.8938717E+03  0.7818608E-02  0.9433275E-01
          2   -1    0    0  501    0  0.00000000000E+00  0.00000000000E+00  0.23748571045E+04  0.23748571045E+04  0.25500000000E-02 0. -1.
         -2   -1    0    0    0  501 -0.00000000000E+00 -0.00000000000E+00 -0.53699938622E+03  0.53699938622E+03  0.25500000000E-02 0.  1.
    8880022    1    1    2    0    0  0.84591335454E+03 -0.24504201308E+03  0.18086832527E+04  0.20175087988E+04  0.15294330000E+03 0.  0.
    8880022    1    1    2    0    0 -0.84591335454E+03  0.24504201308E+03  0.29174465545E+02  0.89434769191E+03  0.15294330000E+03 0.  0.
<mgrwt>
<rscale>  0 0.89387172E+03</rscale>
<asrwt>0</asrwt>
<pdfrwt beam="1">  1        2 0.36536263E+00 0.89387172E+03</pdfrwt>
<pdfrwt beam="2">  1       -2 0.82615291E-01 0.89387172E+03</pdfrwt>
<totfact> 0.54007892E+00</totfact>
</mgrwt>
</event>
<event>
 4    1  0.3365401E-008  0.7490453E+03  0.7818608E-02  0.9636849E-01
          2   -1    0    0  501    0  0.00000000000E+00  0.00000000000E+00  0.36206450339E+04  0.36206450339E+04  0.25500000000E-02 0. -1.
         -2   -1    0    0    0  501 -0.00000000000E+00 -0.00000000000E+00 -0.40109452148E+03  0.40109452149E+03  0.25500000000E-02 0.  1.
    8880022    1    1    2    0    0 -0.49774822872E+03 -0.53844578981E+03  0.31850035967E+04  0.32718980320E+04  0.15294330000E+03 0.  0.
    8880022    1    1    2    0    0  0.49774822872E+03  0.53844578981E+03  0.34546915694E+02  0.74984152336E+03  0.15294330000E+03 0.  0.
<mgrwt>
<rscale>  0 0.74904527E+03</rscale>
<asrwt>0</asrwt>
<pdfrwt beam="1">  1        2 0.55702233E+00 0.74904527E+03</pdfrwt>
<pdfrwt beam="2">  1       -2 0.61706848E-01 0.74904527E+03</pdfrwt>
<totfact> 0.17795556E+00</totfact>
</mgrwt>
</event>
<event>
 4    1  0.3365401E-008  0.5838260E+03  0.7818608E-02  0.9939542E-01
         -2   -1    0    0    0  501 -0.00000000000E+00  0.00000000000E+00  0.38860257511E+03  0.38860257512E+03  0.25500000000E-02 0.  1.
          2   -1    0    0  501    0  0.00000000000E+00 -0.00000000000E+00 -0.97289261180E+03  0.97289261180E+03  0.25500000000E-02 0. -1.
    8880022    1    1    2    0    0 -0.32165701325E+03 -0.46259905917E+03 -0.50572694021E+03  0.77240696190E+03  0.15294330000E+03 0.  0.
    8880022    1    1    2    0    0  0.32165701325E+03  0.46259905917E+03 -0.78563096469E+02  0.58908822502E+03  0.15294330000E+03 0.  0.
<mgrwt>
<rscale>  0 0.58382598E+03</rscale>
<asrwt>0</asrwt>
<pdfrwt beam="1">  1        2 0.14967579E+00 0.58382598E+03</pdfrwt>
<pdfrwt beam="2">  1       -2 0.59785012E-01 0.58382598E+03</pdfrwt>
<totfact> 0.70482324E+01</totfact>
</mgrwt>
</event>
<event>
 4    1  0.3365401E-008  0.1006469E+04  0.7818608E-02  0.9301478E-01
          2   -1    0    0  501    0  0.00000000000E+00  0.00000000000E+00  0.19665348356E+04  0.19665348356E+04  0.25500000000E-02 0. -1.
         -2   -1    0    0    0  501 -0.00000000000E+00 -0.00000000000E+00 -0.78653380991E+03  0.78653380992E+03  0.25500000000E-02 0.  1.
    8880022    1    1    2    0    0 -0.38851845497E+03 -0.91577426266E+03 -0.21863485270E+03  0.10299426886E+04  0.15294330000E+03 0.  0.
    8880022    1    1    2    0    0  0.38851845497E+03  0.91577426266E+03  0.13986358784E+04  0.17231259569E+04  0.15294330000E+03 0.  0.
<mgrwt>
<rscale>  0 0.10064694E+04</rscale>
<asrwt>0</asrwt>
<pdfrwt beam="1">  1        2 0.30254382E+00 0.10064694E+04</pdfrwt>
<pdfrwt beam="2">  1       -2 0.12100520E+00 0.10064694E+04</pdfrwt>
<totfact> 0.36187396E+00</totfact>
</mgrwt>
</event>
<event>
 4    1  0.3365401E-008  0.1659050E+03  0.7818608E-02  0.1182187E+00
          2   -1    0    0  501    0  0.00000000000E+00  0.00000000000E+00  0.15379527929E+04  0.15379527929E+04  0.25500000000E-02 0. -1.
         -2   -1    0    0    0  501 -0.00000000000E+00 -0.00000000000E+00 -0.33547745733E+02  0.33547745830E+02  0.25500000000E-02 0.  1.
    8880022    1    1    2    0    0  0.15658599673E+02 -0.62350819935E+02  0.21551334822E+03  0.27197513263E+03  0.15294330000E+03 0.  0.
    8880022    1    1    2    0    0 -0.15658599673E+02  0.62350819935E+02  0.12888916990E+04  0.12995254061E+04  0.15294330000E+03 0. -1.
<mgrwt>
<rscale>  0 0.16590500E+03</rscale>
<asrwt>0</asrwt>
<pdfrwt beam="1">  1        2 0.23660814E+00 0.16590500E+03</pdfrwt>
<pdfrwt beam="2">  1       -2 0.51611913E-02 0.16590500E+03</pdfrwt>
<totfact> 0.24290156E+03</totfact>
</mgrwt>
</event>
<event>
 4    1  0.3365401E-008  0.7968540E+03  0.7818608E-02  0.9564582E-01
          2   -1    0    0  501    0  0.00000000000E+00  0.00000000000E+00  0.30965470136E+04  0.30965470136E+04  0.25500000000E-02 0. -1.
         -2   -1    0    0    0  501 -0.00000000000E+00 -0.00000000000E+00 -0.67065249007E+03  0.67065249007E+03  0.25500000000E-02 0.  1.
    8880022    1    1    2    0    0 -0.71725308812E+03  0.31166119970E+03  0.27823813287E+04  0.28942394868E+04  0.15294330000E+03 0.  0.
    8880022    1    1    2    0    0  0.71725308812E+03 -0.31166119970E+03 -0.35648680514E+03  0.87296001688E+03  0.15294330000E+03 0.  0.
<mgrwt>
<rscale>  0 0.79685403E+03</rscale>
<asrwt>0</asrwt>
<pdfrwt beam="1">  1        2 0.47639184E+00 0.79685403E+03</pdfrwt>
<pdfrwt beam="2">  1       -2 0.10317731E+00 0.79685403E+03</pdfrwt>
<totfact> 0.12301212E+00</totfact>
</mgrwt>
</event>
<event>
 4    1  0.3365401E-008  0.8906343E+03  0.7818608E-02  0.9437365E-01
         -2   -1    0    0    0  501 -0.00000000000E+00  0.00000000000E+00  0.59429928860E+03  0.59429928861E+03  0.25500000000E-02 0.  1.
          2   -1    0    0  501    0  0.00000000000E+00 -0.00000000000E+00 -0.18928998295E+04  0.18928998295E+04  0.25500000000E-02 0. -1.
    8880022    1    1    2    0    0  0.63082326611E+03  0.60983593834E+03 -0.13246047678E+04  0.15961852363E+04  0.15294330000E+03 0.  0.
    8880022    1    1    2    0    0 -0.63082326611E+03 -0.60983593834E+03  0.26004226863E+02  0.89101388182E+03  0.15294330000E+03 0.  0.
<mgrwt>
<rscale>  0 0.89063433E+03</rscale>
<asrwt>0</asrwt>
<pdfrwt beam="1">  1        2 0.29121535E+00 0.89063433E+03</pdfrwt>
<pdfrwt beam="2">  1       -2 0.91430661E-01 0.89063433E+03</pdfrwt>
<totfact> 0.79095707E+00</totfact>
</mgrwt>
</event>
<event>
 4    1  0.3365401E-008  0.2548588E+03  0.7818608E-02  0.1110272E+00
          2   -1    0    0  501    0  0.00000000000E+00  0.00000000000E+00  0.11530963684E+03  0.11530963687E+03  0.25500000000E-02 0. -1.
         -2   -1    0    0    0  501 -0.00000000000E+00 -0.00000000000E+00 -0.12048194823E+04  0.12048194823E+04  0.25500000000E-02 0.  1.
    8880022    1    1    2    0    0  0.67840255879E+02  0.19224734966E+03 -0.63103270086E+02  0.26255479329E+03  0.15294330000E+03 0. -1.
    8880022    1    1    2    0    0 -0.67840255879E+02 -0.19224734966E+03 -0.10264065754E+04  0.10575743259E+04  0.15294330000E+03 0.  0.
<mgrwt>
<rscale>  0 0.25485878E+03</rscale>
<asrwt>0</asrwt>
<pdfrwt beam="1">  1        2 0.17739945E-01 0.25485878E+03</pdfrwt>
<pdfrwt beam="2">  1       -2 0.18535683E+00 0.25485878E+03</pdfrwt>
<totfact> 0.57550574E+01</totfact>
</mgrwt>
</event>
<event>
 4    1  0.3365401E-008  0.3874717E+03  0.7818608E-02  0.1048206E+00
         -2   -1    0    0    0  501 -0.00000000000E+00  0.00000000000E+00  0.18655903358E+03  0.18655903359E+03  0.25500000000E-02 0.  1.
          2   -1    0    0  501    0  0.00000000000E+00 -0.00000000000E+00 -0.14539220772E+04  0.14539220772E+04  0.25500000000E-02 0. -1.
    8880022    1    1    2    0    0 -0.33487455255E+03 -0.12083737089E+03 -0.85595201770E+02  0.39681334117E+03  0.15294330000E+03 0.  0.
    8880022    1    1    2    0    0  0.33487455255E+03  0.12083737089E+03 -0.11817678418E+04  0.12436677696E+04  0.15294330000E+03 0.  0.
<mgrwt>
<rscale>  0 0.38747166E+03</rscale>
<asrwt>0</asrwt>
<pdfrwt beam="1">  1        2 0.22368031E+00 0.38747166E+03</pdfrwt>
<pdfrwt beam="2">  1       -2 0.28701391E-01 0.38747166E+03</pdfrwt>
<totfact> 0.15846699E+02</totfact>
</mgrwt>
</event>
<event>
 4    1  0.3365401E-008  0.4367724E+03  0.7818608E-02  0.1031742E+00
          2   -1    0    0  501    0  0.00000000000E+00  0.00000000000E+00  0.26163165100E+04  0.26163165100E+04  0.25500000000E-02 0. -1.
         -2   -1    0    0    0  501 -0.00000000000E+00 -0.00000000000E+00 -0.27436126852E+03  0.27436126853E+03  0.25500000000E-02 0.  1.
    8880022    1    1    2    0    0  0.47747686181E+02 -0.40632329682E+03  0.24094528505E+04  0.24487207180E+04  0.15294330000E+03 0.  0.
    8880022    1    1    2    0    0 -0.47747686181E+02  0.40632329682E+03 -0.67497609034E+02  0.44195706049E+03  0.15294330000E+03 0.  0.
<mgrwt>
<rscale>  0 0.43677238E+03</rscale>
<asrwt>0</asrwt>
<pdfrwt beam="1">  1        2 0.40251022E+00 0.43677238E+03</pdfrwt>
<pdfrwt beam="2">  1       -2 0.42209427E-01 0.43677238E+03</pdfrwt>
<totfact> 0.17748680E+01</totfact>
</mgrwt>
</event>
<event>
 4    1  0.3365401E-008  0.6183834E+03  0.7818608E-02  0.9867984E-01
         -2   -1    0    0    0  501 -0.00000000000E+00  0.00000000000E+00  0.19346490680E+03  0.19346490681E+03  0.25500000000E-02 0.  1.
          2   -1    0    0  501    0  0.00000000000E+00 -0.00000000000E+00 -0.23309458336E+04  0.23309458336E+04  0.25500000000E-02 0. -1.
    8880022    1    1    2    0    0 -0.37711140658E+03  0.46561075620E+03 -0.57659616109E+03  0.84549463349E+03  0.15294330000E+03 0.  0.
    8880022    1    1    2    0    0  0.37711140658E+03 -0.46561075620E+03 -0.15608847657E+04  0.16789161069E+04  0.15294330000E+03 0.  0.
<mgrwt>
<rscale>  0 0.61838341E+03</rscale>
<asrwt>0</asrwt>
<pdfrwt beam="1">  1        2 0.35860703E+00 0.61838341E+03</pdfrwt>
<pdfrwt beam="2">  1       -2 0.29763833E-01 0.61838341E+03</pdfrwt>
<totfact> 0.47866397E+01</totfact>
</mgrwt>
</event>
<event>
 4    1  0.3365401E-008  0.2651460E+03  0.7818608E-02  0.1104090E+00
          2   -1    0    0  501    0  0.00000000000E+00  0.00000000000E+00  0.19544432761E+04  0.19544432761E+04  0.25500000000E-02 0. -1.
         -2   -1    0    0    0  501 -0.00000000000E+00 -0.00000000000E+00 -0.78978635954E+03  0.78978635954E+03  0.25500000000E-02 0.  1.
    8880022    1    1    2    0    0 -0.12915168544E+03 -0.17386953262E+03 -0.75817598249E+03  0.80320187105E+03  0.15294330000E+03 0.  1.
    8880022    1    1    2    0    0  0.12915168544E+03  0.17386953262E+03  0.19228328991E+04  0.19410277646E+04  0.15294330000E+03 0.  0.
<mgrwt>
<rscale>  0 0.26514605E+03</rscale>
<asrwt>0</asrwt>
<pdfrwt beam="1">  1        2 0.30068357E+00 0.26514605E+03</pdfrwt>
<pdfrwt beam="2">  1       -2 0.12150560E+00 0.26514605E+03</pdfrwt>
<totfact> 0.43250186E+00</totfact>
</mgrwt>
</event>
<event>
 4    1  0.3365401E-008  0.3714564E+03  0.7818608E-02  0.1054137E+00
          2   -1    0    0  501    0  0.00000000000E+00  0.00000000000E+00  0.20812747890E+04  0.20812747890E+04  0.25500000000E-02 0. -1.
         -2   -1    0    0    0  501 -0.00000000000E+00 -0.00000000000E+00 -0.33939916223E+03  0.33939916224E+03  0.25500000000E-02 0.  1.
    8880022    1    1    2    0    0 -0.33655122929E+03 -0.36352040248E+02  0.19566492492E+04  0.19915963793E+04  0.15294330000E+03 0.  0.
    8880022    1    1    2    0    0  0.33655122929E+03  0.36352040248E+02 -0.21477362246E+03  0.42907757187E+03  0.15294330000E+03 0.  1.
<mgrwt>
<rscale>  0 0.37145640E+03</rscale>
<asrwt>0</asrwt>
<pdfrwt beam="1">  1        2 0.32019612E+00 0.37145640E+03</pdfrwt>
<pdfrwt beam="2">  1       -2 0.52215256E-01 0.37145640E+03</pdfrwt>
<totfact> 0.23249709E+01</totfact>
</mgrwt>
</event>
<event>
 4    1  0.3365401E-008  0.5581334E+03  0.7818608E-02  0.9996287E-01
         -2   -1    0    0    0  501 -0.00000000000E+00  0.00000000000E+00  0.52756054131E+03  0.52756054131E+03  0.25500000000E-02 0.  1.
          2   -1    0    0  501    0  0.00000000000E+00 -0.00000000000E+00 -0.13310689722E+04  0.13310689722E+04  0.25500000000E-02 0. -1.
    8880022    1    1    2    0    0 -0.12058094228E+02 -0.53663380456E+03  0.29143494301E+03  0.62964054575E+03  0.15294330000E+03 0.  0.
    8880022    1    1    2    0    0  0.12058094228E+02  0.53663380456E+03 -0.10949433739E+04  0.12289889678E+04  0.15294330000E+03 0.  0.
<mgrwt>
<rscale>  0 0.55813340E+03</rscale>
<asrwt>0</asrwt>
<pdfrwt beam="1">  1        2 0.20477984E+00 0.55813340E+03</pdfrwt>
<pdfrwt beam="2">  1       -2 0.81163161E-01 0.55813340E+03</pdfrwt>
<totfact> 0.22224455E+01</totfact>
</mgrwt>
</event>
<event>
 4    1  0.3365401E-008  0.1168841E+04  0.7818608E-02  0.9140575E-01
          2   -1    0    0  501    0  0.00000000000E+00  0.00000000000E+00  0.25264271976E+04  0.25264271976E+04  0.25500000000E-02 0. -1.
         -2   -1    0    0    0  501 -0.00000000000E+00 -0.00000000000E+00 -0.80801567807E+03  0.80801567808E+03  0.25500000000E-02 0.  1.
    8880022    1    1    2    0    0 -0.62209627712E+03  0.97764746687E+03 -0.99636376012E+02  0.11730803075E+04  0.15294330000E+03 0.  0.
    8880022    1    1    2    0    0  0.62209627712E+03 -0.97764746687E+03  0.18180478955E+04  0.21613625682E+04  0.15294330000E+03 0.  0.
<mgrwt>
<rscale>  0 0.11688413E+04</rscale>
<asrwt>0</asrwt>
<pdfrwt beam="1">  1        2 0.38868111E+00 0.11688413E+04</pdfrwt>
<pdfrwt beam="2">  1       -2 0.12431010E+00 0.11688413E+04</pdfrwt>
<totfact> 0.16081773E+00</totfact>
</mgrwt>
</event>
<event>
 4    1  0.3365401E-008  0.2629721E+03  0.7818608E-02  0.1105371E+00
          2   -1    0    0  501    0  0.00000000000E+00  0.00000000000E+00  0.10687999336E+03  0.10687999339E+03  0.25500000000E-02 0. -1.
         -2   -1    0    0    0  501 -0.00000000000E+00 -0.00000000000E+00 -0.13101196429E+04  0.13101196429E+04  0.25500000000E-02 0.  1.
    8880022    1    1    2    0    0 -0.60371422915E+02 -0.20522656619E+03 -0.97572663121E+02  0.28049015986E+03  0.15294330000E+03 0.  0.
    8880022    1    1    2    0    0  0.60371422915E+02  0.20522656619E+03 -0.11056669864E+04  0.11365094764E+04  0.15294330000E+03 0.  0.
<mgrwt>
<rscale>  0 0.26297206E+03</rscale>
<asrwt>0</asrwt>
<pdfrwt beam="1">  1        2 0.16443077E-01 0.26297206E+03</pdfrwt>
<pdfrwt beam="2">  1       -2 0.20155686E+00 0.26297206E+03</pdfrwt>
<totfact> 0.49417964E+01</totfact>
</mgrwt>
</event>
<event>
 4    1  0.3365401E-008  0.3864894E+03  0.7818608E-02  0.1048561E+00
         -2   -1    0    0    0  501 -0.00000000000E+00  0.00000000000E+00  0.73166826373E+03  0.73166826373E+03  0.25500000000E-02 0.  1.
          2   -1    0    0  501    0  0.00000000000E+00 -0.00000000000E+00 -0.53175073209E+03  0.53175073210E+03  0.25500000000E-02 0. -1.
    8880022    1    1    2    0    0  0.32483347556E+03 -0.14305805286E+03 -0.39587054156E+03  0.55325177995E+03  0.15294330000E+03 0. -1.
    8880022    1    1    2    0    0 -0.32483347556E+03  0.14305805286E+03  0.59578807319E+03  0.71016721588E+03  0.15294330000E+03 0.  0.
<mgrwt>
<rscale>  0 0.38648939E+03</rscale>
<asrwt>0</asrwt>
<pdfrwt beam="1">  1        2 0.81807805E-01 0.38648939E+03</pdfrwt>
<pdfrwt beam="2">  1       -2 0.11256435E+00 0.38648939E+03</pdfrwt>
<totfact> 0.37379508E+01</totfact>
</mgrwt>
</event>
<event>
 4    1  0.3365401E-008  0.4635764E+03  0.7818608E-02  0.1023749E+00
          2   -1    0    0  501    0  0.00000000000E+00  0.00000000000E+00  0.14971217822E+04  0.14971217822E+04  0.25500000000E-02 0. -1.
         -2   -1    0    0    0  501 -0.00000000000E+00 -0.00000000000E+00 -0.26444233046E+03  0.26444233047E+03  0.25500000000E-02 0.  1.
    8880022    1    1    2    0    0  0.25457802088E+03  0.35595149100E+03  0.12118823339E+04  0.12975214360E+04  0.15294330000E+03 0.  0.
    8880022    1    1    2    0    0 -0.25457802088E+03 -0.35595149100E+03  0.20797117860E+02  0.46404267669E+03  0.15294330000E+03 0.  0.
<mgrwt>
<rscale>  0 0.46357641E+03</rscale>
<asrwt>0</asrwt>
<pdfrwt beam="1">  1        2 0.23032644E+00 0.46357641E+03</pdfrwt>
<pdfrwt beam="2">  1       -2 0.40683434E-01 0.46357641E+03</pdfrwt>
<totfact> 0.76974154E+01</totfact>
</mgrwt>
</event>
<event>
 4    1  0.3365401E-008  0.2558069E+03  0.7818608E-02  0.1109689E+00
          2   -1    0    0  501    0  0.00000000000E+00  0.00000000000E+00  0.38500865367E+03  0.38500865368E+03  0.25500000000E-02 0. -1.
         -2   -1    0    0    0  501 -0.00000000000E+00 -0.00000000000E+00 -0.10054233388E+04  0.10054233388E+04  0.25500000000E-02 0.  1.
    8880022    1    1    2    0    0 -0.18319459550E+03 -0.92115408771E+02 -0.94394313704E+03  0.97799069900E+03  0.15294330000E+03 0.  1.
    8880022    1    1    2    0    0  0.18319459550E+03  0.92115408771E+02  0.32352845192E+03  0.41244129348E+03  0.15294330000E+03 0.  0.
<mgrwt>
<rscale>  0 0.25580688E+03</rscale>
<asrwt>0</asrwt>
<pdfrwt beam="1">  1        2 0.59232101E-01 0.25580688E+03</pdfrwt>
<pdfrwt beam="2">  1       -2 0.15468051E+00 0.25580688E+03</pdfrwt>
<totfact> 0.24727550E+01</totfact>
</mgrwt>
</event>
<event>
 4    1  0.3365401E-008  0.3688737E+03  0.7818608E-02  0.1055124E+00
          2   -1    0    0  501    0  0.00000000000E+00  0.00000000000E+00  0.94001312728E+03  0.94001312728E+03  0.25500000000E-02 0. -1.
         -2   -1    0    0    0  501 -0.00000000000E+00 -0.00000000000E+00 -0.18190362334E+03  0.18190362336E+03  0.25500000000E-02 0.  1.
    8880022    1    1    2    0    0  0.17100421997E+03 -0.28884896217E+03  0.12553906686E+03  0.38965096755E+03  0.15294330000E+03 0.  0.
    8880022    1    1    2    0    0 -0.17100421997E+03  0.28884896217E+03  0.63257043709E+03  0.73226578309E+03  0.15294330000E+03 0.  0.
<mgrwt>
<rscale>  0 0.36887372E+03</rscale>
<asrwt>0</asrwt>
<pdfrwt beam="1">  1        2 0.14461741E+00 0.36887372E+03</pdfrwt>
<pdfrwt beam="2">  1       -2 0.27985173E-01 0.36887372E+03</pdfrwt>
<totfact> 0.33162838E+02</totfact>
</mgrwt>
</event>
<event>
 4    1  0.3365401E-008  0.7060724E+03  0.7818608E-02  0.9706903E-01
          2   -1    0    0  501    0  0.00000000000E+00  0.00000000000E+00  0.49809855534E+03  0.49809855535E+03  0.25500000000E-02 0. -1.
         -2   -1    0    0    0  501 -0.00000000000E+00 -0.00000000000E+00 -0.15686205399E+04  0.15686205399E+04  0.25500000000E-02 0.  1.
    8880022    1    1    2    0    0  0.43714986429E+03  0.53296026355E+03  0.86418258574E+02  0.71134127871E+03  0.15294330000E+03 0. -1.
    8880022    1    1    2    0    0 -0.43714986429E+03 -0.53296026355E+03 -0.11569402431E+04  0.13553778166E+04  0.15294330000E+03 0.  0.
<mgrwt>
<rscale>  0 0.70607245E+03</rscale>
<asrwt>0</asrwt>
<pdfrwt beam="1">  1        2 0.76630548E-01 0.70607245E+03</pdfrwt>
<pdfrwt beam="2">  1       -2 0.24132623E+00 0.70607245E+03</pdfrwt>
<totfact> 0.46455431E+00</totfact>
</mgrwt>
</event>
<event>
 4    1  0.3365401E-008  0.2956868E+03  0.7818608E-02  0.1087417E+00
         -2   -1    0    0    0  501 -0.00000000000E+00  0.00000000000E+00  0.94401900065E+02  0.94401900099E+02  0.25500000000E-02 0.  1.
          2   -1    0    0  501    0  0.00000000000E+00 -0.00000000000E+00 -0.11270920583E+04  0.11270920583E+04  0.25500000000E-02 0. -1.
    8880022    1    1    2    0    0 -0.58325585344E+02 -0.24624614466E+03 -0.77422219835E+03  0.82876456433E+03  0.15294330000E+03 0.  0.
    8880022    1    1    2    0    0  0.58325585344E+02  0.24624614466E+03 -0.25846795991E+03  0.39272939409E+03  0.15294330000E+03 0.  0.
<mgrwt>
<rscale>  0 0.29568681E+03</rscale>
<asrwt>0</asrwt>
<pdfrwt beam="1">  1        2 0.17339877E+00 0.29568681E+03</pdfrwt>
<pdfrwt beam="2">  1       -2 0.14523370E-01 0.29568681E+03</pdfrwt>
<totfact> 0.79645333E+02</totfact>
</mgrwt>
</event>
<event>
 4    1  0.3365401E-008  0.2353970E+03  0.7818608E-02  0.1122898E+00
          2   -1    0    0  501    0  0.00000000000E+00  0.00000000000E+00  0.20213849394E+04  0.20213849394E+04  0.25500000000E-02 0. -1.
         -2   -1    0    0    0  501 -0.00000000000E+00 -0.00000000000E+00 -0.20894631383E+03  0.20894631385E+03  0.25500000000E-02 0.  1.
    8880022    1    1    2    0    0  0.58744668477E+02  0.16902407541E+03 -0.13322321157E+03  0.27048133255E+03  0.15294330000E+03 0.  1.
    8880022    1    1    2    0    0 -0.58744668477E+02 -0.16902407541E+03  0.19456618371E+04  0.19598499207E+04  0.15294330000E+03 0.  0.
<mgrwt>
<rscale>  0 0.23539696E+03</rscale>
<asrwt>0</asrwt>
<pdfrwt beam="1">  1        2 0.31098232E+00 0.23539696E+03</pdfrwt>
<pdfrwt beam="2">  1       -2 0.32145585E-01 0.23539696E+03</pdfrwt>
<totfact> 0.66755277E+01</totfact>
</mgrwt>
</event>
<event>
 4    1  0.3365401E-008  0.1095947E+04  0.7818608E-02  0.9209151E-01
          2   -1    0    0  501    0  0.00000000000E+00  0.00000000000E+00  0.28841857148E+04  0.28841857148E+04  0.25500000000E-02 0. -1.
         -2   -1    0    0    0  501 -0.00000000000E+00 -0.00000000000E+00 -0.10450676084E+04  0.10450676084E+04  0.25500000000E-02 0.  1.
    8880022    1    1    2    0    0 -0.10627901308E+04  0.21951169693E+03  0.24432729040E+04  0.26778129852E+04  0.15294330000E+03 0.  0.
    8880022    1    1    2    0    0  0.10627901308E+04 -0.21951169693E+03 -0.60415479753E+03  0.12514403380E+04  0.15294330000E+03 0.  0.
<mgrwt>
<rscale>  0 0.10959470E+04</rscale>
<asrwt>0</asrwt>
<pdfrwt beam="1">  1        2 0.44372087E+00 0.10959470E+04</pdfrwt>
<pdfrwt beam="2">  1       -2 0.16077964E+00 0.10959470E+04</pdfrwt>
<totfact> 0.50957395E-01</totfact>
</mgrwt>
</event>
<event>
 4    1  0.3365401E-008  0.4556635E+03  0.7818608E-02  0.1026046E+00
         -2   -1    0    0    0  501 -0.00000000000E+00  0.00000000000E+00  0.18725077263E+03  0.18725077265E+03  0.25500000000E-02 0.  1.
          2   -1    0    0  501    0  0.00000000000E+00 -0.00000000000E+00 -0.22511311445E+04  0.22511311445E+04  0.25500000000E-02 0. -1.
    8880022    1    1    2    0    0 -0.19472422666E+03 -0.38251806133E+03 -0.16345648767E+03  0.48409427601E+03  0.15294330000E+03 0.  1.
    8880022    1    1    2    0    0  0.19472422666E+03  0.38251806133E+03 -0.19004238842E+04  0.19542876411E+04  0.15294330000E+03 0.  0.
<mgrwt>
<rscale>  0 0.45566352E+03</rscale>
<asrwt>0</asrwt>
<pdfrwt beam="1">  1        2 0.34632785E+00 0.45566352E+03</pdfrwt>
<pdfrwt beam="2">  1       -2 0.28807813E-01 0.45566352E+03</pdfrwt>
<totfact> 0.57906192E+01</totfact>
</mgrwt>
</event>
<event>
 4    1  0.3365401E-008  0.6730036E+03  0.7818608E-02  0.9764547E-01
         -2   -1    0    0    0  501 -0.00000000000E+00  0.00000000000E+00  0.15311424667E+03  0.15311424669E+03  0.25500000000E-02 0.  1.
          2   -1    0    0  501    0  0.00000000000E+00 -0.00000000000E+00 -0.37854699221E+04  0.37854699221E+04  0.25500000000E-02 0. -1.
    8880022    1    1    2    0    0  0.35728939133E+03 -0.54944193950E+03 -0.89553990462E+03  0.11202345861E+04  0.15294330000E+03 0.  0.
    8880022    1    1    2    0    0 -0.35728939133E+03  0.54944193950E+03 -0.27368157708E+04  0.28183495827E+04  0.15294330000E+03 0. -1.
<mgrwt>
<rscale>  0 0.67300357E+03</rscale>
<asrwt>0</asrwt>
<pdfrwt beam="1">  1        2 0.58237992E+00 0.67300357E+03</pdfrwt>
<pdfrwt beam="2">  1       -2 0.23556041E-01 0.67300357E+03</pdfrwt>
<totfact> 0.89237395E+00</totfact>
</mgrwt>
</event>
<event>
 4    1  0.3365401E-008  0.9611064E+03  0.7818608E-02  0.9352262E-01
         -2   -1    0    0    0  501 -0.00000000000E+00  0.00000000000E+00  0.29592850523E+03  0.29592850524E+03  0.25500000000E-02 0.  1.
          2   -1    0    0  501    0  0.00000000000E+00 -0.00000000000E+00 -0.37728432637E+04  0.37728432637E+04  0.25500000000E-02 0. -1.
    8880022    1    1    2    0    0  0.37083172558E+03  0.87339436077E+03 -0.89313737107E+03  0.13120289230E+04  0.15294330000E+03 0.  0.
    8880022    1    1    2    0    0 -0.37083172558E+03 -0.87339436077E+03 -0.25837773874E+04  0.27567428460E+04  0.15294330000E+03 0.  0.
<mgrwt>
<rscale>  0 0.96110641E+03</rscale>
<asrwt>0</asrwt>
<pdfrwt beam="1">  1        2 0.58043739E+00 0.96110641E+03</pdfrwt>
<pdfrwt beam="2">  1       -2 0.45527465E-01 0.96110641E+03</pdfrwt>
<totfact> 0.24815517E+00</totfact>
</mgrwt>
</event>
<event>
 4    1  0.3365401E-008  0.5414405E+03  0.7818608E-02  0.1003495E+00
         -2   -1    0    0    0  501 -0.00000000000E+00  0.00000000000E+00  0.10682551819E+04  0.10682551819E+04  0.25500000000E-02 0.  1.
          2   -1    0    0  501    0  0.00000000000E+00 -0.00000000000E+00 -0.38221521664E+03  0.38221521665E+03  0.25500000000E-02 0. -1.
    8880022    1    1    2    0    0  0.51610249614E+03 -0.58347283551E+02 -0.42113206281E+02  0.54307583925E+03  0.15294330000E+03 0.  0.
    8880022    1    1    2    0    0 -0.51610249614E+03  0.58347283551E+02  0.72815317158E+03  0.90739455934E+03  0.15294330000E+03 0.  0.
<mgrwt>
<rscale>  0 0.54144053E+03</rscale>
<asrwt>0</asrwt>
<pdfrwt beam="1">  1        2 0.58802340E-01 0.54144053E+03</pdfrwt>
<pdfrwt beam="2">  1       -2 0.16434695E+00 0.54144053E+03</pdfrwt>
<totfact> 0.20272980E+01</totfact>
</mgrwt>
</event>
<event>
 4    1  0.3365401E-008  0.2878531E+03  0.7818608E-02  0.1091475E+00
         -2   -1    0    0    0  501 -0.00000000000E+00  0.00000000000E+00  0.20172918105E+03  0.20172918107E+03  0.25500000000E-02 0.  1.
          2   -1    0    0  501    0  0.00000000000E+00 -0.00000000000E+00 -0.24941154902E+04  0.24941154902E+04  0.25500000000E-02 0. -1.
    8880022    1    1    2    0    0  0.11878989374E+03  0.21297115829E+03  0.85747435885E+02  0.30035317360E+03  0.15294330000E+03 0.  0.
    8880022    1    1    2    0    0 -0.11878989374E+03 -0.21297115829E+03 -0.23781337450E+04  0.23954914977E+04  0.15294330000E+03 0.  0.
<mgrwt>
<rscale>  0 0.28785310E+03</rscale>
<asrwt>0</asrwt>
<pdfrwt beam="1">  1        2 0.38371005E+00 0.28785310E+03</pdfrwt>
<pdfrwt beam="2">  1       -2 0.31035260E-01 0.28785310E+03</pdfrwt>
<totfact> 0.39000748E+01</totfact>
</mgrwt>
</event>
<event>
 4    1  0.3365401E-008  0.4466576E+03  0.7818608E-02  0.1028723E+00
          2   -1    0    0  501    0  0.00000000000E+00  0.00000000000E+00  0.75014100067E+03  0.75014100067E+03  0.25500000000E-02 0. -1.
         -2   -1    0    0    0  501 -0.00000000000E+00 -0.00000000000E+00 -0.55482212319E+03  0.55482212319E+03  0.25500000000E-02 0.  1.
    8880022    1    1    2    0    0 -0.51991469323E+02  0.41642314226E+03  0.56846454993E+03  0.72294878369E+03  0.15294330000E+03 0.  0.
    8880022    1    1    2    0    0  0.51991469323E+02 -0.41642314226E+03 -0.37314567245E+03  0.58201434018E+03  0.15294330000E+03 0.  1.
<mgrwt>
<rscale>  0 0.44665759E+03</rscale>
<asrwt>0</asrwt>
<pdfrwt beam="1">  1        2 0.11540631E+00 0.44665759E+03</pdfrwt>
<pdfrwt beam="2">  1       -2 0.85357250E-01 0.44665759E+03</pdfrwt>
<totfact> 0.46749027E+01</totfact>
</mgrwt>
</event>
<event>
 4    1  0.3365401E-008  0.6239447E+03  0.7818608E-02  0.9856937E-01
          2   -1    0    0  501    0  0.00000000000E+00  0.00000000000E+00  0.15052168505E+04  0.15052168505E+04  0.25500000000E-02 0. -1.
         -2   -1    0    0    0  501 -0.00000000000E+00 -0.00000000000E+00 -0.19202283840E+04  0.19202283840E+04  0.25500000000E-02 0.  1.
    8880022    1    1    2    0    0 -0.55867506397E+02 -0.60232394697E+03 -0.18007139018E+04  0.19057485470E+04  0.15294330000E+03 0.  0.
    8880022    1    1    2    0    0  0.55867506397E+02  0.60232394697E+03  0.13857023683E+04  0.15196966875E+04  0.15294330000E+03 0.  0.
<mgrwt>
<rscale>  0 0.62394468E+03</rscale>
<asrwt>0</asrwt>
<pdfrwt beam="1">  1        2 0.23157182E+00 0.62394468E+03</pdfrwt>
<pdfrwt beam="2">  1       -2 0.29541975E+00 0.62394468E+03</pdfrwt>
<totfact> 0.46457840E-01</totfact>
</mgrwt>
</event>
<event>
 4    1  0.3365401E-008  0.8493679E+03  0.7818608E-02  0.9491186E-01
          2   -1    0    0  501    0  0.00000000000E+00  0.00000000000E+00  0.80664771671E+03  0.80664771671E+03  0.25500000000E-02 0. -1.
         -2   -1    0    0    0  501 -0.00000000000E+00 -0.00000000000E+00 -0.16352266286E+04  0.16352266286E+04  0.25500000000E-02 0.  1.
    8880022    1    1    2    0    0  0.26132197576E+03 -0.79356474009E+03  0.40753134413E+03  0.94207622898E+03  0.15294330000E+03 0.  0.
    8880022    1    1    2    0    0 -0.26132197576E+03  0.79356474009E+03 -0.12361102561E+04  0.14997981164E+04  0.15294330000E+03 0.  0.
<mgrwt>
<rscale>  0 0.84936790E+03</rscale>
<asrwt>0</asrwt>
<pdfrwt beam="1">  1        2 0.12409965E+00 0.84936790E+03</pdfrwt>
<pdfrwt beam="2">  1       -2 0.25157333E+00 0.84936790E+03</pdfrwt>
<totfact> 0.21774268E+00</totfact>
</mgrwt>
</event>
<event>
 4    1  0.3365401E-008  0.3711530E+03  0.7818608E-02  0.1054253E+00
         -2   -1    0    0    0  501 -0.00000000000E+00  0.00000000000E+00  0.19488872483E+03  0.19488872485E+03  0.25500000000E-02 0.  1.
          2   -1    0    0  501    0  0.00000000000E+00 -0.00000000000E+00 -0.12111251802E+04  0.12111251802E+04  0.25500000000E-02 0. -1.
    8880022    1    1    2    0    0 -0.31691704352E+03 -0.11801058080E+03 -0.96175107645E+03  0.10308829690E+04  0.15294330000E+03 0.  0.
    8880022    1    1    2    0    0  0.31691704352E+03  0.11801058080E+03 -0.54485378888E+02  0.37513093605E+03  0.15294330000E+03 0.  0.
<mgrwt>
<rscale>  0 0.37115302E+03</rscale>
<asrwt>0</asrwt>
<pdfrwt beam="1">  1        2 0.18632695E+00 0.37115302E+03</pdfrwt>
<pdfrwt beam="2">  1       -2 0.29982882E-01 0.37115302E+03</pdfrwt>
<totfact> 0.20050047E+02</totfact>
</mgrwt>
</event>
<event>
 4    1  0.3365401E-008  0.2271926E+03  0.7818608E-02  0.1128631E+00
         -2   -1    0    0    0  501 -0.00000000000E+00  0.00000000000E+00  0.11911249019E+03  0.11911249021E+03  0.25500000000E-02 0.  1.
          2   -1    0    0  501    0  0.00000000000E+00 -0.00000000000E+00 -0.20969145660E+04  0.20969145660E+04  0.25500000000E-02 0. -1.
    8880022    1    1    2    0    0  0.11280832237E+03 -0.12449541377E+03 -0.19956218774E+01  0.22720136700E+03  0.15294330000E+03 0.  0.
    8880022    1    1    2    0    0 -0.11280832237E+03  0.12449541377E+03 -0.19758064539E+04  0.19888256892E+04  0.15294330000E+03 0. -1.
<mgrwt>
<rscale>  0 0.22719260E+03</rscale>
<asrwt>0</asrwt>
<pdfrwt beam="1">  1        2 0.32260221E+00 0.22719260E+03</pdfrwt>
<pdfrwt beam="2">  1       -2 0.18325000E-01 0.22719260E+03</pdfrwt>
<totfact> 0.16441172E+02</totfact>
</mgrwt>
</event>
<event>
 4    1  0.3365401E-008  0.2969199E+03  0.7818608E-02  0.1086791E+00
          2   -1    0    0  501    0  0.00000000000E+00  0.00000000000E+00  0.13831757819E+04  0.13831757819E+04  0.25500000000E-02 0. -1.
         -2   -1    0    0    0  501 -0.00000000000E+00 -0.00000000000E+00 -0.12916512313E+03  0.12916512316E+03  0.25500000000E-02 0.  1.
    8880022    1    1    2    0    0 -0.23999544122E+03  0.84687434530E+02  0.88828965003E+02  0.30992258939E+03  0.15294330000E+03 0.  0.
    8880022    1    1    2    0    0  0.23999544122E+03 -0.84687434530E+02  0.11651816937E+04  0.12024183156E+04  0.15294330000E+03 0. -1.
<mgrwt>
<rscale>  0 0.29691990E+03</rscale>
<asrwt>0</asrwt>
<pdfrwt beam="1">  1        2 0.21279628E+00 0.29691990E+03</pdfrwt>
<pdfrwt beam="2">  1       -2 0.19871557E-01 0.29691990E+03</pdfrwt>
<totfact> 0.33645309E+02</totfact>
</mgrwt>
</event>
<event>
 4    1  0.3365401E-008  0.3422779E+03  0.7818608E-02  0.1065830E+00
          2   -1    0    0  501    0  0.00000000000E+00  0.00000000000E+00  0.69601080093E+03  0.69601080093E+03  0.25500000000E-02 0. -1.
         -2   -1    0    0    0  501 -0.00000000000E+00 -0.00000000000E+00 -0.45464546458E+03  0.45464546459E+03  0.25500000000E-02 0.  1.
    8880022    1    1    2    0    0 -0.77778347667E+02 -0.29616384951E+03 -0.33588737186E+03  0.47955654173E+03  0.15294330000E+03 0.  0.
    8880022    1    1    2    0    0  0.77778347667E+02  0.29616384951E+03  0.57725270821E+03  0.67109972379E+03  0.15294330000E+03 0. -1.
<mgrwt>
<rscale>  0 0.34227788E+03</rscale>
<asrwt>0</asrwt>
<pdfrwt beam="1">  1        2 0.10707858E+00 0.34227788E+03</pdfrwt>
<pdfrwt beam="2">  1       -2 0.69945457E-01 0.34227788E+03</pdfrwt>
<totfact> 0.80844252E+01</totfact>
</mgrwt>
</event>
<event>
 4    1  0.3365401E-008  0.2506625E+03  0.7818608E-02  0.1112887E+00
          2   -1    0    0  501    0  0.00000000000E+00  0.00000000000E+00  0.11841971337E+04  0.11841971337E+04  0.25500000000E-02 0. -1.
         -2   -1    0    0    0  501 -0.00000000000E+00 -0.00000000000E+00 -0.53444197542E+02  0.53444197603E+02  0.25500000000E-02 0.  1.
    8880022    1    1    2    0    0 -0.76076029246E+02 -0.18344615980E+03  0.51280561392E+03  0.57079007214E+03  0.15294330000E+03 0.  1.
    8880022    1    1    2    0    0  0.76076029246E+02  0.18344615980E+03  0.61794732220E+03  0.66685125913E+03  0.15294330000E+03 0. -1.
<mgrwt>
<rscale>  0 0.25066254E+03</rscale>
<asrwt>0</asrwt>
<pdfrwt beam="1">  1        2 0.18218418E+00 0.25066254E+03</pdfrwt>
<pdfrwt beam="2">  1       -2 0.82221840E-02 0.25066254E+03</pdfrwt>
<totfact> 0.18476557E+03</totfact>
</mgrwt>
</event>
<event>
 4    1  0.3365401E-008  0.6095193E+03  0.7818608E-02  0.9885851E-01
          2   -1    0    0  501    0  0.00000000000E+00  0.00000000000E+00  0.20884965693E+04  0.20884965693E+04  0.25500000000E-02 0. -1.
         -2   -1    0    0    0  501 -0.00000000000E+00 -0.00000000000E+00 -0.34705869371E+03  0.34705869372E+03  0.25500000000E-02 0.  1.
    8880022    1    1    2    0    0  0.43785415197E+03 -0.39548185668E+03  0.20497674108E+02  0.60986389057E+03  0.15294330000E+03 0.  0.
    8880022    1    1    2    0    0 -0.43785415197E+03  0.39548185668E+03  0.17209402015E+04  0.18256913725E+04  0.15294330000E+03 0.  0.
<mgrwt>
<rscale>  0 0.60951933E+03</rscale>
<asrwt>0</asrwt>
<pdfrwt beam="1">  1        2 0.32130717E+00 0.60951933E+03</pdfrwt>
<pdfrwt beam="2">  1       -2 0.53393645E-01 0.60951933E+03</pdfrwt>
<totfact> 0.20878384E+01</totfact>
</mgrwt>
</event>
<event>
 4    1  0.3365401E-008  0.9398936E+03  0.7818608E-02  0.9377042E-01
         -2   -1    0    0    0  501 -0.00000000000E+00  0.00000000000E+00  0.39821524860E+03  0.39821524860E+03  0.25500000000E-02 0.  1.
          2   -1    0    0  501    0  0.00000000000E+00 -0.00000000000E+00 -0.22788339835E+04  0.22788339835E+04  0.25500000000E-02 0. -1.
    8880022    1    1    2    0    0  0.28746048659E+03 -0.88168857201E+03 -0.11582899022E+04  0.14916552617E+04  0.15294330000E+03 0.  0.
    8880022    1    1    2    0    0 -0.28746048659E+03  0.88168857201E+03 -0.72232883271E+03  0.11853939703E+04  0.15294330000E+03 0.  0.
<mgrwt>
<rscale>  0 0.93989357E+03</rscale>
<asrwt>0</asrwt>
<pdfrwt beam="1">  1        2 0.35058984E+00 0.93989357E+03</pdfrwt>
<pdfrwt beam="2">  1       -2 0.61263886E-01 0.93989357E+03</pdfrwt>
<totfact> 0.11721960E+01</totfact>
</mgrwt>
</event>
<event>
 4    1  0.3365401E-008  0.4360356E+03  0.7818608E-02  0.1031970E+00
          2   -1    0    0  501    0  0.00000000000E+00  0.00000000000E+00  0.91004139944E+03  0.91004139945E+03  0.25500000000E-02 0. -1.
         -2   -1    0    0    0  501 -0.00000000000E+00 -0.00000000000E+00 -0.46757001142E+03  0.46757001143E+03  0.25500000000E-02 0.  1.
    8880022    1    1    2    0    0  0.40240774565E+03  0.69306732632E+02 -0.29106923695E+03  0.52425983125E+03  0.15294330000E+03 0.  0.
    8880022    1    1    2    0    0 -0.40240774565E+03 -0.69306732632E+02  0.73354062497E+03  0.85335157962E+03  0.15294330000E+03 0.  0.
<mgrwt>
<rscale>  0 0.43603563E+03</rscale>
<asrwt>0</asrwt>
<pdfrwt beam="1">  1        2 0.14000637E+00 0.43603563E+03</pdfrwt>
<pdfrwt beam="2">  1       -2 0.71933849E-01 0.43603563E+03</pdfrwt>
<totfact> 0.53039450E+01</totfact>
</mgrwt>
</event>
<event>
 4    1  0.3365401E-008  0.9403083E+03  0.7818608E-02  0.9376551E-01
         -2   -1    0    0    0  501 -0.00000000000E+00  0.00000000000E+00  0.68176470926E+03  0.68176470926E+03  0.25500000000E-02 0.  1.
          2   -1    0    0  501    0  0.00000000000E+00 -0.00000000000E+00 -0.14053425955E+04  0.14053425955E+04  0.25500000000E-02 0. -1.
    8880022    1    1    2    0    0 -0.16797032847E+03  0.91245493055E+03 -0.65167442749E+03  0.11440538641E+04  0.15294330000E+03 0.  0.
    8880022    1    1    2    0    0  0.16797032847E+03 -0.91245493055E+03 -0.71903458759E+02  0.94305344066E+03  0.15294330000E+03 0.  0.
<mgrwt>
<rscale>  0 0.94030829E+03</rscale>
<asrwt>0</asrwt>
<pdfrwt beam="1">  1        2 0.21620655E+00 0.94030829E+03</pdfrwt>
<pdfrwt beam="2">  1       -2 0.10488688E+00 0.94030829E+03</pdfrwt>
<totfact> 0.10595446E+01</totfact>
</mgrwt>
</event>
<event>
 4    1  0.3365401E-008  0.1006977E+04  0.7818608E-02  0.9300925E-01
          2   -1    0    0  501    0  0.00000000000E+00  0.00000000000E+00  0.38041488786E+04  0.38041488786E+04  0.25500000000E-02 0. -1.
         -2   -1    0    0    0  501 -0.00000000000E+00 -0.00000000000E+00 -0.51178140271E+03  0.51178140272E+03  0.25500000000E-02 0.  1.
    8880022    1    1    2    0    0  0.97694567080E+03  0.19023300528E+03  0.31399702640E+04  0.32974863687E+04  0.15294330000E+03 0.  0.
    8880022    1    1    2    0    0 -0.97694567080E+03 -0.19023300528E+03  0.15239721192E+03  0.10184439126E+04  0.15294330000E+03 0.  0.
<mgrwt>
<rscale>  0 0.10069772E+04</rscale>
<asrwt>0</asrwt>
<pdfrwt beam="1">  1        2 0.58525366E+00 0.10069772E+04</pdfrwt>
<pdfrwt beam="2">  1       -2 0.78735602E-01 0.10069772E+04</pdfrwt>
<totfact> 0.72940916E-01</totfact>
</mgrwt>
</event>
<event>
 4    1  0.3365401E-008  0.8155104E+03  0.7818608E-02  0.9537834E-01
         -2   -1    0    0    0  501 -0.00000000000E+00  0.00000000000E+00  0.51929292373E+03  0.51929292374E+03  0.25500000000E-02 0.  1.
          2   -1    0    0  501    0  0.00000000000E+00 -0.00000000000E+00 -0.23935360433E+04  0.23935360433E+04  0.25500000000E-02 0. -1.
    8880022    1    1    2    0    0 -0.14069590027E+03 -0.78858746558E+03  0.55951204448E+02  0.81742749985E+03  0.15294330000E+03 0.  1.
    8880022    1    1    2    0    0  0.14069590027E+03  0.78858746558E+03 -0.19301943240E+04  0.20954014671E+04  0.15294330000E+03 0.  0.
<mgrwt>
<rscale>  0 0.81551038E+03</rscale>
<asrwt>0</asrwt>
<pdfrwt beam="1">  1        2 0.36823631E+00 0.81551038E+03</pdfrwt>
<pdfrwt beam="2">  1       -2 0.79891220E-01 0.81551038E+03</pdfrwt>
<totfact> 0.57550667E+00</totfact>
</mgrwt>
</event>
<event>
 4    1  0.3365401E-008  0.4113419E+03  0.7818608E-02  0.1039922E+00
         -2   -1    0    0    0  501 -0.00000000000E+00  0.00000000000E+00  0.40964070423E+03  0.40964070424E+03  0.25500000000E-02 0.  1.
          2   -1    0    0  501    0  0.00000000000E+00 -0.00000000000E+00 -0.63800498853E+03  0.63800498854E+03  0.25500000000E-02 0. -1.
    8880022    1    1    2    0    0  0.23237115562E+03 -0.30300846640E+03  0.19686062545E+03  0.45602219632E+03  0.15294330000E+03 0.  0.
    8880022    1    1    2    0    0 -0.23237115562E+03  0.30300846640E+03 -0.42522490975E+03  0.59162349646E+03  0.15294330000E+03 0.  0.
<mgrwt>
<rscale>  0 0.41134187E+03</rscale>
<asrwt>0</asrwt>
<pdfrwt beam="1">  1        2 0.98154614E-01 0.41134187E+03</pdfrwt>
<pdfrwt beam="2">  1       -2 0.63021646E-01 0.41134187E+03</pdfrwt>
<totfact> 0.11135694E+02</totfact>
</mgrwt>
</event>
<event>
 4    1  0.3365401E-008  0.8426280E+03  0.7818608E-02  0.9500285E-01
          2   -1    0    0  501    0  0.00000000000E+00  0.00000000000E+00  0.20611458226E+04  0.20611458226E+04  0.25500000000E-02 0. -1.
         -2   -1    0    0    0  501 -0.00000000000E+00 -0.00000000000E+00 -0.43522724256E+03  0.43522724256E+03  0.25500000000E-02 0.  1.
    8880022    1    1    2    0    0  0.51115502796E+03  0.65218932109E+03  0.24300516476E+03  0.87696837815E+03  0.15294330000E+03 0.  0.
    8880022    1    1    2    0    0 -0.51115502796E+03 -0.65218932109E+03  0.13829134153E+04  0.16194046870E+04  0.15294330000E+03 0.  0.
<mgrwt>
<rscale>  0 0.84262805E+03</rscale>
<asrwt>0</asrwt>
<pdfrwt beam="1">  1        2 0.31709935E+00 0.84262805E+03</pdfrwt>
<pdfrwt beam="2">  1       -2 0.66958038E-01 0.84262805E+03</pdfrwt>
<totfact> 0.12940892E+01</totfact>
</mgrwt>
</event>
<event>
 4    1  0.3365401E-008  0.8744100E+03  0.7818608E-02  0.9458148E-01
          2   -1    0    0  501    0  0.00000000000E+00  0.00000000000E+00  0.19459043736E+04  0.19459043736E+04  0.25500000000E-02 0. -1.
         -2   -1    0    0    0  501 -0.00000000000E+00 -0.00000000000E+00 -0.51122524523E+03  0.51122524523E+03  0.25500000000E-02 0.  1.
    8880022    1    1    2    0    0 -0.27523999721E+03  0.81574761523E+03  0.13083378927E+04  0.15736393876E+04  0.15294330000E+03 0.  0.
    8880022    1    1    2    0    0  0.27523999721E+03 -0.81574761523E+03  0.12634123570E+03  0.88349023122E+03  0.15294330000E+03 0.  0.
<mgrwt>
<rscale>  0 0.87441002E+03</rscale>
<asrwt>0</asrwt>
<pdfrwt beam="1">  1        2 0.29936989E+00 0.87441002E+03</pdfrwt>
<pdfrwt beam="2">  1       -2 0.78650041E-01 0.87441002E+03</pdfrwt>
<totfact> 0.10453330E+01</totfact>
</mgrwt>
</event>
<event>
 4    1  0.3365401E-008  0.1558117E+03  0.7818608E-02  0.1193508E+00
          2   -1    0    0  501    0  0.00000000000E+00  0.00000000000E+00  0.24968153245E+03  0.24968153246E+03  0.25500000000E-02 0. -1.
         -2   -1    0    0    0  501 -0.00000000000E+00 -0.00000000000E+00 -0.23912343039E+03  0.23912343041E+03  0.25500000000E-02 0.  1.
    8880022    1    1    2    0    0 -0.20773674753E+02 -0.21309508627E+02 -0.18298657854E+03  0.24033597663E+03  0.15294330000E+03 0.  0.
    8880022    1    1    2    0    0  0.20773674753E+02  0.21309508627E+02  0.19354468060E+03  0.24846898624E+03  0.15294330000E+03 0. -1.
<mgrwt>
<rscale>  0 0.15581173E+03</rscale>
<asrwt>0</asrwt>
<pdfrwt beam="1">  1        2 0.38412544E-01 0.15581173E+03</pdfrwt>
<pdfrwt beam="2">  1       -2 0.36788220E-01 0.15581173E+03</pdfrwt>
<totfact> 0.92699771E+02</totfact>
</mgrwt>
</event>
<event>
 4    1  0.3365401E-008  0.3920608E+03  0.7818608E-02  0.1046564E+00
         -2   -1    0    0    0  501 -0.00000000000E+00  0.00000000000E+00  0.51631804343E+03  0.51631804344E+03  0.25500000000E-02 0.  1.
          2   -1    0    0  501    0  0.00000000000E+00 -0.00000000000E+00 -0.32999942989E+03  0.32999942990E+03  0.25500000000E-02 0. -1.
    8880022    1    1    2    0    0  0.30056422934E+03 -0.19995297055E+03 -0.39212174109E+02  0.39401687021E+03  0.15294330000E+03 0.  0.
    8880022    1    1    2    0    0 -0.30056422934E+03  0.19995297055E+03  0.22553078765E+03  0.45230060313E+03  0.15294330000E+03 0.  1.
<mgrwt>
<rscale>  0 0.39206084E+03</rscale>
<asrwt>0</asrwt>
<pdfrwt beam="1">  1        2 0.50769144E-01 0.39206084E+03</pdfrwt>
<pdfrwt beam="2">  1       -2 0.79433544E-01 0.39206084E+03</pdfrwt>
<totfact> 0.14251420E+02</totfact>
</mgrwt>
</event>
<event>
 4    1  0.3365401E-008  0.5153032E+03  0.7818608E-02  0.1009860E+00
         -2   -1    0    0    0  501 -0.00000000000E+00  0.00000000000E+00  0.34976719757E+03  0.34976719758E+03  0.25500000000E-02 0.  1.
          2   -1    0    0  501    0  0.00000000000E+00 -0.00000000000E+00 -0.17666669824E+04  0.17666669824E+04  0.25500000000E-02 0. -1.
    8880022    1    1    2    0    0  0.14430171328E+03 -0.47044956047E+03 -0.15075780405E+04  0.15932134116E+04  0.15294330000E+03 0.  0.
    8880022    1    1    2    0    0 -0.14430171328E+03  0.47044956047E+03  0.90678255750E+02  0.52322076840E+03  0.15294330000E+03 0.  0.
<mgrwt>
<rscale>  0 0.51530324E+03</rscale>
<asrwt>0</asrwt>
<pdfrwt beam="1">  1        2 0.27179491E+00 0.51530324E+03</pdfrwt>
<pdfrwt beam="2">  1       -2 0.53810339E-01 0.51530324E+03</pdfrwt>
<totfact> 0.31184331E+01</totfact>
</mgrwt>
</event>
<event>
 4    1  0.3365401E-008  0.9873182E+03  0.7818608E-02  0.9322564E-01
         -2   -1    0    0    0  501 -0.00000000000E+00  0.00000000000E+00  0.86806618135E+03  0.86806618135E+03  0.25500000000E-02 0.  1.
          2   -1    0    0  501    0  0.00000000000E+00 -0.00000000000E+00 -0.21040641124E+04  0.21040641124E+04  0.25500000000E-02 0. -1.
    8880022    1    1    2    0    0 -0.14320407301E+02  0.97529512889E+03  0.39677078863E+03  0.10640603245E+04  0.15294330000E+03 0.  0.
    8880022    1    1    2    0    0  0.14320407301E+02 -0.97529512889E+03 -0.16327687197E+04  0.19080699693E+04  0.15294330000E+03 0.  0.
<mgrwt>
<rscale>  0 0.98731824E+03</rscale>
<asrwt>0</asrwt>
<pdfrwt beam="1">  1        2 0.32370217E+00 0.98731824E+03</pdfrwt>
<pdfrwt beam="2">  1       -2 0.13354864E+00 0.98731824E+03</pdfrwt>
<totfact> 0.23740410E+00</totfact>
</mgrwt>
</event>
<event>
 4    1  0.3365401E-008  0.6667142E+03  0.7818608E-02  0.9775912E-01
         -2   -1    0    0    0  501 -0.00000000000E+00  0.00000000000E+00  0.57683760434E+03  0.57683760434E+03  0.25500000000E-02 0.  1.
          2   -1    0    0  501    0  0.00000000000E+00 -0.00000000000E+00 -0.17812388461E+04  0.17812388461E+04  0.25500000000E-02 0. -1.
    8880022    1    1    2    0    0 -0.11861987192E+03 -0.63800120421E+03 -0.14903090458E+04  0.16326447610E+04  0.15294330000E+03 0.  0.
    8880022    1    1    2    0    0  0.11861987192E+03  0.63800120421E+03  0.28590780406E+03  0.72543168943E+03  0.15294330000E+03 0.  0.
<mgrwt>
<rscale>  0 0.66671423E+03</rscale>
<asrwt>0</asrwt>
<pdfrwt beam="1">  1        2 0.27403674E+00 0.66671423E+03</pdfrwt>
<pdfrwt beam="2">  1       -2 0.88744248E-01 0.66671423E+03</pdfrwt>
<totfact> 0.10069394E+01</totfact>
</mgrwt>
</event>
<event>
 4    1  0.3365401E-008  0.3019338E+03  0.7818608E-02  0.1084278E+00
         -2   -1    0    0    0  501 -0.00000000000E+00  0.00000000000E+00  0.34108497204E+03  0.34108497205E+03  0.25500000000E-02 0.  1.
          2   -1    0    0  501    0  0.00000000000E+00 -0.00000000000E+00 -0.24136963917E+04  0.24136963917E+04  0.25500000000E-02 0. -1.
    8880022    1    1    2    0    0 -0.14919140985E+03  0.21334078470E+03 -0.23351980495E+04  0.23546366919E+04  0.15294330000E+03 0.  0.
    8880022    1    1    2    0    0  0.14919140985E+03 -0.21334078470E+03  0.26258662990E+03  0.40014467185E+03  0.15294330000E+03 0.  0.
<mgrwt>
<rscale>  0 0.30193380E+03</rscale>
<asrwt>0</asrwt>
<pdfrwt beam="1">  1        2 0.37133789E+00 0.30193380E+03</pdfrwt>
<pdfrwt beam="2">  1       -2 0.52474613E-01 0.30193380E+03</pdfrwt>
<totfact> 0.15608144E+01</totfact>
</mgrwt>
</event>
<event>
 4    1  0.3365401E-008  0.5396875E+03  0.7818608E-02  0.1003909E+00
          2   -1    0    0  501    0  0.00000000000E+00  0.00000000000E+00  0.19384761364E+04  0.19384761364E+04  0.25500000000E-02 0. -1.
         -2   -1    0    0    0  501 -0.00000000000E+00 -0.00000000000E+00 -0.42773574538E+03  0.42773574539E+03  0.25500000000E-02 0.  1.
    8880022    1    1    2    0    0 -0.34797433205E+03  0.38312499957E+03 -0.19754350624E+03  0.57470513390E+03  0.15294330000E+03 0.  0.
    8880022    1    1    2    0    0  0.34797433205E+03 -0.38312499957E+03  0.17082838973E+04  0.17915067479E+04  0.15294330000E+03 0.  0.
<mgrwt>
<rscale>  0 0.53968746E+03</rscale>
<asrwt>0</asrwt>
<pdfrwt beam="1">  1        2 0.29822710E+00 0.53968746E+03</pdfrwt>
<pdfrwt beam="2">  1       -2 0.65805499E-01 0.53968746E+03</pdfrwt>
<totfact> 0.16445239E+01</totfact>
</mgrwt>
</event>
<event>
 4    1  0.5707448E-008  0.8695299E+03  0.7818608E-02  0.9464493E-01
         -2   -1    0    0    0  501 -0.00000000000E+00  0.00000000000E+00  0.16645125548E+04  0.16645125548E+04  0.25500000000E-02 0.  1.
          2   -1    0    0  501    0  0.00000000000E+00 -0.00000000000E+00 -0.11070523838E+04  0.11070523838E+04  0.25500000000E-02 0. -1.
    8880022    1    1    2    0    0 -0.68353346224E+03  0.51524041379E+03 -0.78542846503E+03  0.11717423798E+04  0.15294330000E+03 0.  0.
    8880022    1    1    2    0    0  0.68353346224E+03 -0.51524041379E+03  0.13428886360E+04  0.15998225588E+04  0.15294330000E+03 0.  0.
<mgrwt>
<rscale>  0 0.86952995E+03</rscale>
<asrwt>0</asrwt>
<pdfrwt beam="1">  1        2 0.17031575E+00 0.86952995E+03</pdfrwt>
<pdfrwt beam="2">  1       -2 0.25607885E+00 0.86952995E+03</pdfrwt>
<totfact> 0.12926546E+00</totfact>
</mgrwt>
</event>
<event>
 4    1  0.3365401E-008  0.9871827E+03  0.7818608E-02  0.9322715E-01
          2   -1    0    0  501    0  0.00000000000E+00  0.00000000000E+00  0.96583175297E+03  0.96583175297E+03  0.25500000000E-02 0. -1.
         -2   -1    0    0    0  501 -0.00000000000E+00 -0.00000000000E+00 -0.13229490366E+04  0.13229490366E+04  0.25500000000E-02 0.  1.
    8880022    1    1    2    0    0  0.36627776605E+03 -0.90386874231E+03  0.37892004894E+03  0.10574072828E+04  0.15294330000E+03 0.  0.
    8880022    1    1    2    0    0 -0.36627776605E+03  0.90386874231E+03 -0.73603733259E+03  0.12313735068E+04  0.15294330000E+03 0.  0.
<mgrwt>
<rscale>  0 0.98718274E+03</rscale>
<asrwt>0</asrwt>
<pdfrwt beam="1">  1        2 0.14858950E+00 0.98718274E+03</pdfrwt>
<pdfrwt beam="2">  1       -2 0.20353062E+00 0.98718274E+03</pdfrwt>
<totfact> 0.33223055E+00</totfact>
</mgrwt>
</event>
<event>
 4    1  0.3365401E-008  0.3331978E+03  0.7818608E-02  0.1069731E+00
         -2   -1    0    0    0  501 -0.00000000000E+00  0.00000000000E+00  0.18341601666E+03  0.18341601668E+03  0.25500000000E-02 0.  1.
          2   -1    0    0  501    0  0.00000000000E+00 -0.00000000000E+00 -0.74733185485E+03  0.74733185486E+03  0.25500000000E-02 0. -1.
    8880022    1    1    2    0    0 -0.29206260487E+03 -0.48255131703E+02 -0.48484108580E+03  0.58829555021E+03  0.15294330000E+03 0.  0.
    8880022    1    1    2    0    0  0.29206260487E+03  0.48255131703E+02 -0.79074752395E+02  0.34245232133E+03  0.15294330000E+03 0.  0.
<mgrwt>
<rscale>  0 0.33319780E+03</rscale>
<asrwt>0</asrwt>
<pdfrwt beam="1">  1        2 0.11497413E+00 0.33319780E+03</pdfrwt>
<pdfrwt beam="2">  1       -2 0.28217849E-01 0.33319780E+03</pdfrwt>
<totfact> 0.44318887E+02</totfact>
</mgrwt>
</event>
<event>
 4    1  0.3365401E-008  0.7060344E+03  0.7818608E-02  0.9706968E-01
          2   -1    0    0  501    0  0.00000000000E+00  0.00000000000E+00  0.29958375706E+04  0.29958375706E+04  0.25500000000E-02 0. -1.
         -2   -1    0    0    0  501 -0.00000000000E+00 -0.00000000000E+00 -0.44288851915E+03  0.44288851916E+03  0.25500000000E-02 0.  1.
    8880022    1    1    2    0    0 -0.68925653572E+03  0.42874691557E+01 -0.82041906095E+02  0.71078511647E+03  0.15294330000E+03 0.  0.
    8880022    1    1    2    0    0  0.68925653572E+03 -0.42874691557E+01  0.26349909576E+04  0.27279409733E+04  0.15294330000E+03 0.  0.
<mgrwt>
<rscale>  0 0.70603442E+03</rscale>
<asrwt>0</asrwt>
<pdfrwt beam="1">  1        2 0.46089807E+00 0.70603442E+03</pdfrwt>
<pdfrwt beam="2">  1       -2 0.68136699E-01 0.70603442E+03</pdfrwt>
<totfact> 0.37167228E+00</totfact>
</mgrwt>
</event>
<event>
 4    1  0.3365401E-008  0.3623102E+03  0.7818608E-02  0.1057673E+00
         -2   -1    0    0    0  501 -0.00000000000E+00  0.00000000000E+00  0.46162453339E+03  0.46162453340E+03  0.25500000000E-02 0.  1.
          2   -1    0    0  501    0  0.00000000000E+00 -0.00000000000E+00 -0.13021552773E+04  0.13021552773E+04  0.25500000000E-02 0. -1.
    8880022    1    1    2    0    0 -0.38958073217E+02 -0.32612768152E+03  0.35940798279E+03  0.51033591607E+03  0.15294330000E+03 0.  0.
    8880022    1    1    2    0    0  0.38958073217E+02  0.32612768152E+03 -0.11999387267E+04  0.12534438946E+04  0.15294330000E+03 0.  0.
<mgrwt>
<rscale>  0 0.36231016E+03</rscale>
<asrwt>0</asrwt>
<pdfrwt beam="1">  1        2 0.20033158E+00 0.36231016E+03</pdfrwt>
<pdfrwt beam="2">  1       -2 0.71019159E-01 0.36231016E+03</pdfrwt>
<totfact> 0.32126818E+01</totfact>
</mgrwt>
</event>
<event>
 4    1  0.3365401E-008  0.2421355E+03  0.7818608E-02  0.1118378E+00
         -2   -1    0    0    0  501 -0.00000000000E+00  0.00000000000E+00  0.65170308665E+02  0.65170308715E+02  0.25500000000E-02 0.  1.
          2   -1    0    0  501    0  0.00000000000E+00 -0.00000000000E+00 -0.36211422323E+04  0.36211422323E+04  0.25500000000E-02 0. -1.
    8880022    1    1    2    0    0 -0.18216146925E+03  0.45333721090E+02 -0.33758652913E+04  0.33845377919E+04  0.15294330000E+03 0.  0.
    8880022    1    1    2    0    0  0.18216146925E+03 -0.45333721090E+02 -0.18010663234E+03  0.30177474906E+03  0.15294330000E+03 0.  1.
<mgrwt>
<rscale>  0 0.24213550E+03</rscale>
<asrwt>0</asrwt>
<pdfrwt beam="1">  1        2 0.55709865E+00 0.24213550E+03</pdfrwt>
<pdfrwt beam="2">  1       -2 0.10026204E-01 0.24213550E+03</pdfrwt>
<totfact> 0.56472435E+01</totfact>
</mgrwt>
</event>
<event>
 4    1  0.3365401E-008  0.2799282E+03  0.7818608E-02  0.1095728E+00
          2   -1    0    0  501    0  0.00000000000E+00  0.00000000000E+00  0.87253224425E+03  0.87253224425E+03  0.25500000000E-02 0. -1.
         -2   -1    0    0    0  501 -0.00000000000E+00 -0.00000000000E+00 -0.17216586617E+03  0.17216586619E+03  0.25500000000E-02 0.  1.
    8880022    1    1    2    0    0  0.94228133566E+02 -0.21468400389E+03 -0.11094816776E+02  0.28014801562E+03  0.15294330000E+03 0.  0.
    8880022    1    1    2    0    0 -0.94228133566E+02  0.21468400389E+03  0.71146119486E+03  0.76455009482E+03  0.15294330000E+03 0.  0.
<mgrwt>
<rscale>  0 0.27992823E+03</rscale>
<asrwt>0</asrwt>
<pdfrwt beam="1">  1        2 0.13423573E+00 0.27992823E+03</pdfrwt>
<pdfrwt beam="2">  1       -2 0.26487056E-01 0.27992823E+03</pdfrwt>
<totfact> 0.40830227E+02</totfact>
</mgrwt>
</event>
<event>
 4    1  0.3365401E-008  0.3632428E+03  0.7818608E-02  0.1057307E+00
          2   -1    0    0  501    0  0.00000000000E+00  0.00000000000E+00  0.62120882259E+03  0.62120882260E+03  0.25500000000E-02 0. -1.
         -2   -1    0    0    0  501 -0.00000000000E+00 -0.00000000000E+00 -0.40977142183E+03  0.40977142184E+03  0.25500000000E-02 0.  1.
    8880022    1    1    2    0    0 -0.31026415234E+03 -0.11085951145E+03  0.46347775286E+03  0.58886072710E+03  0.15294330000E+03 0.  0.
    8880022    1    1    2    0    0  0.31026415234E+03  0.11085951145E+03 -0.25204035210E+03  0.44211951734E+03  0.15294330000E+03 0.  0.
<mgrwt>
<rscale>  0 0.36324280E+03</rscale>
<asrwt>0</asrwt>
<pdfrwt beam="1">  1        2 0.95570588E-01 0.36324280E+03</pdfrwt>
<pdfrwt beam="2">  1       -2 0.63041757E-01 0.36324280E+03</pdfrwt>
<totfact> 0.11547376E+02</totfact>
</mgrwt>
</event>
<event>
 4    1  0.3365401E-008  0.6485747E+03  0.7818608E-02  0.9809457E-01
         -2   -1    0    0    0  501 -0.00000000000E+00  0.00000000000E+00  0.11368141175E+04  0.11368141176E+04  0.25500000000E-02 0.  1.
          2   -1    0    0  501    0  0.00000000000E+00 -0.00000000000E+00 -0.74680566492E+03  0.74680566493E+03  0.25500000000E-02 0. -1.
    8880022    1    1    2    0    0  0.34442420478E+03  0.52785360415E+03  0.86397018484E+03  0.10803210604E+04  0.15294330000E+03 0.  0.
    8880022    1    1    2    0    0 -0.34442420478E+03 -0.52785360415E+03 -0.47396173222E+03  0.80329872207E+03  0.15294330000E+03 0.  0.
<mgrwt>
<rscale>  0 0.64857468E+03</rscale>
<asrwt>0</asrwt>
<pdfrwt beam="1">  1        2 0.11489318E+00 0.64857468E+03</pdfrwt>
<pdfrwt beam="2">  1       -2 0.17489448E+00 0.64857468E+03</pdfrwt>
<totfact> 0.76539298E+00</totfact>
</mgrwt>
</event>
<event>
 4    1  0.3365401E-008  0.3979423E+03  0.7818608E-02  0.1044495E+00
          2   -1    0    0  501    0  0.00000000000E+00  0.00000000000E+00  0.30496989564E+04  0.30496989564E+04  0.25500000000E-02 0. -1.
         -2   -1    0    0    0  501 -0.00000000000E+00 -0.00000000000E+00 -0.71696169985E+02  0.71696170031E+02  0.25500000000E-02 0.  1.
    8880022    1    1    2    0    0 -0.32566601060E+03 -0.17002384973E+03  0.66944663680E+03  0.77879195712E+03  0.15294330000E+03 0.  0.
    8880022    1    1    2    0    0  0.32566601060E+03  0.17002384973E+03  0.23085561496E+04  0.23426031693E+04  0.15294330000E+03 0.  0.
<mgrwt>
<rscale>  0 0.39794235E+03</rscale>
<asrwt>0</asrwt>
<pdfrwt beam="1">  1        2 0.46918439E+00 0.39794235E+03</pdfrwt>
<pdfrwt beam="2">  1       -2 0.11030182E-01 0.39794235E+03</pdfrwt>
<totfact> 0.10651300E+02</totfact>
</mgrwt>
</event>
<event>
 4    1  0.5682995E-008  0.8413626E+03  0.7818608E-02  0.9502004E-01
         -2   -1    0    0    0  501 -0.00000000000E+00  0.00000000000E+00  0.13326328148E+04  0.13326328148E+04  0.25500000000E-02 0.  1.
          2   -1    0    0  501    0  0.00000000000E+00 -0.00000000000E+00 -0.14340046510E+04  0.14340046510E+04  0.25500000000E-02 0. -1.
    8880022    1    1    2    0    0  0.17795653839E+03  0.80797946641E+03  0.10469151298E+04  0.13431017421E+04  0.15294330000E+03 0.  0.
    8880022    1    1    2    0    0 -0.17795653839E+03 -0.80797946641E+03 -0.11482869659E+04  0.14235357237E+04  0.15294330000E+03 0.  0.
<mgrwt>
<rscale>  0 0.84136259E+03</rscale>
<asrwt>0</asrwt>
<pdfrwt beam="1">  1        2 0.22061610E+00 0.84136259E+03</pdfrwt>
<pdfrwt beam="2">  1       -2 0.20502043E+00 0.84136259E+03</pdfrwt>
<totfact> 0.17343068E+00</totfact>
</mgrwt>
</event>
<event>
 4    1  0.3365401E-008  0.3915510E+03  0.7818608E-02  0.1046745E+00
         -2   -1    0    0    0  501 -0.00000000000E+00  0.00000000000E+00  0.46931806463E+03  0.46931806464E+03  0.25500000000E-02 0.  1.
          2   -1    0    0  501    0  0.00000000000E+00 -0.00000000000E+00 -0.93723069608E+03  0.93723069608E+03  0.25500000000E-02 0. -1.
    8880022    1    1    2    0    0  0.55758711039E+02  0.35610605754E+03  0.33367442452E+03  0.51444225397E+03  0.15294330000E+03 0.  0.
    8880022    1    1    2    0    0 -0.55758711039E+02 -0.35610605754E+03 -0.80158705597E+03  0.89210650675E+03  0.15294330000E+03 0.  0.
<mgrwt>
<rscale>  0 0.39155103E+03</rscale>
<asrwt>0</asrwt>
<pdfrwt beam="1">  1        2 0.14418934E+00 0.39155103E+03</pdfrwt>
<pdfrwt beam="2">  1       -2 0.72202779E-01 0.39155103E+03</pdfrwt>
<totfact> 0.50852708E+01</totfact>
</mgrwt>
</event>
<event>
 4    1  0.3365401E-008  0.7538296E+03  0.7818608E-02  0.9629361E-01
          2   -1    0    0  501    0  0.00000000000E+00  0.00000000000E+00  0.12151080862E+04  0.12151080863E+04  0.25500000000E-02 0. -1.
         -2   -1    0    0    0  501 -0.00000000000E+00 -0.00000000000E+00 -0.46934563875E+03  0.46934563875E+03  0.25500000000E-02 0.  1.
    8880022    1    1    2    0    0  0.12455404960E+03 -0.72756695464E+03  0.42333530470E+03  0.86456452506E+03  0.15294330000E+03 0.  0.
    8880022    1    1    2    0    0 -0.12455404960E+03  0.72756695464E+03  0.32242714280E+03  0.81988919995E+03  0.15294330000E+03 0.  0.
<mgrwt>
<rscale>  0 0.75382958E+03</rscale>
<asrwt>0</asrwt>
<pdfrwt beam="1">  1        2 0.18693970E+00 0.75382958E+03</pdfrwt>
<pdfrwt beam="2">  1       -2 0.72207022E-01 0.75382958E+03</pdfrwt>
<totfact> 0.32806311E+01</totfact>
</mgrwt>
</event>
<event>
 4    1  0.3365401E-008  0.9521104E+03  0.7818608E-02  0.9362687E-01
         -2   -1    0    0    0  501 -0.00000000000E+00  0.00000000000E+00  0.11146328438E+04  0.11146328438E+04  0.25500000000E-02 0.  1.
          2   -1    0    0  501    0  0.00000000000E+00 -0.00000000000E+00 -0.14734455633E+04  0.14734455633E+04  0.25500000000E-02 0. -1.
    8880022    1    1    2    0    0 -0.46136574301E+03 -0.81869663505E+03 -0.10455804161E+04  0.14141260865E+04  0.15294330000E+03 0.  0.
    8880022    1    1    2    0    0  0.46136574301E+03  0.81869663505E+03  0.68676769659E+03  0.11739523207E+04  0.15294330000E+03 0.  0.
<mgrwt>
<rscale>  0 0.95211038E+03</rscale>
<asrwt>0</asrwt>
<pdfrwt beam="1">  1        2 0.22668393E+00 0.95211038E+03</pdfrwt>
<pdfrwt beam="2">  1       -2 0.17148198E+00 0.95211038E+03</pdfrwt>
<totfact> 0.27293344E+00</totfact>
</mgrwt>
</event>
<event>
 4    1  0.3365401E-008  0.5366488E+03  0.7818608E-02  0.1004632E+00
          2   -1    0    0  501    0  0.00000000000E+00  0.00000000000E+00  0.39311303344E+04  0.39311303344E+04  0.25500000000E-02 0. -1.
         -2   -1    0    0    0  501 -0.00000000000E+00 -0.00000000000E+00 -0.97260831301E+02  0.97260831335E+02  0.25500000000E-02 0.  1.
    8880022    1    1    2    0    0 -0.51186159796E+03 -0.50970837473E+02  0.29175148348E+04  0.29664599754E+04  0.15294330000E+03 0.  0.
    8880022    1    1    2    0    0  0.51186159796E+03  0.50970837473E+02  0.91635466830E+03  0.10619311903E+04  0.15294330000E+03 0.  0.
<mgrwt>
<rscale>  0 0.53664884E+03</rscale>
<asrwt>0</asrwt>
<pdfrwt beam="1">  1        2 0.60478928E+00 0.53664884E+03</pdfrwt>
<pdfrwt beam="2">  1       -2 0.14963205E-01 0.53664884E+03</pdfrwt>
<totfact> 0.15744346E+01</totfact>
</mgrwt>
</event>
<event>
 4    1  0.3365401E-008  0.2042130E+03  0.7818608E-02  0.1146232E+00
         -2   -1    0    0    0  501 -0.00000000000E+00  0.00000000000E+00  0.16540883241E+03  0.16540883243E+03  0.25500000000E-02 0.  1.
          2   -1    0    0  501    0  0.00000000000E+00 -0.00000000000E+00 -0.93779431962E+03  0.93779431962E+03  0.25500000000E-02 0. -1.
    8880022    1    1    2    0    0  0.58636150976E+02  0.12195525714E+03 -0.85785434864E+03  0.88182595757E+03  0.15294330000E+03 0.  0.
    8880022    1    1    2    0    0 -0.58636150976E+02 -0.12195525714E+03  0.85468861431E+02  0.22137719448E+03  0.15294330000E+03 0.  1.
<mgrwt>
<rscale>  0 0.20421297E+03</rscale>
<asrwt>0</asrwt>
<pdfrwt beam="1">  1        2 0.14427605E+00 0.20421297E+03</pdfrwt>
<pdfrwt beam="2">  1       -2 0.25447513E-01 0.20421297E+03</pdfrwt>
<totfact> 0.40106300E+02</totfact>
</mgrwt>
</event>
<event>
 4    1  0.3740966E-008  0.9541430E+03  0.7818608E-02  0.9360321E-01
         -2   -1    0    0    0  501 -0.00000000000E+00  0.00000000000E+00  0.10799580635E+04  0.10799580635E+04  0.25500000000E-02 0.  1.
          2   -1    0    0  501    0  0.00000000000E+00 -0.00000000000E+00 -0.37462210967E+04  0.37462210967E+04  0.25500000000E-02 0. -1.
    8880022    1    1    2    0    0 -0.41817748867E+03  0.84387485039E+03  0.79117848024E+03  0.12394967591E+04  0.15294330000E+03 0.  0.
    8880022    1    1    2    0    0  0.41817748867E+03 -0.84387485039E+03 -0.34574415134E+04  0.35866824012E+04  0.15294330000E+03 0.  0.
<mgrwt>
<rscale>  0 0.95414298E+03</rscale>
<asrwt>0</asrwt>
<pdfrwt beam="1">  1        2 0.57634170E+00 0.95414298E+03</pdfrwt>
<pdfrwt beam="2">  1       -2 0.16614740E+00 0.95414298E+03</pdfrwt>
<totfact> 0.12848899E-01</totfact>
</mgrwt>
</event>
<event>
 4    1  0.3365401E-008  0.2299909E+03  0.7818608E-02  0.1126646E+00
         -2   -1    0    0    0  501 -0.00000000000E+00  0.00000000000E+00  0.66327318415E+03  0.66327318415E+03  0.25500000000E-02 0.  1.
          2   -1    0    0  501    0  0.00000000000E+00 -0.00000000000E+00 -0.31211536314E+04  0.31211536314E+04  0.25500000000E-02 0. -1.
    8880022    1    1    2    0    0  0.55506564203E+02 -0.16255206090E+03  0.63894246616E+03  0.67907531191E+03  0.15294330000E+03 0.  1.
    8880022    1    1    2    0    0 -0.55506564203E+02  0.16255206090E+03 -0.30968229134E+04  0.31053515036E+04  0.15294330000E+03 0.  0.
<mgrwt>
<rscale>  0 0.22999088E+03</rscale>
<asrwt>0</asrwt>
<pdfrwt beam="1">  1        2 0.48017747E+00 0.22999088E+03</pdfrwt>
<pdfrwt beam="2">  1       -2 0.10204203E+00 0.22999088E+03</pdfrwt>
<totfact> 0.15142967E+00</totfact>
</mgrwt>
</event>
<event>
 4    1  0.3365401E-008  0.9181452E+03  0.7818608E-02  0.9403179E-01
         -2   -1    0    0    0  501 -0.00000000000E+00  0.00000000000E+00  0.32551392841E+03  0.32551392842E+03  0.25500000000E-02 0.  1.
          2   -1    0    0  501    0  0.00000000000E+00 -0.00000000000E+00 -0.28157475493E+04  0.28157475493E+04  0.25500000000E-02 0. -1.
    8880022    1    1    2    0    0  0.51853485168E+03 -0.74210552442E+03 -0.80012113913E+03  0.12178606210E+04  0.15294330000E+03 0.  1.
    8880022    1    1    2    0    0 -0.51853485168E+03  0.74210552442E+03 -0.16901124817E+04  0.19234008567E+04  0.15294330000E+03 0. -1.
<mgrwt>
<rscale>  0 0.91814523E+03</rscale>
<asrwt>0</asrwt>
<pdfrwt beam="1">  1        2 0.43319192E+00 0.91814523E+03</pdfrwt>
<pdfrwt beam="2">  1       -2 0.50079068E-01 0.91814523E+03</pdfrwt>
<totfact> 0.87907447E+00</totfact>
</mgrwt>
</event>
<event>
 4    1  0.3365401E-008  0.4012079E+03  0.7818608E-02  0.1043362E+00
          2   -1    0    0  501    0  0.00000000000E+00  0.00000000000E+00  0.26394027711E+04  0.26394027711E+04  0.25500000000E-02 0. -1.
         -2   -1    0    0    0  501 -0.00000000000E+00 -0.00000000000E+00 -0.25908200115E+03  0.25908200116E+03  0.25500000000E-02 0.  1.
    8880022    1    1    2    0    0  0.18919277095E+03 -0.31903330765E+03 -0.77082219707E+02  0.40854556366E+03  0.15294330000E+03 0.  0.
    8880022    1    1    2    0    0 -0.18919277095E+03  0.31903330765E+03  0.24574029896E+04  0.24899392086E+04  0.15294330000E+03 0.  0.
<mgrwt>
<rscale>  0 0.40120794E+03</rscale>
<asrwt>0</asrwt>
<pdfrwt beam="1">  1        2 0.40606196E+00 0.40120794E+03</pdfrwt>
<pdfrwt beam="2">  1       -2 0.39858770E-01 0.40120794E+03</pdfrwt>
<totfact> 0.19449904E+01</totfact>
</mgrwt>
</event>
<event>
 4    1  0.3365401E-008  0.3345390E+03  0.7818608E-02  0.1069146E+00
         -2   -1    0    0    0  501 -0.00000000000E+00  0.00000000000E+00  0.27439447795E+03  0.27439447796E+03  0.25500000000E-02 0.  1.
          2   -1    0    0  501    0  0.00000000000E+00 -0.00000000000E+00 -0.14536732001E+04  0.14536732001E+04  0.25500000000E-02 0. -1.
    8880022    1    1    2    0    0  0.26143247383E+03  0.14204850830E+03  0.14322403049E+03  0.36390863278E+03  0.15294330000E+03 0.  0.
    8880022    1    1    2    0    0 -0.26143247383E+03 -0.14204850830E+03 -0.13225027527E+04  0.13641590453E+04  0.15294330000E+03 0. -1.
<mgrwt>
<rscale>  0 0.33453904E+03</rscale>
<asrwt>0</asrwt>
<pdfrwt beam="1">  1        2 0.22364203E+00 0.33453904E+03</pdfrwt>
<pdfrwt beam="2">  1       -2 0.42214536E-01 0.33453904E+03</pdfrwt>
<totfact> 0.77464107E+01</totfact>
</mgrwt>
</event>
<event>
 4    1  0.3365401E-008  0.6513125E+03  0.7818608E-02  0.9804320E-01
         -2   -1    0    0    0  501 -0.00000000000E+00  0.00000000000E+00  0.12291680084E+04  0.12291680084E+04  0.25500000000E-02 0.  1.
          2   -1    0    0  501    0  0.00000000000E+00 -0.00000000000E+00 -0.57995456520E+03  0.57995456520E+03  0.25500000000E-02 0. -1.
    8880022    1    1    2    0    0 -0.93763092526E+02 -0.62611881682E+03  0.90021087270E+03  0.11111199569E+04  0.15294330000E+03 0.  0.
    8880022    1    1    2    0    0  0.93763092526E+02  0.62611881682E+03 -0.25099742949E+03  0.69800261670E+03  0.15294330000E+03 0.  0.
<mgrwt>
<rscale>  0 0.65131248E+03</rscale>
<asrwt>0</asrwt>
<pdfrwt beam="1">  1        2 0.89223779E-01 0.65131248E+03</pdfrwt>
<pdfrwt beam="2">  1       -2 0.18910277E+00 0.65131248E+03</pdfrwt>
<totfact> 0.83698175E+00</totfact>
</mgrwt>
</event>
<event>
 4    1  0.3365401E-008  0.6505212E+03  0.7818608E-02  0.9805802E-01
          2   -1    0    0  501    0  0.00000000000E+00  0.00000000000E+00  0.52191706233E+03  0.52191706234E+03  0.25500000000E-02 0. -1.
         -2   -1    0    0    0  501 -0.00000000000E+00 -0.00000000000E+00 -0.22188657338E+04  0.22188657338E+04  0.25500000000E-02 0.  1.
    8880022    1    1    2    0    0  0.43136943483E+03  0.46228416536E+03 -0.19401367298E+04  0.20462913825E+04  0.15294330000E+03 0.  0.
    8880022    1    1    2    0    0 -0.43136943483E+03 -0.46228416536E+03  0.24318805833E+03  0.69449141361E+03  0.15294330000E+03 0.  0.
<mgrwt>
<rscale>  0 0.65052125E+03</rscale>
<asrwt>0</asrwt>
<pdfrwt beam="1">  1        2 0.80294934E-01 0.65052125E+03</pdfrwt>
<pdfrwt beam="2">  1       -2 0.34136396E+00 0.65052125E+03</pdfrwt>
<totfact> 0.11071997E+00</totfact>
</mgrwt>
</event>
<event>
 4    1  0.3365401E-008  0.8144064E+03  0.7818608E-02  0.9539395E-01
          2   -1    0    0  501    0  0.00000000000E+00  0.00000000000E+00  0.14629773266E+04  0.14629773266E+04  0.25500000000E-02 0. -1.
         -2   -1    0    0    0  501 -0.00000000000E+00 -0.00000000000E+00 -0.52308466920E+03  0.52308466920E+03  0.25500000000E-02 0.  1.
    8880022    1    1    2    0    0  0.51982733946E+03  0.60798486748E+03  0.83249399538E+03  0.11646046399E+04  0.15294330000E+03 0.  0.
    8880022    1    1    2    0    0 -0.51982733946E+03 -0.60798486748E+03  0.10739866201E+03  0.82145735589E+03  0.15294330000E+03 0.  0.
<mgrwt>
<rscale>  0 0.81440636E+03</rscale>
<asrwt>0</asrwt>
<pdfrwt beam="1">  1        2 0.22507343E+00 0.81440636E+03</pdfrwt>
<pdfrwt beam="2">  1       -2 0.80474565E-01 0.81440636E+03</pdfrwt>
<totfact> 0.18456470E+01</totfact>
</mgrwt>
</event>
<event>
 4    1  0.3365401E-008  0.1568721E+04  0.7818608E-02  0.8839997E-01
         -2   -1    0    0    0  501 -0.00000000000E+00  0.00000000000E+00  0.23428999344E+04  0.23428999344E+04  0.25500000000E-02 0.  1.
          2   -1    0    0  501    0  0.00000000000E+00 -0.00000000000E+00 -0.14797033575E+04  0.14797033575E+04  0.25500000000E-02 0. -1.
    8880022    1    1    2    0    0 -0.15412177088E+04  0.24928509395E+03 -0.59794504762E+03  0.16788165525E+04  0.15294330000E+03 0.  0.
    8880022    1    1    2    0    0  0.15412177088E+04 -0.24928509395E+03  0.14611416246E+04  0.21437867394E+04  0.15294330000E+03 0.  0.
<mgrwt>
<rscale>  0 0.15687214E+04</rscale>
<asrwt>0</asrwt>
<pdfrwt beam="1">  1        2 0.22764667E+00 0.15687214E+04</pdfrwt>
<pdfrwt beam="2">  1       -2 0.36044614E+00 0.15687214E+04</pdfrwt>
<totfact> 0.16284923E-01</totfact>
</mgrwt>
</event>
<event>
 4    1  0.3365401E-008  0.2653095E+03  0.7818608E-02  0.1103994E+00
          2   -1    0    0  501    0  0.00000000000E+00  0.00000000000E+00  0.68238815516E+03  0.68238815516E+03  0.25500000000E-02 0. -1.
         -2   -1    0    0    0  501 -0.00000000000E+00 -0.00000000000E+00 -0.12881444744E+03  0.12881444746E+03  0.25500000000E-02 0.  1.
    8880022    1    1    2    0    0  0.21479864985E+03  0.29309334226E+02  0.45782618853E+03  0.52914456339E+03  0.15294330000E+03 0. -1.
    8880022    1    1    2    0    0 -0.21479864985E+03 -0.29309334226E+02  0.95747519194E+02  0.28205803924E+03  0.15294330000E+03 0.  1.
<mgrwt>
<rscale>  0 0.26530954E+03</rscale>
<asrwt>0</asrwt>
<pdfrwt beam="1">  1        2 0.10498279E+00 0.26530954E+03</pdfrwt>
<pdfrwt beam="2">  1       -2 0.19817608E-01 0.26530954E+03</pdfrwt>
<totfact> 0.92617169E+02</totfact>
</mgrwt>
</event>
<event>
 4    1  0.3365401E-008  0.4847137E+03  0.7818608E-02  0.1017848E+00
         -2   -1    0    0    0  501 -0.00000000000E+00  0.00000000000E+00  0.15610669631E+04  0.15610669631E+04  0.25500000000E-02 0.  1.
          2   -1    0    0  501    0  0.00000000000E+00 -0.00000000000E+00 -0.53529488947E+03  0.53529488947E+03  0.25500000000E-02 0. -1.
    8880022    1    1    2    0    0  0.23705620535E+03  0.39415740752E+03  0.14015793251E+04  0.14830279714E+04  0.15294330000E+03 0.  0.
    8880022    1    1    2    0    0 -0.23705620535E+03 -0.39415740752E+03 -0.37580725153E+03  0.61333388111E+03  0.15294330000E+03 0.  0.
<mgrwt>
<rscale>  0 0.48471369E+03</rscale>
<asrwt>0</asrwt>
<pdfrwt beam="1">  1        2 0.82353060E-01 0.48471369E+03</pdfrwt>
<pdfrwt beam="2">  1       -2 0.24016415E+00 0.48471369E+03</pdfrwt>
<totfact> 0.45077332E+00</totfact>
</mgrwt>
</event>
<event>
 4    1  0.3365401E-008  0.1266357E+04  0.7818608E-02  0.9056678E-01
         -2   -1    0    0    0  501 -0.00000000000E+00  0.00000000000E+00  0.75366933318E+03  0.75366933318E+03  0.25500000000E-02 0.  1.
          2   -1    0    0  501    0  0.00000000000E+00 -0.00000000000E+00 -0.23054532403E+04  0.23054532403E+04  0.25500000000E-02 0. -1.
    8880022    1    1    2    0    0 -0.12481568489E+03  0.12508754622E+04 -0.12004835174E+04  0.17449414619E+04  0.15294330000E+03 0.  0.
    8880022    1    1    2    0    0  0.12481568489E+03 -0.12508754622E+04 -0.35130038971E+03  0.13141811115E+04  0.15294330000E+03 0.  0.
<mgrwt>
<rscale>  0 0.12663570E+04</rscale>
<asrwt>0</asrwt>
<pdfrwt beam="1">  1        2 0.35468511E+00 0.12663570E+04</pdfrwt>
<pdfrwt beam="2">  1       -2 0.11594913E+00 0.12663570E+04</pdfrwt>
<totfact> 0.25285232E+00</totfact>
</mgrwt>
</event>
<event>
 4    1  0.3365401E-008  0.7685763E+03  0.7818608E-02  0.9606649E-01
          2   -1    0    0  501    0  0.00000000000E+00  0.00000000000E+00  0.34657799515E+04  0.34657799515E+04  0.25500000000E-02 0. -1.
         -2   -1    0    0    0  501 -0.00000000000E+00 -0.00000000000E+00 -0.18626196897E+03  0.18626196899E+03  0.25500000000E-02 0.  1.
    8880022    1    1    2    0    0  0.62895759465E+03  0.41440354301E+03  0.11075701931E+04  0.13481177018E+04  0.15294330000E+03 0.  0.
    8880022    1    1    2    0    0 -0.62895759465E+03 -0.41440354301E+03  0.21719477894E+04  0.23039242186E+04  0.15294330000E+03 0.  0.
<mgrwt>
<rscale>  0 0.76857635E+03</rscale>
<asrwt>0</asrwt>
<pdfrwt beam="1">  1        2 0.53319691E+00 0.76857635E+03</pdfrwt>
<pdfrwt beam="2">  1       -2 0.28655688E-01 0.76857635E+03</pdfrwt>
<totfact> 0.10304407E+01</totfact>
</mgrwt>
</event>
<event>
 4    1  0.3365401E-008  0.4915323E+03  0.7818608E-02  0.1016013E+00
          2   -1    0    0  501    0  0.00000000000E+00  0.00000000000E+00  0.51308322425E+04  0.51308322425E+04  0.25500000000E-02 0. -1.
         -2   -1    0    0    0  501 -0.00000000000E+00 -0.00000000000E+00 -0.66667606877E+03  0.66667606877E+03  0.25500000000E-02 0.  1.
    8880022    1    1    2    0    0  0.35761915797E+03  0.30053441097E+03 -0.56242916430E+03  0.74694752975E+03  0.15294330000E+03 0.  0.
    8880022    1    1    2    0    0 -0.35761915797E+03 -0.30053441097E+03  0.50265853380E+04  0.50505607815E+04  0.15294330000E+03 0. -1.
<mgrwt>
<rscale>  0 0.49153235E+03</rscale>
<asrwt>0</asrwt>
<pdfrwt beam="1">  1        2 0.78935880E+00 0.49153235E+03</pdfrwt>
<pdfrwt beam="2">  1       -2 0.10256555E+00 0.49153235E+03</pdfrwt>
<totfact> 0.24157288E-02</totfact>
</mgrwt>
</event>
<event>
 4    1  0.3365401E-008  0.5133747E+03  0.7818608E-02  0.1010346E+00
          2   -1    0    0  501    0  0.00000000000E+00  0.00000000000E+00  0.57984127360E+03  0.57984127361E+03  0.25500000000E-02 0. -1.
         -2   -1    0    0    0  501 -0.00000000000E+00 -0.00000000000E+00 -0.47947714921E+03  0.47947714922E+03  0.25500000000E-02 0.  1.
    8880022    1    1    2    0    0  0.42185995279E+03 -0.24939138287E+03  0.17100484793E+03  0.54110645224E+03  0.15294330000E+03 0.  0.
    8880022    1    1    2    0    0 -0.42185995279E+03  0.24939138287E+03 -0.70640723538E+02  0.51821197059E+03  0.15294330000E+03 0.  0.
<mgrwt>
<rscale>  0 0.51337465E+03</rscale>
<asrwt>0</asrwt>
<pdfrwt beam="1">  1        2 0.89206350E-01 0.51337465E+03</pdfrwt>
<pdfrwt beam="2">  1       -2 0.73765715E-01 0.51337465E+03</pdfrwt>
<totfact> 0.88073453E+01</totfact>
</mgrwt>
</event>
<event>
 4    1  0.3365401E-008  0.1061711E+04  0.7818608E-02  0.9243336E-01
          2   -1    0    0  501    0  0.00000000000E+00  0.00000000000E+00  0.21533178393E+04  0.21533178393E+04  0.25500000000E-02 0. -1.
         -2   -1    0    0    0  501 -0.00000000000E+00 -0.00000000000E+00 -0.75178568176E+03  0.75178568177E+03  0.25500000000E-02 0.  1.
    8880022    1    1    2    0    0  0.65439650299E+03 -0.82195111994E+03  0.15012230284E+04  0.18387225622E+04  0.15294330000E+03 0.  0.
    8880022    1    1    2    0    0 -0.65439650299E+03  0.82195111994E+03 -0.99690870869E+02  0.10663809589E+04  0.15294330000E+03 0.  0.
<mgrwt>
<rscale>  0 0.10617109E+04</rscale>
<asrwt>0</asrwt>
<pdfrwt beam="1">  1        2 0.33127966E+00 0.10617109E+04</pdfrwt>
<pdfrwt beam="2">  1       -2 0.11565934E+00 0.10617109E+04</pdfrwt>
<totfact> 0.31691979E+00</totfact>
</mgrwt>
</event>
<event>
 4    1  0.3365401E-008  0.6371648E+03  0.7818608E-02  0.9831166E-01
          2   -1    0    0  501    0  0.00000000000E+00  0.00000000000E+00  0.13128116490E+04  0.13128116490E+04  0.25500000000E-02 0. -1.
         -2   -1    0    0    0  501 -0.00000000000E+00 -0.00000000000E+00 -0.57061136603E+03  0.57061136604E+03  0.25500000000E-02 0.  1.
    8880022    1    1    2    0    0  0.59390273944E+03  0.17282018668E+03  0.10084435084E+04  0.11928693321E+04  0.15294330000E+03 0.  0.
    8880022    1    1    2    0    0 -0.59390273944E+03 -0.17282018668E+03 -0.26624322547E+03  0.69055368290E+03  0.15294330000E+03 0.  0.
<mgrwt>
<rscale>  0 0.63716476E+03</rscale>
<asrwt>0</asrwt>
<pdfrwt beam="1">  1        2 0.20197102E+00 0.63716476E+03</pdfrwt>
<pdfrwt beam="2">  1       -2 0.87786364E-01 0.63716476E+03</pdfrwt>
<totfact> 0.18835032E+01</totfact>
</mgrwt>
</event>
<event>
 4    1  0.3365401E-008  0.1156621E+04  0.7818608E-02  0.9151697E-01
          2   -1    0    0  501    0  0.00000000000E+00  0.00000000000E+00  0.29135563243E+04  0.29135563243E+04  0.25500000000E-02 0. -1.
         -2   -1    0    0    0  501 -0.00000000000E+00 -0.00000000000E+00 -0.84049821993E+03  0.84049821994E+03  0.25500000000E-02 0.  1.
    8880022    1    1    2    0    0  0.82774663020E+02 -0.11434721207E+04  0.23008595720E+04  0.25752138861E+04  0.15294330000E+03 0.  0.
    8880022    1    1    2    0    0 -0.82774663020E+02  0.11434721207E+04 -0.22780146768E+03  0.11788406582E+04  0.15294330000E+03 0.  0.
<mgrwt>
<rscale>  0 0.11566208E+04</rscale>
<asrwt>0</asrwt>
<pdfrwt beam="1">  1        2 0.44823944E+00 0.11566208E+04</pdfrwt>
<pdfrwt beam="2">  1       -2 0.12930742E+00 0.11566208E+04</pdfrwt>
<totfact> 0.86010891E-01</totfact>
</mgrwt>
</event>
<event>
 4    1  0.3365401E-008  0.1267356E+04  0.7818608E-02  0.9055861E-01
         -2   -1    0    0    0  501 -0.00000000000E+00  0.00000000000E+00  0.18601906576E+04  0.18601906576E+04  0.25500000000E-02 0.  1.
          2   -1    0    0  501    0  0.00000000000E+00 -0.00000000000E+00 -0.12178862737E+04  0.12178862737E+04  0.25500000000E-02 0. -1.
    8880022    1    1    2    0    0  0.40688729423E+02 -0.12574351428E+04 -0.50910435485E+03  0.13657882735E+04  0.15294330000E+03 0.  0.
    8880022    1    1    2    0    0 -0.40688729423E+02  0.12574351428E+04  0.11514087387E+04  0.17122886578E+04  0.15294330000E+03 0.  0.
<mgrwt>
<rscale>  0 0.12673557E+04</rscale>
<asrwt>0</asrwt>
<pdfrwt beam="1">  1        2 0.18736712E+00 0.12673557E+04</pdfrwt>
<pdfrwt beam="2">  1       -2 0.28618318E+00 0.12673557E+04</pdfrwt>
<totfact> 0.69027492E-01</totfact>
</mgrwt>
</event>
<event>
 4    1  0.3365401E-008  0.9705648E+03  0.7818608E-02  0.9341431E-01
          2   -1    0    0  501    0  0.00000000000E+00  0.00000000000E+00  0.21478882697E+04  0.21478882697E+04  0.25500000000E-02 0. -1.
         -2   -1    0    0    0  501 -0.00000000000E+00 -0.00000000000E+00 -0.14999413706E+04  0.14999413706E+04  0.25500000000E-02 0.  1.
    8880022    1    1    2    0    0  0.10242044233E+03  0.95295036536E+03  0.18582421123E+04  0.20964397790E+04  0.15294330000E+03 0.  0.
    8880022    1    1    2    0    0 -0.10242044233E+03 -0.95295036536E+03 -0.12102952131E+04  0.15513898613E+04  0.15294330000E+03 0.  0.
<mgrwt>
<rscale>  0 0.97056478E+03</rscale>
<asrwt>0</asrwt>
<pdfrwt beam="1">  1        2 0.33044435E+00 0.97056478E+03</pdfrwt>
<pdfrwt beam="2">  1       -2 0.23076021E+00 0.97056478E+03</pdfrwt>
<totfact> 0.47102636E-01</totfact>
</mgrwt>
</event>
<event>
 4    1  0.3365401E-008  0.3895560E+03  0.7818608E-02  0.1047457E+00
          2   -1    0    0  501    0  0.00000000000E+00  0.00000000000E+00  0.21795294161E+04  0.21795294161E+04  0.25500000000E-02 0. -1.
         -2   -1    0    0    0  501 -0.00000000000E+00 -0.00000000000E+00 -0.32759746531E+03  0.32759746532E+03  0.25500000000E-02 0.  1.
    8880022    1    1    2    0    0 -0.32036904268E+03  0.16039297826E+03 -0.18643439856E+03  0.43186996766E+03  0.15294330000E+03 0.  0.
    8880022    1    1    2    0    0  0.32036904268E+03 -0.16039297826E+03  0.20383663493E+04  0.20752569138E+04  0.15294330000E+03 0.  0.
<mgrwt>
<rscale>  0 0.38955601E+03</rscale>
<asrwt>0</asrwt>
<pdfrwt beam="1">  1        2 0.33531223E+00 0.38955601E+03</pdfrwt>
<pdfrwt beam="2">  1       -2 0.50399609E-01 0.38955601E+03</pdfrwt>
<totfact> 0.22007661E+01</totfact>
</mgrwt>
</event>
<event>
 4    1  0.3365401E-008  0.9016529E+03  0.7818608E-02  0.9423518E-01
          2   -1    0    0  501    0  0.00000000000E+00  0.00000000000E+00  0.10855132666E+04  0.10855132666E+04  0.25500000000E-02 0. -1.
         -2   -1    0    0    0  501 -0.00000000000E+00 -0.00000000000E+00 -0.96041370948E+03  0.96041370948E+03  0.25500000000E-02 0.  1.
    8880022    1    1    2    0    0  0.85466271734E+03 -0.24318278892E+03 -0.41747673489E+03  0.99361194962E+03  0.15294330000E+03 0.  0.
    8880022    1    1    2    0    0 -0.85466271734E+03  0.24318278892E+03  0.54257629198E+03  0.10523150264E+04  0.15294330000E+03 0.  0.
<mgrwt>
<rscale>  0 0.90165286E+03</rscale>
<asrwt>0</asrwt>
<pdfrwt beam="1">  1        2 0.16700204E+00 0.90165286E+03</pdfrwt>
<pdfrwt beam="2">  1       -2 0.14775595E+00 0.90165286E+03</pdfrwt>
<totfact> 0.69442543E+00</totfact>
</mgrwt>
</event>
<event>
 4    1  0.3365401E-008  0.4386839E+03  0.7818608E-02  0.1031151E+00
          2   -1    0    0  501    0  0.00000000000E+00  0.00000000000E+00  0.11420376454E+04  0.11420376454E+04  0.25500000000E-02 0. -1.
         -2   -1    0    0    0  501 -0.00000000000E+00 -0.00000000000E+00 -0.95978130111E+03  0.95978130111E+03  0.25500000000E-02 0.  1.
    8880022    1    1    2    0    0 -0.93631747774E+02  0.40035614036E+03  0.10453341926E+04  0.11336521383E+04  0.15294330000E+03 0.  0.
    8880022    1    1    2    0    0  0.93631747774E+02 -0.40035614036E+03 -0.86307784833E+03  0.96816680825E+03  0.15294330000E+03 0.  0.
<mgrwt>
<rscale>  0 0.43868394E+03</rscale>
<asrwt>0</asrwt>
<pdfrwt beam="1">  1        2 0.17569810E+00 0.43868394E+03</pdfrwt>
<pdfrwt beam="2">  1       -2 0.14765866E+00 0.43868394E+03</pdfrwt>
<totfact> 0.69082406E+00</totfact>
</mgrwt>
</event>
<event>
 4    1  0.3365401E-008  0.9723249E+03  0.7818608E-02  0.9339430E-01
         -2   -1    0    0    0  501 -0.00000000000E+00  0.00000000000E+00  0.73795805064E+03  0.73795805065E+03  0.25500000000E-02 0.  1.
          2   -1    0    0  501    0  0.00000000000E+00 -0.00000000000E+00 -0.18707150464E+04  0.18707150464E+04  0.25500000000E-02 0. -1.
    8880022    1    1    2    0    0 -0.95519925061E+03  0.98074027598E+02  0.16587470603E+03  0.98637223926E+03  0.15294330000E+03 0.  0.
    8880022    1    1    2    0    0  0.95519925061E+03 -0.98074027598E+02 -0.12986317017E+04  0.16223008578E+04  0.15294330000E+03 0.  0.
<mgrwt>
<rscale>  0 0.97232493E+03</rscale>
<asrwt>0</asrwt>
<pdfrwt beam="1">  1        2 0.28780231E+00 0.97232493E+03</pdfrwt>
<pdfrwt beam="2">  1       -2 0.11353201E+00 0.97232493E+03</pdfrwt>
<totfact> 0.48023439E+00</totfact>
</mgrwt>
</event>
<event>
 4    1  0.3365401E-008  0.4944210E+03  0.7818608E-02  0.1015245E+00
          2   -1    0    0  501    0  0.00000000000E+00  0.00000000000E+00  0.14083222685E+04  0.14083222685E+04  0.25500000000E-02 0. -1.
         -2   -1    0    0    0  501 -0.00000000000E+00 -0.00000000000E+00 -0.23263943465E+03  0.23263943466E+03  0.25500000000E-02 0.  1.
    8880022    1    1    2    0    0  0.19322387942E+03  0.42863157956E+03  0.10012533280E+04  0.11166738013E+04  0.15294330000E+03 0.  0.
    8880022    1    1    2    0    0 -0.19322387942E+03 -0.42863157956E+03  0.17442950588E+03  0.52428790194E+03  0.15294330000E+03 0.  0.
<mgrwt>
<rscale>  0 0.49442103E+03</rscale>
<asrwt>0</asrwt>
<pdfrwt beam="1">  1        2 0.21666496E+00 0.49442103E+03</pdfrwt>
<pdfrwt beam="2">  1       -2 0.35790683E-01 0.49442103E+03</pdfrwt>
<totfact> 0.10971346E+02</totfact>
</mgrwt>
</event>
<event>
 4    1  0.3365401E-008  0.5266903E+03  0.7818608E-02  0.1007038E+00
         -2   -1    0    0    0  501 -0.00000000000E+00  0.00000000000E+00  0.45879951340E+03  0.45879951340E+03  0.25500000000E-02 0.  1.
          2   -1    0    0  501    0  0.00000000000E+00 -0.00000000000E+00 -0.68202263067E+03  0.68202263068E+03  0.25500000000E-02 0. -1.
    8880022    1    1    2    0    0  0.38241176766E+03  0.32828677721E+03 -0.30376425534E+03  0.60800932885E+03  0.15294330000E+03 0.  0.
    8880022    1    1    2    0    0 -0.38241176766E+03 -0.32828677721E+03  0.80541138066E+02  0.53281281523E+03  0.15294330000E+03 0.  0.
<mgrwt>
<rscale>  0 0.52669025E+03</rscale>
<asrwt>0</asrwt>
<pdfrwt beam="1">  1        2 0.10492656E+00 0.52669025E+03</pdfrwt>
<pdfrwt beam="2">  1       -2 0.70584541E-01 0.52669025E+03</pdfrwt>
<totfact> 0.79603424E+01</totfact>
</mgrwt>
</event>
<event>
 4    1  0.3365401E-008  0.3874540E+03  0.7818608E-02  0.1048213E+00
         -2   -1    0    0    0  501 -0.00000000000E+00  0.00000000000E+00  0.44818274256E+03  0.44818274256E+03  0.25500000000E-02 0.  1.
          2   -1    0    0  501    0  0.00000000000E+00 -0.00000000000E+00 -0.12346436392E+04  0.12346436392E+04  0.25500000000E-02 0. -1.
    8880022    1    1    2    0    0 -0.35102072563E+03  0.59273834768E+02 -0.11114957232E+04  0.11770910470E+04  0.15294330000E+03 0.  0.
    8880022    1    1    2    0    0  0.35102072563E+03 -0.59273834768E+02  0.32503482655E+03  0.50573533473E+03  0.15294330000E+03 0.  1.
<mgrwt>
<rscale>  0 0.38745398E+03</rscale>
<asrwt>0</asrwt>
<pdfrwt beam="1">  1        2 0.18994517E+00 0.38745398E+03</pdfrwt>
<pdfrwt beam="2">  1       -2 0.68951192E-01 0.38745398E+03</pdfrwt>
<totfact> 0.37199606E+01</totfact>
</mgrwt>
</event>
<event>
 4    1  0.3365401E-008  0.8962883E+03  0.7818608E-02  0.9430233E-01
          2   -1    0    0  501    0  0.00000000000E+00  0.00000000000E+00  0.13606524304E+04  0.13606524304E+04  0.25500000000E-02 0. -1.
         -2   -1    0    0    0  501 -0.00000000000E+00 -0.00000000000E+00 -0.70188998708E+03  0.70188998708E+03  0.25500000000E-02 0.  1.
    8880022    1    1    2    0    0  0.20629563296E+03 -0.85871020380E+03 -0.81627658964E+02  0.89999768334E+03  0.15294330000E+03 0.  0.
    8880022    1    1    2    0    0 -0.20629563296E+03  0.85871020380E+03  0.74039010228E+03  0.11625447341E+04  0.15294330000E+03 0.  0.
<mgrwt>
<rscale>  0 0.89628832E+03</rscale>
<asrwt>0</asrwt>
<pdfrwt beam="1">  1        2 0.20933114E+00 0.89628832E+03</pdfrwt>
<pdfrwt beam="2">  1       -2 0.10798308E+00 0.89628832E+03</pdfrwt>
<totfact> 0.10523313E+01</totfact>
</mgrwt>
</event>
<event>
 4    1  0.3365401E-008  0.9129903E+03  0.7818608E-02  0.9409487E-01
          2   -1    0    0  501    0  0.00000000000E+00  0.00000000000E+00  0.25558171519E+04  0.25558171519E+04  0.25500000000E-02 0. -1.
         -2   -1    0    0    0  501 -0.00000000000E+00 -0.00000000000E+00 -0.51070023444E+03  0.51070023445E+03  0.25500000000E-02 0.  1.
    8880022    1    1    2    0    0 -0.63901290988E+03 -0.63389436609E+03  0.10083031448E+03  0.91854121938E+03  0.15294330000E+03 0.  0.
    8880022    1    1    2    0    0  0.63901290988E+03  0.63389436609E+03  0.19442866030E+04  0.21479761670E+04  0.15294330000E+03 0.  0.
<mgrwt>
<rscale>  0 0.91299026E+03</rscale>
<asrwt>0</asrwt>
<pdfrwt beam="1">  1        2 0.39320263E+00 0.91299026E+03</pdfrwt>
<pdfrwt beam="2">  1       -2 0.78569268E-01 0.91299026E+03</pdfrwt>
<totfact> 0.47610507E+00</totfact>
</mgrwt>
</event>
<event>
 4    1  0.3365401E-008  0.5666322E+03  0.7818608E-02  0.9977159E-01
         -2   -1    0    0    0  501 -0.00000000000E+00  0.00000000000E+00  0.46831285172E+03  0.46831285173E+03  0.25500000000E-02 0.  1.
          2   -1    0    0  501    0  0.00000000000E+00 -0.00000000000E+00 -0.10777485649E+04  0.10777485649E+04  0.25500000000E-02 0. -1.
    8880022    1    1    2    0    0  0.40129207362E+02  0.54412314696E+03  0.16158408087E+03  0.58922102860E+03  0.15294330000E+03 0.  1.
    8880022    1    1    2    0    0 -0.40129207362E+02 -0.54412314696E+03 -0.77101979408E+03  0.95684038806E+03  0.15294330000E+03 0.  0.
<mgrwt>
<rscale>  0 0.56663216E+03</rscale>
<asrwt>0</asrwt>
<pdfrwt beam="1">  1        2 0.16580747E+00 0.56663216E+03</pdfrwt>
<pdfrwt beam="2">  1       -2 0.72048131E-01 0.56663216E+03</pdfrwt>
<totfact> 0.40697956E+01</totfact>
</mgrwt>
</event>
<event>
 4    1  0.3365401E-008  0.6054051E+03  0.7818608E-02  0.9894255E-01
          2   -1    0    0  501    0  0.00000000000E+00  0.00000000000E+00  0.81836442115E+03  0.81836442115E+03  0.25500000000E-02 0. -1.
         -2   -1    0    0    0  501 -0.00000000000E+00 -0.00000000000E+00 -0.55255195402E+03  0.55255195402E+03  0.25500000000E-02 0.  1.
    8880022    1    1    2    0    0  0.44641552776E+03 -0.37925832271E+03  0.43126878638E+03  0.74330889803E+03  0.15294330000E+03 0.  0.
    8880022    1    1    2    0    0 -0.44641552776E+03  0.37925832271E+03 -0.16545631925E+03  0.62760747714E+03  0.15294330000E+03 0.  0.
<mgrwt>
<rscale>  0 0.60540511E+03</rscale>
<asrwt>0</asrwt>
<pdfrwt beam="1">  1        2 0.12590222E+00 0.60540511E+03</pdfrwt>
<pdfrwt beam="2">  1       -2 0.85007993E-01 0.60540511E+03</pdfrwt>
<totfact> 0.41370062E+01</totfact>
</mgrwt>
</event>
<event>
 4    1  0.3365401E-008  0.7221754E+03  0.7818608E-02  0.9680043E-01
          2   -1    0    0  501    0  0.00000000000E+00  0.00000000000E+00  0.91634725976E+03  0.91634725977E+03  0.25500000000E-02 0. -1.
         -2   -1    0    0    0  501 -0.00000000000E+00 -0.00000000000E+00 -0.69204087370E+03  0.69204087370E+03  0.25500000000E-02 0.  1.
    8880022    1    1    2    0    0 -0.22919955999E+03 -0.66754264221E+03 -0.22673639462E+03  0.75693240327E+03  0.15294330000E+03 0.  0.
    8880022    1    1    2    0    0  0.22919955999E+03  0.66754264221E+03  0.45104278068E+03  0.85145573020E+03  0.15294330000E+03 0.  0.
<mgrwt>
<rscale>  0 0.72217537E+03</rscale>
<asrwt>0</asrwt>
<pdfrwt beam="1">  1        2 0.14097650E+00 0.72217537E+03</pdfrwt>
<pdfrwt beam="2">  1       -2 0.10646783E+00 0.72217537E+03</pdfrwt>
<totfact> 0.20699259E+01</totfact>
</mgrwt>
</event>
<event>
 4    1  0.3365401E-008  0.2436763E+03  0.7818608E-02  0.1117368E+00
          2   -1    0    0  501    0  0.00000000000E+00  0.00000000000E+00  0.13278226962E+04  0.13278226962E+04  0.25500000000E-02 0. -1.
         -2   -1    0    0    0  501 -0.00000000000E+00 -0.00000000000E+00 -0.10935279696E+03  0.10935279699E+03  0.25500000000E-02 0.  1.
    8880022    1    1    2    0    0  0.62523080894E+02 -0.17910153440E+03  0.11616895626E+04  0.11869712668E+04  0.15294330000E+03 0. -1.
    8880022    1    1    2    0    0 -0.62523080894E+02  0.17910153440E+03  0.56780336626E+02  0.25020422640E+03  0.15294330000E+03 0.  0.
<mgrwt>
<rscale>  0 0.24367632E+03</rscale>
<asrwt>0</asrwt>
<pdfrwt beam="1">  1        2 0.20428041E+00 0.24367632E+03</pdfrwt>
<pdfrwt beam="2">  1       -2 0.16823508E-01 0.24367632E+03</pdfrwt>
<totfact> 0.48225053E+02</totfact>
</mgrwt>
</event>
<event>
 4    1  0.3365401E-008  0.4079363E+03  0.7818608E-02  0.1041066E+00
          2   -1    0    0  501    0  0.00000000000E+00  0.00000000000E+00  0.83524330818E+03  0.83524330818E+03  0.25500000000E-02 0. -1.
         -2   -1    0    0    0  501 -0.00000000000E+00 -0.00000000000E+00 -0.55310277426E+03  0.55310277426E+03  0.25500000000E-02 0.  1.
    8880022    1    1    2    0    0  0.37811114014E+03  0.72346194294E+01  0.69631394581E+03  0.80700999880E+03  0.15294330000E+03 0.  0.
    8880022    1    1    2    0    0 -0.37811114014E+03 -0.72346194294E+01 -0.41417341189E+03  0.58133608364E+03  0.15294330000E+03 0.  0.
<mgrwt>
<rscale>  0 0.40793630E+03</rscale>
<asrwt>0</asrwt>
<pdfrwt beam="1">  1        2 0.12849897E+00 0.40793630E+03</pdfrwt>
<pdfrwt beam="2">  1       -2 0.85092735E-01 0.40793630E+03</pdfrwt>
<totfact> 0.41187365E+01</totfact>
</mgrwt>
</event>
<event>
 4    1  0.3365401E-008  0.1855361E+03  0.7818608E-02  0.1162550E+00
          2   -1    0    0  501    0  0.00000000000E+00  0.00000000000E+00  0.13442751307E+04  0.13442751308E+04  0.25500000000E-02 0. -1.
         -2   -1    0    0    0  501 -0.00000000000E+00 -0.00000000000E+00 -0.15183981818E+03  0.15183981820E+03  0.25500000000E-02 0.  1.
    8880022    1    1    2    0    0 -0.78789444828E+00 -0.10503026711E+03 -0.85849713388E+02  0.20443532985E+03  0.15294330000E+03 0.  0.
    8880022    1    1    2    0    0  0.78789444828E+00  0.10503026711E+03  0.12782850260E+04  0.12916796191E+04  0.15294330000E+03 0.  0.
<mgrwt>
<rscale>  0 0.18553606E+03</rscale>
<asrwt>0</asrwt>
<pdfrwt beam="1">  1        2 0.20681157E+00 0.18553606E+03</pdfrwt>
<pdfrwt beam="2">  1       -2 0.23359971E-01 0.18553606E+03</pdfrwt>
<totfact> 0.27250891E+02</totfact>
</mgrwt>
</event>
<event>
 4    1  0.3365401E-008  0.9501252E+03  0.7818608E-02  0.9365004E-01
         -2   -1    0    0    0  501 -0.00000000000E+00  0.00000000000E+00  0.84309266343E+03  0.84309266344E+03  0.25500000000E-02 0.  1.
          2   -1    0    0  501    0  0.00000000000E+00 -0.00000000000E+00 -0.18354877511E+04  0.18354877511E+04  0.25500000000E-02 0. -1.
    8880022    1    1    2    0    0  0.66932636554E+03 -0.65677126439E+03 -0.13606804391E+04  0.16595750021E+04  0.15294330000E+03 0.  0.
    8880022    1    1    2    0    0 -0.66932636554E+03  0.65677126439E+03  0.36828535146E+03  0.10190054124E+04  0.15294330000E+03 0.  0.
<mgrwt>
<rscale>  0 0.95012522E+03</rscale>
<asrwt>0</asrwt>
<pdfrwt beam="1">  1        2 0.28238273E+00 0.95012522E+03</pdfrwt>
<pdfrwt beam="2">  1       -2 0.12970656E+00 0.95012522E+03</pdfrwt>
<totfact> 0.36120020E+00</totfact>
</mgrwt>
</event>
<event>
 4    1  0.3365401E-008  0.3300286E+03  0.7818608E-02  0.1071124E+00
         -2   -1    0    0    0  501 -0.00000000000E+00  0.00000000000E+00  0.29244882620E+03  0.29244882621E+03  0.25500000000E-02 0.  1.
          2   -1    0    0  501    0  0.00000000000E+00 -0.00000000000E+00 -0.31749196558E+04  0.31749196558E+04  0.25500000000E-02 0. -1.
    8880022    1    1    2    0    0 -0.29068671586E+03 -0.32069386690E+02 -0.30700628339E+04  0.30877507460E+04  0.15294330000E+03 0.  0.
    8880022    1    1    2    0    0  0.29068671586E+03  0.32069386690E+02  0.18759200436E+03  0.37961773596E+03  0.15294330000E+03 0.  1.
<mgrwt>
<rscale>  0 0.33002858E+03</rscale>
<asrwt>0</asrwt>
<pdfrwt beam="1">  1        2 0.48844915E+00 0.33002858E+03</pdfrwt>
<pdfrwt beam="2">  1       -2 0.44992129E-01 0.33002858E+03</pdfrwt>
<totfact> 0.76255577E+00</totfact>
</mgrwt>
</event>
<event>
 4    1  0.3365401E-008  0.1013752E+04  0.7818608E-02  0.9293590E-01
          2   -1    0    0  501    0  0.00000000000E+00  0.00000000000E+00  0.10498203224E+04  0.10498203224E+04  0.25500000000E-02 0. -1.
         -2   -1    0    0    0  501 -0.00000000000E+00 -0.00000000000E+00 -0.10719011299E+04  0.10719011299E+04  0.25500000000E-02 0.  1.
    8880022    1    1    2    0    0  0.81722162366E+03  0.58004253016E+03 -0.32348558436E+03  0.10641123509E+04  0.15294330000E+03 0.  0.
    8880022    1    1    2    0    0 -0.81722162366E+03 -0.58004253016E+03  0.30140477679E+03  0.10576091014E+04  0.15294330000E+03 0.  0.
<mgrwt>
<rscale>  0 0.10137515E+04</rscale>
<asrwt>0</asrwt>
<pdfrwt beam="1">  1        2 0.16151082E+00 0.10137515E+04</pdfrwt>
<pdfrwt beam="2">  1       -2 0.16490787E+00 0.10137515E+04</pdfrwt>
<totfact> 0.53734999E+00</totfact>
</mgrwt>
</event>
<event>
 4    1  0.3365401E-008  0.3161995E+03  0.7818608E-02  0.1077412E+00
         -2   -1    0    0    0  501 -0.00000000000E+00  0.00000000000E+00  0.56269573756E+03  0.56269573757E+03  0.25500000000E-02 0.  1.
          2   -1    0    0  501    0  0.00000000000E+00 -0.00000000000E+00 -0.89541550030E+03  0.89541550031E+03  0.25500000000E-02 0. -1.
    8880022    1    1    2    0    0  0.20819037058E+03 -0.18233828584E+03 -0.81908346559E+03  0.87799764094E+03  0.15294330000E+03 0.  0.
    8880022    1    1    2    0    0 -0.20819037058E+03  0.18233828584E+03  0.48636370285E+03  0.58011359693E+03  0.15294330000E+03 0.  0.
<mgrwt>
<rscale>  0 0.31619952E+03</rscale>
<asrwt>0</asrwt>
<pdfrwt beam="1">  1        2 0.13775623E+00 0.31619952E+03</pdfrwt>
<pdfrwt beam="2">  1       -2 0.86568575E-01 0.31619952E+03</pdfrwt>
<totfact> 0.36710255E+01</totfact>
</mgrwt>
</event>
<event>
 4    1  0.3365401E-008  0.8565321E+03  0.7818608E-02  0.9481612E-01
          2   -1    0    0  501    0  0.00000000000E+00  0.00000000000E+00  0.72502143851E+03  0.72502143851E+03  0.25500000000E-02 0. -1.
         -2   -1    0    0    0  501 -0.00000000000E+00 -0.00000000000E+00 -0.17417628563E+04  0.17417628563E+04  0.25500000000E-02 0.  1.
    8880022    1    1    2    0    0 -0.75729076076E+03 -0.36981924648E+03 -0.13067846397E+04  0.15624766619E+04  0.15294330000E+03 0.  0.
    8880022    1    1    2    0    0  0.75729076076E+03  0.36981924648E+03  0.29004322189E+03  0.90430763293E+03  0.15294330000E+03 0.  0.
<mgrwt>
<rscale>  0 0.85653209E+03</rscale>
<asrwt>0</asrwt>
<pdfrwt beam="1">  1        2 0.11154176E+00 0.85653209E+03</pdfrwt>
<pdfrwt beam="2">  1       -2 0.26796351E+00 0.85653209E+03</pdfrwt>
<totfact> 0.19909019E+00</totfact>
</mgrwt>
</event>
<event>
 4    1  0.3365401E-008  0.1658580E+03  0.7818608E-02  0.1182237E+00
         -2   -1    0    0    0  501 -0.00000000000E+00  0.00000000000E+00  0.10307224357E+03  0.10307224360E+03  0.25500000000E-02 0.  1.
          2   -1    0    0  501    0  0.00000000000E+00 -0.00000000000E+00 -0.35726184425E+04  0.35726184425E+04  0.25500000000E-02 0. -1.
    8880022    1    1    2    0    0  0.52812799406E+02  0.36442046589E+02 -0.35026388605E+04  0.35065635392E+04  0.15294330000E+03 0.  0.
    8880022    1    1    2    0    0 -0.52812799406E+02 -0.36442046589E+02  0.33092661575E+02  0.16912714686E+03  0.15294330000E+03 0.  1.
<mgrwt>
<rscale>  0 0.16585797E+03</rscale>
<asrwt>0</asrwt>
<pdfrwt beam="1">  1        2 0.54963351E+00 0.16585797E+03</pdfrwt>
<pdfrwt beam="2">  1       -2 0.15857271E-01 0.16585797E+03</pdfrwt>
<totfact> 0.30443513E+01</totfact>
</mgrwt>
</event>
<event>
 4    1  0.3365401E-008  0.5974524E+03  0.7818608E-02  0.9910706E-01
          2   -1    0    0  501    0  0.00000000000E+00  0.00000000000E+00  0.60373527034E+03  0.60373527034E+03  0.25500000000E-02 0. -1.
         -2   -1    0    0    0  501 -0.00000000000E+00 -0.00000000000E+00 -0.88021689340E+03  0.88021689341E+03  0.25500000000E-02 0.  1.
    8880022    1    1    2    0    0  0.56468613708E+03 -0.12119117918E+03  0.28689766773E+03  0.66276667092E+03  0.15294330000E+03 0.  0.
    8880022    1    1    2    0    0 -0.56468613708E+03  0.12119117918E+03 -0.56337929080E+03  0.82118549283E+03  0.15294330000E+03 0.  0.
<mgrwt>
<rscale>  0 0.59745242E+03</rscale>
<asrwt>0</asrwt>
<pdfrwt beam="1">  1        2 0.92882350E-01 0.59745242E+03</pdfrwt>
<pdfrwt beam="2">  1       -2 0.13541798E+00 0.59745242E+03</pdfrwt>
<totfact> 0.19832761E+01</totfact>
</mgrwt>
</event>
<event>
 4    1  0.3365401E-008  0.1026304E+04  0.7818608E-02  0.9280157E-01
         -2   -1    0    0    0  501 -0.00000000000E+00  0.00000000000E+00  0.90301058248E+03  0.90301058248E+03  0.25500000000E-02 0.  1.
          2   -1    0    0  501    0  0.00000000000E+00 -0.00000000000E+00 -0.18286466376E+04  0.18286466376E+04  0.25500000000E-02 0. -1.
    8880022    1    1    2    0    0 -0.58529355762E+02 -0.10131543932E+04 -0.12847410805E+04  0.16443414508E+04  0.15294330000E+03 0.  0.
    8880022    1    1    2    0    0  0.58529355762E+02  0.10131543932E+04  0.35910502538E+03  0.10873157693E+04  0.15294330000E+03 0.  0.
<mgrwt>
<rscale>  0 0.10263036E+04</rscale>
<asrwt>0</asrwt>
<pdfrwt beam="1">  1        2 0.28133025E+00 0.10263036E+04</pdfrwt>
<pdfrwt beam="2">  1       -2 0.13892471E+00 0.10263036E+04</pdfrwt>
<totfact> 0.30259035E+00</totfact>
</mgrwt>
</event>
<event>
 4    1  0.3365401E-008  0.2773886E+03  0.7818608E-02  0.1097124E+00
          2   -1    0    0  501    0  0.00000000000E+00  0.00000000000E+00  0.33864065052E+04  0.33864065052E+04  0.25500000000E-02 0. -1.
         -2   -1    0    0    0  501 -0.00000000000E+00 -0.00000000000E+00 -0.58666777558E+02  0.58666777613E+02  0.25500000000E-02 0.  1.
    8880022    1    1    2    0    0 -0.12411459961E+02  0.23108168051E+03  0.31555007995E+03  0.42013842169E+03  0.15294330000E+03 0.  0.
    8880022    1    1    2    0    0  0.12411459961E+02 -0.23108168051E+03  0.30121896477E+04  0.30249348611E+04  0.15294330000E+03 0. -1.
<mgrwt>
<rscale>  0 0.27738861E+03</rscale>
<asrwt>0</asrwt>
<pdfrwt beam="1">  1        2 0.52098572E+00 0.27738861E+03</pdfrwt>
<pdfrwt beam="2">  1       -2 0.90256563E-02 0.27738861E+03</pdfrwt>
<totfact> 0.93971164E+01</totfact>
</mgrwt>
</event>
<event>
 4    1  0.3365401E-008  0.8388847E+03  0.7818608E-02  0.9505378E-01
          2   -1    0    0  501    0  0.00000000000E+00  0.00000000000E+00  0.19422002780E+04  0.19422002780E+04  0.25500000000E-02 0. -1.
         -2   -1    0    0    0  501 -0.00000000000E+00 -0.00000000000E+00 -0.71875764483E+03  0.71875764483E+03  0.25500000000E-02 0.  1.
    8880022    1    1    2    0    0  0.53915499139E+03 -0.62421766964E+03 -0.32519179613E+03  0.89970948707E+03  0.15294330000E+03 0.  0.
    8880022    1    1    2    0    0 -0.53915499139E+03  0.62421766964E+03  0.15486344293E+04  0.17612484357E+04  0.15294330000E+03 0.  0.
<mgrwt>
<rscale>  0 0.83888465E+03</rscale>
<asrwt>0</asrwt>
<pdfrwt beam="1">  1        2 0.29880004E+00 0.83888465E+03</pdfrwt>
<pdfrwt beam="2">  1       -2 0.11057810E+00 0.83888465E+03</pdfrwt>
<totfact> 0.47633391E+00</totfact>
</mgrwt>
</event>
<event>
 4    1  0.3365401E-008  0.4312043E+03  0.7818608E-02  0.1033480E+00
         -2   -1    0    0    0  501 -0.00000000000E+00  0.00000000000E+00  0.22486616500E+03  0.22486616501E+03  0.25500000000E-02 0.  1.
          2   -1    0    0  501    0  0.00000000000E+00 -0.00000000000E+00 -0.21460572253E+04  0.21460572253E+04  0.25500000000E-02 0. -1.
    8880022    1    1    2    0    0  0.15599697202E+03 -0.37176661185E+03 -0.31161425605E+02  0.43232875966E+03  0.15294330000E+03 0.  0.
    8880022    1    1    2    0    0 -0.15599697202E+03  0.37176661185E+03 -0.18900296347E+04  0.19385946306E+04  0.15294330000E+03 0. -1.
<mgrwt>
<rscale>  0 0.43120427E+03</rscale>
<asrwt>0</asrwt>
<pdfrwt beam="1">  1        2 0.33016264E+00 0.43120427E+03</pdfrwt>
<pdfrwt beam="2">  1       -2 0.34594796E-01 0.43120427E+03</pdfrwt>
<totfact> 0.47250921E+01</totfact>
</mgrwt>
</event>
<event>
 4    1  0.3365401E-008  0.7718793E+03  0.7818608E-02  0.9601637E-01
          2   -1    0    0  501    0  0.00000000000E+00  0.00000000000E+00  0.26252561240E+04  0.26252561240E+04  0.25500000000E-02 0. -1.
         -2   -1    0    0    0  501 -0.00000000000E+00 -0.00000000000E+00 -0.25576525796E+03  0.25576525797E+03  0.25500000000E-02 0.  1.
    8880022    1    1    2    0    0  0.15143009846E+03  0.74126578272E+03  0.16682704960E+04  0.18381850115E+04  0.15294330000E+03 0.  0.
    8880022    1    1    2    0    0 -0.15143009846E+03 -0.74126578272E+03  0.70122037000E+03  0.10428363705E+04  0.15294330000E+03 0.  0.
<mgrwt>
<rscale>  0 0.77187932E+03</rscale>
<asrwt>0</asrwt>
<pdfrwt beam="1">  1        2 0.40388558E+00 0.77187932E+03</pdfrwt>
<pdfrwt beam="2">  1       -2 0.39348499E-01 0.77187932E+03</pdfrwt>
<totfact> 0.18781940E+01</totfact>
</mgrwt>
</event>
<event>
 4    1  0.3477573E-008  0.5791576E+03  0.7818608E-02  0.9949616E-01
         -2   -1    0    0    0  501 -0.00000000000E+00  0.00000000000E+00  0.10816124495E+04  0.10816124495E+04  0.25500000000E-02 0.  1.
          2   -1    0    0  501    0  0.00000000000E+00 -0.00000000000E+00 -0.11545855591E+04  0.11545855591E+04  0.25500000000E-02 0. -1.
    8880022    1    1    2    0    0  0.43458638379E+03 -0.35095089646E+03  0.91973742705E+03  0.10868948636E+04  0.15294330000E+03 0.  0.
    8880022    1    1    2    0    0 -0.43458638379E+03  0.35095089646E+03 -0.99271053661E+03  0.11493031450E+04  0.15294330000E+03 0.  0.
<mgrwt>
<rscale>  0 0.57915759E+03</rscale>
<asrwt>0</asrwt>
<pdfrwt beam="1">  1        2 0.17762855E+00 0.57915759E+03</pdfrwt>
<pdfrwt beam="2">  1       -2 0.16640192E+00 0.57915759E+03</pdfrwt>
<totfact> 0.47946439E+00</totfact>
</mgrwt>
</event>
<event>
 4    1  0.3365401E-008  0.7308057E+03  0.7818608E-02  0.9665954E-01
          2   -1    0    0  501    0  0.00000000000E+00  0.00000000000E+00  0.26140809087E+04  0.26140809087E+04  0.25500000000E-02 0. -1.
         -2   -1    0    0    0  501 -0.00000000000E+00 -0.00000000000E+00 -0.41620548943E+03  0.41620548944E+03  0.25500000000E-02 0.  1.
    8880022    1    1    2    0    0  0.31086672434E+03  0.64346495028E+03  0.21800304955E+04  0.22992628986E+04  0.15294330000E+03 0.  0.
    8880022    1    1    2    0    0 -0.31086672434E+03 -0.64346495028E+03  0.17844923747E+02  0.73102349952E+03  0.15294330000E+03 0.  0.
<mgrwt>
<rscale>  0 0.73080566E+03</rscale>
<asrwt>0</asrwt>
<pdfrwt beam="1">  1        2 0.40216630E+00 0.73080566E+03</pdfrwt>
<pdfrwt beam="2">  1       -2 0.64031612E-01 0.73080566E+03</pdfrwt>
<totfact> 0.71111099E+00</totfact>
</mgrwt>
</event>
<event>
 4    1  0.3365401E-008  0.3036443E+03  0.7818608E-02  0.1083433E+00
         -2   -1    0    0    0  501 -0.00000000000E+00  0.00000000000E+00  0.54267035425E+03  0.54267035425E+03  0.25500000000E-02 0.  1.
          2   -1    0    0  501    0  0.00000000000E+00 -0.00000000000E+00 -0.10114248518E+04  0.10114248518E+04  0.25500000000E-02 0. -1.
    8880022    1    1    2    0    0  0.42782940259E+02  0.25880069960E+03 -0.94316176305E+03  0.99083497435E+03  0.15294330000E+03 0. -1.
    8880022    1    1    2    0    0 -0.42782940259E+02 -0.25880069960E+03  0.47440726548E+03  0.56326023173E+03  0.15294330000E+03 0.  0.
<mgrwt>
<rscale>  0 0.30364426E+03</rscale>
<asrwt>0</asrwt>
<pdfrwt beam="1">  1        2 0.15560382E+00 0.30364426E+03</pdfrwt>
<pdfrwt beam="2">  1       -2 0.83487747E-01 0.30364426E+03</pdfrwt>
<totfact> 0.33720923E+01</totfact>
</mgrwt>
</event>
<event>
 4    1  0.3365401E-008  0.5283675E+03  0.7818608E-02  0.1006629E+00
         -2   -1    0    0    0  501 -0.00000000000E+00  0.00000000000E+00  0.32752494034E+03  0.32752494035E+03  0.25500000000E-02 0.  1.
          2   -1    0    0  501    0  0.00000000000E+00 -0.00000000000E+00 -0.15153328230E+04  0.15153328230E+04  0.25500000000E-02 0. -1.
    8880022    1    1    2    0    0 -0.68357566677E+02 -0.50110658997E+03  0.15566436195E+02  0.52859676350E+03  0.15294330000E+03 0.  0.
    8880022    1    1    2    0    0  0.68357566677E+02  0.50110658997E+03 -0.12033743189E+04  0.13142609999E+04  0.15294330000E+03 0.  0.
<mgrwt>
<rscale>  0 0.52836751E+03</rscale>
<asrwt>0</asrwt>
<pdfrwt beam="1">  1        2 0.23312812E+00 0.52836751E+03</pdfrwt>
<pdfrwt beam="2">  1       -2 0.50388453E-01 0.52836751E+03</pdfrwt>
<totfact> 0.48719194E+01</totfact>
</mgrwt>
</event>
<event>
 4    1  0.3365401E-008  0.2098210E+03  0.7818608E-02  0.1141708E+00
         -2   -1    0    0    0  501 -0.00000000000E+00  0.00000000000E+00  0.30690554174E+03  0.30690554175E+03  0.25500000000E-02 0.  1.
          2   -1    0    0  501    0  0.00000000000E+00 -0.00000000000E+00 -0.43417970792E+03  0.43417970793E+03  0.25500000000E-02 0. -1.
    8880022    1    1    2    0    0 -0.13828784400E+03  0.38854398671E+02 -0.36685157596E+03  0.42261675770E+03  0.15294330000E+03 0. -1.
    8880022    1    1    2    0    0  0.13828784400E+03 -0.38854398671E+02  0.23957740977E+03  0.31846849198E+03  0.15294330000E+03 0.  0.
<mgrwt>
<rscale>  0 0.20982098E+03</rscale>
<asrwt>0</asrwt>
<pdfrwt beam="1">  1        2 0.66796878E-01 0.20982098E+03</pdfrwt>
<pdfrwt beam="2">  1       -2 0.47216237E-01 0.20982098E+03</pdfrwt>
<totfact> 0.31736761E+02</totfact>
</mgrwt>
</event>
<event>
 4    1  0.3365401E-008  0.7789477E+03  0.7818608E-02  0.9590999E-01
          2   -1    0    0  501    0  0.00000000000E+00  0.00000000000E+00  0.28978375661E+04  0.28978375661E+04  0.25500000000E-02 0. -1.
         -2   -1    0    0    0  501 -0.00000000000E+00 -0.00000000000E+00 -0.30698445676E+03  0.30698445677E+03  0.25500000000E-02 0.  1.
    8880022    1    1    2    0    0 -0.32157701245E+02  0.76310794676E+03  0.21989567261E+04  0.23328459428E+04  0.15294330000E+03 0.  0.
    8880022    1    1    2    0    0  0.32157701245E+02 -0.76310794676E+03  0.39189638323E+03  0.87197608015E+03  0.15294330000E+03 0.  0.
<mgrwt>
<rscale>  0 0.77894769E+03</rscale>
<asrwt>0</asrwt>
<pdfrwt beam="1">  1        2 0.44582114E+00 0.77894769E+03</pdfrwt>
<pdfrwt beam="2">  1       -2 0.47228381E-01 0.77894769E+03</pdfrwt>
<totfact> 0.90359614E+00</totfact>
</mgrwt>
</event>
<event>
 4    1  0.3365401E-008  0.7868673E+03  0.7818608E-02  0.9579223E-01
          2   -1    0    0  501    0  0.00000000000E+00  0.00000000000E+00  0.22185348930E+04  0.22185348930E+04  0.25500000000E-02 0. -1.
         -2   -1    0    0    0  501 -0.00000000000E+00 -0.00000000000E+00 -0.65463204903E+03  0.65463204903E+03  0.25500000000E-02 0.  1.
    8880022    1    1    2    0    0 -0.56879223272E+03 -0.52176991123E+03  0.18700402112E+04  0.20288446192E+04  0.15294330000E+03 0.  0.
    8880022    1    1    2    0    0  0.56879223272E+03  0.52176991123E+03 -0.30613736721E+03  0.84432232287E+03  0.15294330000E+03 0.  0.
<mgrwt>
<rscale>  0 0.78686727E+03</rscale>
<asrwt>0</asrwt>
<pdfrwt beam="1">  1        2 0.34131306E+00 0.78686727E+03</pdfrwt>
<pdfrwt beam="2">  1       -2 0.10071262E+00 0.78686727E+03</pdfrwt>
<totfact> 0.42391820E+00</totfact>
</mgrwt>
</event>
<event>
 4    1  0.3365401E-008  0.2814640E+03  0.7818608E-02  0.1094892E+00
          2   -1    0    0  501    0  0.00000000000E+00  0.00000000000E+00  0.18099496038E+04  0.18099496038E+04  0.25500000000E-02 0. -1.
         -2   -1    0    0    0  501 -0.00000000000E+00 -0.00000000000E+00 -0.62804980817E+03  0.62804980818E+03  0.25500000000E-02 0.  1.
    8880022    1    1    2    0    0  0.20910588065E+03 -0.11002312798E+03 -0.58480525324E+03  0.64901401776E+03  0.15294330000E+03 0.  0.
    8880022    1    1    2    0    0 -0.20910588065E+03  0.11002312798E+03  0.17667050489E+04  0.17889853942E+04  0.15294330000E+03 0.  0.
<mgrwt>
<rscale>  0 0.28146405E+03</rscale>
<asrwt>0</asrwt>
<pdfrwt beam="1">  1        2 0.27845378E+00 0.28146405E+03</pdfrwt>
<pdfrwt beam="2">  1       -2 0.96623050E-01 0.28146405E+03</pdfrwt>
<totfact> 0.88112170E+00</totfact>
</mgrwt>
</event>
<event>
 4    1  0.3365401E-008  0.5702372E+03  0.7818608E-02  0.9969154E-01
         -2   -1    0    0    0  501 -0.00000000000E+00  0.00000000000E+00  0.47294152242E+03  0.47294152243E+03  0.25500000000E-02 0.  1.
          2   -1    0    0  501    0  0.00000000000E+00 -0.00000000000E+00 -0.12368687379E+04  0.12368687379E+04  0.25500000000E-02 0. -1.
    8880022    1    1    2    0    0  0.53129959454E+03 -0.13964069609E+03 -0.95169316093E+03  0.11094549602E+04  0.15294330000E+03 0.  0.
    8880022    1    1    2    0    0 -0.53129959454E+03  0.13964069609E+03  0.18776594541E+03  0.60035530016E+03  0.15294330000E+03 0.  0.
<mgrwt>
<rscale>  0 0.57023718E+03</rscale>
<asrwt>0</asrwt>
<pdfrwt beam="1">  1        2 0.19028750E+00 0.57023718E+03</pdfrwt>
<pdfrwt beam="2">  1       -2 0.72760235E-01 0.57023718E+03</pdfrwt>
<totfact> 0.32018644E+01</totfact>
</mgrwt>
</event>
<event>
 4    1  0.3365401E-008  0.1008352E+04  0.7818608E-02  0.9299431E-01
         -2   -1    0    0    0  501 -0.00000000000E+00  0.00000000000E+00  0.15640562137E+04  0.15640562137E+04  0.25500000000E-02 0.  1.
          2   -1    0    0  501    0  0.00000000000E+00 -0.00000000000E+00 -0.13708833824E+04  0.13708833824E+04  0.25500000000E-02 0. -1.
    8880022    1    1    2    0    0 -0.20935208120E+03  0.97445090405E+03 -0.96749497758E+03  0.13974337347E+04  0.15294330000E+03 0. -1.
    8880022    1    1    2    0    0  0.20935208120E+03 -0.97445090405E+03  0.11606678089E+04  0.15375058614E+04  0.15294330000E+03 0.  0.
<mgrwt>
<rscale>  0 0.10083524E+04</rscale>
<asrwt>0</asrwt>
<pdfrwt beam="1">  1        2 0.21090514E+00 0.10083524E+04</pdfrwt>
<pdfrwt beam="2">  1       -2 0.24062403E+00 0.10083524E+04</pdfrwt>
<totfact> 0.10988819E+00</totfact>
</mgrwt>
</event>
<event>
 4    1  0.3365401E-008  0.1902985E+03  0.7818608E-02  0.1158192E+00
         -2   -1    0    0    0  501 -0.00000000000E+00  0.00000000000E+00  0.43405344510E+03  0.43405344511E+03  0.25500000000E-02 0.  1.
          2   -1    0    0  501    0  0.00000000000E+00 -0.00000000000E+00 -0.10540997327E+04  0.10540997327E+04  0.25500000000E-02 0. -1.
    8880022    1    1    2    0    0 -0.74805171252E+02 -0.85006117940E+02  0.40400003829E+03  0.44657534379E+03  0.15294330000E+03 0.  0.
    8880022    1    1    2    0    0  0.74805171252E+02  0.85006117940E+02 -0.10240463259E+04  0.10415778340E+04  0.15294330000E+03 0. -1.
<mgrwt>
<rscale>  0 0.19029847E+03</rscale>
<asrwt>0</asrwt>
<pdfrwt beam="1">  1        2 0.16216919E+00 0.19029847E+03</pdfrwt>
<pdfrwt beam="2">  1       -2 0.66777453E-01 0.19029847E+03</pdfrwt>
<totfact> 0.53364642E+01</totfact>
</mgrwt>
</event>
<event>
 4    1  0.3365401E-008  0.1138237E+04  0.7818608E-02  0.9168705E-01
         -2   -1    0    0    0  501 -0.00000000000E+00  0.00000000000E+00  0.10487475306E+04  0.10487475306E+04  0.25500000000E-02 0.  1.
          2   -1    0    0  501    0  0.00000000000E+00 -0.00000000000E+00 -0.21392932901E+04  0.21392932901E+04  0.25500000000E-02 0. -1.
    8880022    1    1    2    0    0 -0.87630346272E+03 -0.71012908636E+03  0.49088623089E+03  0.12395773565E+04  0.15294330000E+03 0.  0.
    8880022    1    1    2    0    0  0.87630346272E+03  0.71012908636E+03 -0.15814319904E+04  0.19484634642E+04  0.15294330000E+03 0.  0.
<mgrwt>
<rscale>  0 0.11382367E+04</rscale>
<asrwt>0</asrwt>
<pdfrwt beam="1">  1        2 0.32912204E+00 0.11382367E+04</pdfrwt>
<pdfrwt beam="2">  1       -2 0.16134577E+00 0.11382367E+04</pdfrwt>
<totfact> 0.13489902E+00</totfact>
</mgrwt>
</event>
<event>
 4    1  0.3365401E-008  0.6887106E+03  0.7818608E-02  0.9736736E-01
         -2   -1    0    0    0  501 -0.00000000000E+00  0.00000000000E+00  0.91182082178E+03  0.91182082178E+03  0.25500000000E-02 0.  1.
          2   -1    0    0  501    0  0.00000000000E+00 -0.00000000000E+00 -0.22512623046E+04  0.22512623046E+04  0.25500000000E-02 0. -1.
    8880022    1    1    2    0    0 -0.18840605849E+03  0.64454157312E+03  0.71711444795E+03  0.99427132455E+03  0.15294330000E+03 0.  0.
    8880022    1    1    2    0    0  0.18840605849E+03 -0.64454157312E+03 -0.20565559307E+04  0.21688118018E+04  0.15294330000E+03 0.  0.
<mgrwt>
<rscale>  0 0.68871063E+03</rscale>
<asrwt>0</asrwt>
<pdfrwt beam="1">  1        2 0.34634804E+00 0.68871063E+03</pdfrwt>
<pdfrwt beam="2">  1       -2 0.14028013E+00 0.68871063E+03</pdfrwt>
<totfact> 0.18250454E+00</totfact>
</mgrwt>
</event>
<event>
 4    1  0.3365401E-008  0.5338509E+03  0.7818608E-02  0.1005302E+00
         -2   -1    0    0    0  501 -0.00000000000E+00  0.00000000000E+00  0.71129264050E+03  0.71129264051E+03  0.25500000000E-02 0.  1.
          2   -1    0    0  501    0  0.00000000000E+00 -0.00000000000E+00 -0.17814455907E+04  0.17814455907E+04  0.25500000000E-02 0. -1.
    8880022    1    1    2    0    0  0.31809572775E+02 -0.51048334795E+03 -0.16323660585E+04  0.17174445259E+04  0.15294330000E+03 0.  0.
    8880022    1    1    2    0    0 -0.31809572775E+02  0.51048334795E+03  0.56221310828E+03  0.77529370537E+03  0.15294330000E+03 0.  0.
<mgrwt>
<rscale>  0 0.53385087E+03</rscale>
<asrwt>0</asrwt>
<pdfrwt beam="1">  1        2 0.27406855E+00 0.53385087E+03</pdfrwt>
<pdfrwt beam="2">  1       -2 0.10942964E+00 0.53385087E+03</pdfrwt>
<totfact> 0.63065653E+00</totfact>
</mgrwt>
</event>
<event>
 4    1  0.3365401E-008  0.8398598E+03  0.7818608E-02  0.9504049E-01
          2   -1    0    0  501    0  0.00000000000E+00  0.00000000000E+00  0.24177873963E+04  0.24177873963E+04  0.25500000000E-02 0. -1.
         -2   -1    0    0    0  501 -0.00000000000E+00 -0.00000000000E+00 -0.60531150005E+03  0.60531150006E+03  0.25500000000E-02 0.  1.
    8880022    1    1    2    0    0 -0.49444897543E+03  0.66143255533E+03 -0.18169323586E+03  0.85928860083E+03  0.15294330000E+03 0.  0.
    8880022    1    1    2    0    0  0.49444897543E+03 -0.66143255533E+03  0.19941691321E+04  0.21638102955E+04  0.15294330000E+03 0.  0.
<mgrwt>
<rscale>  0 0.83985979E+03</rscale>
<asrwt>0</asrwt>
<pdfrwt beam="1">  1        2 0.37196729E+00 0.83985979E+03</pdfrwt>
<pdfrwt beam="2">  1       -2 0.93124846E-01 0.83985979E+03</pdfrwt>
<totfact> 0.39113144E+00</totfact>
</mgrwt>
</event>
<event>
 4    1  0.3365401E-008  0.1682760E+04  0.7818608E-02  0.8771258E-01
         -2   -1    0    0    0  501 -0.00000000000E+00  0.00000000000E+00  0.14023590730E+04  0.14023590730E+04  0.25500000000E-02 0.  1.
          2   -1    0    0  501    0  0.00000000000E+00 -0.00000000000E+00 -0.25436268918E+04  0.25436268918E+04  0.25500000000E-02 0. -1.
    8880022    1    1    2    0    0 -0.16740124550E+04 -0.77285426159E+02  0.32520477577E+03  0.17138963025E+04  0.15294330000E+03 0.  0.
    8880022    1    1    2    0    0  0.16740124550E+04  0.77285426159E+02 -0.14664725945E+04  0.22320896622E+04  0.15294330000E+03 0.  0.
<mgrwt>
<rscale>  0 0.16827603E+04</rscale>
<asrwt>0</asrwt>
<pdfrwt beam="1">  1        2 0.39132721E+00 0.16827603E+04</pdfrwt>
<pdfrwt beam="2">  1       -2 0.21574755E+00 0.16827603E+04</pdfrwt>
<totfact> 0.31790571E-01</totfact>
</mgrwt>
</event>
<event>
 4    1  0.3365401E-008  0.1054733E+04  0.7818608E-02  0.9250471E-01
         -2   -1    0    0    0  501 -0.00000000000E+00  0.00000000000E+00  0.52018859614E+03  0.52018859614E+03  0.25500000000E-02 0.  1.
          2   -1    0    0  501    0  0.00000000000E+00 -0.00000000000E+00 -0.24317995825E+04  0.24317995825E+04  0.25500000000E-02 0. -1.
    8880022    1    1    2    0    0  0.10020236556E+04 -0.29157899758E+03 -0.44327196863E+03  0.11440941436E+04  0.15294330000E+03 0.  0.
    8880022    1    1    2    0    0 -0.10020236556E+04  0.29157899758E+03 -0.14683390177E+04  0.18078940351E+04  0.15294330000E+03 0.  0.
<mgrwt>
<rscale>  0 0.10547328E+04</rscale>
<asrwt>0</asrwt>
<pdfrwt beam="1">  1        2 0.37412301E+00 0.10547328E+04</pdfrwt>
<pdfrwt beam="2">  1       -2 0.80029016E-01 0.10547328E+04</pdfrwt>
<totfact> 0.52751542E+00</totfact>
</mgrwt>
</event>
<event>
 4    1  0.3365401E-008  0.6683552E+03  0.7818608E-02  0.9772934E-01
         -2   -1    0    0    0  501 -0.00000000000E+00  0.00000000000E+00  0.35086686510E+03  0.35086686511E+03  0.25500000000E-02 0.  1.
          2   -1    0    0  501    0  0.00000000000E+00 -0.00000000000E+00 -0.16021213166E+04  0.16021213166E+04  0.25500000000E-02 0. -1.
    8880022    1    1    2    0    0 -0.63930394724E+03  0.12082021598E+03 -0.10681289048E+04  0.12599992349E+04  0.15294330000E+03 0.  0.
    8880022    1    1    2    0    0  0.63930394724E+03 -0.12082021598E+03 -0.18312554662E+03  0.69298894680E+03  0.15294330000E+03 0.  0.
<mgrwt>
<rscale>  0 0.66835523E+03</rscale>
<asrwt>0</asrwt>
<pdfrwt beam="1">  1        2 0.24648020E+00 0.66835523E+03</pdfrwt>
<pdfrwt beam="2">  1       -2 0.53979519E-01 0.66835523E+03</pdfrwt>
<totfact> 0.37191043E+01</totfact>
</mgrwt>
</event>
<event>
 4    1  0.3365401E-008  0.1485660E+04  0.7818608E-02  0.8894045E-01
          2   -1    0    0  501    0  0.00000000000E+00  0.00000000000E+00  0.14748346491E+04  0.14748346491E+04  0.25500000000E-02 0. -1.
         -2   -1    0    0    0  501 -0.00000000000E+00 -0.00000000000E+00 -0.18916591170E+04  0.18916591170E+04  0.25500000000E-02 0.  1.
    8880022    1    1    2    0    0 -0.11907042997E+04 -0.87522449754E+03  0.56085372982E+03  0.15879997511E+04  0.15294330000E+03 0.  0.
    8880022    1    1    2    0    0  0.11907042997E+04  0.87522449754E+03 -0.97767819772E+03  0.17784940151E+04  0.15294330000E+03 0.  0.
<mgrwt>
<rscale>  0 0.14856602E+04</rscale>
<asrwt>0</asrwt>
<pdfrwt beam="1">  1        2 0.22689764E+00 0.14856602E+04</pdfrwt>
<pdfrwt beam="2">  1       -2 0.29102448E+00 0.14856602E+04</pdfrwt>
<totfact> 0.44583474E-01</totfact>
</mgrwt>
</event>
<event>
 4    1  0.3365401E-008  0.1862273E+03  0.7818608E-02  0.1161909E+00
         -2   -1    0    0    0  501 -0.00000000000E+00  0.00000000000E+00  0.65675652208E+03  0.65675652209E+03  0.25500000000E-02 0.  1.
          2   -1    0    0  501    0  0.00000000000E+00 -0.00000000000E+00 -0.80630664678E+03  0.80630664678E+03  0.25500000000E-02 0. -1.
    8880022    1    1    2    0    0  0.68480371327E+02  0.81236615165E+02  0.63239654082E+03  0.65924652957E+03  0.15294330000E+03 0.  0.
    8880022    1    1    2    0    0 -0.68480371327E+02 -0.81236615165E+02 -0.78194666551E+03  0.80381663930E+03  0.15294330000E+03 0. -1.
<mgrwt>
<rscale>  0 0.18622729E+03</rscale>
<asrwt>0</asrwt>
<pdfrwt beam="1">  1        2 0.12404718E+00 0.18622729E+03</pdfrwt>
<pdfrwt beam="2">  1       -2 0.10103947E+00 0.18622729E+03</pdfrwt>
<totfact> 0.30617845E+01</totfact>
</mgrwt>
</event>
<event>
 4    1  0.3365401E-008  0.1135445E+04  0.7818608E-02  0.9171317E-01
          2   -1    0    0  501    0  0.00000000000E+00  0.00000000000E+00  0.33847350315E+04  0.33847350315E+04  0.25500000000E-02 0. -1.
         -2   -1    0    0    0  501 -0.00000000000E+00 -0.00000000000E+00 -0.67700558249E+03  0.67700558249E+03  0.25500000000E-02 0.  1.
    8880022    1    1    2    0    0 -0.88449391034E+03 -0.69535242865E+03  0.26969741862E+04  0.29262443321E+04  0.15294330000E+03 0.  0.
    8880022    1    1    2    0    0  0.88449391034E+03  0.69535242865E+03  0.10755262859E+02  0.11354962819E+04  0.15294330000E+03 0.  0.
<mgrwt>
<rscale>  0 0.11354453E+04</rscale>
<asrwt>0</asrwt>
<pdfrwt beam="1">  1        2 0.52072848E+00 0.11354453E+04</pdfrwt>
<pdfrwt beam="2">  1       -2 0.10415470E+00 0.11354453E+04</pdfrwt>
<totfact> 0.73705906E-01</totfact>
</mgrwt>
</event>
<event>
 4    1  0.3365401E-008  0.2919609E+03  0.7818608E-02  0.1089330E+00
          2   -1    0    0  501    0  0.00000000000E+00  0.00000000000E+00  0.10005870987E+04  0.10005870987E+04  0.25500000000E-02 0. -1.
         -2   -1    0    0    0  501 -0.00000000000E+00 -0.00000000000E+00 -0.27824343553E+03  0.27824343554E+03  0.25500000000E-02 0.  1.
    8880022    1    1    2    0    0 -0.57146990928E+02  0.24204080380E+03  0.89378020885E+03  0.94025754133E+03  0.15294330000E+03 0.  0.
    8880022    1    1    2    0    0  0.57146990928E+02 -0.24204080380E+03 -0.17143654573E+03  0.33857299287E+03  0.15294330000E+03 0.  1.
<mgrwt>
<rscale>  0 0.29196093E+03</rscale>
<asrwt>0</asrwt>
<pdfrwt beam="1">  1        2 0.15393647E+00 0.29196093E+03</pdfrwt>
<pdfrwt beam="2">  1       -2 0.42806683E-01 0.29196093E+03</pdfrwt>
<totfact> 0.13814888E+02</totfact>
</mgrwt>
</event>
<event>
 4    1  0.3365401E-008  0.1265176E+04  0.7818608E-02  0.9057646E-01
          2   -1    0    0  501    0  0.00000000000E+00  0.00000000000E+00  0.17866609151E+04  0.17866609151E+04  0.25500000000E-02 0. -1.
         -2   -1    0    0    0  501 -0.00000000000E+00 -0.00000000000E+00 -0.13562092663E+04  0.13562092663E+04  0.25500000000E-02 0.  1.
    8880022    1    1    2    0    0 -0.15674652009E+03 -0.12460777236E+04  0.11307242625E+04  0.16968229653E+04  0.15294330000E+03 0.  0.
    8880022    1    1    2    0    0  0.15674652009E+03  0.12460777236E+04 -0.70027261369E+03  0.14460472161E+04  0.15294330000E+03 0.  0.
<mgrwt>
<rscale>  0 0.12651762E+04</rscale>
<asrwt>0</asrwt>
<pdfrwt beam="1">  1        2 0.27487091E+00 0.12651762E+04</pdfrwt>
<pdfrwt beam="2">  1       -2 0.20864758E+00 0.12651762E+04</pdfrwt>
<totfact> 0.98748505E-01</totfact>
</mgrwt>
</event>
<event>
 4    1  0.3365401E-008  0.2840732E+03  0.7818608E-02  0.1093485E+00
         -2   -1    0    0    0  501 -0.00000000000E+00  0.00000000000E+00  0.48718019551E+02  0.48718019618E+02  0.25500000000E-02 0.  1.
          2   -1    0    0  501    0  0.00000000000E+00 -0.00000000000E+00 -0.24592657217E+04  0.24592657217E+04  0.25500000000E-02 0. -1.
    8880022    1    1    2    0    0 -0.19272768859E+03  0.14199286695E+03 -0.48878810103E+03  0.56534184078E+03  0.15294330000E+03 0.  1.
    8880022    1    1    2    0    0  0.19272768859E+03 -0.14199286695E+03 -0.19217596011E+04  0.19426419005E+04  0.15294330000E+03 0. -1.
<mgrwt>
<rscale>  0 0.28407321E+03</rscale>
<asrwt>0</asrwt>
<pdfrwt beam="1">  1        2 0.37834848E+00 0.28407321E+03</pdfrwt>
<pdfrwt beam="2">  1       -2 0.74950818E-02 0.28407321E+03</pdfrwt>
<totfact> 0.44134879E+02</totfact>
</mgrwt>
</event>
<event>
 4    1  0.3365401E-008  0.4461447E+03  0.7818608E-02  0.1028878E+00
         -2   -1    0    0    0  501 -0.00000000000E+00  0.00000000000E+00  0.12537421053E+04  0.12537421053E+04  0.25500000000E-02 0.  1.
          2   -1    0    0  501    0  0.00000000000E+00 -0.00000000000E+00 -0.22062600740E+03  0.22062600741E+03  0.25500000000E-02 0. -1.
    8880022    1    1    2    0    0  0.23913066886E+02 -0.41842754786E+03  0.12619310032E+03  0.46364835722E+03  0.15294330000E+03 0.  0.
    8880022    1    1    2    0    0 -0.23913066886E+02  0.41842754786E+03  0.90692299759E+03  0.10107197555E+04  0.15294330000E+03 0.  0.
<mgrwt>
<rscale>  0 0.44614471E+03</rscale>
<asrwt>0</asrwt>
<pdfrwt beam="1">  1        2 0.33942462E-01 0.44614471E+03</pdfrwt>
<pdfrwt beam="2">  1       -2 0.19288340E+00 0.44614471E+03</pdfrwt>
<totfact> 0.24006411E+01</totfact>
</mgrwt>
</event>
<event>
 4    1  0.3365401E-008  0.8126413E+03  0.7818608E-02  0.9541898E-01
          2   -1    0    0  501    0  0.00000000000E+00  0.00000000000E+00  0.12485702845E+04  0.12485702845E+04  0.25500000000E-02 0. -1.
         -2   -1    0    0    0  501 -0.00000000000E+00 -0.00000000000E+00 -0.87185651510E+03  0.87185651510E+03  0.25500000000E-02 0.  1.
    8880022    1    1    2    0    0 -0.77407698142E+03 -0.19441967888E+03  0.85329569306E+03  0.11783460347E+04  0.15294330000E+03 0.  0.
    8880022    1    1    2    0    0  0.77407698142E+03  0.19441967888E+03 -0.47658192363E+03  0.94208076493E+03  0.15294330000E+03 0.  0.
<mgrwt>
<rscale>  0 0.81264127E+03</rscale>
<asrwt>0</asrwt>
<pdfrwt beam="1">  1        2 0.19208773E+00 0.81264127E+03</pdfrwt>
<pdfrwt beam="2">  1       -2 0.13413177E+00 0.81264127E+03</pdfrwt>
<totfact> 0.71996186E+00</totfact>
</mgrwt>
</event>
<event>
 4    1  0.3365401E-008  0.1268475E+04  0.7818608E-02  0.9054945E-01
         -2   -1    0    0    0  501 -0.00000000000E+00  0.00000000000E+00  0.88575984634E+03  0.88575984634E+03  0.25500000000E-02 0.  1.
          2   -1    0    0  501    0  0.00000000000E+00 -0.00000000000E+00 -0.22436383481E+04  0.22436383481E+04  0.25500000000E-02 0. -1.
    8880022    1    1    2    0    0 -0.12506593037E+04  0.14658773888E+03 -0.13616119595E+04  0.18609179026E+04  0.15294330000E+03 0.  0.
    8880022    1    1    2    0    0  0.12506593037E+04 -0.14658773888E+03  0.37334576798E+01  0.12684802919E+04  0.15294330000E+03 0.  0.
<mgrwt>
<rscale>  0 0.12684748E+04</rscale>
<asrwt>0</asrwt>
<pdfrwt beam="1">  1        2 0.34517513E+00 0.12684748E+04</pdfrwt>
<pdfrwt beam="2">  1       -2 0.13627075E+00 0.12684748E+04</pdfrwt>
<totfact> 0.18205516E+00</totfact>
</mgrwt>
</event>
<event>
 4    1  0.3365401E-008  0.4288132E+03  0.7818608E-02  0.1034236E+00
          2   -1    0    0  501    0  0.00000000000E+00  0.00000000000E+00  0.18503114341E+04  0.18503114341E+04  0.25500000000E-02 0. -1.
         -2   -1    0    0    0  501 -0.00000000000E+00 -0.00000000000E+00 -0.26341985841E+03  0.26341985842E+03  0.25500000000E-02 0.  1.
    8880022    1    1    2    0    0  0.87109998374E+01  0.40051617120E+03  0.16274582044E+04  0.16830035487E+04  0.15294330000E+03 0. -1.
    8880022    1    1    2    0    0 -0.87109998374E+01 -0.40051617120E+03 -0.40566628710E+02  0.43072774381E+03  0.15294330000E+03 0.  0.
<mgrwt>
<rscale>  0 0.42881317E+03</rscale>
<asrwt>0</asrwt>
<pdfrwt beam="1">  1        2 0.28466330E+00 0.42881317E+03</pdfrwt>
<pdfrwt beam="2">  1       -2 0.40526132E-01 0.42881317E+03</pdfrwt>
<totfact> 0.50337602E+01</totfact>
</mgrwt>
</event>
<event>
 4    1  0.3365401E-008  0.2884297E+03  0.7818608E-02  0.1091172E+00
          2   -1    0    0  501    0  0.00000000000E+00  0.00000000000E+00  0.80121012916E+03  0.80121012916E+03  0.25500000000E-02 0. -1.
         -2   -1    0    0    0  501 -0.00000000000E+00 -0.00000000000E+00 -0.40535321586E+03  0.40535321587E+03  0.25500000000E-02 0.  1.
    8880022    1    1    2    0    0  0.14249819502E+03  0.19873168917E+03 -0.32238119044E+03  0.43257520136E+03  0.15294330000E+03 0.  1.
    8880022    1    1    2    0    0 -0.14249819502E+03 -0.19873168917E+03  0.71823810374E+03  0.77398814367E+03  0.15294330000E+03 0.  0.
<mgrwt>
<rscale>  0 0.28842967E+03</rscale>
<asrwt>0</asrwt>
<pdfrwt beam="1">  1        2 0.12326310E+00 0.28842967E+03</pdfrwt>
<pdfrwt beam="2">  1       -2 0.62362034E-01 0.28842967E+03</pdfrwt>
<totfact> 0.87225083E+01</totfact>
</mgrwt>
</event>
<event>
 4    1  0.3365401E-008  0.6817061E+03  0.7818608E-02  0.9749039E-01
         -2   -1    0    0    0  501 -0.00000000000E+00  0.00000000000E+00  0.26287005589E+03  0.26287005590E+03  0.25500000000E-02 0.  1.
          2   -1    0    0  501    0  0.00000000000E+00 -0.00000000000E+00 -0.33488323878E+04  0.33488323878E+04  0.25500000000E-02 0. -1.
    8880022    1    1    2    0    0 -0.46954371638E+03  0.46995772056E+03 -0.27837600568E+04  0.28660152246E+04  0.15294330000E+03 0.  0.
    8880022    1    1    2    0    0  0.46954371638E+03 -0.46995772056E+03 -0.30220227516E+03  0.74568721917E+03  0.15294330000E+03 0.  1.
<mgrwt>
<rscale>  0 0.68170611E+03</rscale>
<asrwt>0</asrwt>
<pdfrwt beam="1">  1        2 0.51520495E+00 0.68170611E+03</pdfrwt>
<pdfrwt beam="2">  1       -2 0.40441549E-01 0.68170611E+03</pdfrwt>
<totfact> 0.65306896E+00</totfact>
</mgrwt>
</event>
<event>
 4    1  0.3365401E-008  0.1261995E+04  0.7818608E-02  0.9060258E-01
         -2   -1    0    0    0  501 -0.00000000000E+00  0.00000000000E+00  0.16627850204E+04  0.16627850204E+04  0.25500000000E-02 0.  1.
          2   -1    0    0  501    0  0.00000000000E+00 -0.00000000000E+00 -0.11847618327E+04  0.11847618327E+04  0.25500000000E-02 0. -1.
    8880022    1    1    2    0    0  0.51706568599E+03 -0.11410010506E+04 -0.38413795759E+03  0.13191641083E+04  0.15294330000E+03 0.  0.
    8880022    1    1    2    0    0 -0.51706568599E+03  0.11410010506E+04  0.86216114535E+03  0.15283827448E+04  0.15294330000E+03 0.  0.
<mgrwt>
<rscale>  0 0.12619952E+04</rscale>
<asrwt>0</asrwt>
<pdfrwt beam="1">  1        2 0.18227105E+00 0.12619952E+04</pdfrwt>
<pdfrwt beam="2">  1       -2 0.25581308E+00 0.12619952E+04</pdfrwt>
<totfact> 0.11065318E+00</totfact>
</mgrwt>
</event>
<event>
 4    1  0.3365401E-008  0.7037725E+03  0.7818608E-02  0.9710802E-01
          2   -1    0    0  501    0  0.00000000000E+00  0.00000000000E+00  0.15492563245E+04  0.15492563245E+04  0.25500000000E-02 0. -1.
         -2   -1    0    0    0  501 -0.00000000000E+00 -0.00000000000E+00 -0.74241849971E+03  0.74241849972E+03  0.25500000000E-02 0.  1.
    8880022    1    1    2    0    0 -0.33578075220E+03  0.59929571970E+03 -0.46120001208E+03  0.84142805834E+03  0.15294330000E+03 0.  0.
    8880022    1    1    2    0    0  0.33578075220E+03 -0.59929571970E+03  0.12680378368E+04  0.14502467659E+04  0.15294330000E+03 0.  0.
<mgrwt>
<rscale>  0 0.70377250E+03</rscale>
<asrwt>0</asrwt>
<pdfrwt beam="1">  1        2 0.23834712E+00 0.70377250E+03</pdfrwt>
<pdfrwt beam="2">  1       -2 0.11421823E+00 0.70377250E+03</pdfrwt>
<totfact> 0.73746776E+00</totfact>
</mgrwt>
</event>
<event>
 4    1  0.3365401E-008  0.4350699E+03  0.7818608E-02  0.1032270E+00
          2   -1    0    0  501    0  0.00000000000E+00  0.00000000000E+00  0.33212304898E+03  0.33212304899E+03  0.25500000000E-02 0. -1.
         -2   -1    0    0    0  501 -0.00000000000E+00 -0.00000000000E+00 -0.91983347622E+03  0.91983347623E+03  0.25500000000E-02 0.  1.
    8880022    1    1    2    0    0  0.14667526912E+03  0.37997436221E+03  0.92227897530E+02  0.44473788753E+03  0.15294330000E+03 0. -1.
    8880022    1    1    2    0    0 -0.14667526912E+03 -0.37997436221E+03 -0.67993832478E+03  0.80721863768E+03  0.15294330000E+03 0.  0.
<mgrwt>
<rscale>  0 0.43506988E+03</rscale>
<asrwt>0</asrwt>
<pdfrwt beam="1">  1        2 0.51095854E-01 0.43506988E+03</pdfrwt>
<pdfrwt beam="2">  1       -2 0.14151284E+00 0.43506988E+03</pdfrwt>
<totfact> 0.35586579E+01</totfact>
</mgrwt>
</event>
<event>
 4    1  0.3365401E-008  0.1327252E+04  0.7818608E-02  0.9008229E-01
          2   -1    0    0  501    0  0.00000000000E+00  0.00000000000E+00  0.35253425029E+04  0.35253425029E+04  0.25500000000E-02 0. -1.
         -2   -1    0    0    0  501 -0.00000000000E+00 -0.00000000000E+00 -0.64069144557E+03  0.64069144558E+03  0.25500000000E-02 0.  1.
    8880022    1    1    2    0    0  0.61049430986E+03 -0.11685474159E+04  0.46515230891E+03  0.14064013258E+04  0.15294330000E+03 0.  0.
    8880022    1    1    2    0    0 -0.61049430986E+03  0.11685474159E+04  0.24194987484E+04  0.27596326227E+04  0.15294330000E+03 0.  0.
<mgrwt>
<rscale>  0 0.13272521E+04</rscale>
<asrwt>0</asrwt>
<pdfrwt beam="1">  1        2 0.54236038E+00 0.13272521E+04</pdfrwt>
<pdfrwt beam="2">  1       -2 0.98567915E-01 0.13272521E+04</pdfrwt>
<totfact> 0.65594962E-01</totfact>
</mgrwt>
</event>
<event>
 4    1  0.3365401E-008  0.3750400E+03  0.7818608E-02  0.1052782E+00
         -2   -1    0    0    0  501 -0.00000000000E+00  0.00000000000E+00  0.18464593365E+03  0.18464593367E+03  0.25500000000E-02 0.  1.
          2   -1    0    0  501    0  0.00000000000E+00 -0.00000000000E+00 -0.13838810951E+04  0.13838810951E+04  0.25500000000E-02 0. -1.
    8880022    1    1    2    0    0 -0.11803694059E+03 -0.32145087212E+03 -0.11254552511E+04  0.11862986798E+04  0.15294330000E+03 0.  0.
    8880022    1    1    2    0    0  0.11803694059E+03  0.32145087212E+03 -0.73779910328E+02  0.38222834891E+03  0.15294330000E+03 0.  0.
<mgrwt>
<rscale>  0 0.37504005E+03</rscale>
<asrwt>0</asrwt>
<pdfrwt beam="1">  1        2 0.21290478E+00 0.37504005E+03</pdfrwt>
<pdfrwt beam="2">  1       -2 0.28407068E-01 0.37504005E+03</pdfrwt>
<totfact> 0.17677397E+02</totfact>
</mgrwt>
</event>
<event>
 4    1  0.3365401E-008  0.4191150E+03  0.7818608E-02  0.1037355E+00
          2   -1    0    0  501    0  0.00000000000E+00  0.00000000000E+00  0.10149318084E+04  0.10149318084E+04  0.25500000000E-02 0. -1.
         -2   -1    0    0    0  501 -0.00000000000E+00 -0.00000000000E+00 -0.30430138723E+03  0.30430138724E+03  0.25500000000E-02 0.  1.
    8880022    1    1    2    0    0 -0.73028325031E+02  0.38331786013E+03  0.78848022966E+03  0.89294929516E+03  0.15294330000E+03 0.  0.
    8880022    1    1    2    0    0  0.73028325031E+02 -0.38331786013E+03 -0.77849808460E+02  0.42628390052E+03  0.15294330000E+03 0.  1.
<mgrwt>
<rscale>  0 0.41911499E+03</rscale>
<asrwt>0</asrwt>
<pdfrwt beam="1">  1        2 0.15614336E+00 0.41911499E+03</pdfrwt>
<pdfrwt beam="2">  1       -2 0.46815598E-01 0.41911499E+03</pdfrwt>
<totfact> 0.11142359E+02</totfact>
</mgrwt>
</event>
<event>
 4    1  0.3365401E-008  0.3233695E+03  0.7818608E-02  0.1074109E+00
         -2   -1    0    0    0  501 -0.00000000000E+00  0.00000000000E+00  0.20469864738E+03  0.20469864739E+03  0.25500000000E-02 0.  1.
          2   -1    0    0  501    0  0.00000000000E+00 -0.00000000000E+00 -0.61144956274E+03  0.61144956275E+03  0.25500000000E-02 0. -1.
    8880022    1    1    2    0    0 -0.42298252104E+02 -0.28175710017E+03 -0.36890768120E+03  0.49057184580E+03  0.15294330000E+03 0. -1.
    8880022    1    1    2    0    0  0.42298252104E+02  0.28175710017E+03 -0.37843234169E+02  0.32557636434E+03  0.15294330000E+03 0.  0.
<mgrwt>
<rscale>  0 0.32336954E+03</rscale>
<asrwt>0</asrwt>
<pdfrwt beam="1">  1        2 0.94069163E-01 0.32336954E+03</pdfrwt>
<pdfrwt beam="2">  1       -2 0.31492100E-01 0.32336954E+03</pdfrwt>
<totfact> 0.46306760E+02</totfact>
</mgrwt>
</event>
<event>
 4    1  0.3365401E-008  0.1888842E+03  0.7818608E-02  0.1159472E+00
          2   -1    0    0  501    0  0.00000000000E+00  0.00000000000E+00  0.37292886967E+02  0.37292887054E+02  0.25500000000E-02 0. -1.
         -2   -1    0    0    0  501 -0.00000000000E+00 -0.00000000000E+00 -0.15456592463E+04  0.15456592463E+04  0.25500000000E-02 0.  1.
    8880022    1    1    2    0    0 -0.97853477096E+02 -0.52060570111E+02 -0.26560744336E+03  0.32592111457E+03  0.15294330000E+03 0. -1.
    8880022    1    1    2    0    0  0.97853477096E+02  0.52060570111E+02 -0.12427589159E+04  0.12570310187E+04  0.15294330000E+03 0.  0.
<mgrwt>
<rscale>  0 0.18888425E+03</rscale>
<asrwt>0</asrwt>
<pdfrwt beam="1">  1        2 0.57373684E-02 0.18888425E+03</pdfrwt>
<pdfrwt beam="2">  1       -2 0.23779368E+00 0.18888425E+03</pdfrwt>
<totfact> 0.11134606E+02</totfact>
</mgrwt>
</event>
<event>
 4    1  0.3365401E-008  0.3465984E+03  0.7818608E-02  0.1064020E+00
          2   -1    0    0  501    0  0.00000000000E+00  0.00000000000E+00  0.32235573007E+04  0.32235573007E+04  0.25500000000E-02 0. -1.
         -2   -1    0    0    0  501 -0.00000000000E+00 -0.00000000000E+00 -0.11956988250E+03  0.11956988253E+03  0.25500000000E-02 0.  1.
    8880022    1    1    2    0    0  0.10317608467E+03  0.29341689929E+03  0.16517063124E+03  0.38394240671E+03  0.15294330000E+03 0.  0.
    8880022    1    1    2    0    0 -0.10317608467E+03 -0.29341689929E+03  0.29388167869E+04  0.29591847765E+04  0.15294330000E+03 0.  0.
<mgrwt>
<rscale>  0 0.34659838E+03</rscale>
<asrwt>0</asrwt>
<pdfrwt beam="1">  1        2 0.49593187E+00 0.34659838E+03</pdfrwt>
<pdfrwt beam="2">  1       -2 0.18395367E-01 0.34659838E+03</pdfrwt>
<totfact> 0.36132969E+01</totfact>
</mgrwt>
</event>
<event>
 4    1  0.3365401E-008  0.2013266E+03  0.7818608E-02  0.1148625E+00
          2   -1    0    0  501    0  0.00000000000E+00  0.00000000000E+00  0.16935714559E+04  0.16935714559E+04  0.25500000000E-02 0. -1.
         -2   -1    0    0    0  501 -0.00000000000E+00 -0.00000000000E+00 -0.98072278841E+02  0.98072278875E+02  0.25500000000E-02 0.  1.
    8880022    1    1    2    0    0  0.12606780017E+03  0.35321994744E+02  0.15766330120E+04  0.15894351327E+04  0.15294330000E+03 0.  0.
    8880022    1    1    2    0    0 -0.12606780017E+03 -0.35321994744E+02  0.18866165065E+02  0.20220860207E+03  0.15294330000E+03 0.  1.
<mgrwt>
<rscale>  0 0.20132657E+03</rscale>
<asrwt>0</asrwt>
<pdfrwt beam="1">  1        2 0.26054944E+00 0.20132657E+03</pdfrwt>
<pdfrwt beam="2">  1       -2 0.15088044E-01 0.20132657E+03</pdfrwt>
<totfact> 0.37183976E+02</totfact>
</mgrwt>
</event>
<event>
 4    1  0.3365401E-008  0.3266324E+03  0.7818608E-02  0.1072637E+00
          2   -1    0    0  501    0  0.00000000000E+00  0.00000000000E+00  0.12811509070E+04  0.12811509070E+04  0.25500000000E-02 0. -1.
         -2   -1    0    0    0  501 -0.00000000000E+00 -0.00000000000E+00 -0.11314794297E+03  0.11314794299E+03  0.25500000000E-02 0.  1.
    8880022    1    1    2    0    0  0.10105045134E+03 -0.27034401582E+03  0.94221047665E+03  0.99722079598E+03  0.15294330000E+03 0.  0.
    8880022    1    1    2    0    0 -0.10105045134E+03  0.27034401582E+03  0.22579248738E+03  0.39707805401E+03  0.15294330000E+03 0.  0.
<mgrwt>
<rscale>  0 0.32663241E+03</rscale>
<asrwt>0</asrwt>
<pdfrwt beam="1">  1        2 0.19710014E+00 0.32663241E+03</pdfrwt>
<pdfrwt beam="2">  1       -2 0.17407375E-01 0.32663241E+03</pdfrwt>
<totfact> 0.47868659E+02</totfact>
</mgrwt>
</event>
<event>
 4    1  0.3365401E-008  0.3945385E+03  0.7818608E-02  0.1045687E+00
         -2   -1    0    0    0  501 -0.00000000000E+00  0.00000000000E+00  0.29476214938E+04  0.29476214938E+04  0.25500000000E-02 0.  1.
          2   -1    0    0  501    0  0.00000000000E+00 -0.00000000000E+00 -0.26984014552E+03  0.26984014553E+03  0.25500000000E-02 0. -1.
    8880022    1    1    2    0    0  0.36330824133E+03  0.16616672947E+02 -0.10385982570E+03  0.40797978926E+03  0.15294330000E+03 0.  0.
    8880022    1    1    2    0    0 -0.36330824133E+03 -0.16616672947E+02  0.27816411740E+04  0.28094818500E+04  0.15294330000E+03 0.  0.
<mgrwt>
<rscale>  0 0.39453852E+03</rscale>
<asrwt>0</asrwt>
<pdfrwt beam="1">  1        2 0.41513866E-01 0.39453852E+03</pdfrwt>
<pdfrwt beam="2">  1       -2 0.45348026E+00 0.39453852E+03</pdfrwt>
<totfact> 0.47369039E-01</totfact>
</mgrwt>
</event>
<event>
 4    1  0.3365401E-008  0.4900122E+03  0.7818608E-02  0.1016419E+00
         -2   -1    0    0    0  501 -0.00000000000E+00  0.00000000000E+00  0.56872764691E+03  0.56872764692E+03  0.25500000000E-02 0.  1.
          2   -1    0    0  501    0  0.00000000000E+00 -0.00000000000E+00 -0.42851036595E+03  0.42851036596E+03  0.25500000000E-02 0. -1.
    8880022    1    1    2    0    0 -0.42209588201E+03 -0.19635532305E+03  0.95597129390E+01  0.49010548622E+03  0.15294330000E+03 0.  0.
    8880022    1    1    2    0    0  0.42209588201E+03  0.19635532305E+03  0.13065756802E+03  0.50713252666E+03  0.15294330000E+03 0.  0.
<mgrwt>
<rscale>  0 0.49001224E+03</rscale>
<asrwt>0</asrwt>
<pdfrwt beam="1">  1        2 0.65924672E-01 0.49001224E+03</pdfrwt>
<pdfrwt beam="2">  1       -2 0.87496561E-01 0.49001224E+03</pdfrwt>
<totfact> 0.85258488E+01</totfact>
</mgrwt>
</event>
<event>
 4    1  0.3365401E-008  0.7311624E+03  0.7818608E-02  0.9665376E-01
         -2   -1    0    0    0  501 -0.00000000000E+00  0.00000000000E+00  0.36086112064E+03  0.36086112065E+03  0.25500000000E-02 0.  1.
          2   -1    0    0  501    0  0.00000000000E+00 -0.00000000000E+00 -0.18987456487E+04  0.18987456487E+04  0.25500000000E-02 0. -1.
    8880022    1    1    2    0    0 -0.33893323515E+03  0.62954827014E+03 -0.23929054939E+03  0.76932332759E+03  0.15294330000E+03 0.  0.
    8880022    1    1    2    0    0  0.33893323515E+03 -0.62954827014E+03 -0.12985939786E+04  0.14902834417E+04  0.15294330000E+03 0.  0.
<mgrwt>
<rscale>  0 0.73116237E+03</rscale>
<asrwt>0</asrwt>
<pdfrwt beam="1">  1        2 0.29211471E+00 0.73116237E+03</pdfrwt>
<pdfrwt beam="2">  1       -2 0.55517096E-01 0.73116237E+03</pdfrwt>
<totfact> 0.23975320E+01</totfact>
</mgrwt>
</event>
<event>
 4    1  0.3365401E-008  0.4889596E+03  0.7818608E-02  0.1016701E+00
          2   -1    0    0  501    0  0.00000000000E+00  0.00000000000E+00  0.50362408874E+04  0.50362408874E+04  0.25500000000E-02 0. -1.
         -2   -1    0    0    0  501 -0.00000000000E+00 -0.00000000000E+00 -0.30385103038E+03  0.30385103039E+03  0.25500000000E-02 0.  1.
    8880022    1    1    2    0    0  0.35767359828E+03  0.29624211715E+03  0.48188103736E+04  0.48435539498E+04  0.15294330000E+03 0. -1.
    8880022    1    1    2    0    0 -0.35767359828E+03 -0.29624211715E+03 -0.86420516642E+02  0.49653796793E+03  0.15294330000E+03 0.  0.
<mgrwt>
<rscale>  0 0.48895956E+03</rscale>
<asrwt>0</asrwt>
<pdfrwt beam="1">  1        2 0.77480622E+00 0.48895956E+03</pdfrwt>
<pdfrwt beam="2">  1       -2 0.46746317E-01 0.48895956E+03</pdfrwt>
<totfact> 0.17593947E-01</totfact>
</mgrwt>
</event>
<event>
 4    1  0.3365401E-008  0.3878009E+03  0.7818608E-02  0.1048088E+00
         -2   -1    0    0    0  501 -0.00000000000E+00  0.00000000000E+00  0.68035433638E+03  0.68035433639E+03  0.25500000000E-02 0.  1.
          2   -1    0    0  501    0  0.00000000000E+00 -0.00000000000E+00 -0.31332008901E+03  0.31332008902E+03  0.25500000000E-02 0. -1.
    8880022    1    1    2    0    0  0.34980655149E+03 -0.68068087642E+02 -0.86107839753E+02  0.39724564328E+03  0.15294330000E+03 0.  0.
    8880022    1    1    2    0    0 -0.34980655149E+03  0.68068087642E+02  0.45314208712E+03  0.59642878213E+03  0.15294330000E+03 0.  0.
<mgrwt>
<rscale>  0 0.38780090E+03</rscale>
<asrwt>0</asrwt>
<pdfrwt beam="1">  1        2 0.48203091E-01 0.38780090E+03</pdfrwt>
<pdfrwt beam="2">  1       -2 0.10466990E+00 0.38780090E+03</pdfrwt>
<totfact> 0.80126132E+01</totfact>
</mgrwt>
</event>
<event>
 4    1  0.3365401E-008  0.6885846E+03  0.7818608E-02  0.9736956E-01
          2   -1    0    0  501    0  0.00000000000E+00  0.00000000000E+00  0.33280706189E+04  0.33280706189E+04  0.25500000000E-02 0. -1.
         -2   -1    0    0    0  501 -0.00000000000E+00 -0.00000000000E+00 -0.85657214761E+03  0.85657214762E+03  0.25500000000E-02 0.  1.
    8880022    1    1    2    0    0 -0.63015078285E+03  0.23166164424E+03 -0.67466137004E+03  0.96401075917E+03  0.15294330000E+03 0.  1.
    8880022    1    1    2    0    0  0.63015078285E+03 -0.23166164424E+03  0.31461598413E+04  0.32206320073E+04  0.15294330000E+03 0.  0.
<mgrwt>
<rscale>  0 0.68858462E+03</rscale>
<asrwt>0</asrwt>
<pdfrwt beam="1">  1        2 0.51201087E+00 0.68858462E+03</pdfrwt>
<pdfrwt beam="2">  1       -2 0.13178033E+00 0.68858462E+03</pdfrwt>
<totfact> 0.49207350E-01</totfact>
</mgrwt>
</event>
<event>
 4    1  0.3365401E-008  0.2877253E+03  0.7818608E-02  0.1091543E+00
         -2   -1    0    0    0  501 -0.00000000000E+00  0.00000000000E+00  0.16181681603E+03  0.16181681605E+03  0.25500000000E-02 0.  1.
          2   -1    0    0  501    0  0.00000000000E+00 -0.00000000000E+00 -0.13768991606E+04  0.13768991606E+04  0.25500000000E-02 0. -1.
    8880022    1    1    2    0    0  0.17813707730E+03 -0.16631704091E+03  0.23607525686E+01  0.28773495195E+03  0.15294330000E+03 0.  0.
    8880022    1    1    2    0    0 -0.17813707730E+03  0.16631704091E+03 -0.12174430972E+04  0.12509810247E+04  0.15294330000E+03 0.  0.
<mgrwt>
<rscale>  0 0.28772527E+03</rscale>
<asrwt>0</asrwt>
<pdfrwt beam="1">  1        2 0.21183063E+00 0.28772527E+03</pdfrwt>
<pdfrwt beam="2">  1       -2 0.24894896E-01 0.28772527E+03</pdfrwt>
<totfact> 0.22917971E+02</totfact>
</mgrwt>
</event>
<event>
 4    1  0.3365401E-008  0.8007144E+03  0.7818608E-02  0.9558984E-01
          2   -1    0    0  501    0  0.00000000000E+00  0.00000000000E+00  0.22797675547E+04  0.22797675547E+04  0.25500000000E-02 0. -1.
         -2   -1    0    0    0  501 -0.00000000000E+00 -0.00000000000E+00 -0.40451849478E+03  0.40451849478E+03  0.25500000000E-02 0.  1.
    8880022    1    1    2    0    0 -0.74957486240E+03 -0.23640937753E+03  0.19667707213E+03  0.82451524658E+03  0.15294330000E+03 0.  0.
    8880022    1    1    2    0    0  0.74957486240E+03  0.23640937753E+03  0.16785719878E+04  0.18597708029E+04  0.15294330000E+03 0.  0.
<mgrwt>
<rscale>  0 0.80071438E+03</rscale>
<asrwt>0</asrwt>
<pdfrwt beam="1">  1        2 0.35073348E+00 0.80071438E+03</pdfrwt>
<pdfrwt beam="2">  1       -2 0.62233613E-01 0.80071438E+03</pdfrwt>
<totfact> 0.11536839E+01</totfact>
</mgrwt>
</event>
<event>
 4    1  0.3365401E-008  0.8070851E+03  0.7818608E-02  0.9549818E-01
          2   -1    0    0  501    0  0.00000000000E+00  0.00000000000E+00  0.18106044130E+04  0.18106044130E+04  0.25500000000E-02 0. -1.
         -2   -1    0    0    0  501 -0.00000000000E+00 -0.00000000000E+00 -0.76795385078E+03  0.76795385079E+03  0.25500000000E-02 0.  1.
    8880022    1    1    2    0    0  0.72502363252E+03  0.31989904871E+03  0.14612902272E+04  0.16693577957E+04  0.15294330000E+03 0.  0.
    8880022    1    1    2    0    0 -0.72502363252E+03 -0.31989904871E+03 -0.41863966495E+03  0.90920046808E+03  0.15294330000E+03 0.  1.
<mgrwt>
<rscale>  0 0.80708508E+03</rscale>
<asrwt>0</asrwt>
<pdfrwt beam="1">  1        2 0.27855453E+00 0.80708508E+03</pdfrwt>
<pdfrwt beam="2">  1       -2 0.11814675E+00 0.80708508E+03</pdfrwt>
<totfact> 0.48047323E+00</totfact>
</mgrwt>
</event>
<event>
 4    1  0.3365401E-008  0.4261314E+03  0.7818608E-02  0.1035089E+00
         -2   -1    0    0    0  501 -0.00000000000E+00  0.00000000000E+00  0.65257898889E+03  0.65257898889E+03  0.25500000000E-02 0.  1.
          2   -1    0    0  501    0  0.00000000000E+00 -0.00000000000E+00 -0.48274107881E+03  0.48274107882E+03  0.25500000000E-02 0. -1.
    8880022    1    1    2    0    0  0.29385904602E+03 -0.26803572780E+03 -0.28453099848E+03  0.51239226421E+03  0.15294330000E+03 0. -1.
    8880022    1    1    2    0    0 -0.29385904602E+03  0.26803572780E+03  0.45436890856E+03  0.62292780351E+03  0.15294330000E+03 0.  1.
<mgrwt>
<rscale>  0 0.42613137E+03</rscale>
<asrwt>0</asrwt>
<pdfrwt beam="1">  1        2 0.74267858E-01 0.42613137E+03</pdfrwt>
<pdfrwt beam="2">  1       -2 0.10039677E+00 0.42613137E+03</pdfrwt>
<totfact> 0.54553707E+01</totfact>
</mgrwt>
</event>
<event>
 4    1  0.3365401E-008  0.6133751E+03  0.7818608E-02  0.9878039E-01
          2   -1    0    0  501    0  0.00000000000E+00  0.00000000000E+00  0.16330322763E+04  0.16330322763E+04  0.25500000000E-02 0. -1.
         -2   -1    0    0    0  501 -0.00000000000E+00 -0.00000000000E+00 -0.36131180849E+03  0.36131180850E+03  0.25500000000E-02 0.  1.
    8880022    1    1    2    0    0  0.40044700420E+03  0.43872490159E+03  0.35598846561E+02  0.61440725365E+03  0.15294330000E+03 0.  1.
    8880022    1    1    2    0    0 -0.40044700420E+03 -0.43872490159E+03  0.12361216213E+04  0.13799368312E+04  0.15294330000E+03 0.  0.
<mgrwt>
<rscale>  0 0.61337509E+03</rscale>
<asrwt>0</asrwt>
<pdfrwt beam="1">  1        2 0.25123573E+00 0.61337509E+03</pdfrwt>
<pdfrwt beam="2">  1       -2 0.55586433E-01 0.61337509E+03</pdfrwt>
<totfact> 0.33915582E+01</totfact>
</mgrwt>
</event>
<event>
 4    1  0.3365401E-008  0.7157964E+03  0.7818608E-02  0.9690593E-01
          2   -1    0    0  501    0  0.00000000000E+00  0.00000000000E+00  0.22353323597E+04  0.22353323597E+04  0.25500000000E-02 0. -1.
         -2   -1    0    0    0  501 -0.00000000000E+00 -0.00000000000E+00 -0.42614059933E+03  0.42614059934E+03  0.25500000000E-02 0.  1.
    8880022    1    1    2    0    0  0.59267449407E+03  0.37109264404E+03  0.18092243872E+04  0.19456765771E+04  0.15294330000E+03 0.  0.
    8880022    1    1    2    0    0 -0.59267449407E+03 -0.37109264404E+03 -0.32626799037E-01  0.71579638198E+03  0.15294330000E+03 0.  1.
<mgrwt>
<rscale>  0 0.71579638E+03</rscale>
<asrwt>0</asrwt>
<pdfrwt beam="1">  1        2 0.34389728E+00 0.71579638E+03</pdfrwt>
<pdfrwt beam="2">  1       -2 0.65560093E-01 0.71579638E+03</pdfrwt>
<totfact> 0.11066089E+01</totfact>
</mgrwt>
</event>
<event>
 4    1  0.3365401E-008  0.2769699E+03  0.7818608E-02  0.1097355E+00
          2   -1    0    0  501    0  0.00000000000E+00  0.00000000000E+00  0.18418036640E+04  0.18418036640E+04  0.25500000000E-02 0. -1.
         -2   -1    0    0    0  501 -0.00000000000E+00 -0.00000000000E+00 -0.70428449566E+02  0.70428449612E+02  0.25500000000E-02 0.  1.
    8880022    1    1    2    0    0 -0.10428385741E+03  0.20602324107E+03  0.27451313173E+03  0.38996129460E+03  0.15294330000E+03 0.  0.
    8880022    1    1    2    0    0  0.10428385741E+03 -0.20602324107E+03  0.14968620827E+04  0.15222708191E+04  0.15294330000E+03 0.  0.
<mgrwt>
<rscale>  0 0.27696995E+03</rscale>
<asrwt>0</asrwt>
<pdfrwt beam="1">  1        2 0.28335445E+00 0.27696995E+03</pdfrwt>
<pdfrwt beam="2">  1       -2 0.10835145E-01 0.27696995E+03</pdfrwt>
<totfact> 0.52558556E+02</totfact>
</mgrwt>
</event>
<event>
 4    1  0.3365401E-008  0.5755505E+03  0.7818608E-02  0.9957471E-01
         -2   -1    0    0    0  501 -0.00000000000E+00  0.00000000000E+00  0.17001378117E+04  0.17001378117E+04  0.25500000000E-02 0.  1.
          2   -1    0    0  501    0  0.00000000000E+00 -0.00000000000E+00 -0.26971218024E+03  0.26971218025E+03  0.25500000000E-02 0. -1.
    8880022    1    1    2    0    0  0.32072123397E+03 -0.45277435250E+03  0.12341408153E+04  0.13617495839E+04  0.15294330000E+03 0.  0.
    8880022    1    1    2    0    0 -0.32072123397E+03  0.45277435250E+03  0.19628481614E+03  0.60810040805E+03  0.15294330000E+03 0.  0.
<mgrwt>
<rscale>  0 0.57555050E+03</rscale>
<asrwt>0</asrwt>
<pdfrwt beam="1">  1        2 0.41494183E-01 0.57555050E+03</pdfrwt>
<pdfrwt beam="2">  1       -2 0.26155966E+00 0.57555050E+03</pdfrwt>
<totfact> 0.71082451E+00</totfact>
</mgrwt>
</event>
<event>
 4    1  0.3365401E-008  0.6142378E+03  0.7818608E-02  0.9876300E-01
         -2   -1    0    0    0  501 -0.00000000000E+00  0.00000000000E+00  0.16340702314E+03  0.16340702316E+03  0.25500000000E-02 0.  1.
          2   -1    0    0  501    0  0.00000000000E+00 -0.00000000000E+00 -0.23753345909E+04  0.23753345909E+04  0.25500000000E-02 0. -1.
    8880022    1    1    2    0    0  0.38697358526E+03 -0.45182727649E+03 -0.13182739690E+04  0.14543501483E+04  0.15294330000E+03 0.  0.
    8880022    1    1    2    0    0 -0.38697358526E+03  0.45182727649E+03 -0.89365359874E+03  0.10843914658E+04  0.15294330000E+03 0. -1.
<mgrwt>
<rscale>  0 0.61423782E+03</rscale>
<asrwt>0</asrwt>
<pdfrwt beam="1">  1        2 0.36543607E+00 0.61423782E+03</pdfrwt>
<pdfrwt beam="2">  1       -2 0.25139544E-01 0.61423782E+03</pdfrwt>
<totfact> 0.61574215E+01</totfact>
</mgrwt>
</event>
<event>
 4    1  0.3365401E-008  0.5775006E+03  0.7818608E-02  0.9953217E-01
          2   -1    0    0  501    0  0.00000000000E+00  0.00000000000E+00  0.82787033567E+03  0.82787033567E+03  0.25500000000E-02 0. -1.
         -2   -1    0    0    0  501 -0.00000000000E+00 -0.00000000000E+00 -0.91646002071E+03  0.91646002071E+03  0.25500000000E-02 0.  1.
    8880022    1    1    2    0    0 -0.47068050859E+03  0.29761583433E+03  0.60862373287E+03  0.83900526055E+03  0.15294330000E+03 0.  0.
    8880022    1    1    2    0    0  0.47068050859E+03 -0.29761583433E+03 -0.69721341791E+03  0.90532509583E+03  0.15294330000E+03 0.  0.
<mgrwt>
<rscale>  0 0.57750063E+03</rscale>
<asrwt>0</asrwt>
<pdfrwt beam="1">  1        2 0.12736467E+00 0.57750063E+03</pdfrwt>
<pdfrwt beam="2">  1       -2 0.14099385E+00 0.57750063E+03</pdfrwt>
<totfact> 0.12041911E+01</totfact>
</mgrwt>
</event>
<event>
 4    1  0.3365401E-008  0.3717162E+03  0.7818608E-02  0.1054039E+00
         -2   -1    0    0    0  501 -0.00000000000E+00  0.00000000000E+00  0.26553753699E+03  0.26553753701E+03  0.25500000000E-02 0.  1.
          2   -1    0    0  501    0  0.00000000000E+00 -0.00000000000E+00 -0.86614532553E+03  0.86614532553E+03  0.25500000000E-02 0. -1.
    8880022    1    1    2    0    0 -0.27266133758E+03  0.20108967799E+03  0.57222273382E+02  0.37609480878E+03  0.15294330000E+03 0.  0.
    8880022    1    1    2    0    0  0.27266133758E+03 -0.20108967799E+03 -0.65783006192E+03  0.75558805376E+03  0.15294330000E+03 0. -1.
<mgrwt>
<rscale>  0 0.37171618E+03</rscale>
<asrwt>0</asrwt>
<pdfrwt beam="1">  1        2 0.13325313E+00 0.37171618E+03</pdfrwt>
<pdfrwt beam="2">  1       -2 0.40851929E-01 0.37171618E+03</pdfrwt>
<totfact> 0.18255250E+02</totfact>
</mgrwt>
</event>
<event>
 4    1  0.3365401E-008  0.1578799E+03  0.7818608E-02  0.1191111E+00
         -2   -1    0    0    0  501 -0.00000000000E+00  0.00000000000E+00  0.80675054546E+02  0.80675054586E+02  0.25500000000E-02 0.  1.
          2   -1    0    0  501    0  0.00000000000E+00 -0.00000000000E+00 -0.37563787330E+03  0.37563787331E+03  0.25500000000E-02 0. -1.
    8880022    1    1    2    0    0  0.30203059581E+02 -0.24943824506E+02 -0.51362152399E+02  0.16602452500E+03  0.15294330000E+03 0.  0.
    8880022    1    1    2    0    0 -0.30203059581E+02  0.24943824506E+02 -0.24360066636E+03  0.29028840289E+03  0.15294330000E+03 0. -1.
<mgrwt>
<rscale>  0 0.15787993E+03</rscale>
<asrwt>0</asrwt>
<pdfrwt beam="1">  1        2 0.57790441E-01 0.15787993E+03</pdfrwt>
<pdfrwt beam="2">  1       -2 0.12411547E-01 0.15787993E+03</pdfrwt>
<totfact> 0.38934454E+03</totfact>
</mgrwt>
</event>
<event>
 4    1  0.3365401E-008  0.3583298E+03  0.7818608E-02  0.1059247E+00
          2   -1    0    0  501    0  0.00000000000E+00  0.00000000000E+00  0.73569366773E+03  0.73569366774E+03  0.25500000000E-02 0. -1.
         -2   -1    0    0    0  501 -0.00000000000E+00 -0.00000000000E+00 -0.43256536884E+03  0.43256536885E+03  0.25500000000E-02 0.  1.
    8880022    1    1    2    0    0  0.11030838159E+03  0.30469767309E+03  0.60271658019E+03  0.70119008842E+03  0.15294330000E+03 0.  0.
    8880022    1    1    2    0    0 -0.11030838159E+03 -0.30469767309E+03 -0.29958828130E+03  0.46706894817E+03  0.15294330000E+03 0.  0.
<mgrwt>
<rscale>  0 0.35832983E+03</rscale>
<asrwt>0</asrwt>
<pdfrwt beam="1">  1        2 0.11318364E+00 0.35832983E+03</pdfrwt>
<pdfrwt beam="2">  1       -2 0.66548519E-01 0.35832983E+03</pdfrwt>
<totfact> 0.83796215E+01</totfact>
</mgrwt>
</event>
<event>
 4    1  0.3365401E-008  0.7679883E+03  0.7818608E-02  0.9607545E-01
          2   -1    0    0  501    0  0.00000000000E+00  0.00000000000E+00  0.49443970694E+03  0.49443970695E+03  0.25500000000E-02 0. -1.
         -2   -1    0    0    0  501 -0.00000000000E+00 -0.00000000000E+00 -0.12386399320E+04  0.12386399320E+04  0.25500000000E-02 0.  1.
    8880022    1    1    2    0    0 -0.20682583092E+03  0.72362800519E+03 -0.20554042261E+03  0.79501756746E+03  0.15294330000E+03 0.  0.
    8880022    1    1    2    0    0  0.20682583092E+03 -0.72362800519E+03 -0.53865980249E+03  0.93806207154E+03  0.15294330000E+03 0.  0.
<mgrwt>
<rscale>  0 0.76798832E+03</rscale>
<asrwt>0</asrwt>
<pdfrwt beam="1">  1        2 0.76067648E-01 0.76798832E+03</pdfrwt>
<pdfrwt beam="2">  1       -2 0.19055999E+00 0.76798832E+03</pdfrwt>
<totfact> 0.97401546E+00</totfact>
</mgrwt>
</event>
<event>
 4    1  0.3365401E-008  0.4706994E+03  0.7818608E-02  0.1021723E+00
         -2   -1    0    0    0  501 -0.00000000000E+00  0.00000000000E+00  0.16313241719E+04  0.16313241719E+04  0.25500000000E-02 0.  1.
          2   -1    0    0  501    0  0.00000000000E+00 -0.00000000000E+00 -0.28124713845E+03  0.28124713846E+03  0.25500000000E-02 0. -1.
    8880022    1    1    2    0    0 -0.42685164224E+03 -0.12634866175E+03  0.13626990229E+04  0.14417026700E+04  0.15294330000E+03 0.  0.
    8880022    1    1    2    0    0  0.42685164224E+03  0.12634866175E+03 -0.12621989437E+02  0.47086864032E+03  0.15294330000E+03 0.  0.
<mgrwt>
<rscale>  0 0.47069944E+03</rscale>
<asrwt>0</asrwt>
<pdfrwt beam="1">  1        2 0.43268792E-01 0.47069944E+03</pdfrwt>
<pdfrwt beam="2">  1       -2 0.25097294E+00 0.47069944E+03</pdfrwt>
<totfact> 0.79883628E+00</totfact>
</mgrwt>
</event>
<event>
 4    1  0.3365401E-008  0.5441921E+03  0.7818608E-02  0.1002847E+00
          2   -1    0    0  501    0  0.00000000000E+00  0.00000000000E+00  0.38782780697E+04  0.38782780697E+04  0.25500000000E-02 0. -1.
         -2   -1    0    0    0  501 -0.00000000000E+00 -0.00000000000E+00 -0.16453098019E+03  0.16453098021E+03  0.25500000000E-02 0.  1.
    8880022    1    1    2    0    0 -0.20252427078E+03 -0.48139096460E+03  0.33366374451E+04  0.33807239512E+04  0.15294330000E+03 0. -1.
    8880022    1    1    2    0    0  0.20252427078E+03  0.48139096460E+03  0.37710964445E+03  0.66208509876E+03  0.15294330000E+03 0.  0.
<mgrwt>
<rscale>  0 0.54419206E+03</rscale>
<asrwt>0</asrwt>
<pdfrwt beam="1">  1        2 0.59665815E+00 0.54419206E+03</pdfrwt>
<pdfrwt beam="2">  1       -2 0.25312459E-01 0.54419206E+03</pdfrwt>
<totfact> 0.69178701E+00</totfact>
</mgrwt>
</event>
<event>
 4    1  0.3365401E-008  0.3587677E+03  0.7818608E-02  0.1059073E+00
         -2   -1    0    0    0  501 -0.00000000000E+00  0.00000000000E+00  0.37469287750E+03  0.37469287751E+03  0.25500000000E-02 0.  1.
          2   -1    0    0  501    0  0.00000000000E+00 -0.00000000000E+00 -0.64937951711E+03  0.64937951711E+03  0.25500000000E-02 0. -1.
    8880022    1    1    2    0    0 -0.30612400482E+03  0.10775281153E+03  0.21406568064E+03  0.41777786366E+03  0.15294330000E+03 0.  0.
    8880022    1    1    2    0    0  0.30612400482E+03 -0.10775281153E+03 -0.48875232024E+03  0.60629453097E+03  0.15294330000E+03 0.  0.
<mgrwt>
<rscale>  0 0.35876765E+03</rscale>
<asrwt>0</asrwt>
<pdfrwt beam="1">  1        2 0.99904541E-01 0.35876765E+03</pdfrwt>
<pdfrwt beam="2">  1       -2 0.57645058E-01 0.35876765E+03</pdfrwt>
<totfact> 0.13209437E+02</totfact>
</mgrwt>
</event>
<event>
 4    1  0.3365401E-008  0.5364587E+03  0.7818608E-02  0.1004678E+00
          2   -1    0    0  501    0  0.00000000000E+00  0.00000000000E+00  0.17659917026E+04  0.17659917026E+04  0.25500000000E-02 0. -1.
         -2   -1    0    0    0  501 -0.00000000000E+00 -0.00000000000E+00 -0.27760660846E+03  0.27760660847E+03  0.25500000000E-02 0.  1.
    8880022    1    1    2    0    0 -0.18351262282E+03 -0.48033260722E+03  0.87549783012E+02  0.54355580561E+03  0.15294330000E+03 0.  0.
    8880022    1    1    2    0    0  0.18351262282E+03  0.48033260722E+03  0.14008353111E+04  0.15000425055E+04  0.15294330000E+03 0.  0.
<mgrwt>
<rscale>  0 0.53645871E+03</rscale>
<asrwt>0</asrwt>
<pdfrwt beam="1">  1        2 0.27169102E+00 0.53645871E+03</pdfrwt>
<pdfrwt beam="2">  1       -2 0.42708710E-01 0.53645871E+03</pdfrwt>
<totfact> 0.49459518E+01</totfact>
</mgrwt>
</event>
<event>
 4    1  0.3365401E-008  0.8750993E+03  0.7818608E-02  0.9457255E-01
         -2   -1    0    0    0  501 -0.00000000000E+00  0.00000000000E+00  0.84707267724E+03  0.84707267725E+03  0.25500000000E-02 0.  1.
          2   -1    0    0  501    0  0.00000000000E+00 -0.00000000000E+00 -0.38886199974E+04  0.38886199974E+04  0.25500000000E-02 0. -1.
    8880022    1    1    2    0    0  0.86064400422E+03 -0.41218783426E+02  0.55364502694E+03  0.10355296031E+04  0.15294330000E+03 0.  0.
    8880022    1    1    2    0    0 -0.86064400422E+03  0.41218783426E+02 -0.35951923471E+04  0.37001630715E+04  0.15294330000E+03 0. -1.
<mgrwt>
<rscale>  0 0.87509928E+03</rscale>
<asrwt>0</asrwt>
<pdfrwt beam="1">  1        2 0.59824922E+00 0.87509928E+03</pdfrwt>
<pdfrwt beam="2">  1       -2 0.13031888E+00 0.87509928E+03</pdfrwt>
<totfact> 0.19446885E-01</totfact>
</mgrwt>
</event>
<event>
 4    1  0.3365401E-008  0.3866836E+03  0.7818608E-02  0.1048491E+00
         -2   -1    0    0    0  501 -0.00000000000E+00  0.00000000000E+00  0.27504352746E+03  0.27504352747E+03  0.25500000000E-02 0.  1.
          2   -1    0    0  501    0  0.00000000000E+00 -0.00000000000E+00 -0.30192708175E+04  0.30192708175E+04  0.25500000000E-02 0. -1.
    8880022    1    1    2    0    0 -0.13753789397E+03  0.32743830473E+03  0.11939956752E+03  0.40469794344E+03  0.15294330000E+03 0.  0.
    8880022    1    1    2    0    0  0.13753789397E+03 -0.32743830473E+03 -0.28636268576E+04  0.28896164016E+04  0.15294330000E+03 0.  0.
<mgrwt>
<rscale>  0 0.38668355E+03</rscale>
<asrwt>0</asrwt>
<pdfrwt beam="1">  1        2 0.46450318E+00 0.38668355E+03</pdfrwt>
<pdfrwt beam="2">  1       -2 0.42314391E-01 0.38668355E+03</pdfrwt>
<totfact> 0.10454775E+01</totfact>
</mgrwt>
</event>
<event>
 4    1  0.3365401E-008  0.3960256E+03  0.7818608E-02  0.1045165E+00
          2   -1    0    0  501    0  0.00000000000E+00  0.00000000000E+00  0.20783489187E+04  0.20783489187E+04  0.25500000000E-02 0. -1.
         -2   -1    0    0    0  501 -0.00000000000E+00 -0.00000000000E+00 -0.87028786349E+03  0.87028786350E+03  0.25500000000E-02 0.  1.
    8880022    1    1    2    0    0 -0.21363629724E+03 -0.29631771966E+03 -0.80492025285E+03  0.89706907479E+03  0.15294330000E+03 0.  0.
    8880022    1    1    2    0    0  0.21363629724E+03  0.29631771966E+03  0.20129813080E+04  0.20515677074E+04  0.15294330000E+03 0.  0.
<mgrwt>
<rscale>  0 0.39602565E+03</rscale>
<asrwt>0</asrwt>
<pdfrwt beam="1">  1        2 0.31974599E+00 0.39602565E+03</pdfrwt>
<pdfrwt beam="2">  1       -2 0.13389044E+00 0.39602565E+03</pdfrwt>
<totfact> 0.27642884E+00</totfact>
</mgrwt>
</event>
<event>
 4    1  0.3365401E-008  0.1569825E+03  0.7818608E-02  0.1192146E+00
          2   -1    0    0  501    0  0.00000000000E+00  0.00000000000E+00  0.22062172546E+04  0.22062172546E+04  0.25500000000E-02 0. -1.
         -2   -1    0    0    0  501 -0.00000000000E+00 -0.00000000000E+00 -0.20079180637E+03  0.20079180638E+03  0.25500000000E-02 0.  1.
    8880022    1    1    2    0    0  0.99681864774E+00  0.35367370683E+02  0.21722628754E+04  0.21779277989E+04  0.15294330000E+03 0. -1.
    8880022    1    1    2    0    0 -0.99681864774E+00 -0.35367370683E+02 -0.16683742710E+03  0.22908126211E+03  0.15294330000E+03 0.  0.
<mgrwt>
<rscale>  0 0.15698248E+03</rscale>
<asrwt>0</asrwt>
<pdfrwt beam="1">  1        2 0.33941805E+00 0.15698248E+03</pdfrwt>
<pdfrwt beam="2">  1       -2 0.30891046E-01 0.15698248E+03</pdfrwt>
<totfact> 0.59696652E+01</totfact>
</mgrwt>
</event>
<event>
 4    1  0.3365401E-008  0.6418359E+03  0.7818608E-02  0.9822220E-01
          2   -1    0    0  501    0  0.00000000000E+00  0.00000000000E+00  0.69108682763E+03  0.69108682763E+03  0.25500000000E-02 0. -1.
         -2   -1    0    0    0  501 -0.00000000000E+00 -0.00000000000E+00 -0.13119486994E+04  0.13119486994E+04  0.25500000000E-02 0.  1.
    8880022    1    1    2    0    0 -0.32504094050E+03 -0.53189294587E+03 -0.10502276197E+04  0.12308255055E+04  0.15294330000E+03 0.  0.
    8880022    1    1    2    0    0  0.32504094050E+03  0.53189294587E+03  0.42936574790E+03  0.77221002153E+03  0.15294330000E+03 0.  0.
<mgrwt>
<rscale>  0 0.64183594E+03</rscale>
<asrwt>0</asrwt>
<pdfrwt beam="1">  1        2 0.10632105E+00 0.64183594E+03</pdfrwt>
<pdfrwt beam="2">  1       -2 0.20183826E+00 0.64183594E+03</pdfrwt>
<totfact> 0.55835535E+00</totfact>
</mgrwt>
</event>
<event>
 4    1  0.3365401E-008  0.1744325E+03  0.7818608E-02  0.1173303E+00
         -2   -1    0    0    0  501 -0.00000000000E+00  0.00000000000E+00  0.20158440082E+03  0.20158440084E+03  0.25500000000E-02 0.  1.
          2   -1    0    0  501    0  0.00000000000E+00 -0.00000000000E+00 -0.15771392095E+03  0.15771392097E+03  0.25500000000E-02 0. -1.
    8880022    1    1    2    0    0  0.14104557900E+02 -0.82680804420E+02 -0.15302266646E+02  0.17510244531E+03  0.15294330000E+03 0.  1.
    8880022    1    1    2    0    0 -0.14104557900E+02  0.82680804420E+02  0.59172746519E+02  0.18419587650E+03  0.15294330000E+03 0. -1.
<mgrwt>
<rscale>  0 0.17443253E+03</rscale>
<asrwt>0</asrwt>
<pdfrwt beam="1">  1        2 0.24263680E-01 0.17443253E+03</pdfrwt>
<pdfrwt beam="2">  1       -2 0.31012985E-01 0.17443253E+03</pdfrwt>
<totfact> 0.21014742E+03</totfact>
</mgrwt>
</event>
<event>
 4    1  0.3365401E-008  0.3742287E+03  0.7818608E-02  0.1053088E+00
         -2   -1    0    0    0  501 -0.00000000000E+00  0.00000000000E+00  0.64785087494E+03  0.64785087494E+03  0.25500000000E-02 0.  1.
          2   -1    0    0  501    0  0.00000000000E+00 -0.00000000000E+00 -0.71006676231E+03  0.71006676231E+03  0.25500000000E-02 0. -1.
    8880022    1    1    2    0    0 -0.14245854624E+02  0.34125145674E+03 -0.59736170000E+03  0.70490293995E+03  0.15294330000E+03 0.  0.
    8880022    1    1    2    0    0  0.14245854624E+02 -0.34125145674E+03  0.53514581263E+03  0.65301469730E+03  0.15294330000E+03 0.  0.
<mgrwt>
<rscale>  0 0.37422875E+03</rscale>
<asrwt>0</asrwt>
<pdfrwt beam="1">  1        2 0.10924104E+00 0.37422875E+03</pdfrwt>
<pdfrwt beam="2">  1       -2 0.99669364E-01 0.37422875E+03</pdfrwt>
<totfact> 0.35439724E+01</totfact>
</mgrwt>
</event>
<event>
 4    1  0.3365401E-008  0.3006973E+03  0.7818608E-02  0.1084893E+00
         -2   -1    0    0    0  501 -0.00000000000E+00  0.00000000000E+00  0.75245235972E+02  0.75245236015E+02  0.25500000000E-02 0.  1.
          2   -1    0    0  501    0  0.00000000000E+00 -0.00000000000E+00 -0.18334897711E+04  0.18334897711E+04  0.25500000000E-02 0. -1.
    8880022    1    1    2    0    0 -0.25015045149E+03  0.66722985289E+02 -0.31887730910E+03  0.43829396120E+03  0.15294330000E+03 0.  1.
    8880022    1    1    2    0    0  0.25015045149E+03 -0.66722985289E+02 -0.14393672261E+04  0.14704410460E+04  0.15294330000E+03 0.  0.
<mgrwt>
<rscale>  0 0.30069729E+03</rscale>
<asrwt>0</asrwt>
<pdfrwt beam="1">  1        2 0.28207532E+00 0.30069729E+03</pdfrwt>
<pdfrwt beam="2">  1       -2 0.11576191E-01 0.30069729E+03</pdfrwt>
<totfact> 0.47541127E+02</totfact>
</mgrwt>
</event>
<event>
 4    1  0.3365401E-008  0.3996186E+03  0.7818608E-02  0.1043912E+00
          2   -1    0    0  501    0  0.00000000000E+00  0.00000000000E+00  0.12877651964E+04  0.12877651964E+04  0.25500000000E-02 0. -1.
         -2   -1    0    0    0  501 -0.00000000000E+00 -0.00000000000E+00 -0.16177631714E+03  0.16177631716E+03  0.25500000000E-02 0.  1.
    8880022    1    1    2    0    0 -0.13398492239E+03  0.34402242277E+03  0.91318040147E+03  0.99679159579E+03  0.15294330000E+03 0.  0.
    8880022    1    1    2    0    0  0.13398492239E+03 -0.34402242277E+03  0.21280847776E+03  0.45274991775E+03  0.15294330000E+03 0.  0.
<mgrwt>
<rscale>  0 0.39961862E+03</rscale>
<asrwt>0</asrwt>
<pdfrwt beam="1">  1        2 0.19811772E+00 0.39961862E+03</pdfrwt>
<pdfrwt beam="2">  1       -2 0.24888664E-01 0.39961862E+03</pdfrwt>
<totfact> 0.25300325E+02</totfact>
</mgrwt>
</event>
<event>
 4    1  0.3365401E-008  0.3100033E+03  0.7818608E-02  0.1080344E+00
          2   -1    0    0  501    0  0.00000000000E+00  0.00000000000E+00  0.33385329402E+03  0.33385329403E+03  0.25500000000E-02 0. -1.
         -2   -1    0    0    0  501 -0.00000000000E+00 -0.00000000000E+00 -0.19004472264E+04  0.19004472264E+04  0.25500000000E-02 0.  1.
    8880022    1    1    2    0    0  0.19507472849E+03 -0.18616192468E+03 -0.18123687549E+04  0.18386904494E+04  0.15294330000E+03 0.  0.
    8880022    1    1    2    0    0 -0.19507472849E+03  0.18616192468E+03  0.24577482253E+03  0.39561007104E+03  0.15294330000E+03 0.  0.
<mgrwt>
<rscale>  0 0.31000333E+03</rscale>
<asrwt>0</asrwt>
<pdfrwt beam="1">  1        2 0.51362047E-01 0.31000333E+03</pdfrwt>
<pdfrwt beam="2">  1       -2 0.29237649E+00 0.31000333E+03</pdfrwt>
<totfact> 0.39242090E+00</totfact>
</mgrwt>
</event>
<event>
 4    1  0.3365401E-008  0.4615570E+03  0.7818608E-02  0.1024331E+00
          2   -1    0    0  501    0  0.00000000000E+00  0.00000000000E+00  0.21737080518E+04  0.21737080518E+04  0.25500000000E-02 0. -1.
         -2   -1    0    0    0  501 -0.00000000000E+00 -0.00000000000E+00 -0.22732864407E+03  0.22732864409E+03  0.25500000000E-02 0.  1.
    8880022    1    1    2    0    0  0.46287989054E+02  0.43301344196E+03  0.18786725213E+04  0.19345400782E+04  0.15294330000E+03 0. -1.
    8880022    1    1    2    0    0 -0.46287989054E+02 -0.43301344196E+03  0.67706886446E+02  0.46649661771E+03  0.15294330000E+03 0.  0.
<mgrwt>
<rscale>  0 0.46155701E+03</rscale>
<asrwt>0</asrwt>
<pdfrwt beam="1">  1        2 0.33441661E+00 0.46155701E+03</pdfrwt>
<pdfrwt beam="2">  1       -2 0.34973639E-01 0.46155701E+03</pdfrwt>
<totfact> 0.44430907E+01</totfact>
</mgrwt>
</event>
<event>
 4    1  0.3365401E-008  0.5451288E+03  0.7818608E-02  0.1002628E+00
          2   -1    0    0  501    0  0.00000000000E+00  0.00000000000E+00  0.52050228111E+03  0.52050228112E+03  0.25500000000E-02 0. -1.
         -2   -1    0    0    0  501 -0.00000000000E+00 -0.00000000000E+00 -0.67451657868E+03  0.67451657868E+03  0.25500000000E-02 0.  1.
    8880022    1    1    2    0    0  0.44416121312E+03  0.27657648745E+03 -0.31117120934E+03  0.62768854633E+03  0.15294330000E+03 0.  0.
    8880022    1    1    2    0    0 -0.44416121312E+03 -0.27657648745E+03  0.15715691178E+03  0.56733031347E+03  0.15294330000E+03 0.  0.
<mgrwt>
<rscale>  0 0.54512878E+03</rscale>
<asrwt>0</asrwt>
<pdfrwt beam="1">  1        2 0.80077274E-01 0.54512878E+03</pdfrwt>
<pdfrwt beam="2">  1       -2 0.10377178E+00 0.54512878E+03</pdfrwt>
<totfact> 0.45708183E+01</totfact>
</mgrwt>
</event>
<event>
 4    1  0.3365401E-008  0.7137008E+03  0.7818608E-02  0.9694085E-01
         -2   -1    0    0    0  501 -0.00000000000E+00  0.00000000000E+00  0.51610422740E+03  0.51610422741E+03  0.25500000000E-02 0.  1.
          2   -1    0    0  501    0  0.00000000000E+00 -0.00000000000E+00 -0.12452521750E+04  0.12452521750E+04  0.25500000000E-02 0. -1.
    8880022    1    1    2    0    0  0.44368760675E+03  0.53769737366E+03  0.36526376315E+02  0.71463486286E+03  0.15294330000E+03 0.  0.
    8880022    1    1    2    0    0 -0.44368760675E+03 -0.53769737366E+03 -0.76567432388E+03  0.10467215395E+04  0.15294330000E+03 0.  0.
<mgrwt>
<rscale>  0 0.71370079E+03</rscale>
<asrwt>0</asrwt>
<pdfrwt beam="1">  1        2 0.19157726E+00 0.71370079E+03</pdfrwt>
<pdfrwt beam="2">  1       -2 0.79400651E-01 0.71370079E+03</pdfrwt>
<totfact> 0.25619552E+01</totfact>
</mgrwt>
</event>
<event>
 4    1  0.3365401E-008  0.3748667E+03  0.7818608E-02  0.1052848E+00
          2   -1    0    0  501    0  0.00000000000E+00  0.00000000000E+00  0.30342950948E+03  0.30342950949E+03  0.25500000000E-02 0. -1.
         -2   -1    0    0    0  501 -0.00000000000E+00 -0.00000000000E+00 -0.91022771523E+03  0.91022771523E+03  0.25500000000E-02 0.  1.
    8880022    1    1    2    0    0  0.34206472087E+03 -0.11185371008E+02  0.12190138500E+03  0.39418902378E+03  0.15294330000E+03 0.  0.
    8880022    1    1    2    0    0 -0.34206472087E+03  0.11185371008E+02 -0.72869959075E+03  0.81946820095E+03  0.15294330000E+03 0.  0.
<mgrwt>
<rscale>  0 0.37486669E+03</rscale>
<asrwt>0</asrwt>
<pdfrwt beam="1">  1        2 0.46681463E-01 0.37486669E+03</pdfrwt>
<pdfrwt beam="2">  1       -2 0.14003503E+00 0.37486669E+03</pdfrwt>
<totfact> 0.40650319E+01</totfact>
</mgrwt>
</event>
<event>
 4    1  0.3365401E-008  0.1146463E+04  0.7818608E-02  0.9161053E-01
          2   -1    0    0  501    0  0.00000000000E+00  0.00000000000E+00  0.25441056038E+04  0.25441056038E+04  0.25500000000E-02 0. -1.
         -2   -1    0    0    0  501 -0.00000000000E+00 -0.00000000000E+00 -0.58202156742E+03  0.58202156742E+03  0.25500000000E-02 0.  1.
    8880022    1    1    2    0    0 -0.82401427748E+03 -0.78229523010E+03  0.15049408686E+04  0.18918837247E+04  0.15294330000E+03 0.  0.
    8880022    1    1    2    0    0  0.82401427748E+03  0.78229523010E+03  0.45714316773E+03  0.12342434465E+04  0.15294330000E+03 0.  0.
<mgrwt>
<rscale>  0 0.11464628E+04</rscale>
<asrwt>0</asrwt>
<pdfrwt beam="1">  1        2 0.39140087E+00 0.11464628E+04</pdfrwt>
<pdfrwt beam="2">  1       -2 0.89541779E-01 0.11464628E+04</pdfrwt>
<totfact> 0.34793734E+00</totfact>
</mgrwt>
</event>
<event>
 4    1  0.3365401E-008  0.5852312E+03  0.7818608E-02  0.9936529E-01
          2   -1    0    0  501    0  0.00000000000E+00  0.00000000000E+00  0.43890602810E+04  0.43890602810E+04  0.25500000000E-02 0. -1.
         -2   -1    0    0    0  501 -0.00000000000E+00 -0.00000000000E+00 -0.11808492310E+03  0.11808492313E+03  0.25500000000E-02 0.  1.
    8880022    1    1    2    0    0 -0.71960977048E+02 -0.56029056545E+03  0.82304284006E+03  0.10098985442E+04  0.15294330000E+03 0.  0.
    8880022    1    1    2    0    0  0.71960977048E+02  0.56029056545E+03  0.34479325179E+04  0.34972466600E+04  0.15294330000E+03 0.  0.
<mgrwt>
<rscale>  0 0.58523120E+03</rscale>
<asrwt>0</asrwt>
<pdfrwt beam="1">  1        2 0.67524005E+00 0.58523120E+03</pdfrwt>
<pdfrwt beam="2">  1       -2 0.18166911E-01 0.58523120E+03</pdfrwt>
<totfact> 0.46564113E+00</totfact>
</mgrwt>
</event>
<event>
 4    1  0.3365401E-008  0.3554504E+03  0.7818608E-02  0.1060400E+00
          2   -1    0    0  501    0  0.00000000000E+00  0.00000000000E+00  0.10629497992E+04  0.10629497992E+04  0.25500000000E-02 0. -1.
         -2   -1    0    0    0  501 -0.00000000000E+00 -0.00000000000E+00 -0.24513591355E+03  0.24513591356E+03  0.25500000000E-02 0.  1.
    8880022    1    1    2    0    0 -0.23214256977E+03  0.22150204014E+03  0.87832362510E+03  0.94752169892E+03  0.15294330000E+03 0. -1.
    8880022    1    1    2    0    0  0.23214256977E+03 -0.22150204014E+03 -0.60509739467E+02  0.36056401384E+03  0.15294330000E+03 0.  1.
<mgrwt>
<rscale>  0 0.35545039E+03</rscale>
<asrwt>0</asrwt>
<pdfrwt beam="1">  1        2 0.16353074E+00 0.35545039E+03</pdfrwt>
<pdfrwt beam="2">  1       -2 0.37713218E-01 0.35545039E+03</pdfrwt>
<totfact> 0.15998387E+02</totfact>
</mgrwt>
</event>
<event>
 4    1  0.3365401E-008  0.3702033E+03  0.7818608E-02  0.1054615E+00
          2   -1    0    0  501    0  0.00000000000E+00  0.00000000000E+00  0.21752600244E+04  0.21752600244E+04  0.25500000000E-02 0. -1.
         -2   -1    0    0    0  501 -0.00000000000E+00 -0.00000000000E+00 -0.19209677659E+03  0.19209677661E+03  0.25500000000E-02 0.  1.
    8880022    1    1    2    0    0  0.29182729103E+03 -0.16880654857E+03  0.21240686274E+02  0.37081213356E+03  0.15294330000E+03 0.  0.
    8880022    1    1    2    0    0 -0.29182729103E+03  0.16880654857E+03  0.19619225615E+04  0.19965446674E+04  0.15294330000E+03 0.  0.
<mgrwt>
<rscale>  0 0.37020328E+03</rscale>
<asrwt>0</asrwt>
<pdfrwt beam="1">  1        2 0.33465538E+00 0.37020328E+03</pdfrwt>
<pdfrwt beam="2">  1       -2 0.29553351E-01 0.37020328E+03</pdfrwt>
<totfact> 0.61932731E+01</totfact>
</mgrwt>
</event>
<event>
 4    1  0.3365401E-008  0.1282217E+04  0.7818608E-02  0.9043787E-01
         -2   -1    0    0    0  501 -0.00000000000E+00  0.00000000000E+00  0.13050364476E+04  0.13050364476E+04  0.25500000000E-02 0.  1.
          2   -1    0    0  501    0  0.00000000000E+00 -0.00000000000E+00 -0.20628237110E+04  0.20628237110E+04  0.25500000000E-02 0. -1.
    8880022    1    1    2    0    0  0.12717447908E+04  0.57912032618E+02 -0.14295438248E+04  0.19203322151E+04  0.15294330000E+03 0.  0.
    8880022    1    1    2    0    0 -0.12717447908E+04 -0.57912032618E+02  0.67175656138E+03  0.14475279435E+04  0.15294330000E+03 0.  0.
<mgrwt>
<rscale>  0 0.12822169E+04</rscale>
<asrwt>0</asrwt>
<pdfrwt beam="1">  1        2 0.31735749E+00 0.12822169E+04</pdfrwt>
<pdfrwt beam="2">  1       -2 0.20077484E+00 0.12822169E+04</pdfrwt>
<totfact> 0.77936131E-01</totfact>
</mgrwt>
</event>
<event>
 4    1  0.3365401E-008  0.1910593E+03  0.7818608E-02  0.1157509E+00
         -2   -1    0    0    0  501 -0.00000000000E+00  0.00000000000E+00  0.23746252299E+03  0.23746252301E+03  0.25500000000E-02 0.  1.
          2   -1    0    0  501    0  0.00000000000E+00 -0.00000000000E+00 -0.18729947512E+04  0.18729947512E+04  0.25500000000E-02 0. -1.
    8880022    1    1    2    0    0  0.52994277059E+02 -0.10150671611E+03  0.19323222341E+03  0.27173949289E+03  0.15294330000E+03 0.  1.
    8880022    1    1    2    0    0 -0.52994277059E+02  0.10150671611E+03 -0.18287644516E+04  0.18387177813E+04  0.15294330000E+03 0.  0.
<mgrwt>
<rscale>  0 0.19105931E+03</rscale>
<asrwt>0</asrwt>
<pdfrwt beam="1">  1        2 0.28815303E+00 0.19105931E+03</pdfrwt>
<pdfrwt beam="2">  1       -2 0.36532697E-01 0.19105931E+03</pdfrwt>
<totfact> 0.64068027E+01</totfact>
</mgrwt>
</event>
<event>
 4    1  0.3365401E-008  0.3627877E+03  0.7818608E-02  0.1057485E+00
          2   -1    0    0  501    0  0.00000000000E+00  0.00000000000E+00  0.24712890163E+03  0.24712890164E+03  0.25500000000E-02 0. -1.
         -2   -1    0    0    0  501 -0.00000000000E+00 -0.00000000000E+00 -0.67345616640E+03  0.67345616640E+03  0.25500000000E-02 0.  1.
    8880022    1    1    2    0    0  0.26210235117E+03 -0.19881054901E+03 -0.26384065417E+01  0.36279731406E+03  0.15294330000E+03 0.  0.
    8880022    1    1    2    0    0 -0.26210235117E+03  0.19881054901E+03 -0.42368885823E+03  0.55778775398E+03  0.15294330000E+03 0.  0.
<mgrwt>
<rscale>  0 0.36278772E+03</rscale>
<asrwt>0</asrwt>
<pdfrwt beam="1">  1        2 0.38019831E-01 0.36278772E+03</pdfrwt>
<pdfrwt beam="2">  1       -2 0.10360864E+00 0.36278772E+03</pdfrwt>
<totfact> 0.10662485E+02</totfact>
</mgrwt>
</event>
<event>
 4    1  0.3365401E-008  0.4830830E+03  0.7818608E-02  0.1018291E+00
          2   -1    0    0  501    0  0.00000000000E+00  0.00000000000E+00  0.35180623990E+03  0.35180623991E+03  0.25500000000E-02 0. -1.
         -2   -1    0    0    0  501 -0.00000000000E+00 -0.00000000000E+00 -0.11081530708E+04  0.11081530708E+04  0.25500000000E-02 0.  1.
    8880022    1    1    2    0    0  0.45111202041E+03 -0.80470592406E+02  0.84310648814E+02  0.49038506270E+03  0.15294330000E+03 0.  0.
    8880022    1    1    2    0    0 -0.45111202041E+03  0.80470592406E+02 -0.84065747974E+03  0.96957424804E+03  0.15294330000E+03 0.  0.
<mgrwt>
<rscale>  0 0.48308304E+03</rscale>
<asrwt>0</asrwt>
<pdfrwt beam="1">  1        2 0.54124037E-01 0.48308304E+03</pdfrwt>
<pdfrwt beam="2">  1       -2 0.17048509E+00 0.48308304E+03</pdfrwt>
<totfact> 0.20247906E+01</totfact>
</mgrwt>
</event>
<event>
 4    1  0.3365401E-008  0.1421520E+04  0.7818608E-02  0.8938387E-01
          2   -1    0    0  501    0  0.00000000000E+00  0.00000000000E+00  0.25312819836E+04  0.25312819836E+04  0.25500000000E-02 0. -1.
         -2   -1    0    0    0  501 -0.00000000000E+00 -0.00000000000E+00 -0.18049943271E+04  0.18049943271E+04  0.25500000000E-02 0.  1.
    8880022    1    1    2    0    0 -0.13367048612E+04  0.45885570071E+03  0.19823346729E+04  0.24393381988E+04  0.15294330000E+03 0.  0.
    8880022    1    1    2    0    0  0.13367048612E+04 -0.45885570071E+03 -0.12560470164E+04  0.18969381119E+04  0.15294330000E+03 0.  0.
<mgrwt>
<rscale>  0 0.14215203E+04</rscale>
<asrwt>0</asrwt>
<pdfrwt beam="1">  1        2 0.38942800E+00 0.14215203E+04</pdfrwt>
<pdfrwt beam="2">  1       -2 0.27769143E+00 0.14215203E+04</pdfrwt>
<totfact> 0.13765297E-01</totfact>
</mgrwt>
</event>
<event>
 4    1  0.3365401E-008  0.5328214E+03  0.7818608E-02  0.1005550E+00
         -2   -1    0    0    0  501 -0.00000000000E+00  0.00000000000E+00  0.17443178815E+03  0.17443178817E+03  0.25500000000E-02 0.  1.
          2   -1    0    0  501    0  0.00000000000E+00 -0.00000000000E+00 -0.24340618461E+04  0.24340618461E+04  0.25500000000E-02 0. -1.
    8880022    1    1    2    0    0  0.45236170161E+03 -0.23638081854E+03 -0.37906394860E+03  0.65390223321E+03  0.15294330000E+03 0.  0.
    8880022    1    1    2    0    0 -0.45236170161E+03  0.23638081854E+03 -0.18805661094E+04  0.19545914011E+04  0.15294330000E+03 0.  0.
<mgrwt>
<rscale>  0 0.53282141E+03</rscale>
<asrwt>0</asrwt>
<pdfrwt beam="1">  1        2 0.37447103E+00 0.53282141E+03</pdfrwt>
<pdfrwt beam="2">  1       -2 0.26835662E-01 0.53282141E+03</pdfrwt>
<totfact> 0.51468400E+01</totfact>
</mgrwt>
</event>
<event>
 4    1  0.3365401E-008  0.5724621E+03  0.7818608E-02  0.9964245E-01
         -2   -1    0    0    0  501 -0.00000000000E+00  0.00000000000E+00  0.60730953376E+03  0.60730953377E+03  0.25500000000E-02 0.  1.
          2   -1    0    0  501    0  0.00000000000E+00 -0.00000000000E+00 -0.15859329384E+04  0.15859329384E+04  0.25500000000E-02 0. -1.
    8880022    1    1    2    0    0 -0.50691345522E+03 -0.21762330913E+03 -0.13800420664E+04  0.14940645614E+04  0.15294330000E+03 0. -1.
    8880022    1    1    2    0    0  0.50691345522E+03  0.21762330913E+03  0.40141866178E+03  0.69917791069E+03  0.15294330000E+03 0.  0.
<mgrwt>
<rscale>  0 0.57246206E+03</rscale>
<asrwt>0</asrwt>
<pdfrwt beam="1">  1        2 0.24398968E+00 0.57246206E+03</pdfrwt>
<pdfrwt beam="2">  1       -2 0.93432237E-01 0.57246206E+03</pdfrwt>
<totfact> 0.11609079E+01</totfact>
</mgrwt>
</event>
<event>
 4    1  0.3365401E-008  0.7874833E+03  0.7818608E-02  0.9578313E-01
         -2   -1    0    0    0  501 -0.00000000000E+00  0.00000000000E+00  0.10984890700E+04  0.10984890700E+04  0.25500000000E-02 0.  1.
          2   -1    0    0  501    0  0.00000000000E+00 -0.00000000000E+00 -0.11445279518E+04  0.11445279518E+04  0.25500000000E-02 0. -1.
    8880022    1    1    2    0    0  0.57316528759E+02  0.77035910249E+03  0.77534763573E+03  0.11051216858E+04  0.15294330000E+03 0.  0.
    8880022    1    1    2    0    0 -0.57316528759E+02 -0.77035910249E+03 -0.82138651755E+03  0.11378953359E+04  0.15294330000E+03 0.  0.
<mgrwt>
<rscale>  0 0.78748332E+03</rscale>
<asrwt>0</asrwt>
<pdfrwt beam="1">  1        2 0.17608122E+00 0.78748332E+03</pdfrwt>
<pdfrwt beam="2">  1       -2 0.16899832E+00 0.78748332E+03</pdfrwt>
<totfact> 0.45072252E+00</totfact>
</mgrwt>
</event>
<event>
 4    1  0.3365401E-008  0.1749095E+03  0.7818608E-02  0.1172823E+00
         -2   -1    0    0    0  501 -0.00000000000E+00  0.00000000000E+00  0.45418711372E+02  0.45418711443E+02  0.25500000000E-02 0.  1.
          2   -1    0    0  501    0  0.00000000000E+00 -0.00000000000E+00 -0.13678951957E+04  0.13678951957E+04  0.25500000000E-02 0. -1.
    8880022    1    1    2    0    0  0.53623811620E+02 -0.65773659963E+02 -0.15778499200E+03  0.23556197535E+03  0.15294330000E+03 0.  0.
    8880022    1    1    2    0    0 -0.53623811620E+02  0.65773659963E+02 -0.11646914923E+04  0.11777519318E+04  0.15294330000E+03 0.  0.
<mgrwt>
<rscale>  0 0.17490952E+03</rscale>
<asrwt>0</asrwt>
<pdfrwt beam="1">  1        2 0.21044538E+00 0.17490952E+03</pdfrwt>
<pdfrwt beam="2">  1       -2 0.69874951E-02 0.17490952E+03</pdfrwt>
<totfact> 0.18831860E+03</totfact>
</mgrwt>
</event>
<event>
 4    1  0.3365401E-008  0.6470234E+03  0.7818608E-02  0.9812381E-01
          2   -1    0    0  501    0  0.00000000000E+00  0.00000000000E+00  0.87882275119E+03  0.87882275119E+03  0.25500000000E-02 0. -1.
         -2   -1    0    0    0  501 -0.00000000000E+00 -0.00000000000E+00 -0.13919972560E+04  0.13919972560E+04  0.25500000000E-02 0.  1.
    8880022    1    1    2    0    0 -0.30293524754E+03 -0.55088828428E+03 -0.11774488460E+04  0.13435122269E+04  0.15294330000E+03 0.  0.
    8880022    1    1    2    0    0  0.30293524754E+03  0.55088828428E+03  0.66427434119E+03  0.92730778026E+03  0.15294330000E+03 0.  0.
<mgrwt>
<rscale>  0 0.64702343E+03</rscale>
<asrwt>0</asrwt>
<pdfrwt beam="1">  1        2 0.13520350E+00 0.64702343E+03</pdfrwt>
<pdfrwt beam="2">  1       -2 0.21415342E+00 0.64702343E+03</pdfrwt>
<totfact> 0.34011978E+00</totfact>
</mgrwt>
</event>
<event>
 4    1  0.3365401E-008  0.2779205E+03  0.7818608E-02  0.1096830E+00
          2   -1    0    0  501    0  0.00000000000E+00  0.00000000000E+00  0.71161194056E+03  0.71161194056E+03  0.25500000000E-02 0. -1.
         -2   -1    0    0    0  501 -0.00000000000E+00 -0.00000000000E+00 -0.26072832798E+03  0.26072832800E+03  0.25500000000E-02 0.  1.
    8880022    1    1    2    0    0  0.75532744454E+02  0.21941503785E+03  0.59687604760E+03  0.65840779426E+03  0.15294330000E+03 0.  0.
    8880022    1    1    2    0    0 -0.75532744454E+02 -0.21941503785E+03 -0.14599243503E+03  0.31393247430E+03  0.15294330000E+03 0.  1.
<mgrwt>
<rscale>  0 0.27792051E+03</rscale>
<asrwt>0</asrwt>
<pdfrwt beam="1">  1        2 0.10947876E+00 0.27792051E+03</pdfrwt>
<pdfrwt beam="2">  1       -2 0.40112051E-01 0.27792051E+03</pdfrwt>
<totfact> 0.24560689E+02</totfact>
</mgrwt>
</event>
<event>
 4    1  0.3365401E-008  0.3223696E+03  0.7818608E-02  0.1074564E+00
          2   -1    0    0  501    0  0.00000000000E+00  0.00000000000E+00  0.94611472392E+03  0.94611472393E+03  0.25500000000E-02 0. -1.
         -2   -1    0    0    0  501 -0.00000000000E+00 -0.00000000000E+00 -0.18558529020E+03  0.18558529021E+03  0.25500000000E-02 0.  1.
    8880022    1    1    2    0    0 -0.26474333523E+03  0.10218341171E+03  0.74176168208E+03  0.80878459999E+03  0.15294330000E+03 0.  0.
    8880022    1    1    2    0    0  0.26474333523E+03 -0.10218341171E+03  0.18767751651E+02  0.32291541415E+03  0.15294330000E+03 0.  0.
<mgrwt>
<rscale>  0 0.32236956E+03</rscale>
<asrwt>0</asrwt>
<pdfrwt beam="1">  1        2 0.14555611E+00 0.32236956E+03</pdfrwt>
<pdfrwt beam="2">  1       -2 0.28551583E-01 0.32236956E+03</pdfrwt>
<totfact> 0.31830049E+02</totfact>
</mgrwt>
</event>
<event>
 4    1  0.3365401E-008  0.4742939E+03  0.7818608E-02  0.1020715E+00
         -2   -1    0    0    0  501 -0.00000000000E+00  0.00000000000E+00  0.13832009265E+04  0.13832009265E+04  0.25500000000E-02 0.  1.
          2   -1    0    0  501    0  0.00000000000E+00 -0.00000000000E+00 -0.93242444798E+03  0.93242444798E+03  0.25500000000E-02 0. -1.
    8880022    1    1    2    0    0  0.27085180460E+03 -0.35805354678E+03 -0.82661699595E+03  0.95302169620E+03  0.15294330000E+03 0.  0.
    8880022    1    1    2    0    0 -0.27085180460E+03  0.35805354678E+03  0.12773934745E+04  0.13626036783E+04  0.15294330000E+03 0.  1.
<mgrwt>
<rscale>  0 0.47429389E+03</rscale>
<asrwt>0</asrwt>
<pdfrwt beam="1">  1        2 0.14344992E+00 0.47429389E+03</pdfrwt>
<pdfrwt beam="2">  1       -2 0.21280014E+00 0.47429389E+03</pdfrwt>
<totfact> 0.33088387E+00</totfact>
</mgrwt>
</event>
<event>
 4    1  0.4236973E-008  0.6856347E+03  0.7818608E-02  0.9742119E-01
         -2   -1    0    0    0  501 -0.00000000000E+00  0.00000000000E+00  0.99428582703E+03  0.99428582704E+03  0.25500000000E-02 0.  1.
          2   -1    0    0  501    0  0.00000000000E+00 -0.00000000000E+00 -0.16798328802E+04  0.16798328802E+04  0.25500000000E-02 0. -1.
    8880022    1    1    2    0    0 -0.45334067723E+03  0.49110640509E+03  0.79061240084E+03  0.10465003068E+04  0.15294330000E+03 0.  1.
    8880022    1    1    2    0    0  0.45334067723E+03 -0.49110640509E+03 -0.14761594540E+04  0.16276184004E+04  0.15294330000E+03 0.  0.
<mgrwt>
<rscale>  0 0.68563469E+03</rscale>
<asrwt>0</asrwt>
<pdfrwt beam="1">  1        2 0.25843583E+00 0.68563469E+03</pdfrwt>
<pdfrwt beam="2">  1       -2 0.15296705E+00 0.68563469E+03</pdfrwt>
<totfact> 0.29832791E+00</totfact>
</mgrwt>
</event>
<event>
 4    1  0.3365401E-008  0.1890762E+03  0.7818608E-02  0.1159297E+00
          2   -1    0    0  501    0  0.00000000000E+00  0.00000000000E+00  0.13845961003E+04  0.13845961003E+04  0.25500000000E-02 0. -1.
         -2   -1    0    0    0  501 -0.00000000000E+00 -0.00000000000E+00 -0.99547106215E+02  0.99547106247E+02  0.25500000000E-02 0.  1.
    8880022    1    1    2    0    0 -0.15414408570E+02 -0.11009340770E+03  0.38992895612E+01  0.18911641886E+03  0.15294330000E+03 0.  0.
    8880022    1    1    2    0    0  0.15414408570E+02  0.11009340770E+03  0.12811497045E+04  0.12950267877E+04  0.15294330000E+03 0. -1.
<mgrwt>
<rscale>  0 0.18907622E+03</rscale>
<asrwt>0</asrwt>
<pdfrwt beam="1">  1        2 0.21301477E+00 0.18907622E+03</pdfrwt>
<pdfrwt beam="2">  1       -2 0.15314941E-01 0.18907622E+03</pdfrwt>
<totfact> 0.52935562E+02</totfact>
</mgrwt>
</event>
<event>
 4    1  0.3365401E-008  0.2426372E+03  0.7818608E-02  0.1118048E+00
          2   -1    0    0  501    0  0.00000000000E+00  0.00000000000E+00  0.28177720989E+03  0.28177720990E+03  0.25500000000E-02 0. -1.
         -2   -1    0    0    0  501 -0.00000000000E+00 -0.00000000000E+00 -0.47113895083E+03  0.47113895084E+03  0.25500000000E-02 0.  1.
    8880022    1    1    2    0    0  0.10244069972E+03 -0.15807303073E+03  0.18616146838E+03  0.30582499134E+03  0.15294330000E+03 0.  0.
    8880022    1    1    2    0    0 -0.10244069972E+03  0.15807303073E+03 -0.37552320932E+03  0.44709116940E+03  0.15294330000E+03 0.  1.
<mgrwt>
<rscale>  0 0.24263725E+03</rscale>
<asrwt>0</asrwt>
<pdfrwt beam="1">  1        2 0.43350340E-01 0.24263725E+03</pdfrwt>
<pdfrwt beam="2">  1       -2 0.72482916E-01 0.24263725E+03</pdfrwt>
<totfact> 0.20885080E+02</totfact>
</mgrwt>
</event>
<event>
 4    1  0.3365401E-008  0.4374666E+03  0.7818608E-02  0.1031527E+00
         -2   -1    0    0    0  501 -0.00000000000E+00  0.00000000000E+00  0.71127097678E+03  0.71127097679E+03  0.25500000000E-02 0.  1.
          2   -1    0    0  501    0  0.00000000000E+00 -0.00000000000E+00 -0.37772294445E+03  0.37772294445E+03  0.25500000000E-02 0. -1.
    8880022    1    1    2    0    0 -0.40921543906E+03  0.22979635871E+02  0.45881426031E+03  0.63394598958E+03  0.15294330000E+03 0.  0.
    8880022    1    1    2    0    0  0.40921543906E+03 -0.22979635871E+02 -0.12526622797E+03  0.45504793166E+03  0.15294330000E+03 0.  0.
<mgrwt>
<rscale>  0 0.43746656E+03</rscale>
<asrwt>0</asrwt>
<pdfrwt beam="1">  1        2 0.58111223E-01 0.43746656E+03</pdfrwt>
<pdfrwt beam="2">  1       -2 0.10942630E+00 0.43746656E+03</pdfrwt>
<totfact> 0.58408656E+01</totfact>
</mgrwt>
</event>
<event>
 4    1  0.3365401E-008  0.3410425E+03  0.7818608E-02  0.1066353E+00
          2   -1    0    0  501    0  0.00000000000E+00  0.00000000000E+00  0.34623444376E+04  0.34623444376E+04  0.25500000000E-02 0. -1.
         -2   -1    0    0    0  501 -0.00000000000E+00 -0.00000000000E+00 -0.40749259007E+02  0.40749259086E+02  0.25500000000E-02 0.  1.
    8880022    1    1    2    0    0 -0.62143184827E+02 -0.29842339835E+03  0.24448212183E+04  0.24684936181E+04  0.15294330000E+03 0.  0.
    8880022    1    1    2    0    0  0.62143184827E+02  0.29842339835E+03  0.97677396028E+03  0.10346000786E+04  0.15294330000E+03 0.  0.
<mgrwt>
<rscale>  0 0.34104245E+03</rscale>
<asrwt>0</asrwt>
<pdfrwt beam="1">  1        2 0.53266845E+00 0.34104245E+03</pdfrwt>
<pdfrwt beam="2">  1       -2 0.62691158E-02 0.34104245E+03</pdfrwt>
<totfact> 0.14529436E+02</totfact>
</mgrwt>
</event>
<event>
 4    1  0.3365401E-008  0.8403393E+03  0.7818608E-02  0.9503396E-01
         -2   -1    0    0    0  501 -0.00000000000E+00  0.00000000000E+00  0.13470686664E+04  0.13470686664E+04  0.25500000000E-02 0.  1.
          2   -1    0    0  501    0  0.00000000000E+00 -0.00000000000E+00 -0.66998330230E+03  0.66998330230E+03  0.25500000000E-02 0. -1.
    8880022    1    1    2    0    0  0.60462040512E+03 -0.56321628238E+03  0.80894390201E+03  0.11664305829E+04  0.15294330000E+03 0.  0.
    8880022    1    1    2    0    0 -0.60462040512E+03  0.56321628238E+03 -0.13185853791E+03  0.85062138584E+03  0.15294330000E+03 0. -1.
<mgrwt>
<rscale>  0 0.84033926E+03</rscale>
<asrwt>0</asrwt>
<pdfrwt beam="1">  1        2 0.10307436E+00 0.84033926E+03</pdfrwt>
<pdfrwt beam="2">  1       -2 0.20724133E+00 0.84033926E+03</pdfrwt>
<totfact> 0.52214433E+00</totfact>
</mgrwt>
</event>
<event>
 4    1  0.3365401E-008  0.5413632E+03  0.7818608E-02  0.1003513E+00
         -2   -1    0    0    0  501 -0.00000000000E+00  0.00000000000E+00  0.28338810081E+03  0.28338810082E+03  0.25500000000E-02 0.  1.
          2   -1    0    0  501    0  0.00000000000E+00 -0.00000000000E+00 -0.13206067163E+04  0.13206067163E+04  0.25500000000E-02 0. -1.
    8880022    1    1    2    0    0  0.40389444564E+03 -0.32642264902E+03 -0.89211176953E+03  0.10435216966E+04  0.15294330000E+03 0.  0.
    8880022    1    1    2    0    0 -0.40389444564E+03  0.32642264902E+03 -0.14510684594E+03  0.56047312047E+03  0.15294330000E+03 0.  0.
<mgrwt>
<rscale>  0 0.54136321E+03</rscale>
<asrwt>0</asrwt>
<pdfrwt beam="1">  1        2 0.20317026E+00 0.54136321E+03</pdfrwt>
<pdfrwt beam="2">  1       -2 0.43598170E-01 0.54136321E+03</pdfrwt>
<totfact> 0.83399019E+01</totfact>
</mgrwt>
</event>
<event>
 4    1  0.3365401E-008  0.9461361E+03  0.7818608E-02  0.9369678E-01
          2   -1    0    0  501    0  0.00000000000E+00  0.00000000000E+00  0.19799572469E+04  0.19799572469E+04  0.25500000000E-02 0. -1.
         -2   -1    0    0    0  501 -0.00000000000E+00 -0.00000000000E+00 -0.56958358805E+03  0.56958358805E+03  0.25500000000E-02 0.  1.
    8880022    1    1    2    0    0 -0.79801375602E+03  0.48472250251E+03  0.12627914157E+03  0.95452602575E+03  0.15294330000E+03 0.  0.
    8880022    1    1    2    0    0  0.79801375602E+03 -0.48472250251E+03  0.12840945173E+04  0.15950148092E+04  0.15294330000E+03 0.  0.
<mgrwt>
<rscale>  0 0.94613610E+03</rscale>
<asrwt>0</asrwt>
<pdfrwt beam="1">  1        2 0.30460880E+00 0.94613610E+03</pdfrwt>
<pdfrwt beam="2">  1       -2 0.87628245E-01 0.94613610E+03</pdfrwt>
<totfact> 0.77630107E+00</totfact>
</mgrwt>
</event>
<event>
 4    1  0.3365401E-008  0.6719076E+03  0.7818608E-02  0.9766518E-01
          2   -1    0    0  501    0  0.00000000000E+00  0.00000000000E+00  0.22879803289E+04  0.22879803289E+04  0.25500000000E-02 0. -1.
         -2   -1    0    0    0  501 -0.00000000000E+00 -0.00000000000E+00 -0.55329104535E+03  0.55329104535E+03  0.25500000000E-02 0.  1.
    8880022    1    1    2    0    0  0.64646368487E+03  0.10076175357E+03  0.20068448508E+04  0.21163379066E+04  0.15294330000E+03 0.  0.
    8880022    1    1    2    0    0 -0.64646368487E+03 -0.10076175357E+03 -0.27215556717E+03  0.72493346770E+03  0.15294330000E+03 0.  0.
<mgrwt>
<rscale>  0 0.67190764E+03</rscale>
<asrwt>0</asrwt>
<pdfrwt beam="1">  1        2 0.35199698E+00 0.67190764E+03</pdfrwt>
<pdfrwt beam="2">  1       -2 0.85121698E-01 0.67190764E+03</pdfrwt>
<totfact> 0.58539071E+00</totfact>
</mgrwt>
</event>
<event>
 4    1  0.3365401E-008  0.2480146E+03  0.7818608E-02  0.1114566E+00
         -2   -1    0    0    0  501 -0.00000000000E+00  0.00000000000E+00  0.68284943241E+02  0.68284943288E+02  0.25500000000E-02 0.  1.
          2   -1    0    0  501    0  0.00000000000E+00 -0.00000000000E+00 -0.35473867181E+04  0.35473867181E+04  0.25500000000E-02 0. -1.
    8880022    1    1    2    0    0 -0.19400572305E+03  0.21939604728E+02 -0.17803065948E+03  0.30529679914E+03  0.15294330000E+03 0.  0.
    8880022    1    1    2    0    0  0.19400572305E+03 -0.21939604728E+02 -0.33010711154E+04  0.33103748623E+04  0.15294330000E+03 0.  0.
<mgrwt>
<rscale>  0 0.24801456E+03</rscale>
<asrwt>0</asrwt>
<pdfrwt beam="1">  1        2 0.54575166E+00 0.24801456E+03</pdfrwt>
<pdfrwt beam="2">  1       -2 0.10505379E-01 0.24801456E+03</pdfrwt>
<totfact> 0.58613144E+01</totfact>
</mgrwt>
</event>
<event>
 4    1  0.3365401E-008  0.1733985E+03  0.7818608E-02  0.1174349E+00
          2   -1    0    0  501    0  0.00000000000E+00  0.00000000000E+00  0.39915576448E+04  0.39915576448E+04  0.25500000000E-02 0. -1.
         -2   -1    0    0    0  501 -0.00000000000E+00 -0.00000000000E+00 -0.88338066987E+02  0.88338067024E+02  0.25500000000E-02 0.  1.
    8880022    1    1    2    0    0 -0.55709860553E+02  0.59764663669E+02  0.57360123558E+00  0.17339949717E+03  0.15294330000E+03 0.  1.
    8880022    1    1    2    0    0  0.55709860553E+02 -0.59764663669E+02  0.39026459766E+04  0.39064962147E+04  0.15294330000E+03 0.  0.
<mgrwt>
<rscale>  0 0.17339855E+03</rscale>
<asrwt>0</asrwt>
<pdfrwt beam="1">  1        2 0.61408560E+00 0.17339855E+03</pdfrwt>
<pdfrwt beam="2">  1       -2 0.13590476E-01 0.17339855E+03</pdfrwt>
<totfact> 0.19700155E+01</totfact>
</mgrwt>
</event>
<event>
 4    1  0.3365401E-008  0.7289924E+03  0.7818608E-02  0.9668897E-01
         -2   -1    0    0    0  501 -0.00000000000E+00  0.00000000000E+00  0.25853739243E+03  0.25853739244E+03  0.25500000000E-02 0.  1.
          2   -1    0    0  501    0  0.00000000000E+00 -0.00000000000E+00 -0.25538719834E+04  0.25538719834E+04  0.25500000000E-02 0. -1.
    8880022    1    1    2    0    0 -0.59167951904E+03  0.39743382533E+03 -0.52649067495E+03  0.89923433130E+03  0.15294330000E+03 0.  0.
    8880022    1    1    2    0    0  0.59167951904E+03 -0.39743382533E+03 -0.17688439160E+04  0.19131750445E+04  0.15294330000E+03 0.  0.
<mgrwt>
<rscale>  0 0.72899242E+03</rscale>
<asrwt>0</asrwt>
<pdfrwt beam="1">  1        2 0.39290337E+00 0.72899242E+03</pdfrwt>
<pdfrwt beam="2">  1       -2 0.39774985E-01 0.72899242E+03</pdfrwt>
<totfact> 0.20343408E+01</totfact>
</mgrwt>
</event>
<event>
 4    1  0.3365401E-008  0.3284117E+03  0.7818608E-02  0.1071842E+00
         -2   -1    0    0    0  501 -0.00000000000E+00  0.00000000000E+00  0.20751734408E+04  0.20751734408E+04  0.25500000000E-02 0.  1.
          2   -1    0    0  501    0  0.00000000000E+00 -0.00000000000E+00 -0.30951147124E+03  0.30951147125E+03  0.25500000000E-02 0. -1.
    8880022    1    1    2    0    0 -0.17909187704E+02  0.29007217056E+03 -0.20480401688E+03  0.38703868215E+03  0.15294330000E+03 0.  0.
    8880022    1    1    2    0    0  0.17909187704E+02 -0.29007217056E+03  0.19704659864E+04  0.19976462299E+04  0.15294330000E+03 0.  1.
<mgrwt>
<rscale>  0 0.32841172E+03</rscale>
<asrwt>0</asrwt>
<pdfrwt beam="1">  1        2 0.47617149E-01 0.32841172E+03</pdfrwt>
<pdfrwt beam="2">  1       -2 0.31925746E+00 0.32841172E+03</pdfrwt>
<totfact> 0.29388314E+00</totfact>
</mgrwt>
</event>
<event>
 4    1  0.3365401E-008  0.7130311E+03  0.7818608E-02  0.9695203E-01
         -2   -1    0    0    0  501 -0.00000000000E+00  0.00000000000E+00  0.93740014432E+03  0.93740014433E+03  0.25500000000E-02 0.  1.
          2   -1    0    0  501    0  0.00000000000E+00 -0.00000000000E+00 -0.23348523305E+04  0.23348523305E+04  0.25500000000E-02 0. -1.
    8880022    1    1    2    0    0  0.15857402306E+03 -0.67814161153E+03 -0.21322835261E+04  0.22483430465E+04  0.15294330000E+03 0.  0.
    8880022    1    1    2    0    0 -0.15857402306E+03  0.67814161153E+03  0.73483133998E+03  0.10239094283E+04  0.15294330000E+03 0.  0.
<mgrwt>
<rscale>  0 0.71303115E+03</rscale>
<asrwt>0</asrwt>
<pdfrwt beam="1">  1        2 0.35920805E+00 0.71303115E+03</pdfrwt>
<pdfrwt beam="2">  1       -2 0.14421541E+00 0.71303115E+03</pdfrwt>
<totfact> 0.15186074E+00</totfact>
</mgrwt>
</event>
<event>
 4    1  0.3365401E-008  0.3093742E+03  0.7818608E-02  0.1080646E+00
          2   -1    0    0  501    0  0.00000000000E+00  0.00000000000E+00  0.34110232804E+03  0.34110232805E+03  0.25500000000E-02 0. -1.
         -2   -1    0    0    0  501 -0.00000000000E+00 -0.00000000000E+00 -0.40990983664E+03  0.40990983665E+03  0.25500000000E-02 0.  1.
    8880022    1    1    2    0    0  0.26148197347E+03  0.62832643179E+02  0.17650422079E+03  0.35618275712E+03  0.15294330000E+03 0. -1.
    8880022    1    1    2    0    0 -0.26148197347E+03 -0.62832643179E+02 -0.24531172939E+03  0.39482940758E+03  0.15294330000E+03 0.  0.
<mgrwt>
<rscale>  0 0.30937423E+03</rscale>
<asrwt>0</asrwt>
<pdfrwt beam="1">  1        2 0.52477281E-01 0.30937423E+03</pdfrwt>
<pdfrwt beam="2">  1       -2 0.63063052E-01 0.30937423E+03</pdfrwt>
<totfact> 0.22763823E+02</totfact>
</mgrwt>
</event>
<event>
 4    1  0.3365401E-008  0.4008467E+03  0.7818608E-02  0.1043487E+00
          2   -1    0    0  501    0  0.00000000000E+00  0.00000000000E+00  0.41629893428E+03  0.41629893428E+03  0.25500000000E-02 0. -1.
         -2   -1    0    0    0  501 -0.00000000000E+00 -0.00000000000E+00 -0.55362738840E+03  0.55362738841E+03  0.25500000000E-02 0.  1.
    8880022    1    1    2    0    0 -0.34583117962E+03  0.13299340510E+03  0.19821439814E+03  0.44717675615E+03  0.15294330000E+03 0.  0.
    8880022    1    1    2    0    0  0.34583117962E+03 -0.13299340510E+03 -0.33554285227E+03  0.52274956654E+03  0.15294330000E+03 0. -1.
<mgrwt>
<rscale>  0 0.40084673E+03</rscale>
<asrwt>0</asrwt>
<pdfrwt beam="1">  1        2 0.64045990E-01 0.40084673E+03</pdfrwt>
<pdfrwt beam="2">  1       -2 0.85173444E-01 0.40084673E+03</pdfrwt>
<totfact> 0.94298253E+01</totfact>
</mgrwt>
</event>
<event>
 4    1  0.3365401E-008  0.3313194E+03  0.7818608E-02  0.1070555E+00
         -2   -1    0    0    0  501 -0.00000000000E+00  0.00000000000E+00  0.48956454870E+03  0.48956454870E+03  0.25500000000E-02 0.  1.
          2   -1    0    0  501    0  0.00000000000E+00 -0.00000000000E+00 -0.88698795294E+03  0.88698795294E+03  0.25500000000E-02 0. -1.
    8880022    1    1    2    0    0 -0.12984239529E+03 -0.26366999149E+03 -0.79366526077E+03  0.86004483093E+03  0.15294330000E+03 0. -1.
    8880022    1    1    2    0    0  0.12984239529E+03  0.26366999149E+03  0.39624185653E+03  0.51650767072E+03  0.15294330000E+03 0.  0.
<mgrwt>
<rscale>  0 0.33131943E+03</rscale>
<asrwt>0</asrwt>
<pdfrwt beam="1">  1        2 0.13645968E+00 0.33131943E+03</pdfrwt>
<pdfrwt beam="2">  1       -2 0.75317623E-01 0.33131943E+03</pdfrwt>
<totfact> 0.50524709E+01</totfact>
</mgrwt>
</event>
<event>
 4    1  0.3365401E-008  0.3393633E+03  0.7818608E-02  0.1067067E+00
          2   -1    0    0  501    0  0.00000000000E+00  0.00000000000E+00  0.20720902424E+04  0.20720902424E+04  0.25500000000E-02 0. -1.
         -2   -1    0    0    0  501 -0.00000000000E+00 -0.00000000000E+00 -0.13641255911E+03  0.13641255913E+03  0.25500000000E-02 0.  1.
    8880022    1    1    2    0    0  0.24842308412E+03  0.17338326857E+03  0.18178665531E+04  0.18492718146E+04  0.15294330000E+03 0.  0.
    8880022    1    1    2    0    0 -0.24842308412E+03 -0.17338326857E+03  0.11781113021E+03  0.35923098691E+03  0.15294330000E+03 0.  1.
<mgrwt>
<rscale>  0 0.33936329E+03</rscale>
<asrwt>0</asrwt>
<pdfrwt beam="1">  1        2 0.31878309E+00 0.33936329E+03</pdfrwt>
<pdfrwt beam="2">  1       -2 0.20986549E-01 0.33936329E+03</pdfrwt>
<totfact> 0.13032408E+02</totfact>
</mgrwt>
</event>
<event>
 4    1  0.3365401E-008  0.6700231E+03  0.7818608E-02  0.9769916E-01
          2   -1    0    0  501    0  0.00000000000E+00  0.00000000000E+00  0.16848434401E+04  0.16848434401E+04  0.25500000000E-02 0. -1.
         -2   -1    0    0    0  501 -0.00000000000E+00 -0.00000000000E+00 -0.45286092567E+03  0.45286092568E+03  0.25500000000E-02 0.  1.
    8880022    1    1    2    0    0 -0.48342065067E+03  0.43799970419E+03 -0.69761991119E+02  0.67364505104E+03  0.15294330000E+03 0.  0.
    8880022    1    1    2    0    0  0.48342065067E+03 -0.43799970419E+03  0.13017445056E+04  0.14640593148E+04  0.15294330000E+03 0.  0.
<mgrwt>
<rscale>  0 0.67002307E+03</rscale>
<asrwt>0</asrwt>
<pdfrwt beam="1">  1        2 0.25920668E+00 0.67002307E+03</pdfrwt>
<pdfrwt beam="2">  1       -2 0.69670912E-01 0.67002307E+03</pdfrwt>
<totfact> 0.19509633E+01</totfact>
</mgrwt>
</event>
<event>
 4    1  0.3365401E-008  0.6158674E+03  0.7818608E-02  0.9873022E-01
         -2   -1    0    0    0  501 -0.00000000000E+00  0.00000000000E+00  0.87892429020E+03  0.87892429021E+03  0.25500000000E-02 0.  1.
          2   -1    0    0  501    0  0.00000000000E+00 -0.00000000000E+00 -0.98187972204E+03  0.98187972204E+03  0.25500000000E-02 0. -1.
    8880022    1    1    2    0    0 -0.54260447953E+03  0.24795449098E+03 -0.74803390042E+03  0.96894139141E+03  0.15294330000E+03 0.  0.
    8880022    1    1    2    0    0  0.54260447953E+03 -0.24795449098E+03  0.64507846858E+03  0.89186262084E+03  0.15294330000E+03 0.  0.
<mgrwt>
<rscale>  0 0.61586744E+03</rscale>
<asrwt>0</asrwt>
<pdfrwt beam="1">  1        2 0.15105842E+00 0.61586744E+03</pdfrwt>
<pdfrwt beam="2">  1       -2 0.13521912E+00 0.61586744E+03</pdfrwt>
<totfact> 0.10525137E+01</totfact>
</mgrwt>
</event>
<event>
 4    1  0.3365401E-008  0.2987813E+03  0.7818608E-02  0.1085851E+00
         -2   -1    0    0    0  501 -0.00000000000E+00  0.00000000000E+00  0.53889222442E+03  0.53889222442E+03  0.25500000000E-02 0.  1.
          2   -1    0    0  501    0  0.00000000000E+00 -0.00000000000E+00 -0.44147418145E+03  0.44147418145E+03  0.25500000000E-02 0. -1.
    8880022    1    1    2    0    0  0.18545541099E+03 -0.17743980876E+03 -0.33874299003E+03  0.45168247864E+03  0.15294330000E+03 0.  0.
    8880022    1    1    2    0    0 -0.18545541099E+03  0.17743980876E+03  0.43616103300E+03  0.52868392724E+03  0.15294330000E+03 0.  0.
<mgrwt>
<rscale>  0 0.29878127E+03</rscale>
<asrwt>0</asrwt>
<pdfrwt beam="1">  1        2 0.67919105E-01 0.29878127E+03</pdfrwt>
<pdfrwt beam="2">  1       -2 0.82906496E-01 0.29878127E+03</pdfrwt>
<totfact> 0.94851712E+01</totfact>
</mgrwt>
</event>
<event>
 4    1  0.3365401E-008  0.7256749E+03  0.7818608E-02  0.9674305E-01
         -2   -1    0    0    0  501 -0.00000000000E+00  0.00000000000E+00  0.23241166312E+03  0.23241166313E+03  0.25500000000E-02 0.  1.
          2   -1    0    0  501    0  0.00000000000E+00 -0.00000000000E+00 -0.34532013496E+04  0.34532013496E+04  0.25500000000E-02 0. -1.
    8880022    1    1    2    0    0  0.70094598768E+03 -0.10902781600E+03 -0.26909902322E+04  0.27871190188E+04  0.15294330000E+03 0.  0.
    8880022    1    1    2    0    0 -0.70094598768E+03  0.10902781600E+03 -0.52979945427E+03  0.89849399389E+03  0.15294330000E+03 0.  0.
<mgrwt>
<rscale>  0 0.72567486E+03</rscale>
<asrwt>0</asrwt>
<pdfrwt beam="1">  1        2 0.53126171E+00 0.72567486E+03</pdfrwt>
<pdfrwt beam="2">  1       -2 0.35755643E-01 0.72567486E+03</pdfrwt>
<totfact> 0.69942779E+00</totfact>
</mgrwt>
</event>
<event>
 4    1  0.3365401E-008  0.9699858E+03  0.7818608E-02  0.9342090E-01
         -2   -1    0    0    0  501 -0.00000000000E+00  0.00000000000E+00  0.16441219270E+04  0.16441219270E+04  0.25500000000E-02 0.  1.
          2   -1    0    0  501    0  0.00000000000E+00 -0.00000000000E+00 -0.77285305999E+03  0.77285305999E+03  0.25500000000E-02 0. -1.
    8880022    1    1    2    0    0  0.70136658679E+03  0.65235403532E+03 -0.18003391894E+03  0.98655194564E+03  0.15294330000E+03 0.  0.
    8880022    1    1    2    0    0 -0.70136658679E+03 -0.65235403532E+03  0.10513027859E+04  0.14304230413E+04  0.15294330000E+03 0.  0.
<mgrwt>
<rscale>  0 0.96998584E+03</rscale>
<asrwt>0</asrwt>
<pdfrwt beam="1">  1        2 0.11890047E+00 0.96998584E+03</pdfrwt>
<pdfrwt beam="2">  1       -2 0.25294183E+00 0.96998584E+03</pdfrwt>
<totfact> 0.22260692E+00</totfact>
</mgrwt>
</event>
<event>
 4    1  0.3365401E-008  0.4968605E+03  0.7818608E-02  0.1014602E+00
          2   -1    0    0  501    0  0.00000000000E+00  0.00000000000E+00  0.19644553793E+04  0.19644553793E+04  0.25500000000E-02 0. -1.
         -2   -1    0    0    0  501 -0.00000000000E+00 -0.00000000000E+00 -0.59056283006E+03  0.59056283007E+03  0.25500000000E-02 0.  1.
    8880022    1    1    2    0    0 -0.96943118534E+02 -0.46268859954E+03  0.18204110458E+04  0.18869994004E+04  0.15294330000E+03 0.  0.
    8880022    1    1    2    0    0  0.96943118534E+02  0.46268859954E+03 -0.44651849656E+03  0.66801880899E+03  0.15294330000E+03 0.  0.
<mgrwt>
<rscale>  0 0.49686050E+03</rscale>
<asrwt>0</asrwt>
<pdfrwt beam="1">  1        2 0.30222391E+00 0.49686050E+03</pdfrwt>
<pdfrwt beam="2">  1       -2 0.90855819E-01 0.49686050E+03</pdfrwt>
<totfact> 0.78549463E+00</totfact>
</mgrwt>
</event>
<event>
 4    1  0.3365401E-008  0.7093420E+03  0.7818608E-02  0.9701388E-01
         -2   -1    0    0    0  501 -0.00000000000E+00  0.00000000000E+00  0.44504324913E+03  0.44504324914E+03  0.25500000000E-02 0.  1.
          2   -1    0    0  501    0  0.00000000000E+00 -0.00000000000E+00 -0.18677431455E+04  0.18677431455E+04  0.25500000000E-02 0. -1.
    8880022    1    1    2    0    0  0.63658498771E+03 -0.27300911574E+03  0.15128524419E+02  0.70950331157E+03  0.15294330000E+03 0.  0.
    8880022    1    1    2    0    0 -0.63658498771E+03  0.27300911574E+03 -0.14378284208E+04  0.16032830831E+04  0.15294330000E+03 0.  0.
<mgrwt>
<rscale>  0 0.70934200E+03</rscale>
<asrwt>0</asrwt>
<pdfrwt beam="1">  1        2 0.28734510E+00 0.70934200E+03</pdfrwt>
<pdfrwt beam="2">  1       -2 0.68468193E-01 0.70934200E+03</pdfrwt>
<totfact> 0.16018231E+01</totfact>
</mgrwt>
</event>
<event>
 4    1  0.3365401E-008  0.2730782E+03  0.7818608E-02  0.1099531E+00
          2   -1    0    0  501    0  0.00000000000E+00  0.00000000000E+00  0.11192570891E+04  0.11192570891E+04  0.25500000000E-02 0. -1.
         -2   -1    0    0    0  501 -0.00000000000E+00 -0.00000000000E+00 -0.45666083580E+03  0.45666083581E+03  0.25500000000E-02 0.  1.
    8880022    1    1    2    0    0  0.21704808444E+03  0.63798089635E+02 -0.39691477067E+03  0.48178112810E+03  0.15294330000E+03 0.  0.
    8880022    1    1    2    0    0 -0.21704808444E+03 -0.63798089635E+02  0.10595110239E+04  0.10941367968E+04  0.15294330000E+03 0. -1.
<mgrwt>
<rscale>  0 0.27307823E+03</rscale>
<asrwt>0</asrwt>
<pdfrwt beam="1">  1        2 0.17219340E+00 0.27307823E+03</pdfrwt>
<pdfrwt beam="2">  1       -2 0.70255515E-01 0.27307823E+03</pdfrwt>
<totfact> 0.42764525E+01</totfact>
</mgrwt>
</event>
<event>
 4    1  0.3365401E-008  0.4314122E+03  0.7818608E-02  0.1033415E+00
         -2   -1    0    0    0  501 -0.00000000000E+00  0.00000000000E+00  0.24548939108E+03  0.24548939109E+03  0.25500000000E-02 0.  1.
          2   -1    0    0  501    0  0.00000000000E+00 -0.00000000000E+00 -0.40569163106E+04  0.40569163106E+04  0.25500000000E-02 0. -1.
    8880022    1    1    2    0    0  0.25334713345E+03 -0.31391086480E+03 -0.38455247007E+04  0.38696481336E+04  0.15294330000E+03 0. -1.
    8880022    1    1    2    0    0 -0.25334713345E+03  0.31391086480E+03  0.34097781174E+02  0.43275756811E+03  0.15294330000E+03 0.  0.
<mgrwt>
<rscale>  0 0.43141216E+03</rscale>
<asrwt>0</asrwt>
<pdfrwt beam="1">  1        2 0.62414092E+00 0.43141216E+03</pdfrwt>
<pdfrwt beam="2">  1       -2 0.37767602E-01 0.43141216E+03</pdfrwt>
<totfact> 0.24975824E+00</totfact>
</mgrwt>
</event>
<event>
 4    1  0.3365401E-008  0.2394570E+03  0.7818608E-02  0.1120155E+00
          2   -1    0    0  501    0  0.00000000000E+00  0.00000000000E+00  0.31869628143E+04  0.31869628143E+04  0.25500000000E-02 0. -1.
         -2   -1    0    0    0  501 -0.00000000000E+00 -0.00000000000E+00 -0.14095371220E+03  0.14095371222E+03  0.25500000000E-02 0.  1.
    8880022    1    1    2    0    0  0.16743792137E+02 -0.18348739344E+03 -0.31132211486E+02  0.24147224630E+03  0.15294330000E+03 0.  0.
    8880022    1    1    2    0    0 -0.16743792137E+02  0.18348739344E+03  0.30771413135E+04  0.30864442802E+04  0.15294330000E+03 0.  0.
<mgrwt>
<rscale>  0 0.23945695E+03</rscale>
<asrwt>0</asrwt>
<pdfrwt beam="1">  1        2 0.49030193E+00 0.23945695E+03</pdfrwt>
<pdfrwt beam="2">  1       -2 0.21685188E-01 0.23945695E+03</pdfrwt>
<totfact> 0.30061491E+01</totfact>
</mgrwt>
</event>
<event>
 4    1  0.3365401E-008  0.7258875E+03  0.7818608E-02  0.9673957E-01
          2   -1    0    0  501    0  0.00000000000E+00  0.00000000000E+00  0.17988427847E+04  0.17988427847E+04  0.25500000000E-02 0. -1.
         -2   -1    0    0    0  501 -0.00000000000E+00 -0.00000000000E+00 -0.40690142839E+03  0.40690142839E+03  0.25500000000E-02 0.  1.
    8880022    1    1    2    0    0  0.39301904136E+03  0.59081055498E+03  0.11225394431E+03  0.73451594930E+03  0.15294330000E+03 0.  0.
    8880022    1    1    2    0    0 -0.39301904136E+03 -0.59081055498E+03  0.12796874120E+04  0.14712282638E+04  0.15294330000E+03 0.  0.
<mgrwt>
<rscale>  0 0.72588755E+03</rscale>
<asrwt>0</asrwt>
<pdfrwt beam="1">  1        2 0.27674505E+00 0.72588755E+03</pdfrwt>
<pdfrwt beam="2">  1       -2 0.62600219E-01 0.72588755E+03</pdfrwt>
<totfact> 0.21123670E+01</totfact>
</mgrwt>
</event>
<event>
 4    1  0.3365401E-008  0.2682073E+03  0.7818608E-02  0.1102310E+00
          2   -1    0    0  501    0  0.00000000000E+00  0.00000000000E+00  0.72098954187E+03  0.72098954187E+03  0.25500000000E-02 0. -1.
         -2   -1    0    0    0  501 -0.00000000000E+00 -0.00000000000E+00 -0.20769350263E+03  0.20769350265E+03  0.25500000000E-02 0.  1.
    8880022    1    1    2    0    0  0.53251081092E+02  0.21379387013E+03  0.59136553258E+03  0.64934454851E+03  0.15294330000E+03 0.  0.
    8880022    1    1    2    0    0 -0.53251081092E+02 -0.21379387013E+03 -0.78069493348E+02  0.27933849601E+03  0.15294330000E+03 0.  0.
<mgrwt>
<rscale>  0 0.26820729E+03</rscale>
<asrwt>0</asrwt>
<pdfrwt beam="1">  1        2 0.11092147E+00 0.26820729E+03</pdfrwt>
<pdfrwt beam="2">  1       -2 0.31952846E-01 0.26820729E+03</pdfrwt>
<totfact> 0.37092866E+02</totfact>
</mgrwt>
</event>
<event>
 4    1  0.3365401E-008  0.4941623E+03  0.7818608E-02  0.1015314E+00
         -2   -1    0    0    0  501 -0.00000000000E+00  0.00000000000E+00  0.10618110901E+03  0.10618110904E+03  0.25500000000E-02 0.  1.
          2   -1    0    0  501    0  0.00000000000E+00 -0.00000000000E+00 -0.30677834563E+04  0.30677834563E+04  0.25500000000E-02 0. -1.
    8880022    1    1    2    0    0  0.11128765064E+03  0.45653012573E+03 -0.68677850196E+03  0.84608572890E+03  0.15294330000E+03 0.  0.
    8880022    1    1    2    0    0 -0.11128765064E+03 -0.45653012573E+03 -0.22748238453E+04  0.23278788364E+04  0.15294330000E+03 0. -1.
<mgrwt>
<rscale>  0 0.49416227E+03</rscale>
<asrwt>0</asrwt>
<pdfrwt beam="1">  1        2 0.47196662E+00 0.49416227E+03</pdfrwt>
<pdfrwt beam="2">  1       -2 0.16335558E-01 0.49416227E+03</pdfrwt>
<totfact> 0.52954912E+01</totfact>
</mgrwt>
</event>
<event>
 4    1  0.3365401E-008  0.2067231E+03  0.7818608E-02  0.1144188E+00
         -2   -1    0    0    0  501 -0.00000000000E+00  0.00000000000E+00  0.11705780096E+03  0.11705780099E+03  0.25500000000E-02 0.  1.
          2   -1    0    0  501    0  0.00000000000E+00 -0.00000000000E+00 -0.15737578911E+04  0.15737578911E+04  0.25500000000E-02 0. -1.
    8880022    1    1    2    0    0 -0.20157839307E+02 -0.13760975921E+03 -0.14692407997E+04  0.14837125614E+04  0.15294330000E+03 0.  0.
    8880022    1    1    2    0    0  0.20157839307E+02  0.13760975921E+03  0.12540709606E+02  0.20710313065E+03  0.15294330000E+03 0.  0.
<mgrwt>
<rscale>  0 0.20672309E+03</rscale>
<asrwt>0</asrwt>
<pdfrwt beam="1">  1        2 0.24211658E+00 0.20672309E+03</pdfrwt>
<pdfrwt beam="2">  1       -2 0.18008894E-01 0.20672309E+03</pdfrwt>
<totfact> 0.31948575E+02</totfact>
</mgrwt>
</event>
<event>
 4    1  0.3365401E-008  0.2410037E+03  0.7818608E-02  0.1119126E+00
          2   -1    0    0  501    0  0.00000000000E+00  0.00000000000E+00  0.22125987943E+04  0.22125987943E+04  0.25500000000E-02 0. -1.
         -2   -1    0    0    0  501 -0.00000000000E+00 -0.00000000000E+00 -0.76221492698E+02  0.76221492741E+02  0.25500000000E-02 0.  1.
    8880022    1    1    2    0    0  0.69074753807E+02  0.17297350273E+03  0.19948051575E+04  0.20093109325E+04  0.15294330000E+03 0. -1.
    8880022    1    1    2    0    0 -0.69074753807E+02 -0.17297350273E+03  0.14157214415E+03  0.27950935454E+03  0.15294330000E+03 0.  0.
<mgrwt>
<rscale>  0 0.24100375E+03</rscale>
<asrwt>0</asrwt>
<pdfrwt beam="1">  1        2 0.34039978E+00 0.24100375E+03</pdfrwt>
<pdfrwt beam="2">  1       -2 0.11726385E-01 0.24100375E+03</pdfrwt>
<totfact> 0.29732619E+02</totfact>
</mgrwt>
</event>
<event>
 4    1  0.3365401E-008  0.1092456E+04  0.7818608E-02  0.9212576E-01
          2   -1    0    0  501    0  0.00000000000E+00  0.00000000000E+00  0.19911077520E+04  0.19911077520E+04  0.25500000000E-02 0. -1.
         -2   -1    0    0    0  501 -0.00000000000E+00 -0.00000000000E+00 -0.83862612068E+03  0.83862612068E+03  0.25500000000E-02 0.  1.
    8880022    1    1    2    0    0  0.52525380326E+03 -0.94560880808E+03  0.13319254790E+04  0.17226388798E+04  0.15294330000E+03 0.  0.
    8880022    1    1    2    0    0 -0.52525380326E+03  0.94560880808E+03 -0.17944384763E+03  0.11070949929E+04  0.15294330000E+03 0.  0.
<mgrwt>
<rscale>  0 0.10924556E+04</rscale>
<asrwt>0</asrwt>
<pdfrwt beam="1">  1        2 0.30632427E+00 0.10924556E+04</pdfrwt>
<pdfrwt beam="2">  1       -2 0.12901940E+00 0.10924556E+04</pdfrwt>
<totfact> 0.29530557E+00</totfact>
</mgrwt>
</event>
<event>
 4    1  0.3365401E-008  0.4500112E+03  0.7818608E-02  0.1027719E+00
          2   -1    0    0  501    0  0.00000000000E+00  0.00000000000E+00  0.31115304680E+04  0.31115304680E+04  0.25500000000E-02 0. -1.
         -2   -1    0    0    0  501 -0.00000000000E+00 -0.00000000000E+00 -0.73428816308E+02  0.73428816352E+02  0.25500000000E-02 0.  1.
    8880022    1    1    2    0    0  0.40523133441E+03  0.12209003078E+03  0.98219757228E+03  0.10803805505E+04  0.15294330000E+03 0.  0.
    8880022    1    1    2    0    0 -0.40523133441E+03 -0.12209003078E+03  0.20559040794E+04  0.21045787338E+04  0.15294330000E+03 0.  0.
<mgrwt>
<rscale>  0 0.45001118E+03</rscale>
<asrwt>0</asrwt>
<pdfrwt beam="1">  1        2 0.47869699E+00 0.45001118E+03</pdfrwt>
<pdfrwt beam="2">  1       -2 0.11296741E-01 0.45001118E+03</pdfrwt>
<totfact> 0.92779520E+01</totfact>
</mgrwt>
</event>
<event>
 4    1  0.3365401E-008  0.9860251E+03  0.7818608E-02  0.9324006E-01
         -2   -1    0    0    0  501 -0.00000000000E+00  0.00000000000E+00  0.17947103850E+04  0.17947103850E+04  0.25500000000E-02 0.  1.
          2   -1    0    0  501    0  0.00000000000E+00 -0.00000000000E+00 -0.97618381565E+03  0.97618381566E+03  0.25500000000E-02 0. -1.
    8880022    1    1    2    0    0 -0.44423266444E+03 -0.86689740092E+03  0.13335289093E+04  0.16584766410E+04  0.15294330000E+03 0.  0.
    8880022    1    1    2    0    0  0.44423266444E+03  0.86689740092E+03 -0.51500233992E+03  0.11124175597E+04  0.15294330000E+03 0.  0.
<mgrwt>
<rscale>  0 0.98602506E+03</rscale>
<asrwt>0</asrwt>
<pdfrwt beam="1">  1        2 0.15018213E+00 0.98602506E+03</pdfrwt>
<pdfrwt beam="2">  1       -2 0.27610929E+00 0.98602506E+03</pdfrwt>
<totfact> 0.11634454E+00</totfact>
</mgrwt>
</event>
<event>
 4    1  0.3365401E-008  0.1626711E+03  0.7818608E-02  0.1185714E+00
         -2   -1    0    0    0  501 -0.00000000000E+00  0.00000000000E+00  0.21948009190E+03  0.21948009191E+03  0.25500000000E-02 0.  1.
          2   -1    0    0  501    0  0.00000000000E+00 -0.00000000000E+00 -0.67674616044E+03  0.67674616044E+03  0.25500000000E-02 0. -1.
    8880022    1    1    2    0    0  0.73846846230E+01 -0.54915508954E+02  0.17760670035E+03  0.24084443052E+03  0.15294330000E+03 0.  1.
    8880022    1    1    2    0    0 -0.73846846230E+01  0.54915508954E+02 -0.63487276889E+03  0.65538182183E+03  0.15294330000E+03 0.  0.
<mgrwt>
<rscale>  0 0.16267114E+03</rscale>
<asrwt>0</asrwt>
<pdfrwt beam="1">  1        2 0.10411479E+00 0.16267114E+03</pdfrwt>
<pdfrwt beam="2">  1       -2 0.33766168E-01 0.16267114E+03</pdfrwt>
<totfact> 0.36512742E+02</totfact>
</mgrwt>
</event>
<event>
 4    1  0.3365401E-008  0.8443808E+03  0.7818608E-02  0.9497910E-01
          2   -1    0    0  501    0  0.00000000000E+00  0.00000000000E+00  0.90043758825E+03  0.90043758825E+03  0.25500000000E-02 0. -1.
         -2   -1    0    0    0  501 -0.00000000000E+00 -0.00000000000E+00 -0.15722942466E+04  0.15722942466E+04  0.25500000000E-02 0.  1.
    8880022    1    1    2    0    0 -0.74437615074E+03 -0.36809149745E+03 -0.12070145445E+04  0.14730454738E+04  0.15294330000E+03 0.  0.
    8880022    1    1    2    0    0  0.74437615074E+03  0.36809149745E+03  0.53515788616E+03  0.99968636102E+03  0.15294330000E+03 0.  0.
<mgrwt>
<rscale>  0 0.84438075E+03</rscale>
<asrwt>0</asrwt>
<pdfrwt beam="1">  1        2 0.13852886E+00 0.84438075E+03</pdfrwt>
<pdfrwt beam="2">  1       -2 0.24189142E+00 0.84438075E+03</pdfrwt>
<totfact> 0.21474441E+00</totfact>
</mgrwt>
</event>
<event>
 4    1  0.3365401E-008  0.4360300E+03  0.7818608E-02  0.1031972E+00
         -2   -1    0    0    0  501 -0.00000000000E+00  0.00000000000E+00  0.38384683822E+03  0.38384683823E+03  0.25500000000E-02 0.  1.
          2   -1    0    0  501    0  0.00000000000E+00 -0.00000000000E+00 -0.70666893365E+03  0.70666893365E+03  0.25500000000E-02 0. -1.
    8880022    1    1    2    0    0 -0.19862603166E+03 -0.35676066008E+03  0.13678857186E+03  0.45698275180E+03  0.15294330000E+03 0. -1.
    8880022    1    1    2    0    0  0.19862603166E+03  0.35676066008E+03 -0.45961066729E+03  0.63353302008E+03  0.15294330000E+03 0.  0.
<mgrwt>
<rscale>  0 0.43602996E+03</rscale>
<asrwt>0</asrwt>
<pdfrwt beam="1">  1        2 0.10871830E+00 0.43602996E+03</pdfrwt>
<pdfrwt beam="2">  1       -2 0.59053360E-01 0.43602996E+03</pdfrwt>
<totfact> 0.11237369E+02</totfact>
</mgrwt>
</event>
<event>
 4    1  0.3577021E-008  0.7839479E+03  0.7818608E-02  0.9583547E-01
          2   -1    0    0  501    0  0.00000000000E+00  0.00000000000E+00  0.36706674059E+04  0.36706674059E+04  0.25500000000E-02 0. -1.
         -2   -1    0    0    0  501 -0.00000000000E+00 -0.00000000000E+00 -0.10632359777E+04  0.10632359777E+04  0.25500000000E-02 0.  1.
    8880022    1    1    2    0    0  0.17588886121E+03  0.74849571609E+03 -0.86889492146E+03  0.11702789266E+04  0.15294330000E+03 0.  0.
    8880022    1    1    2    0    0 -0.17588886121E+03 -0.74849571609E+03  0.34763263496E+04  0.35636244570E+04  0.15294330000E+03 0.  0.
<mgrwt>
<rscale>  0 0.78394795E+03</rscale>
<asrwt>0</asrwt>
<pdfrwt beam="1">  1        2 0.56471807E+00 0.78394795E+03</pdfrwt>
<pdfrwt beam="2">  1       -2 0.16357476E+00 0.78394795E+03</pdfrwt>
<totfact> 0.15856537E-01</totfact>
</mgrwt>
</event>
<event>
 4    1  0.3365401E-008  0.1965517E+03  0.7818608E-02  0.1152681E+00
          2   -1    0    0  501    0  0.00000000000E+00  0.00000000000E+00  0.19216963747E+03  0.19216963749E+03  0.25500000000E-02 0. -1.
         -2   -1    0    0    0  501 -0.00000000000E+00 -0.00000000000E+00 -0.20116685044E+03  0.20116685046E+03  0.25500000000E-02 0.  1.
    8880022    1    1    2    0    0  0.11871144689E+03 -0.33889455026E+02  0.56284900093E+00  0.19655246780E+03  0.15294330000E+03 0. -1.
    8880022    1    1    2    0    0 -0.11871144689E+03  0.33889455026E+02 -0.95600619698E+01  0.19678402014E+03  0.15294330000E+03 0.  1.
<mgrwt>
<rscale>  0 0.19655166E+03</rscale>
<asrwt>0</asrwt>
<pdfrwt beam="1">  1        2 0.29564560E-01 0.19655166E+03</pdfrwt>
<pdfrwt beam="2">  1       -2 0.30948746E-01 0.19655166E+03</pdfrwt>
<totfact> 0.17027140E+03</totfact>
</mgrwt>
</event>
<event>
 4    1  0.3365401E-008  0.6338406E+03  0.7818608E-02  0.9837583E-01
         -2   -1    0    0    0  501 -0.00000000000E+00  0.00000000000E+00  0.13825518323E+03  0.13825518325E+03  0.25500000000E-02 0.  1.
          2   -1    0    0  501    0  0.00000000000E+00 -0.00000000000E+00 -0.29728545226E+04  0.29728545226E+04  0.25500000000E-02 0. -1.
    8880022    1    1    2    0    0 -0.41452930301E+03  0.45445324859E+03 -0.11838300658E+04  0.13428356474E+04  0.15294330000E+03 0.  0.
    8880022    1    1    2    0    0  0.41452930301E+03 -0.45445324859E+03 -0.16507692736E+04  0.17682740585E+04  0.15294330000E+03 0.  0.
<mgrwt>
<rscale>  0 0.63384064E+03</rscale>
<asrwt>0</asrwt>
<pdfrwt beam="1">  1        2 0.45736219E+00 0.63384064E+03</pdfrwt>
<pdfrwt beam="2">  1       -2 0.21270030E-01 0.63384064E+03</pdfrwt>
<totfact> 0.37300033E+01</totfact>
</mgrwt>
</event>
<event>
 4    1  0.3365401E-008  0.4523768E+03  0.7818608E-02  0.1027016E+00
         -2   -1    0    0    0  501 -0.00000000000E+00  0.00000000000E+00  0.39567316030E+03  0.39567316031E+03  0.25500000000E-02 0.  1.
          2   -1    0    0  501    0  0.00000000000E+00 -0.00000000000E+00 -0.13072448974E+04  0.13072448974E+04  0.25500000000E-02 0. -1.
    8880022    1    1    2    0    0 -0.41787138689E+03  0.81465233854E+02 -0.11177117693E+04  0.12057878472E+04  0.15294330000E+03 0.  0.
    8880022    1    1    2    0    0  0.41787138689E+03 -0.81465233854E+02  0.20614003217E+03  0.49713021049E+03  0.15294330000E+03 0.  0.
<mgrwt>
<rscale>  0 0.45237676E+03</rscale>
<asrwt>0</asrwt>
<pdfrwt beam="1">  1        2 0.20111460E+00 0.45237676E+03</pdfrwt>
<pdfrwt beam="2">  1       -2 0.60872794E-01 0.45237676E+03</pdfrwt>
<totfact> 0.43575600E+01</totfact>
</mgrwt>
</event>
<event>
 4    1  0.3365401E-008  0.1105332E+04  0.7818608E-02  0.9200010E-01
         -2   -1    0    0    0  501 -0.00000000000E+00  0.00000000000E+00  0.10040967912E+04  0.10040967912E+04  0.25500000000E-02 0.  1.
          2   -1    0    0  501    0  0.00000000000E+00 -0.00000000000E+00 -0.24298326992E+04  0.24298326992E+04  0.25500000000E-02 0. -1.
    8880022    1    1    2    0    0  0.10505761552E+04  0.30766403377E+03 -0.19260167301E+04  0.22206529475E+04  0.15294330000E+03 0.  0.
    8880022    1    1    2    0    0 -0.10505761552E+04 -0.30766403377E+03  0.50028082215E+03  0.12132765429E+04  0.15294330000E+03 0.  0.
<mgrwt>
<rscale>  0 0.11053321E+04</rscale>
<asrwt>0</asrwt>
<pdfrwt beam="1">  1        2 0.37382041E+00 0.11053321E+04</pdfrwt>
<pdfrwt beam="2">  1       -2 0.15447643E+00 0.11053321E+04</pdfrwt>
<totfact> 0.10470790E+00</totfact>
</mgrwt>
</event>
<event>
 4    1  0.3365401E-008  0.5686924E+03  0.7818608E-02  0.9972576E-01
         -2   -1    0    0    0  501 -0.00000000000E+00  0.00000000000E+00  0.20661059612E+03  0.20661059613E+03  0.25500000000E-02 0.  1.
          2   -1    0    0  501    0  0.00000000000E+00 -0.00000000000E+00 -0.27775771463E+04  0.27775771463E+04  0.25500000000E-02 0. -1.
    8880022    1    1    2    0    0 -0.24878100067E+03 -0.48798295922E+03 -0.29974627890E+03  0.64285211325E+03  0.15294330000E+03 0.  0.
    8880022    1    1    2    0    0  0.24878100067E+03  0.48798295922E+03 -0.22712202713E+04  0.23413356292E+04  0.15294330000E+03 0.  0.
<mgrwt>
<rscale>  0 0.56869237E+03</rscale>
<asrwt>0</asrwt>
<pdfrwt beam="1">  1        2 0.42731953E+00 0.56869237E+03</pdfrwt>
<pdfrwt beam="2">  1       -2 0.31786248E-01 0.56869237E+03</pdfrwt>
<totfact> 0.23855526E+01</totfact>
</mgrwt>
</event>
<event>
 4    1  0.3365401E-008  0.1960223E+03  0.7818608E-02  0.1153139E+00
          2   -1    0    0  501    0  0.00000000000E+00  0.00000000000E+00  0.31192988463E+02  0.31192988567E+02  0.25500000000E-02 0. -1.
         -2   -1    0    0    0  501 -0.00000000000E+00 -0.00000000000E+00 -0.22351320817E+04  0.22351320817E+04  0.25500000000E-02 0.  1.
    8880022    1    1    2    0    0  0.56055432421E+02 -0.10904535471E+03 -0.18611664395E+04  0.18714607315E+04  0.15294330000E+03 0.  1.
    8880022    1    1    2    0    0 -0.56055432421E+02  0.10904535471E+03 -0.34277265369E+03  0.39486433876E+03  0.15294330000E+03 0.  0.
<mgrwt>
<rscale>  0 0.19602233E+03</rscale>
<asrwt>0</asrwt>
<pdfrwt beam="1">  1        2 0.47989231E-02 0.19602233E+03</pdfrwt>
<pdfrwt beam="2">  1       -2 0.34386635E+00 0.19602233E+03</pdfrwt>
<totfact> 0.33848703E+01</totfact>
</mgrwt>
</event>
<event>
 4    1  0.3365401E-008  0.3551743E+03  0.7818608E-02  0.1060511E+00
          2   -1    0    0  501    0  0.00000000000E+00  0.00000000000E+00  0.27362726668E+04  0.27362726668E+04  0.25500000000E-02 0. -1.
         -2   -1    0    0    0  501 -0.00000000000E+00 -0.00000000000E+00 -0.99132454642E+02  0.99132454675E+02  0.25500000000E-02 0.  1.
    8880022    1    1    2    0    0 -0.29465766451E+03  0.12622991213E+03  0.23554731809E+04  0.23821004783E+04  0.15294330000E+03 0.  0.
    8880022    1    1    2    0    0  0.29465766451E+03 -0.12622991213E+03  0.28166703125E+03  0.45330464312E+03  0.15294330000E+03 0.  0.
<mgrwt>
<rscale>  0 0.35517430E+03</rscale>
<asrwt>0</asrwt>
<pdfrwt beam="1">  1        2 0.42096497E+00 0.35517430E+03</pdfrwt>
<pdfrwt beam="2">  1       -2 0.15251149E-01 0.35517430E+03</pdfrwt>
<totfact> 0.96587060E+01</totfact>
</mgrwt>
</event>
<event>
 4    1  0.3365401E-008  0.5437499E+03  0.7818608E-02  0.1002951E+00
          2   -1    0    0  501    0  0.00000000000E+00  0.00000000000E+00  0.13169469627E+04  0.13169469627E+04  0.25500000000E-02 0. -1.
         -2   -1    0    0    0  501 -0.00000000000E+00 -0.00000000000E+00 -0.39471102465E+03  0.39471102466E+03  0.25500000000E-02 0.  1.
    8880022    1    1    2    0    0 -0.10768753611E+03  0.51056409237E+03 -0.10087663382E+03  0.55302806992E+03  0.15294330000E+03 0.  0.
    8880022    1    1    2    0    0  0.10768753611E+03 -0.51056409237E+03  0.10231125719E+04  0.11586299175E+04  0.15294330000E+03 0.  0.
<mgrwt>
<rscale>  0 0.54374990E+03</rscale>
<asrwt>0</asrwt>
<pdfrwt beam="1">  1        2 0.20260723E+00 0.54374990E+03</pdfrwt>
<pdfrwt beam="2">  1       -2 0.60724772E-01 0.54374990E+03</pdfrwt>
<totfact> 0.42642580E+01</totfact>
</mgrwt>
</event>
<event>
 4    1  0.3365401E-008  0.2724251E+03  0.7818608E-02  0.1099900E+00
         -2   -1    0    0    0  501 -0.00000000000E+00  0.00000000000E+00  0.20277617749E+03  0.20277617751E+03  0.25500000000E-02 0.  1.
          2   -1    0    0  501    0  0.00000000000E+00 -0.00000000000E+00 -0.13079638205E+04  0.13079638205E+04  0.25500000000E-02 0. -1.
    8880022    1    1    2    0    0  0.67086318271E+02 -0.21522822046E+03  0.88438216954E+02  0.28642055131E+03  0.15294330000E+03 0.  0.
    8880022    1    1    2    0    0 -0.67086318271E+02  0.21522822046E+03 -0.11936258600E+04  0.12243194467E+04  0.15294330000E+03 0.  0.
<mgrwt>
<rscale>  0 0.27242506E+03</rscale>
<asrwt>0</asrwt>
<pdfrwt beam="1">  1        2 0.20122520E+00 0.27242506E+03</pdfrwt>
<pdfrwt beam="2">  1       -2 0.31196336E-01 0.27242506E+03</pdfrwt>
<totfact> 0.16698954E+02</totfact>
</mgrwt>
</event>
<event>
 4    1  0.3365401E-008  0.5211865E+03  0.7818608E-02  0.1008392E+00
         -2   -1    0    0    0  501 -0.00000000000E+00  0.00000000000E+00  0.93978037985E+03  0.93978037985E+03  0.25500000000E-02 0.  1.
          2   -1    0    0  501    0  0.00000000000E+00 -0.00000000000E+00 -0.64371537699E+03  0.64371537700E+03  0.25500000000E-02 0. -1.
    8880022    1    1    2    0    0  0.16598620218E+03 -0.46977900826E+03  0.73573110661E+03  0.90162944171E+03  0.15294330000E+03 0.  0.
    8880022    1    1    2    0    0 -0.16598620218E+03  0.46977900826E+03 -0.43966610375E+03  0.68186631514E+03  0.15294330000E+03 0.  0.
<mgrwt>
<rscale>  0 0.52118652E+03</rscale>
<asrwt>0</asrwt>
<pdfrwt beam="1">  1        2 0.99033135E-01 0.52118652E+03</pdfrwt>
<pdfrwt beam="2">  1       -2 0.14458160E+00 0.52118652E+03</pdfrwt>
<totfact> 0.15655338E+01</totfact>
</mgrwt>
</event>
<event>
 4    1  0.3365401E-008  0.7350316E+03  0.7818608E-02  0.9659130E-01
          2   -1    0    0  501    0  0.00000000000E+00  0.00000000000E+00  0.23757625180E+04  0.23757625180E+04  0.25500000000E-02 0. -1.
         -2   -1    0    0    0  501 -0.00000000000E+00 -0.00000000000E+00 -0.42311448799E+03  0.42311448799E+03  0.25500000000E-02 0.  1.
    8880022    1    1    2    0    0 -0.59529274291E+03  0.40312082445E+03  0.19280798930E+04  0.20634348973E+04  0.15294330000E+03 0.  0.
    8880022    1    1    2    0    0  0.59529274291E+03 -0.40312082445E+03  0.24568137085E+02  0.73544210869E+03  0.15294330000E+03 0.  0.
<mgrwt>
<rscale>  0 0.73503163E+03</rscale>
<asrwt>0</asrwt>
<pdfrwt beam="1">  1        2 0.36550193E+00 0.73503163E+03</pdfrwt>
<pdfrwt beam="2">  1       -2 0.65094536E-01 0.73503163E+03</pdfrwt>
<totfact> 0.93602656E+00</totfact>
</mgrwt>
</event>
<event>
 4    1  0.3365401E-008  0.2067798E+03  0.7818608E-02  0.1144142E+00
         -2   -1    0    0    0  501 -0.00000000000E+00  0.00000000000E+00  0.24654223711E+03  0.24654223712E+03  0.25500000000E-02 0.  1.
          2   -1    0    0  501    0  0.00000000000E+00 -0.00000000000E+00 -0.69314720471E+03  0.69314720472E+03  0.25500000000E-02 0. -1.
    8880022    1    1    2    0    0 -0.13906246572E+03 -0.52789114777E+01 -0.63014379314E+03  0.66320365600E+03  0.15294330000E+03 0.  0.
    8880022    1    1    2    0    0  0.13906246572E+03  0.52789114777E+01  0.18353882554E+03  0.27648578584E+03  0.15294330000E+03 0.  1.
<mgrwt>
<rscale>  0 0.20677981E+03</rscale>
<asrwt>0</asrwt>
<pdfrwt beam="1">  1        2 0.10663803E+00 0.20677981E+03</pdfrwt>
<pdfrwt beam="2">  1       -2 0.37929575E-01 0.20677981E+03</pdfrwt>
<totfact> 0.28428588E+02</totfact>
</mgrwt>
</event>
<event>
 4    1  0.6148272E-008  0.4796963E+03  0.7818608E-02  0.1019219E+00
          2   -1    0    0  501    0  0.00000000000E+00  0.00000000000E+00  0.17567163696E+04  0.17567163696E+04  0.25500000000E-02 0. -1.
         -2   -1    0    0    0  501 -0.00000000000E+00 -0.00000000000E+00 -0.21409111603E+04  0.21409111603E+04  0.25500000000E-02 0.  1.
    8880022    1    1    2    0    0  0.43376669899E+03 -0.13624723681E+03 -0.20803528948E+04  0.21349418443E+04  0.15294330000E+03 0.  0.
    8880022    1    1    2    0    0 -0.43376669899E+03  0.13624723681E+03  0.16961581041E+04  0.17626856855E+04  0.15294330000E+03 0.  0.
<mgrwt>
<rscale>  0 0.47969627E+03</rscale>
<asrwt>0</asrwt>
<pdfrwt beam="1">  1        2 0.27026406E+00 0.47969627E+03</pdfrwt>
<pdfrwt beam="2">  1       -2 0.32937095E+00 0.47969627E+03</pdfrwt>
<totfact> 0.22237085E-01</totfact>
</mgrwt>
</event>
<event>
 4    1  0.3365401E-008  0.7308048E+03  0.7818608E-02  0.9665955E-01
         -2   -1    0    0    0  501 -0.00000000000E+00  0.00000000000E+00  0.10435051565E+04  0.10435051565E+04  0.25500000000E-02 0.  1.
          2   -1    0    0  501    0  0.00000000000E+00 -0.00000000000E+00 -0.60688740519E+03  0.60688740520E+03  0.25500000000E-02 0. -1.
    8880022    1    1    2    0    0  0.38126095896E+03 -0.60442048188E+03 -0.10831156147E+03  0.73878757780E+03  0.15294330000E+03 0.  0.
    8880022    1    1    2    0    0 -0.38126095896E+03  0.60442048188E+03  0.54492931277E+03  0.91160498390E+03  0.15294330000E+03 0.  0.
<mgrwt>
<rscale>  0 0.73080482E+03</rscale>
<asrwt>0</asrwt>
<pdfrwt beam="1">  1        2 0.93367294E-01 0.73080482E+03</pdfrwt>
<pdfrwt beam="2">  1       -2 0.16053925E+00 0.73080482E+03</pdfrwt>
<totfact> 0.12420192E+01</totfact>
</mgrwt>
</event>
<event>
 4    1  0.3365401E-008  0.5156161E+03  0.7818608E-02  0.1009781E+00
          2   -1    0    0  501    0  0.00000000000E+00  0.00000000000E+00  0.18098285367E+04  0.18098285367E+04  0.25500000000E-02 0. -1.
         -2   -1    0    0    0  501 -0.00000000000E+00 -0.00000000000E+00 -0.24541514843E+03  0.24541514844E+03  0.25500000000E-02 0.  1.
    8880022    1    1    2    0    0 -0.24229340182E+03  0.42867493007E+03  0.14332934570E+04  0.15232170151E+04  0.15294330000E+03 0.  0.
    8880022    1    1    2    0    0  0.24229340182E+03 -0.42867493007E+03  0.13111993128E+03  0.53202667004E+03  0.15294330000E+03 0.  0.
<mgrwt>
<rscale>  0 0.51561608E+03</rscale>
<asrwt>0</asrwt>
<pdfrwt beam="1">  1        2 0.27843516E+00 0.51561608E+03</pdfrwt>
<pdfrwt beam="2">  1       -2 0.37756177E-01 0.51561608E+03</pdfrwt>
<totfact> 0.59700023E+01</totfact>
</mgrwt>
</event>
<event>
 4    1  0.3365401E-008  0.1923389E+03  0.7818608E-02  0.1156369E+00
          2   -1    0    0  501    0  0.00000000000E+00  0.00000000000E+00  0.99168934953E+03  0.99168934953E+03  0.25500000000E-02 0. -1.
         -2   -1    0    0    0  501 -0.00000000000E+00 -0.00000000000E+00 -0.30905180772E+03  0.30905180773E+03  0.25500000000E-02 0.  1.
    8880022    1    1    2    0    0  0.10888668630E+03 -0.41788621069E+02 -0.26853827692E+03  0.33031357600E+03  0.15294330000E+03 0.  0.
    8880022    1    1    2    0    0 -0.10888668630E+03  0.41788621069E+02  0.95117581874E+03  0.97042758126E+03  0.15294330000E+03 0. -1.
<mgrwt>
<rscale>  0 0.19233890E+03</rscale>
<asrwt>0</asrwt>
<pdfrwt beam="1">  1        2 0.15256760E+00 0.19233890E+03</pdfrwt>
<pdfrwt beam="2">  1       -2 0.47546431E-01 0.19233890E+03</pdfrwt>
<totfact> 0.11626297E+02</totfact>
</mgrwt>
</event>
<event>
 4    1  0.3365401E-008  0.2575867E+03  0.7818608E-02  0.1108602E+00
         -2   -1    0    0    0  501 -0.00000000000E+00  0.00000000000E+00  0.75342430396E+02  0.75342430439E+02  0.25500000000E-02 0.  1.
          2   -1    0    0  501    0  0.00000000000E+00 -0.00000000000E+00 -0.13119382637E+04  0.13119382637E+04  0.25500000000E-02 0. -1.
    8880022    1    1    2    0    0 -0.19087750728E+03 -0.80777549693E+02 -0.10159997671E+04  0.10481442721E+04  0.15294330000E+03 0.  0.
    8880022    1    1    2    0    0  0.19087750728E+03  0.80777549693E+02 -0.22059606614E+03  0.33913642201E+03  0.15294330000E+03 0.  1.
<mgrwt>
<rscale>  0 0.25758666E+03</rscale>
<asrwt>0</asrwt>
<pdfrwt beam="1">  1        2 0.20183664E+00 0.25758666E+03</pdfrwt>
<pdfrwt beam="2">  1       -2 0.11591144E-01 0.25758666E+03</pdfrwt>
<totfact> 0.90671655E+02</totfact>
</mgrwt>
</event>
<event>
 4    1  0.3365401E-008  0.6556725E+03  0.7818608E-02  0.9796193E-01
         -2   -1    0    0    0  501 -0.00000000000E+00  0.00000000000E+00  0.12823947407E+03  0.12823947409E+03  0.25500000000E-02 0.  1.
          2   -1    0    0  501    0  0.00000000000E+00 -0.00000000000E+00 -0.36229193000E+04  0.36229193000E+04  0.25500000000E-02 0. -1.
    8880022    1    1    2    0    0 -0.25312498683E+03  0.58518583614E+03 -0.12347996118E+04  0.13980831363E+04  0.15294330000E+03 0.  0.
    8880022    1    1    2    0    0  0.25312498683E+03 -0.58518583614E+03 -0.22598802141E+04  0.23530756377E+04  0.15294330000E+03 0.  0.
<mgrwt>
<rscale>  0 0.65567246E+03</rscale>
<asrwt>0</asrwt>
<pdfrwt beam="1">  1        2 0.55737212E+00 0.65567246E+03</pdfrwt>
<pdfrwt beam="2">  1       -2 0.19729153E-01 0.65567246E+03</pdfrwt>
<totfact> 0.16023873E+01</totfact>
</mgrwt>
</event>
<event>
 4    1  0.3365401E-008  0.5231171E+03  0.7818608E-02  0.1007915E+00
         -2   -1    0    0    0  501 -0.00000000000E+00  0.00000000000E+00  0.15386154615E+03  0.15386154617E+03  0.25500000000E-02 0.  1.
          2   -1    0    0  501    0  0.00000000000E+00 -0.00000000000E+00 -0.26559778321E+04  0.26559778321E+04  0.25500000000E-02 0. -1.
    8880022    1    1    2    0    0 -0.42004881558E+03  0.27169614184E+03 -0.44355658504E+03  0.68585267960E+03  0.15294330000E+03 0.  0.
    8880022    1    1    2    0    0  0.42004881558E+03 -0.27169614184E+03 -0.20585597009E+04  0.21239866987E+04  0.15294330000E+03 0.  0.
<mgrwt>
<rscale>  0 0.52311706E+03</rscale>
<asrwt>0</asrwt>
<pdfrwt beam="1">  1        2 0.40861194E+00 0.52311706E+03</pdfrwt>
<pdfrwt beam="2">  1       -2 0.23671009E-01 0.52311706E+03</pdfrwt>
<totfact> 0.48422891E+01</totfact>
</mgrwt>
</event>
<event>
 4    1  0.3365401E-008  0.4634373E+03  0.7818608E-02  0.1023789E+00
          2   -1    0    0  501    0  0.00000000000E+00  0.00000000000E+00  0.13123269795E+04  0.13123269795E+04  0.25500000000E-02 0. -1.
         -2   -1    0    0    0  501 -0.00000000000E+00 -0.00000000000E+00 -0.22176560393E+03  0.22176560395E+03  0.25500000000E-02 0.  1.
    8880022    1    1    2    0    0 -0.39478965719E+03  0.18847698189E+03  0.15264724294E+03  0.48792958500E+03  0.15294330000E+03 0.  0.
    8880022    1    1    2    0    0  0.39478965719E+03 -0.18847698189E+03  0.93791413261E+03  0.10461629984E+04  0.15294330000E+03 0.  0.
<mgrwt>
<rscale>  0 0.46343727E+03</rscale>
<asrwt>0</asrwt>
<pdfrwt beam="1">  1        2 0.20189647E+00 0.46343727E+03</pdfrwt>
<pdfrwt beam="2">  1       -2 0.34117784E-01 0.46343727E+03</pdfrwt>
<totfact> 0.13648602E+02</totfact>
</mgrwt>
</event>
<event>
 4    1  0.3365401E-008  0.1489004E+04  0.7818608E-02  0.8891798E-01
          2   -1    0    0  501    0  0.00000000000E+00  0.00000000000E+00  0.17874976558E+04  0.17874976558E+04  0.25500000000E-02 0. -1.
         -2   -1    0    0    0  501 -0.00000000000E+00 -0.00000000000E+00 -0.13557761364E+04  0.13557761364E+04  0.25500000000E-02 0.  1.
    8880022    1    1    2    0    0  0.14480148363E+04  0.31143977107E+03 -0.24270234757E+03  0.15086542943E+04  0.15294330000E+03 0.  0.
    8880022    1    1    2    0    0 -0.14480148363E+04 -0.31143977107E+03  0.67442386697E+03  0.16346194978E+04  0.15294330000E+03 0.  0.
<mgrwt>
<rscale>  0 0.14890041E+04</rscale>
<asrwt>0</asrwt>
<pdfrwt beam="1">  1        2 0.27499964E+00 0.14890041E+04</pdfrwt>
<pdfrwt beam="2">  1       -2 0.20858094E+00 0.14890041E+04</pdfrwt>
<totfact> 0.96453289E-01</totfact>
</mgrwt>
</event>
<event>
 4    1  0.3365401E-008  0.5063231E+03  0.7818608E-02  0.1012142E+00
          2   -1    0    0  501    0  0.00000000000E+00  0.00000000000E+00  0.24973578138E+04  0.24973578138E+04  0.25500000000E-02 0. -1.
         -2   -1    0    0    0  501 -0.00000000000E+00 -0.00000000000E+00 -0.12460586845E+03  0.12460586847E+03  0.25500000000E-02 0.  1.
    8880022    1    1    2    0    0 -0.18783653023E+03  0.44462217499E+03  0.63611862673E+03  0.81302521540E+03  0.15294330000E+03 0.  0.
    8880022    1    1    2    0    0  0.18783653023E+03 -0.44462217499E+03  0.17366333186E+04  0.18089384669E+04  0.15294330000E+03 0.  0.
<mgrwt>
<rscale>  0 0.50632311E+03</rscale>
<asrwt>0</asrwt>
<pdfrwt beam="1">  1        2 0.38420890E+00 0.50632311E+03</pdfrwt>
<pdfrwt beam="2">  1       -2 0.19170133E-01 0.50632311E+03</pdfrwt>
<totfact> 0.86452980E+01</totfact>
</mgrwt>
</event>
<event>
 4    1  0.3365401E-008  0.1332886E+04  0.7818608E-02  0.9003885E-01
         -2   -1    0    0    0  501 -0.00000000000E+00  0.00000000000E+00  0.19815655122E+04  0.19815655122E+04  0.25500000000E-02 0.  1.
          2   -1    0    0  501    0  0.00000000000E+00 -0.00000000000E+00 -0.13768420522E+04  0.13768420522E+04  0.25500000000E-02 0. -1.
    8880022    1    1    2    0    0  0.16356448118E+03  0.13139406495E+04 -0.68940879999E+03  0.15006230427E+04  0.15294330000E+03 0.  0.
    8880022    1    1    2    0    0 -0.16356448118E+03 -0.13139406495E+04  0.12941322599E+04  0.18577845217E+04  0.15294330000E+03 0.  0.
<mgrwt>
<rscale>  0 0.13328860E+04</rscale>
<asrwt>0</asrwt>
<pdfrwt beam="1">  1        2 0.21182185E+00 0.13328860E+04</pdfrwt>
<pdfrwt beam="2">  1       -2 0.30485623E+00 0.13328860E+04</pdfrwt>
<totfact> 0.42514982E-01</totfact>
</mgrwt>
</event>
<event>
 4    1  0.3365401E-008  0.8281458E+03  0.7818608E-02  0.9520148E-01
          2   -1    0    0  501    0  0.00000000000E+00  0.00000000000E+00  0.88078498818E+03  0.88078498819E+03  0.25500000000E-02 0. -1.
         -2   -1    0    0    0  501 -0.00000000000E+00 -0.00000000000E+00 -0.79378772981E+03  0.79378772981E+03  0.25500000000E-02 0.  1.
    8880022    1    1    2    0    0  0.10008523757E+03 -0.80772319809E+03  0.15911403057E+03  0.84329280043E+03  0.15294330000E+03 0.  0.
    8880022    1    1    2    0    0 -0.10008523757E+03  0.80772319809E+03 -0.72116772195E+02  0.83127991757E+03  0.15294330000E+03 0.  0.
<mgrwt>
<rscale>  0 0.82814580E+03</rscale>
<asrwt>0</asrwt>
<pdfrwt beam="1">  1        2 0.13550538E+00 0.82814580E+03</pdfrwt>
<pdfrwt beam="2">  1       -2 0.12212119E+00 0.82814580E+03</pdfrwt>
<totfact> 0.15478203E+01</totfact>
</mgrwt>
</event>
<event>
 4    1  0.3365401E-008  0.5383043E+03  0.7818608E-02  0.1004238E+00
         -2   -1    0    0    0  501 -0.00000000000E+00  0.00000000000E+00  0.73396426239E+03  0.73396426240E+03  0.25500000000E-02 0.  1.
          2   -1    0    0  501    0  0.00000000000E+00 -0.00000000000E+00 -0.51414211683E+03  0.51414211684E+03  0.25500000000E-02 0. -1.
    8880022    1    1    2    0    0  0.50358437330E+03 -0.11306052468E+03 -0.19074554868E+03  0.57110018440E+03  0.15294330000E+03 0.  0.
    8880022    1    1    2    0    0 -0.50358437330E+03  0.11306052468E+03  0.41056769424E+03  0.67700619483E+03  0.15294330000E+03 0.  0.
<mgrwt>
<rscale>  0 0.53830433E+03</rscale>
<asrwt>0</asrwt>
<pdfrwt beam="1">  1        2 0.79098788E-01 0.53830433E+03</pdfrwt>
<pdfrwt beam="2">  1       -2 0.11291758E+00 0.53830433E+03</pdfrwt>
<totfact> 0.37875738E+01</totfact>
</mgrwt>
</event>
<event>
 4    1  0.3365401E-008  0.3072223E+03  0.7818608E-02  0.1081685E+00
          2   -1    0    0  501    0  0.00000000000E+00  0.00000000000E+00  0.61629963131E+03  0.61629963132E+03  0.25500000000E-02 0. -1.
         -2   -1    0    0    0  501 -0.00000000000E+00 -0.00000000000E+00 -0.26569028089E+03  0.26569028090E+03  0.25500000000E-02 0.  1.
    8880022    1    1    2    0    0 -0.19874347959E+03 -0.17746804988E+03 -0.11170871122E+03  0.32690116027E+03  0.15294330000E+03 0.  1.
    8880022    1    1    2    0    0  0.19874347959E+03  0.17746804988E+03  0.46231806164E+03  0.55508875195E+03  0.15294330000E+03 0.  0.
<mgrwt>
<rscale>  0 0.30722229E+03</rscale>
<asrwt>0</asrwt>
<pdfrwt beam="1">  1        2 0.94815328E-01 0.30722229E+03</pdfrwt>
<pdfrwt beam="2">  1       -2 0.40875428E-01 0.30722229E+03</pdfrwt>
<totfact> 0.28084453E+02</totfact>
</mgrwt>
</event>
<event>
 4    1  0.3365401E-008  0.8459124E+03  0.7818608E-02  0.9495840E-01
         -2   -1    0    0    0  501 -0.00000000000E+00  0.00000000000E+00  0.92051134711E+03  0.92051134712E+03  0.25500000000E-02 0.  1.
          2   -1    0    0  501    0  0.00000000000E+00 -0.00000000000E+00 -0.15878608801E+04  0.15878608801E+04  0.25500000000E-02 0. -1.
    8880022    1    1    2    0    0  0.28631119645E+02 -0.83147839925E+03  0.56237636686E+03  0.10157927448E+04  0.15294330000E+03 0.  0.
    8880022    1    1    2    0    0 -0.28631119645E+02  0.83147839925E+03 -0.12297258998E+04  0.14925794823E+04  0.15294330000E+03 0.  0.
<mgrwt>
<rscale>  0 0.84591236E+03</rscale>
<asrwt>0</asrwt>
<pdfrwt beam="1">  1        2 0.24428629E+00 0.84591236E+03</pdfrwt>
<pdfrwt beam="2">  1       -2 0.14161713E+00 0.84591236E+03</pdfrwt>
<totfact> 0.40010800E+00</totfact>
</mgrwt>
</event>
<event>
 4    1  0.3365401E-008  0.3174260E+03  0.7818608E-02  0.1076840E+00
          2   -1    0    0  501    0  0.00000000000E+00  0.00000000000E+00  0.16071747079E+04  0.16071747079E+04  0.25500000000E-02 0. -1.
         -2   -1    0    0    0  501 -0.00000000000E+00 -0.00000000000E+00 -0.15341658881E+03  0.15341658883E+03  0.25500000000E-02 0.  1.
    8880022    1    1    2    0    0 -0.73119793768E+02 -0.26836753017E+03  0.14038210986E+04  0.14392612568E+04  0.15294330000E+03 0.  0.
    8880022    1    1    2    0    0  0.73119793768E+02  0.26836753017E+03  0.49937020431E+02  0.32133003986E+03  0.15294330000E+03 0.  0.
<mgrwt>
<rscale>  0 0.31742604E+03</rscale>
<asrwt>0</asrwt>
<pdfrwt beam="1">  1        2 0.24725764E+00 0.31742604E+03</pdfrwt>
<pdfrwt beam="2">  1       -2 0.23602553E-01 0.31742604E+03</pdfrwt>
<totfact> 0.18813287E+02</totfact>
</mgrwt>
</event>
<event>
 4    1  0.3365401E-008  0.3928452E+03  0.7818608E-02  0.1046286E+00
         -2   -1    0    0    0  501 -0.00000000000E+00  0.00000000000E+00  0.36125029960E+03  0.36125029961E+03  0.25500000000E-02 0.  1.
          2   -1    0    0  501    0  0.00000000000E+00 -0.00000000000E+00 -0.27640777625E+04  0.27640777625E+04  0.25500000000E-02 0. -1.
    8880022    1    1    2    0    0  0.34452911271E+03 -0.11061386749E+03 -0.26382529071E+04  0.26673405842E+04  0.15294330000E+03 0. -1.
    8880022    1    1    2    0    0 -0.34452911271E+03  0.11061386749E+03  0.23542544418E+03  0.45798747795E+03  0.15294330000E+03 0.  0.
<mgrwt>
<rscale>  0 0.39284525E+03</rscale>
<asrwt>0</asrwt>
<pdfrwt beam="1">  1        2 0.42524272E+00 0.39284525E+03</pdfrwt>
<pdfrwt beam="2">  1       -2 0.55576971E-01 0.39284525E+03</pdfrwt>
<totfact> 0.85373345E+00</totfact>
</mgrwt>
</event>
<event>
 4    1  0.3365401E-008  0.2654900E+03  0.7818608E-02  0.1103889E+00
         -2   -1    0    0    0  501 -0.00000000000E+00  0.00000000000E+00  0.37174257093E+03  0.37174257094E+03  0.25500000000E-02 0.  1.
          2   -1    0    0  501    0  0.00000000000E+00 -0.00000000000E+00 -0.24226320478E+03  0.24226320480E+03  0.25500000000E-02 0. -1.
    8880022    1    1    2    0    0 -0.12609594012E+03 -0.17661561316E+03  0.20786761397E+03  0.33718519967E+03  0.15294330000E+03 0.  1.
    8880022    1    1    2    0    0  0.12609594012E+03  0.17661561316E+03 -0.78388247817E+02  0.27682057607E+03  0.15294330000E+03 0. -1.
<mgrwt>
<rscale>  0 0.26548995E+03</rscale>
<asrwt>0</asrwt>
<pdfrwt beam="1">  1        2 0.37271263E-01 0.26548995E+03</pdfrwt>
<pdfrwt beam="2">  1       -2 0.57191164E-01 0.26548995E+03</pdfrwt>
<totfact> 0.40512269E+02</totfact>
</mgrwt>
</event>
<event>
 4    1  0.3365401E-008  0.1190836E+04  0.7818608E-02  0.9120916E-01
         -2   -1    0    0    0  501 -0.00000000000E+00  0.00000000000E+00  0.15319986662E+04  0.15319986662E+04  0.25500000000E-02 0.  1.
          2   -1    0    0  501    0  0.00000000000E+00 -0.00000000000E+00 -0.15173972953E+04  0.15173972953E+04  0.25500000000E-02 0. -1.
    8880022    1    1    2    0    0 -0.96841823924E+03 -0.67591746186E+03 -0.94484503030E+03  0.15201388376E+04  0.15294330000E+03 0.  0.
    8880022    1    1    2    0    0  0.96841823924E+03  0.67591746186E+03  0.95944640121E+03  0.15292571240E+04  0.15294330000E+03 0.  0.
<mgrwt>
<rscale>  0 0.11908358E+04</rscale>
<asrwt>0</asrwt>
<pdfrwt beam="1">  1        2 0.23344574E+00 0.11908358E+04</pdfrwt>
<pdfrwt beam="2">  1       -2 0.23569210E+00 0.11908358E+04</pdfrwt>
<totfact> 0.95027476E-01</totfact>
</mgrwt>
</event>
<event>
 4    1  0.3365401E-008  0.8216685E+03  0.7818608E-02  0.9529172E-01
          2   -1    0    0  501    0  0.00000000000E+00  0.00000000000E+00  0.96486462330E+03  0.96486462330E+03  0.25500000000E-02 0. -1.
         -2   -1    0    0    0  501 -0.00000000000E+00 -0.00000000000E+00 -0.99778441157E+03  0.99778441157E+03  0.25500000000E-02 0.  1.
    8880022    1    1    2    0    0  0.61249538021E+03  0.52592478992E+03  0.51988764634E+03  0.97232828471E+03  0.15294330000E+03 0.  0.
    8880022    1    1    2    0    0 -0.61249538021E+03 -0.52592478992E+03 -0.55280743461E+03  0.99032075016E+03  0.15294330000E+03 0.  0.
<mgrwt>
<rscale>  0 0.82166850E+03</rscale>
<asrwt>0</asrwt>
<pdfrwt beam="1">  1        2 0.14844071E+00 0.82166850E+03</pdfrwt>
<pdfrwt beam="2">  1       -2 0.15350529E+00 0.82166850E+03</pdfrwt>
<totfact> 0.75509936E+00</totfact>
</mgrwt>
</event>
<event>
 4    1  0.3365401E-008  0.6405871E+03  0.7818608E-02  0.9824604E-01
         -2   -1    0    0    0  501 -0.00000000000E+00  0.00000000000E+00  0.12029334424E+04  0.12029334424E+04  0.25500000000E-02 0.  1.
          2   -1    0    0  501    0  0.00000000000E+00 -0.00000000000E+00 -0.56063080556E+03  0.56063080556E+03  0.25500000000E-02 0. -1.
    8880022    1    1    2    0    0  0.35366487768E+03 -0.51174344972E+03 -0.23060185696E+03  0.68082969492E+03  0.15294330000E+03 0.  0.
    8880022    1    1    2    0    0 -0.35366487768E+03  0.51174344972E+03  0.87290449381E+03  0.10827345530E+04  0.15294330000E+03 0.  0.
<mgrwt>
<rscale>  0 0.64058712E+03</rscale>
<asrwt>0</asrwt>
<pdfrwt beam="1">  1        2 0.86250893E-01 0.64058712E+03</pdfrwt>
<pdfrwt beam="2">  1       -2 0.18506668E+00 0.64058712E+03</pdfrwt>
<totfact> 0.92853566E+00</totfact>
</mgrwt>
</event>
<event>
 4    1  0.3365401E-008  0.3433509E+03  0.7818608E-02  0.1065378E+00
         -2   -1    0    0    0  501 -0.00000000000E+00  0.00000000000E+00  0.29396741962E+03  0.29396741964E+03  0.25500000000E-02 0.  1.
          2   -1    0    0  501    0  0.00000000000E+00 -0.00000000000E+00 -0.62143990055E+03  0.62143990056E+03  0.25500000000E-02 0. -1.
    8880022    1    1    2    0    0 -0.22950844018E+03 -0.20450927634E+03 -0.43632010418E+03  0.55521622324E+03  0.15294330000E+03 0.  0.
    8880022    1    1    2    0    0  0.22950844018E+03  0.20450927634E+03  0.10884762325E+03  0.36019109695E+03  0.15294330000E+03 0.  0.
<mgrwt>
<rscale>  0 0.34335087E+03</rscale>
<asrwt>0</asrwt>
<pdfrwt beam="1">  1        2 0.95606138E-01 0.34335087E+03</pdfrwt>
<pdfrwt beam="2">  1       -2 0.45225757E-01 0.34335087E+03</pdfrwt>
<totfact> 0.22765549E+02</totfact>
</mgrwt>
</event>
<event>
 4    1  0.3365401E-008  0.4802398E+03  0.7818608E-02  0.1019069E+00
         -2   -1    0    0    0  501 -0.00000000000E+00  0.00000000000E+00  0.23377032858E+03  0.23377032860E+03  0.25500000000E-02 0.  1.
          2   -1    0    0  501    0  0.00000000000E+00 -0.00000000000E+00 -0.18738710560E+04  0.18738710560E+04  0.25500000000E-02 0. -1.
    8880022    1    1    2    0    0  0.98336126762E+02 -0.44448694590E+03 -0.15452087840E+04  0.16181163364E+04  0.15294330000E+03 0. -1.
    8880022    1    1    2    0    0 -0.98336126762E+02  0.44448694590E+03 -0.94891943423E+02  0.48952504823E+03  0.15294330000E+03 0.  0.
<mgrwt>
<rscale>  0 0.48023983E+03</rscale>
<asrwt>0</asrwt>
<pdfrwt beam="1">  1        2 0.28828785E+00 0.48023983E+03</pdfrwt>
<pdfrwt beam="2">  1       -2 0.35964667E-01 0.48023983E+03</pdfrwt>
<totfact> 0.60879513E+01</totfact>
</mgrwt>
</event>
<event>
 4    1  0.3365401E-008  0.7254493E+03  0.7818608E-02  0.9674674E-01
          2   -1    0    0  501    0  0.00000000000E+00  0.00000000000E+00  0.18358047747E+04  0.18358047747E+04  0.25500000000E-02 0. -1.
         -2   -1    0    0    0  501 -0.00000000000E+00 -0.00000000000E+00 -0.42692807017E+03  0.42692807018E+03  0.25500000000E-02 0.  1.
    8880022    1    1    2    0    0  0.26678978490E+02  0.70864183575E+03  0.55976603486E+02  0.72760569845E+03  0.15294330000E+03 0.  0.
    8880022    1    1    2    0    0 -0.26678978490E+02 -0.70864183575E+03  0.13529001011E+04  0.15351271464E+04  0.15294330000E+03 0.  0.
<mgrwt>
<rscale>  0 0.72544929E+03</rscale>
<asrwt>0</asrwt>
<pdfrwt beam="1">  1        2 0.28243150E+00 0.72544929E+03</pdfrwt>
<pdfrwt beam="2">  1       -2 0.65681243E-01 0.72544929E+03</pdfrwt>
<totfact> 0.18196780E+01</totfact>
</mgrwt>
</event>
<event>
 4    1  0.3365401E-008  0.5803571E+03  0.7818608E-02  0.9947018E-01
          2   -1    0    0  501    0  0.00000000000E+00  0.00000000000E+00  0.28442700166E+03  0.28442700167E+03  0.25500000000E-02 0. -1.
         -2   -1    0    0    0  501 -0.00000000000E+00 -0.00000000000E+00 -0.16860920505E+04  0.16860920505E+04  0.25500000000E-02 0.  1.
    8880022    1    1    2    0    0 -0.47286918617E+03  0.29969560571E+03 -0.12383856179E+04  0.13676305476E+04  0.15294330000E+03 0.  0.
    8880022    1    1    2    0    0  0.47286918617E+03 -0.29969560571E+03 -0.16327943099E+03  0.60288850454E+03  0.15294330000E+03 0.  0.
<mgrwt>
<rscale>  0 0.58035711E+03</rscale>
<asrwt>0</asrwt>
<pdfrwt beam="1">  1        2 0.43758001E-01 0.58035711E+03</pdfrwt>
<pdfrwt beam="2">  1       -2 0.25939877E+00 0.58035711E+03</pdfrwt>
<totfact> 0.69003464E+00</totfact>
</mgrwt>
</event>
<event>
 4    1  0.3365401E-008  0.2165833E+03  0.7818608E-02  0.1136456E+00
          2   -1    0    0  501    0  0.00000000000E+00  0.00000000000E+00  0.92969544175E+03  0.92969544175E+03  0.25500000000E-02 0. -1.
         -2   -1    0    0    0  501 -0.00000000000E+00 -0.00000000000E+00 -0.21180978192E+03  0.21180978194E+03  0.25500000000E-02 0.  1.
    8880022    1    1    2    0    0 -0.66297416812E+00  0.15335006818E+03  0.85709843554E+03  0.88403962816E+03  0.15294330000E+03 0. -1.
    8880022    1    1    2    0    0  0.66297416812E+00 -0.15335006818E+03 -0.13921277571E+03  0.25746559553E+03  0.15294330000E+03 0.  0.
<mgrwt>
<rscale>  0 0.21658332E+03</rscale>
<asrwt>0</asrwt>
<pdfrwt beam="1">  1        2 0.14303007E+00 0.21658332E+03</pdfrwt>
<pdfrwt beam="2">  1       -2 0.32586120E-01 0.21658332E+03</pdfrwt>
<totfact> 0.25941180E+02</totfact>
</mgrwt>
</event>
<event>
 4    1  0.3365401E-008  0.7817023E+03  0.7818608E-02  0.9586886E-01
         -2   -1    0    0    0  501 -0.00000000000E+00  0.00000000000E+00  0.35199564628E+03  0.35199564629E+03  0.25500000000E-02 0.  1.
          2   -1    0    0  501    0  0.00000000000E+00 -0.00000000000E+00 -0.26289772811E+04  0.26289772811E+04  0.25500000000E-02 0. -1.
    8880022    1    1    2    0    0  0.15014369641E+03 -0.75174713943E+03 -0.20071689697E+04  0.21540162063E+04  0.15294330000E+03 0.  0.
    8880022    1    1    2    0    0 -0.15014369641E+03  0.75174713943E+03 -0.26981266511E+03  0.82695672104E+03  0.15294330000E+03 0.  0.
<mgrwt>
<rscale>  0 0.78170234E+03</rscale>
<asrwt>0</asrwt>
<pdfrwt beam="1">  1        2 0.40445803E+00 0.78170234E+03</pdfrwt>
<pdfrwt beam="2">  1       -2 0.54153178E-01 0.78170234E+03</pdfrwt>
<totfact> 0.98340194E+00</totfact>
</mgrwt>
</event>
<event>
 4    1  0.3365401E-008  0.5386957E+03  0.7818608E-02  0.1004145E+00
          2   -1    0    0  501    0  0.00000000000E+00  0.00000000000E+00  0.16457358358E+04  0.16457358358E+04  0.25500000000E-02 0. -1.
         -2   -1    0    0    0  501 -0.00000000000E+00 -0.00000000000E+00 -0.19414308242E+03  0.19414308244E+03  0.25500000000E-02 0.  1.
    8880022    1    1    2    0    0 -0.51603221087E+03  0.22630188896E+02  0.10044500074E+04  0.11397863126E+04  0.15294330000E+03 0.  0.
    8880022    1    1    2    0    0  0.51603221087E+03 -0.22630188896E+02  0.44714274595E+03  0.70009260557E+03  0.15294330000E+03 0.  1.
<mgrwt>
<rscale>  0 0.53869567E+03</rscale>
<asrwt>0</asrwt>
<pdfrwt beam="1">  1        2 0.25319012E+00 0.53869567E+03</pdfrwt>
<pdfrwt beam="2">  1       -2 0.29868167E-01 0.53869567E+03</pdfrwt>
<totfact> 0.11338871E+02</totfact>
</mgrwt>
</event>
<event>
 4    1  0.3365401E-008  0.1974407E+03  0.7818608E-02  0.1151916E+00
          2   -1    0    0  501    0  0.00000000000E+00  0.00000000000E+00  0.83194768422E+03  0.83194768422E+03  0.25500000000E-02 0. -1.
         -2   -1    0    0    0  501 -0.00000000000E+00 -0.00000000000E+00 -0.56428752597E+03  0.56428752597E+03  0.25500000000E-02 0.  1.
    8880022    1    1    2    0    0  0.19087790809E+02  0.12339708285E+03  0.80233445617E+03  0.82627078878E+03  0.15294330000E+03 0. -1.
    8880022    1    1    2    0    0 -0.19087790809E+02 -0.12339708285E+03 -0.53467429792E+03  0.56996442142E+03  0.15294330000E+03 0.  0.
<mgrwt>
<rscale>  0 0.19744072E+03</rscale>
<asrwt>0</asrwt>
<pdfrwt beam="1">  1        2 0.12799195E+00 0.19744072E+03</pdfrwt>
<pdfrwt beam="2">  1       -2 0.86813465E-01 0.19744072E+03</pdfrwt>
<totfact> 0.41426471E+01</totfact>
</mgrwt>
</event>
<event>
 4    1  0.3365401E-008  0.6817142E+03  0.7818608E-02  0.9749025E-01
         -2   -1    0    0    0  501 -0.00000000000E+00  0.00000000000E+00  0.13754354659E+04  0.13754354659E+04  0.25500000000E-02 0.  1.
          2   -1    0    0  501    0  0.00000000000E+00 -0.00000000000E+00 -0.63808060187E+03  0.63808060187E+03  0.25500000000E-02 0. -1.
    8880022    1    1    2    0    0 -0.45258588531E+03  0.48632149886E+03  0.10592224670E+04  0.12596374365E+04  0.15294330000E+03 0.  0.
    8880022    1    1    2    0    0  0.45258588531E+03 -0.48632149886E+03 -0.32186760297E+03  0.75387863127E+03  0.15294330000E+03 0.  0.
<mgrwt>
<rscale>  0 0.68171419E+03</rscale>
<asrwt>0</asrwt>
<pdfrwt beam="1">  1        2 0.98166248E-01 0.68171419E+03</pdfrwt>
<pdfrwt beam="2">  1       -2 0.21160545E+00 0.68171419E+03</pdfrwt>
<totfact> 0.53073569E+00</totfact>
</mgrwt>
</event>
<event>
 4    1  0.3365401E-008  0.4300806E+03  0.7818608E-02  0.1033835E+00
         -2   -1    0    0    0  501 -0.00000000000E+00  0.00000000000E+00  0.20372109250E+03  0.20372109251E+03  0.25500000000E-02 0.  1.
          2   -1    0    0  501    0  0.00000000000E+00 -0.00000000000E+00 -0.14763509632E+04  0.14763509632E+04  0.25500000000E-02 0. -1.
    8880022    1    1    2    0    0 -0.33770865791E+03  0.21801489033E+03 -0.11575446480E+04  0.12348598687E+04  0.15294330000E+03 0.  0.
    8880022    1    1    2    0    0  0.33770865791E+03 -0.21801489033E+03 -0.11508522271E+03  0.44521218709E+03  0.15294330000E+03 0.  0.
<mgrwt>
<rscale>  0 0.43008055E+03</rscale>
<asrwt>0</asrwt>
<pdfrwt beam="1">  1        2 0.22713091E+00 0.43008055E+03</pdfrwt>
<pdfrwt beam="2">  1       -2 0.31341707E-01 0.43008055E+03</pdfrwt>
<totfact> 0.13021976E+02</totfact>
</mgrwt>
</event>
<event>
 4    1  0.3365401E-008  0.8076967E+03  0.7818608E-02  0.9548943E-01
          2   -1    0    0  501    0  0.00000000000E+00  0.00000000000E+00  0.11097015830E+04  0.11097015830E+04  0.25500000000E-02 0. -1.
         -2   -1    0    0    0  501 -0.00000000000E+00 -0.00000000000E+00 -0.14359518385E+04  0.14359518385E+04  0.25500000000E-02 0.  1.
    8880022    1    1    2    0    0  0.51459296234E+03  0.60347028724E+03 -0.11412967667E+04  0.13981889240E+04  0.15294330000E+03 0.  0.
    8880022    1    1    2    0    0 -0.51459296234E+03 -0.60347028724E+03  0.81504651123E+03  0.11474644975E+04  0.15294330000E+03 0.  0.
<mgrwt>
<rscale>  0 0.80769670E+03</rscale>
<asrwt>0</asrwt>
<pdfrwt beam="1">  1        2 0.17072332E+00 0.80769670E+03</pdfrwt>
<pdfrwt beam="2">  1       -2 0.22091567E+00 0.80769670E+03</pdfrwt>
<totfact> 0.21375652E+00</totfact>
</mgrwt>
</event>
<event>
 4    1  0.3365401E-008  0.5635464E+03  0.7818608E-02  0.9984062E-01
          2   -1    0    0  501    0  0.00000000000E+00  0.00000000000E+00  0.90650378333E+03  0.90650378334E+03  0.25500000000E-02 0. -1.
         -2   -1    0    0    0  501 -0.00000000000E+00 -0.00000000000E+00 -0.12760494404E+04  0.12760494404E+04  0.25500000000E-02 0.  1.
    8880022    1    1    2    0    0  0.54165980737E+03  0.28240007509E+02 -0.11142494118E+04  0.12486537750E+04  0.15294330000E+03 0.  0.
    8880022    1    1    2    0    0 -0.54165980737E+03 -0.28240007509E+02  0.74470375480E+03  0.93389944874E+03  0.15294330000E+03 0.  0.
<mgrwt>
<rscale>  0 0.56354636E+03</rscale>
<asrwt>0</asrwt>
<pdfrwt beam="1">  1        2 0.13946212E+00 0.56354636E+03</pdfrwt>
<pdfrwt beam="2">  1       -2 0.19631530E+00 0.56354636E+03</pdfrwt>
<totfact> 0.43024890E+00</totfact>
</mgrwt>
</event>
<event>
 4    1  0.3365401E-008  0.3074513E+03  0.7818608E-02  0.1081574E+00
          2   -1    0    0  501    0  0.00000000000E+00  0.00000000000E+00  0.11473650921E+04  0.11473650921E+04  0.25500000000E-02 0. -1.
         -2   -1    0    0    0  501 -0.00000000000E+00 -0.00000000000E+00 -0.44871329942E+03  0.44871329943E+03  0.25500000000E-02 0.  1.
    8880022    1    1    2    0    0 -0.23021544044E+03  0.13466813499E+03 -0.37173950594E+03  0.48240705726E+03  0.15294330000E+03 0.  0.
    8880022    1    1    2    0    0  0.23021544044E+03 -0.13466813499E+03  0.10703912986E+04  0.11136713342E+04  0.15294330000E+03 0. -1.
<mgrwt>
<rscale>  0 0.30745131E+03</rscale>
<asrwt>0</asrwt>
<pdfrwt beam="1">  1        2 0.17651771E+00 0.30745131E+03</pdfrwt>
<pdfrwt beam="2">  1       -2 0.69032816E-01 0.30745131E+03</pdfrwt>
<totfact> 0.42397443E+01</totfact>
</mgrwt>
</event>
<event>
 4    1  0.3365401E-008  0.2987694E+03  0.7818608E-02  0.1085857E+00
         -2   -1    0    0    0  501 -0.00000000000E+00  0.00000000000E+00  0.24708090389E+03  0.24708090390E+03  0.25500000000E-02 0.  1.
          2   -1    0    0  501    0  0.00000000000E+00 -0.00000000000E+00 -0.14064394336E+04  0.14064394336E+04  0.25500000000E-02 0. -1.
    8880022    1    1    2    0    0  0.11765248423E+03  0.22809950395E+03  0.13302964527E+03  0.32704744347E+03  0.15294330000E+03 0.  0.
    8880022    1    1    2    0    0 -0.11765248423E+03 -0.22809950395E+03 -0.12923881750E+04  0.13264728940E+04  0.15294330000E+03 0. -1.
<mgrwt>
<rscale>  0 0.29876938E+03</rscale>
<asrwt>0</asrwt>
<pdfrwt beam="1">  1        2 0.21637529E+00 0.29876938E+03</pdfrwt>
<pdfrwt beam="2">  1       -2 0.38012448E-01 0.29876938E+03</pdfrwt>
<totfact> 0.10134431E+02</totfact>
</mgrwt>
</event>
<event>
 4    1  0.3365401E-008  0.2454116E+03  0.7818608E-02  0.1116239E+00
         -2   -1    0    0    0  501 -0.00000000000E+00  0.00000000000E+00  0.13364652376E+03  0.13364652378E+03  0.25500000000E-02 0.  1.
          2   -1    0    0  501    0  0.00000000000E+00 -0.00000000000E+00 -0.15634324517E+04  0.15634324517E+04  0.25500000000E-02 0. -1.
    8880022    1    1    2    0    0  0.12036024920E+03 -0.14949447042E+03 -0.14307710066E+04  0.14516654273E+04  0.15294330000E+03 0. -1.
    8880022    1    1    2    0    0 -0.12036024920E+03  0.14949447042E+03  0.98507865934E+00  0.24541354825E+03  0.15294330000E+03 0.  0.
<mgrwt>
<rscale>  0 0.24541157E+03</rscale>
<asrwt>0</asrwt>
<pdfrwt beam="1">  1        2 0.24052806E+00 0.24541157E+03</pdfrwt>
<pdfrwt beam="2">  1       -2 0.20561005E-01 0.24541157E+03</pdfrwt>
<totfact> 0.25601205E+02</totfact>
</mgrwt>
</event>
<event>
 4    1  0.3365401E-008  0.8244337E+03  0.7818608E-02  0.9525308E-01
         -2   -1    0    0    0  501 -0.00000000000E+00  0.00000000000E+00  0.63444024631E+03  0.63444024631E+03  0.25500000000E-02 0.  1.
          2   -1    0    0  501    0  0.00000000000E+00 -0.00000000000E+00 -0.11284330038E+04  0.11284330038E+04  0.25500000000E-02 0. -1.
    8880022    1    1    2    0    0  0.19181009663E+03  0.78708842646E+03 -0.44528880423E+03  0.93700217525E+03  0.15294330000E+03 0.  0.
    8880022    1    1    2    0    0 -0.19181009663E+03 -0.78708842646E+03 -0.48703953275E+02  0.82587107488E+03  0.15294330000E+03 0.  0.
<mgrwt>
<rscale>  0 0.82443372E+03</rscale>
<asrwt>0</asrwt>
<pdfrwt beam="1">  1        2 0.17360508E+00 0.82443372E+03</pdfrwt>
<pdfrwt beam="2">  1       -2 0.97606192E-01 0.82443372E+03</pdfrwt>
<totfact> 0.18490537E+01</totfact>
</mgrwt>
</event>
<event>
 4    1  0.4031236E-008  0.7817097E+03  0.7818608E-02  0.9586876E-01
         -2   -1    0    0    0  501 -0.00000000000E+00  0.00000000000E+00  0.86438941572E+03  0.86438941573E+03  0.25500000000E-02 0.  1.
          2   -1    0    0  501    0  0.00000000000E+00 -0.00000000000E+00 -0.18774883929E+04  0.18774883929E+04  0.25500000000E-02 0. -1.
    8880022    1    1    2    0    0 -0.16648480807E+03  0.74830555093E+03  0.57594192468E+03  0.97096814700E+03  0.15294330000E+03 0.  0.
    8880022    1    1    2    0    0  0.16648480807E+03 -0.74830555093E+03 -0.15890409019E+04  0.17709096617E+04  0.15294330000E+03 0.  0.
<mgrwt>
<rscale>  0 0.78170969E+03</rscale>
<asrwt>0</asrwt>
<pdfrwt beam="1">  1        2 0.28884437E+00 0.78170969E+03</pdfrwt>
<pdfrwt beam="2">  1       -2 0.13298299E+00 0.78170969E+03</pdfrwt>
<totfact> 0.32951450E+00</totfact>
</mgrwt>
</event>
<event>
 4    1  0.3365401E-008  0.1152459E+04  0.7818608E-02  0.9155518E-01
         -2   -1    0    0    0  501 -0.00000000000E+00  0.00000000000E+00  0.10062425983E+04  0.10062425983E+04  0.25500000000E-02 0.  1.
          2   -1    0    0  501    0  0.00000000000E+00 -0.00000000000E+00 -0.16672372759E+04  0.16672372760E+04  0.25500000000E-02 0. -1.
    8880022    1    1    2    0    0  0.85682122524E+03  0.75539901440E+03 -0.94061000365E+03  0.14875849942E+04  0.15294330000E+03 0.  0.
    8880022    1    1    2    0    0 -0.85682122524E+03 -0.75539901440E+03  0.27961532598E+03  0.11858948800E+04  0.15294330000E+03 0.  0.
<mgrwt>
<rscale>  0 0.11524591E+04</rscale>
<asrwt>0</asrwt>
<pdfrwt beam="1">  1        2 0.25649804E+00 0.11524591E+04</pdfrwt>
<pdfrwt beam="2">  1       -2 0.15480655E+00 0.11524591E+04</pdfrwt>
<totfact> 0.27513242E+00</totfact>
</mgrwt>
</event>
<event>
 4    1  0.3365401E-008  0.7170138E+03  0.7818608E-02  0.9688571E-01
          2   -1    0    0  501    0  0.00000000000E+00  0.00000000000E+00  0.66867325334E+03  0.66867325335E+03  0.25500000000E-02 0. -1.
         -2   -1    0    0    0  501 -0.00000000000E+00 -0.00000000000E+00 -0.14033608102E+04  0.14033608102E+04  0.25500000000E-02 0.  1.
    8880022    1    1    2    0    0  0.51557860915E+03 -0.47423187608E+03  0.32928601515E+03  0.78901084105E+03  0.15294330000E+03 0.  0.
    8880022    1    1    2    0    0 -0.51557860915E+03  0.47423187608E+03 -0.10639735720E+04  0.12830232225E+04  0.15294330000E+03 0.  0.
<mgrwt>
<rscale>  0 0.71701383E+03</rscale>
<asrwt>0</asrwt>
<pdfrwt beam="1">  1        2 0.10287281E+00 0.71701383E+03</pdfrwt>
<pdfrwt beam="2">  1       -2 0.21590166E+00 0.71701383E+03</pdfrwt>
<totfact> 0.46827140E+00</totfact>
</mgrwt>
</event>
<event>
 4    1  0.3365401E-008  0.2500662E+03  0.7818608E-02  0.1113263E+00
          2   -1    0    0  501    0  0.00000000000E+00  0.00000000000E+00  0.14769090260E+04  0.14769090260E+04  0.25500000000E-02 0. -1.
         -2   -1    0    0    0  501 -0.00000000000E+00 -0.00000000000E+00 -0.62449413931E+02  0.62449413983E+02  0.25500000000E-02 0.  1.
    8880022    1    1    2    0    0  0.12360978753E+03 -0.15447348486E+03  0.27047296713E+03  0.36835949297E+03  0.15294330000E+03 0.  1.
    8880022    1    1    2    0    0 -0.12360978753E+03  0.15447348486E+03  0.11439866449E+04  0.11709989470E+04  0.15294330000E+03 0.  1.
<mgrwt>
<rscale>  0 0.25006617E+03</rscale>
<asrwt>0</asrwt>
<pdfrwt beam="1">  1        2 0.22721679E+00 0.25006617E+03</pdfrwt>
<pdfrwt beam="2">  1       -2 0.96076014E-02 0.25006617E+03</pdfrwt>
<totfact> 0.99667441E+02</totfact>
</mgrwt>
</event>
<event>
 4    1  0.3365401E-008  0.5775301E+03  0.7818608E-02  0.9953153E-01
         -2   -1    0    0    0  501 -0.00000000000E+00  0.00000000000E+00  0.38763480785E+03  0.38763480786E+03  0.25500000000E-02 0.  1.
          2   -1    0    0  501    0  0.00000000000E+00 -0.00000000000E+00 -0.12620696850E+04  0.12620696850E+04  0.25500000000E-02 0. -1.
    8880022    1    1    2    0    0 -0.46953214756E+03  0.29948100808E+03  0.28091248341E+02  0.57821283541E+03  0.15294330000E+03 0.  0.
    8880022    1    1    2    0    0  0.46953214756E+03 -0.29948100808E+03 -0.90252612553E+03  0.10714916575E+04  0.15294330000E+03 0.  0.
<mgrwt>
<rscale>  0 0.57753006E+03</rscale>
<asrwt>0</asrwt>
<pdfrwt beam="1">  1        2 0.19416457E+00 0.57753006E+03</pdfrwt>
<pdfrwt beam="2">  1       -2 0.59636125E-01 0.57753006E+03</pdfrwt>
<totfact> 0.47403102E+01</totfact>
</mgrwt>
</event>
<event>
 4    1  0.3365401E-008  0.4709777E+03  0.7818608E-02  0.1021645E+00
          2   -1    0    0  501    0  0.00000000000E+00  0.00000000000E+00  0.99034550070E+03  0.99034550070E+03  0.25500000000E-02 0. -1.
         -2   -1    0    0    0  501 -0.00000000000E+00 -0.00000000000E+00 -0.43583356243E+03  0.43583356244E+03  0.25500000000E-02 0.  1.
    8880022    1    1    2    0    0  0.12877435539E+03  0.42643348958E+03 -0.21990737750E+03  0.51978770987E+03  0.15294330000E+03 0.  0.
    8880022    1    1    2    0    0 -0.12877435539E+03 -0.42643348958E+03  0.77441931576E+03  0.90639135327E+03  0.15294330000E+03 0.  0.
<mgrwt>
<rscale>  0 0.47097772E+03</rscale>
<asrwt>0</asrwt>
<pdfrwt beam="1">  1        2 0.15236084E+00 0.47097772E+03</pdfrwt>
<pdfrwt beam="2">  1       -2 0.67051318E-01 0.47097772E+03</pdfrwt>
<totfact> 0.54560675E+01</totfact>
</mgrwt>
</event>
<event>
 4    1  0.3365401E-008  0.8299491E+03  0.7818608E-02  0.9517651E-01
          2   -1    0    0  501    0  0.00000000000E+00  0.00000000000E+00  0.30973186896E+04  0.30973186896E+04  0.25500000000E-02 0. -1.
         -2   -1    0    0    0  501 -0.00000000000E+00 -0.00000000000E+00 -0.76079386235E+03  0.76079386236E+03  0.25500000000E-02 0.  1.
    8880022    1    1    2    0    0 -0.77233822217E+03  0.26252134817E+03  0.27910628813E+04  0.29118460550E+04  0.15294330000E+03 0. -1.
    8880022    1    1    2    0    0  0.77233822217E+03 -0.26252134817E+03 -0.45453805405E+03  0.94626649696E+03  0.15294330000E+03 0.  0.
<mgrwt>
<rscale>  0 0.82994906E+03</rscale>
<asrwt>0</asrwt>
<pdfrwt beam="1">  1        2 0.47651057E+00 0.82994906E+03</pdfrwt>
<pdfrwt beam="2">  1       -2 0.11704521E+00 0.82994906E+03</pdfrwt>
<totfact> 0.89889881E-01</totfact>
</mgrwt>
</event>
<event>
 4    1  0.3365401E-008  0.1559514E+03  0.7818608E-02  0.1193345E+00
          2   -1    0    0  501    0  0.00000000000E+00  0.00000000000E+00  0.56707522752E+03  0.56707522753E+03  0.25500000000E-02 0. -1.
         -2   -1    0    0    0  501 -0.00000000000E+00 -0.00000000000E+00 -0.51410812790E+02  0.51410812853E+02  0.25500000000E-02 0.  1.
    8880022    1    1    2    0    0 -0.28079313735E+02  0.11862664072E+02  0.38374202482E+03  0.41422067221E+03  0.15294330000E+03 0. -1.
    8880022    1    1    2    0    0  0.28079313735E+02 -0.11862664072E+02  0.13192238991E+03  0.20426536817E+03  0.15294330000E+03 0.  0.
<mgrwt>
<rscale>  0 0.15595135E+03</rscale>
<asrwt>0</asrwt>
<pdfrwt beam="1">  1        2 0.87242344E-01 0.15595135E+03</pdfrwt>
<pdfrwt beam="2">  1       -2 0.79093557E-02 0.15595135E+03</pdfrwt>
<totfact> 0.50451176E+03</totfact>
</mgrwt>
</event>
<event>
 4    1  0.3365401E-008  0.7058034E+03  0.7818608E-02  0.9707359E-01
          2   -1    0    0  501    0  0.00000000000E+00  0.00000000000E+00  0.37825444714E+04  0.37825444714E+04  0.25500000000E-02 0. -1.
         -2   -1    0    0    0  501 -0.00000000000E+00 -0.00000000000E+00 -0.29284789593E+03  0.29284789594E+03  0.25500000000E-02 0.  1.
    8880022    1    1    2    0    0 -0.58896941338E+03  0.35760576412E+03  0.32564299844E+04  0.33320406283E+04  0.15294330000E+03 0.  0.
    8880022    1    1    2    0    0  0.58896941338E+03 -0.35760576412E+03  0.23326659113E+03  0.74335173908E+03  0.15294330000E+03 0.  0.
<mgrwt>
<rscale>  0 0.70580345E+03</rscale>
<asrwt>0</asrwt>
<pdfrwt beam="1">  1        2 0.58192987E+00 0.70580345E+03</pdfrwt>
<pdfrwt beam="2">  1       -2 0.45053526E-01 0.70580345E+03</pdfrwt>
<totfact> 0.26257157E+00</totfact>
</mgrwt>
</event>
<event>
 4    1  0.3365401E-008  0.3698388E+03  0.7818608E-02  0.1054755E+00
         -2   -1    0    0    0  501 -0.00000000000E+00  0.00000000000E+00  0.91358661766E+02  0.91358661802E+02  0.25500000000E-02 0.  1.
          2   -1    0    0  501    0  0.00000000000E+00 -0.00000000000E+00 -0.30362729505E+04  0.30362729505E+04  0.25500000000E-02 0. -1.
    8880022    1    1    2    0    0 -0.33659882721E+03  0.95034406823E+01 -0.35906786706E+03  0.51547111659E+03  0.15294330000E+03 0.  0.
    8880022    1    1    2    0    0  0.33659882721E+03 -0.95034406823E+01 -0.25858464216E+04  0.26121604957E+04  0.15294330000E+03 0.  0.
<mgrwt>
<rscale>  0 0.36983880E+03</rscale>
<asrwt>0</asrwt>
<pdfrwt beam="1">  1        2 0.46711884E+00 0.36983880E+03</pdfrwt>
<pdfrwt beam="2">  1       -2 0.14055181E-01 0.36983880E+03</pdfrwt>
<totfact> 0.73487518E+01</totfact>
</mgrwt>
</event>
<event>
 4    1  0.3365401E-008  0.2650819E+03  0.7818608E-02  0.1104128E+00
         -2   -1    0    0    0  501 -0.00000000000E+00  0.00000000000E+00  0.15027486604E+03  0.15027486606E+03  0.25500000000E-02 0.  1.
          2   -1    0    0  501    0  0.00000000000E+00 -0.00000000000E+00 -0.23008005033E+04  0.23008005033E+04  0.25500000000E-02 0. -1.
    8880022    1    1    2    0    0  0.23352735822E+02 -0.21524728860E+03 -0.21691997231E+04  0.21853365501E+04  0.15294330000E+03 0. -1.
    8880022    1    1    2    0    0 -0.23352735822E+02  0.21524728860E+03  0.18674085907E+02  0.26573881918E+03  0.15294330000E+03 0.  0.
<mgrwt>
<rscale>  0 0.26508187E+03</rscale>
<asrwt>0</asrwt>
<pdfrwt beam="1">  1        2 0.35396928E+00 0.26508187E+03</pdfrwt>
<pdfrwt beam="2">  1       -2 0.23119212E-01 0.26508187E+03</pdfrwt>
<totfact> 0.84847711E+01</totfact>
</mgrwt>
</event>
<event>
 4    1  0.3365401E-008  0.4500468E+03  0.7818608E-02  0.1027708E+00
         -2   -1    0    0    0  501 -0.00000000000E+00  0.00000000000E+00  0.41912030564E+03  0.41912030565E+03  0.25500000000E-02 0.  1.
          2   -1    0    0  501    0  0.00000000000E+00 -0.00000000000E+00 -0.23806777059E+04  0.23806777059E+04  0.25500000000E-02 0. -1.
    8880022    1    1    2    0    0  0.41641736244E+03 -0.75809353349E+02  0.26898644674E+03  0.52430510139E+03  0.15294330000E+03 0.  0.
    8880022    1    1    2    0    0 -0.41641736244E+03  0.75809353349E+02 -0.22305438470E+04  0.22754929101E+04  0.15294330000E+03 0. -1.
<mgrwt>
<rscale>  0 0.45004681E+03</rscale>
<asrwt>0</asrwt>
<pdfrwt beam="1">  1        2 0.36625810E+00 0.45004681E+03</pdfrwt>
<pdfrwt beam="2">  1       -2 0.64480049E-01 0.45004681E+03</pdfrwt>
<totfact> 0.10092236E+01</totfact>
</mgrwt>
</event>
<event>
 4    1  0.3365401E-008  0.4100580E+03  0.7818608E-02  0.1040352E+00
         -2   -1    0    0    0  501 -0.00000000000E+00  0.00000000000E+00  0.60937518164E+03  0.60937518165E+03  0.25500000000E-02 0.  1.
          2   -1    0    0  501    0  0.00000000000E+00 -0.00000000000E+00 -0.16745899909E+04  0.16745899909E+04  0.25500000000E-02 0. -1.
    8880022    1    1    2    0    0  0.31976337963E+03  0.20617289852E+03 -0.15762712498E+04  0.16287352728E+04  0.15294330000E+03 0.  0.
    8880022    1    1    2    0    0 -0.31976337963E+03 -0.20617289852E+03  0.51105644054E+03  0.65522989971E+03  0.15294330000E+03 0.  0.
<mgrwt>
<rscale>  0 0.41005797E+03</rscale>
<asrwt>0</asrwt>
<pdfrwt beam="1">  1        2 0.25762923E+00 0.41005797E+03</pdfrwt>
<pdfrwt beam="2">  1       -2 0.93750029E-01 0.41005797E+03</pdfrwt>
<totfact> 0.10683611E+01</totfact>
</mgrwt>
</event>
<event>
 4    1  0.3365401E-008  0.4505650E+03  0.7818608E-02  0.1027554E+00
          2   -1    0    0  501    0  0.00000000000E+00  0.00000000000E+00  0.27266286331E+04  0.27266286331E+04  0.25500000000E-02 0. -1.
         -2   -1    0    0    0  501 -0.00000000000E+00 -0.00000000000E+00 -0.21320871692E+03  0.21320871693E+03  0.25500000000E-02 0.  1.
    8880022    1    1    2    0    0  0.40758464974E+03 -0.11615482521E+03  0.24425181807E+04  0.24837278245E+04  0.15294330000E+03 0.  0.
    8880022    1    1    2    0    0 -0.40758464974E+03  0.11615482521E+03  0.70901735417E+02  0.45610952547E+03  0.15294330000E+03 0.  0.
<mgrwt>
<rscale>  0 0.45056503E+03</rscale>
<asrwt>0</asrwt>
<pdfrwt beam="1">  1        2 0.41948129E+00 0.45056503E+03</pdfrwt>
<pdfrwt beam="2">  1       -2 0.32801344E-01 0.45056503E+03</pdfrwt>
<totfact> 0.24757159E+01</totfact>
</mgrwt>
</event>
<event>
 4    1  0.3365401E-008  0.7157632E+03  0.7818608E-02  0.9690648E-01
         -2   -1    0    0    0  501 -0.00000000000E+00  0.00000000000E+00  0.49836697513E+03  0.49836697513E+03  0.25500000000E-02 0.  1.
          2   -1    0    0  501    0  0.00000000000E+00 -0.00000000000E+00 -0.15811779573E+04  0.15811779573E+04  0.25500000000E-02 0. -1.
    8880022    1    1    2    0    0  0.64447257661E+03 -0.27125716633E+03  0.73606684964E+02  0.71953801107E+03  0.15294330000E+03 0.  0.
    8880022    1    1    2    0    0 -0.64447257661E+03  0.27125716633E+03 -0.11564176672E+04  0.13600069214E+04  0.15294330000E+03 0.  0.
<mgrwt>
<rscale>  0 0.71576323E+03</rscale>
<asrwt>0</asrwt>
<pdfrwt beam="1">  1        2 0.24325814E+00 0.71576323E+03</pdfrwt>
<pdfrwt beam="2">  1       -2 0.76671843E-01 0.71576323E+03</pdfrwt>
<totfact> 0.17896170E+01</totfact>
</mgrwt>
</event>
<event>
 4    1  0.3365401E-008  0.2703817E+03  0.7818608E-02  0.1101061E+00
          2   -1    0    0  501    0  0.00000000000E+00  0.00000000000E+00  0.90674319441E+03  0.90674319441E+03  0.25500000000E-02 0. -1.
         -2   -1    0    0    0  501 -0.00000000000E+00 -0.00000000000E+00 -0.45028581988E+03  0.45028581989E+03  0.25500000000E-02 0.  1.
    8880022    1    1    2    0    0 -0.75351560687E+02  0.20984941512E+03 -0.38654693388E+03  0.47172536484E+03  0.15294330000E+03 0.  0.
    8880022    1    1    2    0    0  0.75351560687E+02 -0.20984941512E+03  0.84300430841E+03  0.88530364946E+03  0.15294330000E+03 0.  0.
<mgrwt>
<rscale>  0 0.27038174E+03</rscale>
<asrwt>0</asrwt>
<pdfrwt beam="1">  1        2 0.13949895E+00 0.27038174E+03</pdfrwt>
<pdfrwt beam="2">  1       -2 0.69274743E-01 0.27038174E+03</pdfrwt>
<totfact> 0.59524747E+01</totfact>
</mgrwt>
</event>
<event>
 4    1  0.3365401E-008  0.2019832E+03  0.7818608E-02  0.1148076E+00
         -2   -1    0    0    0  501 -0.00000000000E+00  0.00000000000E+00  0.96298130755E+02  0.96298130789E+02  0.25500000000E-02 0.  1.
          2   -1    0    0  501    0  0.00000000000E+00 -0.00000000000E+00 -0.36167926581E+04  0.36167926581E+04  0.25500000000E-02 0. -1.
    8880022    1    1    2    0    0 -0.41815847212E+02  0.12512796624E+03 -0.15821235798E+02  0.20260191887E+03  0.15294330000E+03 0.  0.
    8880022    1    1    2    0    0  0.41815847212E+02 -0.12512796624E+03 -0.35046732916E+04  0.35104888700E+04  0.15294330000E+03 0.  0.
<mgrwt>
<rscale>  0 0.20198323E+03</rscale>
<asrwt>0</asrwt>
<pdfrwt beam="1">  1        2 0.55642953E+00 0.20198323E+03</pdfrwt>
<pdfrwt beam="2">  1       -2 0.14815100E-01 0.20198323E+03</pdfrwt>
<totfact> 0.30952839E+01</totfact>
</mgrwt>
</event>
<event>
 4    1  0.3365401E-008  0.1288955E+04  0.7818608E-02  0.9038370E-01
          2   -1    0    0  501    0  0.00000000000E+00  0.00000000000E+00  0.24504234370E+04  0.24504234370E+04  0.25500000000E-02 0. -1.
         -2   -1    0    0    0  501 -0.00000000000E+00 -0.00000000000E+00 -0.11343285515E+04  0.11343285515E+04  0.25500000000E-02 0.  1.
    8880022    1    1    2    0    0 -0.89683184428E+03 -0.91307510597E+03 -0.47878117907E+03  0.13750042096E+04  0.15294330000E+03 0.  0.
    8880022    1    1    2    0    0  0.89683184428E+03  0.91307510597E+03  0.17948760646E+04  0.22097477789E+04  0.15294330000E+03 0.  0.
<mgrwt>
<rscale>  0 0.12889551E+04</rscale>
<asrwt>0</asrwt>
<pdfrwt beam="1">  1        2 0.37698822E+00 0.12889551E+04</pdfrwt>
<pdfrwt beam="2">  1       -2 0.17451209E+00 0.12889551E+04</pdfrwt>
<totfact> 0.71039545E-01</totfact>
</mgrwt>
</event>
<event>
 4    1  0.3365401E-008  0.9142641E+03  0.7818608E-02  0.9407924E-01
         -2   -1    0    0    0  501 -0.00000000000E+00  0.00000000000E+00  0.97429693274E+03  0.97429693274E+03  0.25500000000E-02 0.  1.
          2   -1    0    0  501    0  0.00000000000E+00 -0.00000000000E+00 -0.15741812186E+04  0.15741812186E+04  0.25500000000E-02 0. -1.
    8880022    1    1    2    0    0 -0.10506196044E+03 -0.89523697462E+03 -0.11594624391E+04  0.14765608883E+04  0.15294330000E+03 0.  0.
    8880022    1    1    2    0    0  0.10506196044E+03  0.89523697462E+03  0.55957815320E+03  0.10719172630E+04  0.15294330000E+03 0.  0.
<mgrwt>
<rscale>  0 0.91426414E+03</rscale>
<asrwt>0</asrwt>
<pdfrwt beam="1">  1        2 0.24218173E+00 0.91426414E+03</pdfrwt>
<pdfrwt beam="2">  1       -2 0.14989184E+00 0.91426414E+03</pdfrwt>
<totfact> 0.34747554E+00</totfact>
</mgrwt>
</event>
<event>
 4    1  0.3365401E-008  0.5663577E+03  0.7818608E-02  0.9977771E-01
          2   -1    0    0  501    0  0.00000000000E+00  0.00000000000E+00  0.15043899577E+04  0.15043899577E+04  0.25500000000E-02 0. -1.
         -2   -1    0    0    0  501 -0.00000000000E+00 -0.00000000000E+00 -0.54766417875E+03  0.54766417876E+03  0.25500000000E-02 0.  1.
    8880022    1    1    2    0    0 -0.36725691519E+03  0.40310262152E+03 -0.32343633636E+03  0.65220555190E+03  0.15294330000E+03 0.  0.
    8880022    1    1    2    0    0  0.36725691519E+03 -0.40310262152E+03  0.12801621153E+04  0.13998485846E+04  0.15294330000E+03 0.  0.
<mgrwt>
<rscale>  0 0.56635768E+03</rscale>
<asrwt>0</asrwt>
<pdfrwt beam="1">  1        2 0.23144461E+00 0.56635768E+03</pdfrwt>
<pdfrwt beam="2">  1       -2 0.84256028E-01 0.56635768E+03</pdfrwt>
<totfact> 0.16324998E+01</totfact>
</mgrwt>
</event>
<event>
 4    1  0.3365401E-008  0.7364585E+03  0.7818608E-02  0.9656838E-01
          2   -1    0    0  501    0  0.00000000000E+00  0.00000000000E+00  0.14229624126E+04  0.14229624126E+04  0.25500000000E-02 0. -1.
         -2   -1    0    0    0  501 -0.00000000000E+00 -0.00000000000E+00 -0.68097906499E+03  0.68097906499E+03  0.25500000000E-02 0.  1.
    8880022    1    1    2    0    0 -0.24691712106E+03 -0.67676544457E+03  0.10690135485E+04  0.12981375703E+04  0.15294330000E+03 0.  0.
    8880022    1    1    2    0    0  0.24691712106E+03  0.67676544457E+03 -0.32703020089E+03  0.80580390725E+03  0.15294330000E+03 0.  0.
<mgrwt>
<rscale>  0 0.73645854E+03</rscale>
<asrwt>0</asrwt>
<pdfrwt beam="1">  1        2 0.21891729E+00 0.73645854E+03</pdfrwt>
<pdfrwt beam="2">  1       -2 0.10476601E+00 0.73645854E+03</pdfrwt>
<totfact> 0.10636004E+01</totfact>
</mgrwt>
</event>
<event>
 4    1  0.3365401E-008  0.4663374E+03  0.7818608E-02  0.1022959E+00
         -2   -1    0    0    0  501 -0.00000000000E+00  0.00000000000E+00  0.37287608319E+03  0.37287608320E+03  0.25500000000E-02 0.  1.
          2   -1    0    0  501    0  0.00000000000E+00 -0.00000000000E+00 -0.25482038740E+04  0.25482038740E+04  0.25500000000E-02 0. -1.
    8880022    1    1    2    0    0 -0.11884341747E+02 -0.44038356721E+03  0.19488912828E+03  0.50542294090E+03  0.15294330000E+03 0.  0.
    8880022    1    1    2    0    0  0.11884341747E+02  0.44038356721E+03 -0.23702169191E+04  0.24156570163E+04  0.15294330000E+03 0.  0.
<mgrwt>
<rscale>  0 0.46633741E+03</rscale>
<asrwt>0</asrwt>
<pdfrwt beam="1">  1        2 0.39203135E+00 0.46633741E+03</pdfrwt>
<pdfrwt beam="2">  1       -2 0.57365553E-01 0.46633741E+03</pdfrwt>
<totfact> 0.10366211E+01</totfact>
</mgrwt>
</event>
<event>
 4    1  0.3365401E-008  0.4631680E+03  0.7818608E-02  0.1023866E+00
         -2   -1    0    0    0  501 -0.00000000000E+00  0.00000000000E+00  0.29487689736E+03  0.29487689737E+03  0.25500000000E-02 0.  1.
          2   -1    0    0  501    0  0.00000000000E+00 -0.00000000000E+00 -0.20958444903E+04  0.20958444903E+04  0.25500000000E-02 0. -1.
    8880022    1    1    2    0    0  0.28520158554E+03 -0.33135030647E+03 -0.18663484281E+04  0.19229615384E+04  0.15294330000E+03 0.  0.
    8880022    1    1    2    0    0 -0.28520158554E+03  0.33135030647E+03  0.65380835154E+02  0.46775984930E+03  0.15294330000E+03 0.  0.
<mgrwt>
<rscale>  0 0.46316803E+03</rscale>
<asrwt>0</asrwt>
<pdfrwt beam="1">  1        2 0.32243760E+00 0.46316803E+03</pdfrwt>
<pdfrwt beam="2">  1       -2 0.45365678E-01 0.46316803E+03</pdfrwt>
<totfact> 0.29583154E+01</totfact>
</mgrwt>
</event>
<event>
 4    1  0.3365401E-008  0.2158543E+03  0.7818608E-02  0.1137012E+00
          2   -1    0    0  501    0  0.00000000000E+00  0.00000000000E+00  0.85865407618E+03  0.85865407619E+03  0.25500000000E-02 0. -1.
         -2   -1    0    0    0  501 -0.00000000000E+00 -0.00000000000E+00 -0.16781742820E+03  0.16781742822E+03  0.25500000000E-02 0.  1.
    8880022    1    1    2    0    0 -0.90856003206E+02 -0.12225633162E+03 -0.76764502076E+02  0.22909793918E+03  0.15294330000E+03 0.  1.
    8880022    1    1    2    0    0  0.90856003206E+02  0.12225633162E+03  0.76760115006E+03  0.79737356523E+03  0.15294330000E+03 0.  0.
<mgrwt>
<rscale>  0 0.21585430E+03</rscale>
<asrwt>0</asrwt>
<pdfrwt beam="1">  1        2 0.13210063E+00 0.21585430E+03</pdfrwt>
<pdfrwt beam="2">  1       -2 0.25818066E-01 0.21585430E+03</pdfrwt>
<totfact> 0.43899958E+02</totfact>
</mgrwt>
</event>
<event>
 4    1  0.3365401E-008  0.4499128E+03  0.7818608E-02  0.1027748E+00
          2   -1    0    0  501    0  0.00000000000E+00  0.00000000000E+00  0.16609367352E+04  0.16609367352E+04  0.25500000000E-02 0. -1.
         -2   -1    0    0    0  501 -0.00000000000E+00 -0.00000000000E+00 -0.32850971149E+03  0.32850971150E+03  0.25500000000E-02 0.  1.
    8880022    1    1    2    0    0  0.32795921021E+03  0.26734361676E+03 -0.12270664763E+03  0.46634582379E+03  0.15294330000E+03 0.  0.
    8880022    1    1    2    0    0 -0.32795921021E+03 -0.26734361676E+03  0.14551336713E+04  0.15231006229E+04  0.15294330000E+03 0.  0.
<mgrwt>
<rscale>  0 0.44991278E+03</rscale>
<asrwt>0</asrwt>
<pdfrwt beam="1">  1        2 0.25552873E+00 0.44991278E+03</pdfrwt>
<pdfrwt beam="2">  1       -2 0.50539956E-01 0.44991278E+03</pdfrwt>
<totfact> 0.40901647E+01</totfact>
</mgrwt>
</event>
<event>
 4    1  0.3365401E-008  0.4281011E+03  0.7818608E-02  0.1034461E+00
          2   -1    0    0  501    0  0.00000000000E+00  0.00000000000E+00  0.33749999347E+04  0.33749999347E+04  0.25500000000E-02 0. -1.
         -2   -1    0    0    0  501 -0.00000000000E+00 -0.00000000000E+00 -0.87092128494E+02  0.87092128531E+02  0.25500000000E-02 0.  1.
    8880022    1    1    2    0    0 -0.11224068357E+03 -0.38377202194E+03  0.58179843411E+03  0.72232956940E+03  0.15294330000E+03 0.  0.
    8880022    1    1    2    0    0  0.11224068357E+03  0.38377202194E+03  0.27061093721E+04  0.27397624939E+04  0.15294330000E+03 0.  0.
<mgrwt>
<rscale>  0 0.42810114E+03</rscale>
<asrwt>0</asrwt>
<pdfrwt beam="1">  1        2 0.51923079E+00 0.42810114E+03</pdfrwt>
<pdfrwt beam="2">  1       -2 0.13398788E-01 0.42810114E+03</pdfrwt>
<totfact> 0.48017457E+01</totfact>
</mgrwt>
</event>
<event>
 4    1  0.3365401E-008  0.2635837E+03  0.7818608E-02  0.1105009E+00
         -2   -1    0    0    0  501 -0.00000000000E+00  0.00000000000E+00  0.13020657662E+03  0.13020657664E+03  0.25500000000E-02 0.  1.
          2   -1    0    0  501    0  0.00000000000E+00 -0.00000000000E+00 -0.22319464946E+04  0.22319464946E+04  0.25500000000E-02 0. -1.
    8880022    1    1    2    0    0 -0.17449790698E+03 -0.12504077671E+03 -0.20811401364E+04  0.20977656294E+04  0.15294330000E+03 0.  0.
    8880022    1    1    2    0    0  0.17449790698E+03  0.12504077671E+03 -0.20599781528E+02  0.26438744183E+03  0.15294330000E+03 0.  0.
<mgrwt>
<rscale>  0 0.26358370E+03</rscale>
<asrwt>0</asrwt>
<pdfrwt beam="1">  1        2 0.34337636E+00 0.26358370E+03</pdfrwt>
<pdfrwt beam="2">  1       -2 0.20031783E-01 0.26358370E+03</pdfrwt>
<totfact> 0.11846311E+02</totfact>
</mgrwt>
</event>
<event>
 4    1  0.3365401E-008  0.1026365E+04  0.7818608E-02  0.9280092E-01
          2   -1    0    0  501    0  0.00000000000E+00  0.00000000000E+00  0.17262900216E+04  0.17262900216E+04  0.25500000000E-02 0. -1.
         -2   -1    0    0    0  501 -0.00000000000E+00 -0.00000000000E+00 -0.61735088733E+03  0.61735088734E+03  0.25500000000E-02 0.  1.
    8880022    1    1    2    0    0  0.61602126639E+03 -0.80656755948E+03  0.42857155650E+03  0.11122493698E+04  0.15294330000E+03 0.  0.
    8880022    1    1    2    0    0 -0.61602126639E+03  0.80656755948E+03  0.68036757775E+03  0.12313915391E+04  0.15294330000E+03 0.  0.
<mgrwt>
<rscale>  0 0.10263650E+04</rscale>
<asrwt>0</asrwt>
<pdfrwt beam="1">  1        2 0.26558308E+00 0.10263650E+04</pdfrwt>
<pdfrwt beam="2">  1       -2 0.94977061E-01 0.10263650E+04</pdfrwt>
<totfact> 0.87977510E+00</totfact>
</mgrwt>
</event>
<event>
 4    1  0.3365401E-008  0.4279104E+03  0.7818608E-02  0.1034522E+00
         -2   -1    0    0    0  501 -0.00000000000E+00  0.00000000000E+00  0.52382317163E+03  0.52382317163E+03  0.25500000000E-02 0.  1.
          2   -1    0    0  501    0  0.00000000000E+00 -0.00000000000E+00 -0.23377819714E+04  0.23377819714E+04  0.25500000000E-02 0. -1.
    8880022    1    1    2    0    0  0.20590810973E+03 -0.34251648295E+03 -0.22264818564E+04  0.22672293225E+04  0.15294330000E+03 0.  0.
    8880022    1    1    2    0    0 -0.20590810973E+03  0.34251648295E+03  0.41252305666E+03  0.59437582054E+03  0.15294330000E+03 0.  0.
<mgrwt>
<rscale>  0 0.42791044E+03</rscale>
<asrwt>0</asrwt>
<pdfrwt beam="1">  1        2 0.35965876E+00 0.42791044E+03</pdfrwt>
<pdfrwt beam="2">  1       -2 0.80588182E-01 0.42791044E+03</pdfrwt>
<totfact> 0.65949768E+00</totfact>
</mgrwt>
</event>
<event>
 4    1  0.3365401E-008  0.2761936E+03  0.7818608E-02  0.1097786E+00
         -2   -1    0    0    0  501 -0.00000000000E+00  0.00000000000E+00  0.29501045375E+03  0.29501045376E+03  0.25500000000E-02 0.  1.
          2   -1    0    0  501    0  0.00000000000E+00 -0.00000000000E+00 -0.69732729609E+03  0.69732729609E+03  0.25500000000E-02 0. -1.
    8880022    1    1    2    0    0 -0.22749936906E+03 -0.33693701743E+02  0.19240973950E+03  0.33660717362E+03  0.15294330000E+03 0.  0.
    8880022    1    1    2    0    0  0.22749936906E+03  0.33693701743E+02 -0.59472658183E+03  0.65573057624E+03  0.15294330000E+03 0.  0.
<mgrwt>
<rscale>  0 0.27619356E+03</rscale>
<asrwt>0</asrwt>
<pdfrwt beam="1">  1        2 0.10728112E+00 0.27619356E+03</pdfrwt>
<pdfrwt beam="2">  1       -2 0.45386224E-01 0.27619356E+03</pdfrwt>
<totfact> 0.19811209E+02</totfact>
</mgrwt>
</event>
<event>
 4    1  0.3365401E-008  0.6528888E+03  0.7818608E-02  0.9801374E-01
         -2   -1    0    0    0  501 -0.00000000000E+00  0.00000000000E+00  0.67248388776E+03  0.67248388777E+03  0.25500000000E-02 0.  1.
          2   -1    0    0  501    0  0.00000000000E+00 -0.00000000000E+00 -0.13710877748E+04  0.13710877748E+04  0.25500000000E-02 0. -1.
    8880022    1    1    2    0    0  0.61702938604E+03 -0.14881820057E+03  0.39994799808E+03  0.76565147048E+03  0.15294330000E+03 0.  0.
    8880022    1    1    2    0    0 -0.61702938604E+03  0.14881820057E+03 -0.10985518852E+04  0.12779201921E+04  0.15294330000E+03 0.  0.
<mgrwt>
<rscale>  0 0.65288879E+03</rscale>
<asrwt>0</asrwt>
<pdfrwt beam="1">  1        2 0.21093658E+00 0.65288879E+03</pdfrwt>
<pdfrwt beam="2">  1       -2 0.10345906E+00 0.65288879E+03</pdfrwt>
<totfact> 0.11863746E+01</totfact>
</mgrwt>
</event>
<event>
 4    1  0.3365401E-008  0.3336430E+03  0.7818608E-02  0.1069536E+00
          2   -1    0    0  501    0  0.00000000000E+00  0.00000000000E+00  0.16749557544E+03  0.16749557546E+03  0.25500000000E-02 0. -1.
         -2   -1    0    0    0  501 -0.00000000000E+00 -0.00000000000E+00 -0.15532607142E+04  0.15532607142E+04  0.25500000000E-02 0.  1.
    8880022    1    1    2    0    0 -0.58781979256E+02  0.29063841344E+03 -0.13436638210E+04  0.13844674519E+04  0.15294330000E+03 0.  0.
    8880022    1    1    2    0    0  0.58781979256E+02 -0.29063841344E+03 -0.42101317766E+02  0.33628883779E+03  0.15294330000E+03 0.  0.
<mgrwt>
<rscale>  0 0.33364302E+03</rscale>
<asrwt>0</asrwt>
<pdfrwt beam="1">  1        2 0.25768551E-01 0.33364302E+03</pdfrwt>
<pdfrwt beam="2">  1       -2 0.23896318E+00 0.33364302E+03</pdfrwt>
<totfact> 0.17178352E+01</totfact>
</mgrwt>
</event>
<event>
 4    1  0.3365401E-008  0.3270431E+03  0.7818608E-02  0.1072453E+00
          2   -1    0    0  501    0  0.00000000000E+00  0.00000000000E+00  0.79095440069E+03  0.79095440070E+03  0.25500000000E-02 0. -1.
         -2   -1    0    0    0  501 -0.00000000000E+00 -0.00000000000E+00 -0.10820484816E+04  0.10820484816E+04  0.25500000000E-02 0.  1.
    8880022    1    1    2    0    0 -0.22391500452E+03 -0.18283226868E+03  0.73048397144E+03  0.80035245566E+03  0.15294330000E+03 0.  0.
    8880022    1    1    2    0    0  0.22391500452E+03  0.18283226868E+03 -0.10215780524E+04  0.10726504267E+04  0.15294330000E+03 0.  0.
<mgrwt>
<rscale>  0 0.32704315E+03</rscale>
<asrwt>0</asrwt>
<pdfrwt beam="1">  1        2 0.12168529E+00 0.32704315E+03</pdfrwt>
<pdfrwt beam="2">  1       -2 0.16646900E+00 0.32704315E+03</pdfrwt>
<totfact> 0.86604612E+00</totfact>
</mgrwt>
</event>
<event>
 4    1  0.3365401E-008  0.5285797E+03  0.7818608E-02  0.1006577E+00
         -2   -1    0    0    0  501 -0.00000000000E+00  0.00000000000E+00  0.10211721993E+04  0.10211721994E+04  0.25500000000E-02 0.  1.
          2   -1    0    0  501    0  0.00000000000E+00 -0.00000000000E+00 -0.82735762111E+03  0.82735762112E+03  0.25500000000E-02 0. -1.
    8880022    1    1    2    0    0 -0.27224255783E+03 -0.42648433201E+03  0.85305773912E+03  0.10035457414E+04  0.15294330000E+03 0.  0.
    8880022    1    1    2    0    0  0.27224255783E+03  0.42648433201E+03 -0.65924316088E+03  0.84498407910E+03  0.15294330000E+03 0.  0.
<mgrwt>
<rscale>  0 0.52857975E+03</rscale>
<asrwt>0</asrwt>
<pdfrwt beam="1">  1        2 0.12728579E+00 0.52857975E+03</pdfrwt>
<pdfrwt beam="2">  1       -2 0.15710341E+00 0.52857975E+03</pdfrwt>
<totfact> 0.91417335E+00</totfact>
</mgrwt>
</event>
<event>
 4    1  0.3365401E-008  0.3256197E+03  0.7818608E-02  0.1073092E+00
         -2   -1    0    0    0  501 -0.00000000000E+00  0.00000000000E+00  0.40769182526E+03  0.40769182527E+03  0.25500000000E-02 0.  1.
          2   -1    0    0  501    0  0.00000000000E+00 -0.00000000000E+00 -0.37551570981E+04  0.37551570981E+04  0.25500000000E-02 0. -1.
    8880022    1    1    2    0    0 -0.65319692079E+02  0.27994621982E+03 -0.36817877699E+04  0.36961587336E+04  0.15294330000E+03 0.  0.
    8880022    1    1    2    0    0  0.65319692079E+02 -0.27994621982E+03  0.33432249708E+03  0.46669018977E+03  0.15294330000E+03 0.  0.
<mgrwt>
<rscale>  0 0.32561972E+03</rscale>
<asrwt>0</asrwt>
<pdfrwt beam="1">  1        2 0.57771645E+00 0.32561972E+03</pdfrwt>
<pdfrwt beam="2">  1       -2 0.62721822E-01 0.32561972E+03</pdfrwt>
<totfact> 0.16049678E+00</totfact>
</mgrwt>
</event>
<event>
 4    1  0.3365401E-008  0.5651414E+03  0.7818608E-02  0.9980488E-01
         -2   -1    0    0    0  501 -0.00000000000E+00  0.00000000000E+00  0.26299544894E+03  0.26299544895E+03  0.25500000000E-02 0.  1.
          2   -1    0    0  501    0  0.00000000000E+00 -0.00000000000E+00 -0.15319846123E+04  0.15319846123E+04  0.25500000000E-02 0. -1.
    8880022    1    1    2    0    0  0.51164650660E+03 -0.18496227990E+03 -0.22587054552E+03  0.60860689205E+03  0.15294330000E+03 0.  0.
    8880022    1    1    2    0    0 -0.51164650660E+03  0.18496227990E+03 -0.10431186178E+04  0.11863731692E+04  0.15294330000E+03 0.  0.
<mgrwt>
<rscale>  0 0.56514144E+03</rscale>
<asrwt>0</asrwt>
<pdfrwt beam="1">  1        2 0.23568993E+00 0.56514144E+03</pdfrwt>
<pdfrwt beam="2">  1       -2 0.40460839E-01 0.56514144E+03</pdfrwt>
<totfact> 0.73376045E+01</totfact>
</mgrwt>
</event>
<event>
 4    1  0.3365401E-008  0.1123346E+04  0.7818608E-02  0.9182731E-01
          2   -1    0    0  501    0  0.00000000000E+00  0.00000000000E+00  0.12594192380E+04  0.12594192380E+04  0.25500000000E-02 0. -1.
         -2   -1    0    0    0  501 -0.00000000000E+00 -0.00000000000E+00 -0.12141346340E+04  0.12141346340E+04  0.25500000000E-02 0.  1.
    8880022    1    1    2    0    0 -0.79059174698E+03 -0.78324940332E+03  0.53964086076E+03  0.12462418906E+04  0.15294330000E+03 0.  0.
    8880022    1    1    2    0    0  0.79059174698E+03  0.78324940332E+03 -0.49435625670E+03  0.12273119814E+04  0.15294330000E+03 0.  0.
<mgrwt>
<rscale>  0 0.11233462E+04</rscale>
<asrwt>0</asrwt>
<pdfrwt beam="1">  1        2 0.19375680E+00 0.11233462E+04</pdfrwt>
<pdfrwt beam="2">  1       -2 0.18678994E+00 0.11233462E+04</pdfrwt>
<totfact> 0.27837128E+00</totfact>
</mgrwt>
</event>
<event>
 4    1  0.3365401E-008  0.8537425E+03  0.7818608E-02  0.9485328E-01
         -2   -1    0    0    0  501 -0.00000000000E+00  0.00000000000E+00  0.62077477402E+03  0.62077477403E+03  0.25500000000E-02 0.  1.
          2   -1    0    0  501    0  0.00000000000E+00 -0.00000000000E+00 -0.17419071182E+04  0.17419071182E+04  0.25500000000E-02 0. -1.
    8880022    1    1    2    0    0  0.81707885713E+03 -0.19459365484E+03 -0.12350135304E+04  0.15013775750E+04  0.15294330000E+03 0.  0.
    8880022    1    1    2    0    0 -0.81707885713E+03  0.19459365484E+03  0.11388118629E+03  0.86130431723E+03  0.15294330000E+03 0.  0.
<mgrwt>
<rscale>  0 0.85374247E+03</rscale>
<asrwt>0</asrwt>
<pdfrwt beam="1">  1        2 0.26798571E+00 0.85374247E+03</pdfrwt>
<pdfrwt beam="2">  1       -2 0.95503812E-01 0.85374247E+03</pdfrwt>
<totfact> 0.86852461E+00</totfact>
</mgrwt>
</event>
<event>
 4    1  0.3365401E-008  0.2703536E+03  0.7818608E-02  0.1101077E+00
          2   -1    0    0  501    0  0.00000000000E+00  0.00000000000E+00  0.67159575640E+03  0.67159575640E+03  0.25500000000E-02 0. -1.
         -2   -1    0    0    0  501 -0.00000000000E+00 -0.00000000000E+00 -0.13459109537E+03  0.13459109539E+03  0.25500000000E-02 0.  1.
    8880022    1    1    2    0    0 -0.18040315931E+03  0.13097370568E+03  0.44484743930E+03  0.52055769011E+03  0.15294330000E+03 0.  0.
    8880022    1    1    2    0    0  0.18040315931E+03 -0.13097370568E+03  0.92157221729E+02  0.28562916168E+03  0.15294330000E+03 0.  0.
<mgrwt>
<rscale>  0 0.27035359E+03</rscale>
<asrwt>0</asrwt>
<pdfrwt beam="1">  1        2 0.10332242E+00 0.27035359E+03</pdfrwt>
<pdfrwt beam="2">  1       -2 0.20706323E-01 0.27035359E+03</pdfrwt>
<totfact> 0.87550084E+02</totfact>
</mgrwt>
</event>
<event>
 4    1  0.3365401E-008  0.1206768E+04  0.7818608E-02  0.9106953E-01
         -2   -1    0    0    0  501 -0.00000000000E+00  0.00000000000E+00  0.10830044940E+04  0.10830044940E+04  0.25500000000E-02 0.  1.
          2   -1    0    0  501    0  0.00000000000E+00 -0.00000000000E+00 -0.26399816678E+04  0.26399816678E+04  0.25500000000E-02 0. -1.
    8880022    1    1    2    0    0 -0.82658098153E+03 -0.86582942303E+03 -0.20823978801E+04  0.24067964793E+04  0.15294330000E+03 0.  0.
    8880022    1    1    2    0    0  0.82658098153E+03  0.86582942303E+03  0.52542070631E+03  0.13161896825E+04  0.15294330000E+03 0.  0.
<mgrwt>
<rscale>  0 0.12067677E+04</rscale>
<asrwt>0</asrwt>
<pdfrwt beam="1">  1        2 0.40615102E+00 0.12067677E+04</pdfrwt>
<pdfrwt beam="2">  1       -2 0.16661608E+00 0.12067677E+04</pdfrwt>
<totfact> 0.63502441E-01</totfact>
</mgrwt>
</event>
<event>
 4    1  0.3365401E-008  0.1338595E+04  0.7818608E-02  0.8999507E-01
         -2   -1    0    0    0  501 -0.00000000000E+00  0.00000000000E+00  0.26675606888E+04  0.26675606889E+04  0.25500000000E-02 0.  1.
          2   -1    0    0  501    0  0.00000000000E+00 -0.00000000000E+00 -0.19334110003E+04  0.19334110003E+04  0.25500000000E-02 0. -1.
    8880022    1    1    2    0    0  0.12553473310E+04 -0.43880209609E+03 -0.14913077851E+04  0.20039547810E+04  0.15294330000E+03 0.  0.
    8880022    1    1    2    0    0 -0.12553473310E+04  0.43880209609E+03  0.22254574737E+04  0.25970169082E+04  0.15294330000E+03 0.  0.
<mgrwt>
<rscale>  0 0.13385947E+04</rscale>
<asrwt>0</asrwt>
<pdfrwt beam="1">  1        2 0.29744785E+00 0.13385947E+04</pdfrwt>
<pdfrwt beam="2">  1       -2 0.41039395E+00 0.13385947E+04</pdfrwt>
<totfact> 0.44418978E-02</totfact>
</mgrwt>
</event>
<event>
 4    1  0.3365401E-008  0.4496358E+03  0.7818608E-02  0.1027831E+00
         -2   -1    0    0    0  501 -0.00000000000E+00  0.00000000000E+00  0.16914138300E+03  0.16914138302E+03  0.25500000000E-02 0.  1.
          2   -1    0    0  501    0  0.00000000000E+00 -0.00000000000E+00 -0.43884795111E+04  0.43884795111E+04  0.25500000000E-02 0. -1.
    8880022    1    1    2    0    0  0.39204990437E+03 -0.15835904732E+03 -0.16581450863E+03  0.47923566194E+03  0.15294330000E+03 0.  0.
    8880022    1    1    2    0    0 -0.39204990437E+03  0.15835904732E+03 -0.40535236195E+04  0.40783852322E+04  0.15294330000E+03 0.  0.
<mgrwt>
<rscale>  0 0.44963582E+03</rscale>
<asrwt>0</asrwt>
<pdfrwt beam="1">  1        2 0.67515061E+00 0.44963582E+03</pdfrwt>
<pdfrwt beam="2">  1       -2 0.26021755E-01 0.44963582E+03</pdfrwt>
<totfact> 0.26000952E+00</totfact>
</mgrwt>
</event>
<event>
 4    1  0.3365401E-008  0.4453885E+03  0.7818608E-02  0.1029106E+00
         -2   -1    0    0    0  501 -0.00000000000E+00  0.00000000000E+00  0.15292593081E+03  0.15292593083E+03  0.25500000000E-02 0.  1.
          2   -1    0    0  501    0  0.00000000000E+00 -0.00000000000E+00 -0.27536044046E+04  0.27536044046E+04  0.25500000000E-02 0. -1.
    8880022    1    1    2    0    0 -0.38018710197E+03  0.17446221431E+03 -0.24342551656E+03  0.50756963252E+03  0.15294330000E+03 0.  0.
    8880022    1    1    2    0    0  0.38018710197E+03 -0.17446221431E+03 -0.23572529573E+04  0.23989607030E+04  0.15294330000E+03 0.  0.
<mgrwt>
<rscale>  0 0.44538854E+03</rscale>
<asrwt>0</asrwt>
<pdfrwt beam="1">  1        2 0.42363141E+00 0.44538854E+03</pdfrwt>
<pdfrwt beam="2">  1       -2 0.23527068E-01 0.44538854E+03</pdfrwt>
<totfact> 0.43768532E+01</totfact>
</mgrwt>
</event>
<event>
 4    1  0.3365401E-008  0.3819791E+03  0.7818608E-02  0.1050205E+00
          2   -1    0    0  501    0  0.00000000000E+00  0.00000000000E+00  0.14753686076E+04  0.14753686076E+04  0.25500000000E-02 0. -1.
         -2   -1    0    0    0  501 -0.00000000000E+00 -0.00000000000E+00 -0.13326685126E+03  0.13326685129E+03  0.25500000000E-02 0.  1.
    8880022    1    1    2    0    0 -0.50095582119E+02  0.34641998744E+03  0.26257931424E+03  0.46352553795E+03  0.15294330000E+03 0.  0.
    8880022    1    1    2    0    0  0.50095582119E+02 -0.34641998744E+03  0.10795224421E+04  0.11451099210E+04  0.15294330000E+03 0.  0.
<mgrwt>
<rscale>  0 0.38197909E+03</rscale>
<asrwt>0</asrwt>
<pdfrwt beam="1">  1        2 0.22697979E+00 0.38197909E+03</pdfrwt>
<pdfrwt beam="2">  1       -2 0.20502592E-01 0.38197909E+03</pdfrwt>
<totfact> 0.28060870E+02</totfact>
</mgrwt>
</event>
<event>
 4    1  0.3365401E-008  0.5462176E+03  0.7818608E-02  0.1002373E+00
          2   -1    0    0  501    0  0.00000000000E+00  0.00000000000E+00  0.17623857062E+04  0.17623857062E+04  0.25500000000E-02 0. -1.
         -2   -1    0    0    0  501 -0.00000000000E+00 -0.00000000000E+00 -0.29613233370E+03  0.29613233371E+03  0.25500000000E-02 0.  1.
    8880022    1    1    2    0    0  0.39148894895E+03 -0.34885296404E+03  0.14067459468E+04  0.15090685205E+04  0.15294330000E+03 0.  0.
    8880022    1    1    2    0    0 -0.39148894895E+03  0.34885296404E+03  0.59507425707E+02  0.54944951943E+03  0.15294330000E+03 0.  0.
<mgrwt>
<rscale>  0 0.54621758E+03</rscale>
<asrwt>0</asrwt>
<pdfrwt beam="1">  1        2 0.27113627E+00 0.54621758E+03</pdfrwt>
<pdfrwt beam="2">  1       -2 0.45558820E-01 0.54621758E+03</pdfrwt>
<totfact> 0.43658449E+01</totfact>
</mgrwt>
</event>
<event>
 4    1  0.3365401E-008  0.4309202E+03  0.7818608E-02  0.1033570E+00
         -2   -1    0    0    0  501 -0.00000000000E+00  0.00000000000E+00  0.19941969275E+03  0.19941969277E+03  0.25500000000E-02 0.  1.
          2   -1    0    0  501    0  0.00000000000E+00 -0.00000000000E+00 -0.10042015710E+04  0.10042015710E+04  0.25500000000E-02 0. -1.
    8880022    1    1    2    0    0 -0.34765829503E+03 -0.20355420662E+03 -0.56469345854E+03  0.71033158473E+03  0.15294330000E+03 0.  0.
    8880022    1    1    2    0    0  0.34765829503E+03  0.20355420662E+03 -0.24008841967E+03  0.49328967901E+03  0.15294330000E+03 0.  0.
<mgrwt>
<rscale>  0 0.43092025E+03</rscale>
<asrwt>0</asrwt>
<pdfrwt beam="1">  1        2 0.15449255E+00 0.43092025E+03</pdfrwt>
<pdfrwt beam="2">  1       -2 0.30679953E-01 0.43092025E+03</pdfrwt>
<totfact> 0.25385981E+02</totfact>
</mgrwt>
</event>
<event>
 4    1  0.3365401E-008  0.7125755E+03  0.7818608E-02  0.9695965E-01
         -2   -1    0    0    0  501 -0.00000000000E+00  0.00000000000E+00  0.44120818252E+03  0.44120818252E+03  0.25500000000E-02 0.  1.
          2   -1    0    0  501    0  0.00000000000E+00 -0.00000000000E+00 -0.18717207792E+04  0.18717207792E+04  0.25500000000E-02 0. -1.
    8880022    1    1    2    0    0 -0.30721500508E+02 -0.69529013736E+03  0.24402984158E+01  0.71257967539E+03  0.15294330000E+03 0.  0.
    8880022    1    1    2    0    0  0.30721500508E+02  0.69529013736E+03 -0.14329528951E+04  0.16003492863E+04  0.15294330000E+03 0. -1.
<mgrwt>
<rscale>  0 0.71257550E+03</rscale>
<asrwt>0</asrwt>
<pdfrwt beam="1">  1        2 0.28795704E+00 0.71257550E+03</pdfrwt>
<pdfrwt beam="2">  1       -2 0.67878183E-01 0.71257550E+03</pdfrwt>
<totfact> 0.16232855E+01</totfact>
</mgrwt>
</event>
<event>
 4    1  0.3365401E-008  0.8848245E+03  0.7818608E-02  0.9444753E-01
          2   -1    0    0  501    0  0.00000000000E+00  0.00000000000E+00  0.93993568569E+03  0.93993568570E+03  0.25500000000E-02 0. -1.
         -2   -1    0    0    0  501 -0.00000000000E+00 -0.00000000000E+00 -0.84729772178E+03  0.84729772179E+03  0.25500000000E-02 0.  1.
    8880022    1    1    2    0    0  0.81328131493E+03  0.31320320604E+03  0.16262594704E+03  0.89964526184E+03  0.15294330000E+03 0.  0.
    8880022    1    1    2    0    0 -0.81328131493E+03 -0.31320320604E+03 -0.69987983126E+02  0.88758814564E+03  0.15294330000E+03 0.  0.
<mgrwt>
<rscale>  0 0.88482450E+03</rscale>
<asrwt>0</asrwt>
<pdfrwt beam="1">  1        2 0.14460549E+00 0.88482450E+03</pdfrwt>
<pdfrwt beam="2">  1       -2 0.13035350E+00 0.88482450E+03</pdfrwt>
<totfact> 0.11920138E+01</totfact>
</mgrwt>
</event>
<event>
 4    1  0.3365401E-008  0.1301879E+04  0.7818608E-02  0.9028076E-01
         -2   -1    0    0    0  501 -0.00000000000E+00  0.00000000000E+00  0.13044338318E+04  0.13044338318E+04  0.25500000000E-02 0.  1.
          2   -1    0    0  501    0  0.00000000000E+00 -0.00000000000E+00 -0.16273903196E+04  0.16273903196E+04  0.25500000000E-02 0. -1.
    8880022    1    1    2    0    0  0.11997896811E+04  0.48166561372E+03 -0.81965050910E+03  0.15384133555E+04  0.15294330000E+03 0.  0.
    8880022    1    1    2    0    0 -0.11997896811E+04 -0.48166561372E+03  0.49669402125E+03  0.13934107959E+04  0.15294330000E+03 0.  0.
<mgrwt>
<rscale>  0 0.13018789E+04</rscale>
<asrwt>0</asrwt>
<pdfrwt beam="1">  1        2 0.25036774E+00 0.13018789E+04</pdfrwt>
<pdfrwt beam="2">  1       -2 0.20068213E+00 0.13018789E+04</pdfrwt>
<totfact> 0.13595347E+00</totfact>
</mgrwt>
</event>
<event>
 4    1  0.3365401E-008  0.6939904E+03  0.7818608E-02  0.9727565E-01
         -2   -1    0    0    0  501 -0.00000000000E+00  0.00000000000E+00  0.19972127185E+04  0.19972127185E+04  0.25500000000E-02 0.  1.
          2   -1    0    0  501    0  0.00000000000E+00 -0.00000000000E+00 -0.56892986671E+03  0.56892986671E+03  0.25500000000E-02 0. -1.
    8880022    1    1    2    0    0  0.66054020859E+03 -0.14804589695E+03  0.16880412707E+04  0.18251317594E+04  0.15294330000E+03 0.  0.
    8880022    1    1    2    0    0 -0.66054020859E+03  0.14804589695E+03 -0.25975841886E+03  0.74101082580E+03  0.15294330000E+03 0.  0.
<mgrwt>
<rscale>  0 0.69399035E+03</rscale>
<asrwt>0</asrwt>
<pdfrwt beam="1">  1        2 0.87527671E-01 0.69399035E+03</pdfrwt>
<pdfrwt beam="2">  1       -2 0.30726350E+00 0.69399035E+03</pdfrwt>
<totfact> 0.15987307E+00</totfact>
</mgrwt>
</event>
<event>
 4    1  0.3365401E-008  0.3632865E+03  0.7818608E-02  0.1057290E+00
         -2   -1    0    0    0  501 -0.00000000000E+00  0.00000000000E+00  0.11019449729E+03  0.11019449732E+03  0.25500000000E-02 0.  1.
          2   -1    0    0  501    0  0.00000000000E+00 -0.00000000000E+00 -0.24111993470E+04  0.24111993470E+04  0.25500000000E-02 0. -1.
    8880022    1    1    2    0    0 -0.30041930653E+03 -0.13540198671E+03 -0.20448750893E+04  0.20768946149E+04  0.15294330000E+03 0.  0.
    8880022    1    1    2    0    0  0.30041930653E+03  0.13540198671E+03 -0.25612976044E+03  0.44449922940E+03  0.15294330000E+03 0.  0.
<mgrwt>
<rscale>  0 0.36328654E+03</rscale>
<asrwt>0</asrwt>
<pdfrwt beam="1">  1        2 0.37095371E+00 0.36328654E+03</pdfrwt>
<pdfrwt beam="2">  1       -2 0.16953001E-01 0.36328654E+03</pdfrwt>
<totfact> 0.12261838E+02</totfact>
</mgrwt>
</event>
<event>
 4    1  0.3365401E-008  0.4121346E+03  0.7818608E-02  0.1039657E+00
          2   -1    0    0  501    0  0.00000000000E+00  0.00000000000E+00  0.85488399924E+03  0.85488399924E+03  0.25500000000E-02 0. -1.
         -2   -1    0    0    0  501 -0.00000000000E+00 -0.00000000000E+00 -0.42536444773E+03  0.42536444773E+03  0.25500000000E-02 0.  1.
    8880022    1    1    2    0    0 -0.24871244826E+03 -0.29087007359E+03 -0.25253094308E+03  0.48334957521E+03  0.15294330000E+03 0.  0.
    8880022    1    1    2    0    0  0.24871244826E+03  0.29087007359E+03  0.68205049459E+03  0.79689887176E+03  0.15294330000E+03 0.  0.
<mgrwt>
<rscale>  0 0.41213461E+03</rscale>
<asrwt>0</asrwt>
<pdfrwt beam="1">  1        2 0.13152061E+00 0.41213461E+03</pdfrwt>
<pdfrwt beam="2">  1       -2 0.65440685E-01 0.41213461E+03</pdfrwt>
<totfact> 0.71018129E+01</totfact>
</mgrwt>
</event>
<event>
 4    1  0.3365401E-008  0.9723080E+03  0.7818608E-02  0.9339449E-01
          2   -1    0    0  501    0  0.00000000000E+00  0.00000000000E+00  0.12519021606E+04  0.12519021607E+04  0.25500000000E-02 0. -1.
         -2   -1    0    0    0  501 -0.00000000000E+00 -0.00000000000E+00 -0.84253618309E+03  0.84253618309E+03  0.25500000000E-02 0.  1.
    8880022    1    1    2    0    0  0.66484359437E+02  0.95789928750E+03 -0.13256309921E+03  0.98130313529E+03  0.15294330000E+03 0.  0.
    8880022    1    1    2    0    0 -0.66484359437E+02 -0.95789928750E+03  0.54192907677E+03  0.11131352085E+04  0.15294330000E+03 0.  0.
<mgrwt>
<rscale>  0 0.97230801E+03</rscale>
<asrwt>0</asrwt>
<pdfrwt beam="1">  1        2 0.19260033E+00 0.97230801E+03</pdfrwt>
<pdfrwt beam="2">  1       -2 0.12962095E+00 0.97230801E+03</pdfrwt>
<totfact> 0.76805261E+00</totfact>
</mgrwt>
</event>
<event>
 4    1  0.3365401E-008  0.3132041E+03  0.7818608E-02  0.1078820E+00
         -2   -1    0    0    0  501 -0.00000000000E+00  0.00000000000E+00  0.19572896989E+03  0.19572896991E+03  0.25500000000E-02 0.  1.
          2   -1    0    0  501    0  0.00000000000E+00 -0.00000000000E+00 -0.83144023877E+03  0.83144023878E+03  0.25500000000E-02 0. -1.
    8880022    1    1    2    0    0  0.23017640855E+03 -0.14739051569E+03 -0.64153877832E+03  0.71391091901E+03  0.15294330000E+03 0.  0.
    8880022    1    1    2    0    0 -0.23017640855E+03  0.14739051569E+03  0.58275094466E+01  0.31325828968E+03  0.15294330000E+03 0.  1.
<mgrwt>
<rscale>  0 0.31320408E+03</rscale>
<asrwt>0</asrwt>
<pdfrwt beam="1">  1        2 0.12791388E+00 0.31320408E+03</pdfrwt>
<pdfrwt beam="2">  1       -2 0.30112150E-01 0.31320408E+03</pdfrwt>
<totfact> 0.34398103E+02</totfact>
</mgrwt>
</event>
<event>
 4    1  0.3365401E-008  0.8822359E+03  0.7818608E-02  0.9448064E-01
          2   -1    0    0  501    0  0.00000000000E+00  0.00000000000E+00  0.28608221983E+04  0.28608221983E+04  0.25500000000E-02 0. -1.
         -2   -1    0    0    0  501 -0.00000000000E+00 -0.00000000000E+00 -0.52744193757E+03  0.52744193757E+03  0.25500000000E-02 0.  1.
    8880022    1    1    2    0    0  0.55185590215E+03 -0.67112119443E+03  0.23455104255E+04  0.25059448125E+04  0.15294330000E+03 0.  0.
    8880022    1    1    2    0    0 -0.55185590215E+03  0.67112119443E+03 -0.12130164802E+02  0.88231932330E+03  0.15294330000E+03 0.  0.
<mgrwt>
<rscale>  0 0.88223594E+03</rscale>
<asrwt>0</asrwt>
<pdfrwt beam="1">  1        2 0.44012650E+00 0.88223594E+03</pdfrwt>
<pdfrwt beam="2">  1       -2 0.81144912E-01 0.88223594E+03</pdfrwt>
<totfact> 0.29471124E+00</totfact>
</mgrwt>
</event>
<event>
 4    1  0.3365401E-008  0.2178740E+03  0.7818608E-02  0.1135478E+00
          2   -1    0    0  501    0  0.00000000000E+00  0.00000000000E+00  0.23944933380E+04  0.23944933380E+04  0.25500000000E-02 0. -1.
         -2   -1    0    0    0  501 -0.00000000000E+00 -0.00000000000E+00 -0.44556561165E+02  0.44556561238E+02  0.25500000000E-02 0.  1.
    8880022    1    1    2    0    0 -0.72160984759E+02  0.13736894431E+03  0.20835564244E+04  0.20949168148E+04  0.15294330000E+03 0.  0.
    8880022    1    1    2    0    0  0.72160984759E+02 -0.13736894431E+03  0.26638035249E+03  0.34413308442E+03  0.15294330000E+03 0.  1.
<mgrwt>
<rscale>  0 0.21787402E+03</rscale>
<asrwt>0</asrwt>
<pdfrwt beam="1">  1        2 0.36838369E+00 0.21787402E+03</pdfrwt>
<pdfrwt beam="2">  1       -2 0.68548537E-02 0.21787402E+03</pdfrwt>
<totfact> 0.55796928E+02</totfact>
</mgrwt>
</event>
<event>
 4    1  0.3365401E-008  0.2592525E+03  0.7818608E-02  0.1107593E+00
          2   -1    0    0  501    0  0.00000000000E+00  0.00000000000E+00  0.17349667919E+04  0.17349667919E+04  0.25500000000E-02 0. -1.
         -2   -1    0    0    0  501 -0.00000000000E+00 -0.00000000000E+00 -0.54795902614E+02  0.54795902673E+02  0.25500000000E-02 0.  1.
    8880022    1    1    2    0    0  0.16580477655E+03  0.12778490189E+03  0.35567369919E+03  0.44013138764E+03  0.15294330000E+03 0.  0.
    8880022    1    1    2    0    0 -0.16580477655E+03 -0.12778490189E+03  0.13244971901E+04  0.13496313070E+04  0.15294330000E+03 0. -1.
<mgrwt>
<rscale>  0 0.25925250E+03</rscale>
<asrwt>0</asrwt>
<pdfrwt beam="1">  1        2 0.26691800E+00 0.25925250E+03</pdfrwt>
<pdfrwt beam="2">  1       -2 0.84301379E-02 0.25925250E+03</pdfrwt>
<totfact> 0.89370680E+02</totfact>
</mgrwt>
</event>
<event>
 4    1  0.3365401E-008  0.3356371E+03  0.7818608E-02  0.1068669E+00
          2   -1    0    0  501    0  0.00000000000E+00  0.00000000000E+00  0.87672774427E+03  0.87672774427E+03  0.25500000000E-02 0. -1.
         -2   -1    0    0    0  501 -0.00000000000E+00 -0.00000000000E+00 -0.29056988523E+03  0.29056988524E+03  0.25500000000E-02 0.  1.
    8880022    1    1    2    0    0  0.47930368266E+02 -0.29489541229E+03 -0.14282273748E+03  0.36476103376E+03  0.15294330000E+03 0.  0.
    8880022    1    1    2    0    0 -0.47930368266E+02  0.29489541229E+03  0.72898059652E+03  0.80253659575E+03  0.15294330000E+03 0.  0.
<mgrwt>
<rscale>  0 0.33563712E+03</rscale>
<asrwt>0</asrwt>
<pdfrwt beam="1">  1        2 0.13488119E+00 0.33563712E+03</pdfrwt>
<pdfrwt beam="2">  1       -2 0.44703059E-01 0.33563712E+03</pdfrwt>
<totfact> 0.15131072E+02</totfact>
</mgrwt>
</event>
<event>
 4    1  0.3365401E-008  0.3781766E+03  0.7818608E-02  0.1051610E+00
         -2   -1    0    0    0  501 -0.00000000000E+00  0.00000000000E+00  0.27328964229E+03  0.27328964230E+03  0.25500000000E-02 0.  1.
          2   -1    0    0  501    0  0.00000000000E+00 -0.00000000000E+00 -0.82052094760E+03  0.82052094761E+03  0.25500000000E-02 0. -1.
    8880022    1    1    2    0    0 -0.87742269183E+02  0.33455520779E+03 -0.60276532604E+03  0.71157823474E+03  0.15294330000E+03 0. -1.
    8880022    1    1    2    0    0  0.87742269183E+02 -0.33455520779E+03  0.55534020725E+02  0.38223235516E+03  0.15294330000E+03 0.  1.
<mgrwt>
<rscale>  0 0.37817661E+03</rscale>
<asrwt>0</asrwt>
<pdfrwt beam="1">  1        2 0.12623399E+00 0.37817661E+03</pdfrwt>
<pdfrwt beam="2">  1       -2 0.42044561E-01 0.37817661E+03</pdfrwt>
<totfact> 0.18531449E+02</totfact>
</mgrwt>
</event>
<event>
 4    1  0.3871033E-008  0.6687720E+03  0.7818608E-02  0.9772179E-01
          2   -1    0    0  501    0  0.00000000000E+00  0.00000000000E+00  0.32459681288E+04  0.32459681288E+04  0.25500000000E-02 0. -1.
         -2   -1    0    0    0  501 -0.00000000000E+00 -0.00000000000E+00 -0.56169248827E+03  0.56169248827E+03  0.25500000000E-02 0.  1.
    8880022    1    1    2    0    0  0.15885876533E+03  0.63137016007E+03  0.29960515174E+04  0.30697851284E+04  0.15294330000E+03 0.  0.
    8880022    1    1    2    0    0 -0.15885876533E+03 -0.63137016007E+03 -0.31177587691E+03  0.73787548868E+03  0.15294330000E+03 0.  0.
<mgrwt>
<rscale>  0 0.66877204E+03</rscale>
<asrwt>0</asrwt>
<pdfrwt beam="1">  1        2 0.49937972E+00 0.66877204E+03</pdfrwt>
<pdfrwt beam="2">  1       -2 0.86414228E-01 0.66877204E+03</pdfrwt>
<totfact> 0.15416576E+00</totfact>
</mgrwt>
</event>
<event>
 4    1  0.3365401E-008  0.9456714E+03  0.7818608E-02  0.9370224E-01
         -2   -1    0    0    0  501 -0.00000000000E+00  0.00000000000E+00  0.59370142785E+03  0.59370142786E+03  0.25500000000E-02 0.  1.
          2   -1    0    0  501    0  0.00000000000E+00 -0.00000000000E+00 -0.24729346794E+04  0.24729346794E+04  0.25500000000E-02 0. -1.
    8880022    1    1    2    0    0 -0.50489906597E+03 -0.78484370847E+03  0.19025240100E+02  0.94586274179E+03  0.15294330000E+03 0.  0.
    8880022    1    1    2    0    0  0.50489906597E+03  0.78484370847E+03 -0.18982584916E+04  0.21207733655E+04  0.15294330000E+03 0.  0.
<mgrwt>
<rscale>  0 0.94567138E+03</rscale>
<asrwt>0</asrwt>
<pdfrwt beam="1">  1        2 0.38045149E+00 0.94567138E+03</pdfrwt>
<pdfrwt beam="2">  1       -2 0.91338682E-01 0.94567138E+03</pdfrwt>
<totfact> 0.37468792E+00</totfact>
</mgrwt>
</event>
<event>
 4    1  0.3365401E-008  0.5597004E+03  0.7818608E-02  0.9992733E-01
          2   -1    0    0  501    0  0.00000000000E+00  0.00000000000E+00  0.11624529167E+04  0.11624529167E+04  0.25500000000E-02 0. -1.
         -2   -1    0    0    0  501 -0.00000000000E+00 -0.00000000000E+00 -0.39414128828E+03  0.39414128829E+03  0.25500000000E-02 0.  1.
    8880022    1    1    2    0    0  0.26656868895E+03 -0.46777561069E+03  0.82185442659E+03  0.99433859394E+03  0.15294330000E+03 0.  0.
    8880022    1    1    2    0    0 -0.26656868895E+03  0.46777561069E+03 -0.53542798187E+02  0.56225561103E+03  0.15294330000E+03 0.  0.
<mgrwt>
<rscale>  0 0.55970040E+03</rscale>
<asrwt>0</asrwt>
<pdfrwt beam="1">  1        2 0.17883891E+00 0.55970040E+03</pdfrwt>
<pdfrwt beam="2">  1       -2 0.60637123E-01 0.55970040E+03</pdfrwt>
<totfact> 0.52453916E+01</totfact>
</mgrwt>
</event>
<event>
 4    1  0.3365401E-008  0.7561355E+03  0.7818608E-02  0.9625774E-01
          2   -1    0    0  501    0  0.00000000000E+00  0.00000000000E+00  0.21974212061E+04  0.21974212061E+04  0.25500000000E-02 0. -1.
         -2   -1    0    0    0  501 -0.00000000000E+00 -0.00000000000E+00 -0.41139420934E+03  0.41139420935E+03  0.25500000000E-02 0.  1.
    8880022    1    1    2    0    0  0.30949389359E+03  0.67272782189E+03  0.10220696692E+03  0.76301186729E+03  0.15294330000E+03 0.  0.
    8880022    1    1    2    0    0 -0.30949389359E+03 -0.67272782189E+03  0.16838200299E+04  0.18458035482E+04  0.15294330000E+03 0.  0.
<mgrwt>
<rscale>  0 0.75613547E+03</rscale>
<asrwt>0</asrwt>
<pdfrwt beam="1">  1        2 0.33806480E+00 0.75613547E+03</pdfrwt>
<pdfrwt beam="2">  1       -2 0.63291418E-01 0.75613547E+03</pdfrwt>
<totfact> 0.12443168E+01</totfact>
</mgrwt>
</event>
<event>
 4    1  0.3365401E-008  0.2121719E+03  0.7818608E-02  0.1139858E+00
         -2   -1    0    0    0  501 -0.00000000000E+00  0.00000000000E+00  0.33393209870E+03  0.33393209871E+03  0.25500000000E-02 0.  1.
          2   -1    0    0  501    0  0.00000000000E+00 -0.00000000000E+00 -0.78337763618E+03  0.78337763619E+03  0.25500000000E-02 0. -1.
    8880022    1    1    2    0    0 -0.88186484585E+02  0.11767925770E+03  0.28359595823E+03  0.35418015796E+03  0.15294330000E+03 0.  1.
    8880022    1    1    2    0    0  0.88186484585E+02 -0.11767925770E+03 -0.73304149571E+03  0.76312957694E+03  0.15294330000E+03 0.  0.
<mgrwt>
<rscale>  0 0.21217190E+03</rscale>
<asrwt>0</asrwt>
<pdfrwt beam="1">  1        2 0.12051964E+00 0.21217190E+03</pdfrwt>
<pdfrwt beam="2">  1       -2 0.51374169E-01 0.21217190E+03</pdfrwt>
<totfact> 0.13543290E+02</totfact>
</mgrwt>
</event>
<event>
 4    1  0.3365401E-008  0.3462458E+03  0.7818608E-02  0.1064167E+00
         -2   -1    0    0    0  501 -0.00000000000E+00  0.00000000000E+00  0.22483791889E+03  0.22483791891E+03  0.25500000000E-02 0.  1.
          2   -1    0    0  501    0  0.00000000000E+00 -0.00000000000E+00 -0.59828523468E+03  0.59828523468E+03  0.25500000000E-02 0. -1.
    8880022    1    1    2    0    0 -0.20821182764E+03 -0.23052622861E+03 -0.32245608081E+03  0.47314277371E+03  0.15294330000E+03 0.  0.
    8880022    1    1    2    0    0  0.20821182764E+03  0.23052622861E+03 -0.50991234975E+02  0.34998037989E+03  0.15294330000E+03 0. -1.
<mgrwt>
<rscale>  0 0.34624581E+03</rscale>
<asrwt>0</asrwt>
<pdfrwt beam="1">  1        2 0.92043881E-01 0.34624581E+03</pdfrwt>
<pdfrwt beam="2">  1       -2 0.34590449E-01 0.34624581E+03</pdfrwt>
<totfact> 0.39856583E+02</totfact>
</mgrwt>
</event>
<event>
 4    1  0.3365401E-008  0.2449340E+03  0.7818608E-02  0.1116549E+00
         -2   -1    0    0    0  501 -0.00000000000E+00  0.00000000000E+00  0.83797173947E+02  0.83797173985E+02  0.25500000000E-02 0.  1.
          2   -1    0    0  501    0  0.00000000000E+00 -0.00000000000E+00 -0.72910247272E+03  0.72910247272E+03  0.25500000000E-02 0. -1.
    8880022    1    1    2    0    0 -0.18006723718E+03  0.64628186145E+02 -0.37729062214E+03  0.44982316406E+03  0.15294330000E+03 0. -1.
    8880022    1    1    2    0    0  0.18006723718E+03 -0.64628186145E+02 -0.26801467663E+03  0.36307648265E+03  0.15294330000E+03 0.  1.
<mgrwt>
<rscale>  0 0.24493400E+03</rscale>
<asrwt>0</asrwt>
<pdfrwt beam="1">  1        2 0.11216961E+00 0.24493400E+03</pdfrwt>
<pdfrwt beam="2">  1       -2 0.12891873E-01 0.24493400E+03</pdfrwt>
<totfact> 0.17509973E+03</totfact>
</mgrwt>
</event>
<event>
 4    1  0.3365401E-008  0.2379848E+03  0.7818608E-02  0.1121143E+00
          2   -1    0    0  501    0  0.00000000000E+00  0.00000000000E+00  0.52799490564E+03  0.52799490565E+03  0.25500000000E-02 0. -1.
         -2   -1    0    0    0  501 -0.00000000000E+00 -0.00000000000E+00 -0.72238232643E+03  0.72238232644E+03  0.25500000000E-02 0.  1.
    8880022    1    1    2    0    0 -0.10098687815E+03  0.15181156137E+03  0.47971296388E+03  0.53550096214E+03  0.15294330000E+03 0. -1.
    8880022    1    1    2    0    0  0.10098687815E+03 -0.15181156137E+03 -0.67410038467E+03  0.71487626995E+03  0.15294330000E+03 0.  0.
<mgrwt>
<rscale>  0 0.23798477E+03</rscale>
<asrwt>0</asrwt>
<pdfrwt beam="1">  1        2 0.81229986E-01 0.23798477E+03</pdfrwt>
<pdfrwt beam="2">  1       -2 0.11113574E+00 0.23798477E+03</pdfrwt>
<totfact> 0.39876512E+01</totfact>
</mgrwt>
</event>
<event>
 4    1  0.3365401E-008  0.1536264E+04  0.7818608E-02  0.8860690E-01
         -2   -1    0    0    0  501 -0.00000000000E+00  0.00000000000E+00  0.40118218079E+04  0.40118218079E+04  0.25500000000E-02 0.  1.
          2   -1    0    0  501    0  0.00000000000E+00 -0.00000000000E+00 -0.10209492069E+04  0.10209492069E+04  0.25500000000E-02 0. -1.
    8880022    1    1    2    0    0 -0.14317648644E+04 -0.53550361059E+03 -0.14269653197E+03  0.15428767602E+04  0.15294330000E+03 0.  0.
    8880022    1    1    2    0    0  0.14317648644E+04  0.53550361059E+03  0.31335691330E+04  0.34898942546E+04  0.15294330000E+03 0.  0.
<mgrwt>
<rscale>  0 0.15362638E+04</rscale>
<asrwt>0</asrwt>
<pdfrwt beam="1">  1        2 0.15706911E+00 0.15362638E+04</pdfrwt>
<pdfrwt beam="2">  1       -2 0.61720337E+00 0.15362638E+04</pdfrwt>
<totfact> 0.97406132E-03</totfact>
</mgrwt>
</event>
<event>
 4    1  0.3365401E-008  0.5030673E+03  0.7818608E-02  0.1012981E+00
          2   -1    0    0  501    0  0.00000000000E+00  0.00000000000E+00  0.20399238351E+04  0.20399238351E+04  0.25500000000E-02 0. -1.
         -2   -1    0    0    0  501 -0.00000000000E+00 -0.00000000000E+00 -0.28754363625E+03  0.28754363627E+03  0.25500000000E-02 0.  1.
    8880022    1    1    2    0    0  0.35937630229E+03  0.31707050657E+03  0.17536685439E+04  0.18243985441E+04  0.15294330000E+03 0.  0.
    8880022    1    1    2    0    0 -0.35937630229E+03 -0.31707050657E+03 -0.12883450167E+01  0.50306892732E+03  0.15294330000E+03 0.  0.
<mgrwt>
<rscale>  0 0.50306728E+03</rscale>
<asrwt>0</asrwt>
<pdfrwt beam="1">  1        2 0.31383444E+00 0.50306728E+03</pdfrwt>
<pdfrwt beam="2">  1       -2 0.44237482E-01 0.50306728E+03</pdfrwt>
<totfact> 0.33052091E+01</totfact>
</mgrwt>
</event>
<event>
 4    1  0.3365401E-008  0.9001146E+03  0.7818608E-02  0.9425438E-01
          2   -1    0    0  501    0  0.00000000000E+00  0.00000000000E+00  0.38001474344E+04  0.38001474344E+04  0.25500000000E-02 0. -1.
         -2   -1    0    0    0  501 -0.00000000000E+00 -0.00000000000E+00 -0.43891498953E+03  0.43891498953E+03  0.25500000000E-02 0.  1.
    8880022    1    1    2    0    0 -0.25984389596E+03 -0.84811306172E+03  0.32005548584E+04  0.33247191867E+04  0.15294330000E+03 0.  0.
    8880022    1    1    2    0    0  0.25984389596E+03  0.84811306172E+03  0.16067758650E+03  0.91434323727E+03  0.15294330000E+03 0.  0.
<mgrwt>
<rscale>  0 0.90011459E+03</rscale>
<asrwt>0</asrwt>
<pdfrwt beam="1">  1        2 0.58463806E+00 0.90011459E+03</pdfrwt>
<pdfrwt beam="2">  1       -2 0.67525384E-01 0.90011459E+03</pdfrwt>
<totfact> 0.10526434E+00</totfact>
</mgrwt>
</event>
<event>
 4    1  0.3365401E-008  0.3380125E+03  0.7818608E-02  0.1067646E+00
         -2   -1    0    0    0  501 -0.00000000000E+00  0.00000000000E+00  0.13817754926E+03  0.13817754928E+03  0.25500000000E-02 0.  1.
          2   -1    0    0  501    0  0.00000000000E+00 -0.00000000000E+00 -0.21882189084E+04  0.21882189084E+04  0.25500000000E-02 0. -1.
    8880022    1    1    2    0    0  0.10329663978E+03  0.28317940474E+03 -0.10754217842E+03  0.35470797033E+03  0.15294330000E+03 0.  1.
    8880022    1    1    2    0    0 -0.10329663978E+03 -0.28317940474E+03 -0.19424991807E+04  0.19716884874E+04  0.15294330000E+03 0. -1.
<mgrwt>
<rscale>  0 0.33801246E+03</rscale>
<asrwt>0</asrwt>
<pdfrwt beam="1">  1        2 0.33664904E+00 0.33801246E+03</pdfrwt>
<pdfrwt beam="2">  1       -2 0.21258086E-01 0.33801246E+03</pdfrwt>
<totfact> 0.11051672E+02</totfact>
</mgrwt>
</event>
<event>
 4    1  0.3704307E-008  0.9521376E+03  0.7818608E-02  0.9362656E-01
          2   -1    0    0  501    0  0.00000000000E+00  0.00000000000E+00  0.11439823004E+04  0.11439823004E+04  0.25500000000E-02 0. -1.
         -2   -1    0    0    0  501 -0.00000000000E+00 -0.00000000000E+00 -0.16227872670E+04  0.16227872670E+04  0.25500000000E-02 0.  1.
    8880022    1    1    2    0    0  0.75769275552E+03  0.55594599729E+03  0.75014250816E+03  0.12121384819E+04  0.15294330000E+03 0.  0.
    8880022    1    1    2    0    0 -0.75769275552E+03 -0.55594599729E+03 -0.12289474747E+04  0.15546310856E+04  0.15294330000E+03 0.  0.
<mgrwt>
<rscale>  0 0.95213755E+03</rscale>
<asrwt>0</asrwt>
<pdfrwt beam="1">  1        2 0.17599728E+00 0.95213755E+03</pdfrwt>
<pdfrwt beam="2">  1       -2 0.24965958E+00 0.95213755E+03</pdfrwt>
<totfact> 0.13264846E+00</totfact>
</mgrwt>
</event>
<event>
 4    1  0.3365401E-008  0.1096873E+04  0.7818608E-02  0.9208245E-01
          2   -1    0    0  501    0  0.00000000000E+00  0.00000000000E+00  0.11642880804E+04  0.11642880804E+04  0.25500000000E-02 0. -1.
         -2   -1    0    0    0  501 -0.00000000000E+00 -0.00000000000E+00 -0.11791386222E+04  0.11791386222E+04  0.25500000000E-02 0.  1.
    8880022    1    1    2    0    0 -0.78721957252E+03  0.74834740729E+03  0.40456223975E+03  0.11691025431E+04  0.15294330000E+03 0.  0.
    8880022    1    1    2    0    0  0.78721957252E+03 -0.74834740729E+03 -0.41941278156E+03  0.11743241596E+04  0.15294330000E+03 0.  0.
<mgrwt>
<rscale>  0 0.10968729E+04</rscale>
<asrwt>0</asrwt>
<pdfrwt beam="1">  1        2 0.17912124E+00 0.10968729E+04</pdfrwt>
<pdfrwt beam="2">  1       -2 0.18140594E+00 0.10968729E+04</pdfrwt>
<totfact> 0.34629271E+00</totfact>
</mgrwt>
</event>
<event>
 4    1  0.3365401E-008  0.8675983E+03  0.7818608E-02  0.9467017E-01
          2   -1    0    0  501    0  0.00000000000E+00  0.00000000000E+00  0.18350508686E+04  0.18350508686E+04  0.25500000000E-02 0. -1.
         -2   -1    0    0    0  501 -0.00000000000E+00 -0.00000000000E+00 -0.70628184406E+03  0.70628184407E+03  0.25500000000E-02 0.  1.
    8880022    1    1    2    0    0  0.29846701652E+03 -0.80015782807E+03 -0.25833696763E+03  0.90524292409E+03  0.15294330000E+03 0.  0.
    8880022    1    1    2    0    0 -0.29846701652E+03  0.80015782807E+03  0.13871059922E+04  0.16360897886E+04  0.15294330000E+03 0. -1.
<mgrwt>
<rscale>  0 0.86759827E+03</rscale>
<asrwt>0</asrwt>
<pdfrwt beam="1">  1        2 0.28231551E+00 0.86759827E+03</pdfrwt>
<pdfrwt beam="2">  1       -2 0.10865875E+00 0.86759827E+03</pdfrwt>
<totfact> 0.56652922E+00</totfact>
</mgrwt>
</event>
<event>
 4    1  0.4087377E-008  0.9049380E+03  0.7818608E-02  0.9419430E-01
         -2   -1    0    0    0  501 -0.00000000000E+00  0.00000000000E+00  0.17842071165E+04  0.17842071165E+04  0.25500000000E-02 0.  1.
          2   -1    0    0  501    0  0.00000000000E+00 -0.00000000000E+00 -0.14728960124E+04  0.14728960124E+04  0.25500000000E-02 0. -1.
    8880022    1    1    2    0    0 -0.13136428305E+02  0.89182317899E+03  0.15068466384E+04  0.17576972415E+04  0.15294330000E+03 0.  0.
    8880022    1    1    2    0    0  0.13136428305E+02 -0.89182317899E+03 -0.11955355343E+04  0.14994058874E+04  0.15294330000E+03 0.  0.
<mgrwt>
<rscale>  0 0.90493801E+03</rscale>
<asrwt>0</asrwt>
<pdfrwt beam="1">  1        2 0.22659939E+00 0.90493801E+03</pdfrwt>
<pdfrwt beam="2">  1       -2 0.27449340E+00 0.90493801E+03</pdfrwt>
<totfact> 0.60857353E-01</totfact>
</mgrwt>
</event>
<event>
 4    1  0.3365401E-008  0.5939089E+03  0.7818608E-02  0.9918124E-01
         -2   -1    0    0    0  501 -0.00000000000E+00  0.00000000000E+00  0.11031706070E+04  0.11031706070E+04  0.25500000000E-02 0.  1.
          2   -1    0    0  501    0  0.00000000000E+00 -0.00000000000E+00 -0.67394254854E+03  0.67394254855E+03  0.25500000000E-02 0. -1.
    8880022    1    1    2    0    0  0.30944059831E+03 -0.48330385346E+03  0.85878255191E+03  0.10441432963E+04  0.15294330000E+03 0.  0.
    8880022    1    1    2    0    0 -0.30944059831E+03  0.48330385346E+03 -0.42955449351E+03  0.73296985924E+03  0.15294330000E+03 0.  0.
<mgrwt>
<rscale>  0 0.59390887E+03</rscale>
<asrwt>0</asrwt>
<pdfrwt beam="1">  1        2 0.10368347E+00 0.59390887E+03</pdfrwt>
<pdfrwt beam="2">  1       -2 0.16971855E+00 0.59390887E+03</pdfrwt>
<totfact> 0.95417589E+00</totfact>
</mgrwt>
</event>
<event>
 4    1  0.3365401E-008  0.6820722E+03  0.7818608E-02  0.9748392E-01
          2   -1    0    0  501    0  0.00000000000E+00  0.00000000000E+00  0.27120573281E+04  0.27120573281E+04  0.25500000000E-02 0. -1.
         -2   -1    0    0    0  501 -0.00000000000E+00 -0.00000000000E+00 -0.28756887137E+03  0.28756887138E+03  0.25500000000E-02 0.  1.
    8880022    1    1    2    0    0  0.51901990495E+03 -0.41526992398E+03  0.25955353220E+03  0.72978795591E+03  0.15294330000E+03 0.  0.
    8880022    1    1    2    0    0 -0.51901990495E+03  0.41526992398E+03  0.21649349246E+04  0.22698382436E+04  0.15294330000E+03 0.  0.
<mgrwt>
<rscale>  0 0.68207215E+03</rscale>
<asrwt>0</asrwt>
<pdfrwt beam="1">  1        2 0.41723960E+00 0.68207215E+03</pdfrwt>
<pdfrwt beam="2">  1       -2 0.44241364E-01 0.68207215E+03</pdfrwt>
<totfact> 0.13489786E+01</totfact>
</mgrwt>
</event>
<event>
 4    1  0.3365401E-008  0.5046165E+03  0.7818608E-02  0.1012581E+00
          2   -1    0    0  501    0  0.00000000000E+00  0.00000000000E+00  0.12681667171E+04  0.12681667171E+04  0.25500000000E-02 0. -1.
         -2   -1    0    0    0  501 -0.00000000000E+00 -0.00000000000E+00 -0.72730218582E+03  0.72730218582E+03  0.25500000000E-02 0.  1.
    8880022    1    1    2    0    0  0.42509690458E+03 -0.22480836622E+03 -0.57847622606E+03  0.76764091666E+03  0.15294330000E+03 0.  0.
    8880022    1    1    2    0    0 -0.42509690458E+03  0.22480836622E+03  0.11193407573E+04  0.12278279863E+04  0.15294330000E+03 0.  0.
<mgrwt>
<rscale>  0 0.50461652E+03</rscale>
<asrwt>0</asrwt>
<pdfrwt beam="1">  1        2 0.19510257E+00 0.50461652E+03</pdfrwt>
<pdfrwt beam="2">  1       -2 0.11189265E+00 0.50461652E+03</pdfrwt>
<totfact> 0.11529765E+01</totfact>
</mgrwt>
</event>
<event>
 4    1  0.3365401E-008  0.8040018E+03  0.7818608E-02  0.9554243E-01
          2   -1    0    0  501    0  0.00000000000E+00  0.00000000000E+00  0.92366078353E+03  0.92366078354E+03  0.25500000000E-02 0. -1.
         -2   -1    0    0    0  501 -0.00000000000E+00 -0.00000000000E+00 -0.12148825321E+04  0.12148825321E+04  0.25500000000E-02 0.  1.
    8880022    1    1    2    0    0 -0.27367731573E+03 -0.74035664616E+03  0.55059963579E+03  0.97446336442E+03  0.15294330000E+03 0.  0.
    8880022    1    1    2    0    0  0.27367731573E+03  0.74035664616E+03 -0.84182138438E+03  0.11640799512E+04  0.15294330000E+03 0.  0.
<mgrwt>
<rscale>  0 0.80400180E+03</rscale>
<asrwt>0</asrwt>
<pdfrwt beam="1">  1        2 0.14210166E+00 0.80400180E+03</pdfrwt>
<pdfrwt beam="2">  1       -2 0.18690501E+00 0.80400180E+03</pdfrwt>
<totfact> 0.46616390E+00</totfact>
</mgrwt>
</event>
<event>
 4    1  0.3365401E-008  0.3189338E+03  0.7818608E-02  0.1076141E+00
         -2   -1    0    0    0  501 -0.00000000000E+00  0.00000000000E+00  0.13008107753E+04  0.13008107753E+04  0.25500000000E-02 0.  1.
          2   -1    0    0  501    0  0.00000000000E+00 -0.00000000000E+00 -0.71203364713E+03  0.71203364714E+03  0.25500000000E-02 0. -1.
    8880022    1    1    2    0    0  0.15278254241E+03 -0.23448800846E+03 -0.65516357362E+03  0.72866871252E+03  0.15294330000E+03 0.  0.
    8880022    1    1    2    0    0 -0.15278254241E+03  0.23448800846E+03  0.12439407018E+04  0.12841757099E+04  0.15294330000E+03 0.  0.
<mgrwt>
<rscale>  0 0.31893382E+03</rscale>
<asrwt>0</asrwt>
<pdfrwt beam="1">  1        2 0.10954364E+00 0.31893382E+03</pdfrwt>
<pdfrwt beam="2">  1       -2 0.20012473E+00 0.31893382E+03</pdfrwt>
<totfact> 0.59046800E+00</totfact>
</mgrwt>
</event>
<event>
 4    1  0.3365401E-008  0.3973878E+03  0.7818608E-02  0.1044688E+00
          2   -1    0    0  501    0  0.00000000000E+00  0.00000000000E+00  0.19465608575E+04  0.19465608575E+04  0.25500000000E-02 0. -1.
         -2   -1    0    0    0  501 -0.00000000000E+00 -0.00000000000E+00 -0.50144142481E+03  0.50144142482E+03  0.25500000000E-02 0.  1.
    8880022    1    1    2    0    0  0.35667416443E+03 -0.85492388002E+02 -0.39806264816E+03  0.56246860610E+03  0.15294330000E+03 0.  0.
    8880022    1    1    2    0    0 -0.35667416443E+03  0.85492388002E+02  0.18431820809E+04  0.18855336763E+04  0.15294330000E+03 0.  0.
<mgrwt>
<rscale>  0 0.39738780E+03</rscale>
<asrwt>0</asrwt>
<pdfrwt beam="1">  1        2 0.29947091E+00 0.39738780E+03</pdfrwt>
<pdfrwt beam="2">  1       -2 0.77144834E-01 0.39738780E+03</pdfrwt>
<totfact> 0.11916638E+01</totfact>
</mgrwt>
</event>
<event>
 4    1  0.3365401E-008  0.2819068E+03  0.7818608E-02  0.1094652E+00
          2   -1    0    0  501    0  0.00000000000E+00  0.00000000000E+00  0.64433083960E+03  0.64433083960E+03  0.25500000000E-02 0. -1.
         -2   -1    0    0    0  501 -0.00000000000E+00 -0.00000000000E+00 -0.12593988525E+03  0.12593988527E+03  0.25500000000E-02 0.  1.
    8880022    1    1    2    0    0  0.11082958824E+03 -0.20927633470E+03  0.20385387566E+03  0.34789055396E+03  0.15294330000E+03 0.  1.
    8880022    1    1    2    0    0 -0.11082958824E+03  0.20927633470E+03  0.31453707869E+03  0.42238017092E+03  0.15294330000E+03 0. -1.
<mgrwt>
<rscale>  0 0.28190678E+03</rscale>
<asrwt>0</asrwt>
<pdfrwt beam="1">  1        2 0.99127823E-01 0.28190678E+03</pdfrwt>
<pdfrwt beam="2">  1       -2 0.19375367E-01 0.28190678E+03</pdfrwt>
<totfact> 0.10313114E+03</totfact>
</mgrwt>
</event>
<event>
 4    1  0.3365401E-008  0.6649397E+03  0.7818608E-02  0.9779143E-01
          2   -1    0    0  501    0  0.00000000000E+00  0.00000000000E+00  0.13325894648E+04  0.13325894648E+04  0.25500000000E-02 0. -1.
         -2   -1    0    0    0  501 -0.00000000000E+00 -0.00000000000E+00 -0.81190267443E+03  0.81190267443E+03  0.25500000000E-02 0.  1.
    8880022    1    1    2    0    0 -0.26660910271E+03 -0.58963775368E+03 -0.56419788504E+03  0.87204587076E+03  0.15294330000E+03 0.  0.
    8880022    1    1    2    0    0  0.26660910271E+03  0.58963775368E+03  0.10848846754E+04  0.12724462685E+04  0.15294330000E+03 0.  0.
<mgrwt>
<rscale>  0 0.66493966E+03</rscale>
<asrwt>0</asrwt>
<pdfrwt beam="1">  1        2 0.20501376E+00 0.66493966E+03</pdfrwt>
<pdfrwt beam="2">  1       -2 0.12490810E+00 0.66493966E+03</pdfrwt>
<totfact> 0.78664340E+00</totfact>
</mgrwt>
</event>
<event>
 4    1  0.3365401E-008  0.6384401E+03  0.7818608E-02  0.9828716E-01
         -2   -1    0    0    0  501 -0.00000000000E+00  0.00000000000E+00  0.61366563734E+03  0.61366563735E+03  0.25500000000E-02 0.  1.
          2   -1    0    0  501    0  0.00000000000E+00 -0.00000000000E+00 -0.95835429276E+03  0.95835429276E+03  0.25500000000E-02 0. -1.
    8880022    1    1    2    0    0  0.53471201018E+02 -0.61753946837E+03  0.26310903916E+03  0.69053036416E+03  0.15294330000E+03 0.  0.
    8880022    1    1    2    0    0 -0.53471201018E+02  0.61753946837E+03 -0.60779769458E+03  0.88148956595E+03  0.15294330000E+03 0.  0.
<mgrwt>
<rscale>  0 0.63844014E+03</rscale>
<asrwt>0</asrwt>
<pdfrwt beam="1">  1        2 0.14743912E+00 0.63844014E+03</pdfrwt>
<pdfrwt beam="2">  1       -2 0.94410098E-01 0.63844014E+03</pdfrwt>
<totfact> 0.26060542E+01</totfact>
</mgrwt>
</event>
<event>
 4    1  0.3365401E-008  0.2755298E+03  0.7818608E-02  0.1098156E+00
         -2   -1    0    0    0  501 -0.00000000000E+00  0.00000000000E+00  0.50450151315E+02  0.50450151380E+02  0.25500000000E-02 0.  1.
          2   -1    0    0  501    0  0.00000000000E+00 -0.00000000000E+00 -0.36300831005E+04  0.36300831005E+04  0.25500000000E-02 0. -1.
    8880022    1    1    2    0    0 -0.20417264515E+03 -0.10410827147E+03 -0.31979127396E+04  0.32097605119E+04  0.15294330000E+03 0.  0.
    8880022    1    1    2    0    0  0.20417264515E+03  0.10410827147E+03 -0.38172020964E+03  0.47077273995E+03  0.15294330000E+03 0.  0.
<mgrwt>
<rscale>  0 0.27552977E+03</rscale>
<asrwt>0</asrwt>
<pdfrwt beam="1">  1        2 0.55847412E+00 0.27552977E+03</pdfrwt>
<pdfrwt beam="2">  1       -2 0.77615646E-02 0.27552977E+03</pdfrwt>
<totfact> 0.82153035E+01</totfact>
</mgrwt>
</event>
<event>
 4    1  0.3365401E-008  0.8595009E+03  0.7818608E-02  0.9477673E-01
         -2   -1    0    0    0  501 -0.00000000000E+00  0.00000000000E+00  0.26418507956E+03  0.26418507957E+03  0.25500000000E-02 0.  1.
          2   -1    0    0  501    0  0.00000000000E+00 -0.00000000000E+00 -0.47232893565E+04  0.47232893565E+04  0.25500000000E-02 0. -1.
    8880022    1    1    2    0    0 -0.35630134881E+03 -0.76707206017E+03 -0.38223754194E+04  0.39178177212E+04  0.15294330000E+03 0.  0.
    8880022    1    1    2    0    0  0.35630134881E+03  0.76707206017E+03 -0.63672885754E+03  0.10696567149E+04  0.15294330000E+03 0.  0.
<mgrwt>
<rscale>  0 0.85950093E+03</rscale>
<asrwt>0</asrwt>
<pdfrwt beam="1">  1        2 0.72665984E+00 0.85950093E+03</pdfrwt>
<pdfrwt beam="2">  1       -2 0.40643862E-01 0.85950093E+03</pdfrwt>
<totfact> 0.46620200E-01</totfact>
</mgrwt>
</event>
<event>
 4    1  0.3365401E-008  0.2999722E+03  0.7818608E-02  0.1085255E+00
         -2   -1    0    0    0  501 -0.00000000000E+00  0.00000000000E+00  0.16714360313E+03  0.16714360315E+03  0.25500000000E-02 0.  1.
          2   -1    0    0  501    0  0.00000000000E+00 -0.00000000000E+00 -0.99658342353E+03  0.99658342353E+03  0.25500000000E-02 0. -1.
    8880022    1    1    2    0    0 -0.12466745477E+03  0.22594178548E+03 -0.20168811489E+02  0.30064946146E+03  0.15294330000E+03 0.  0.
    8880022    1    1    2    0    0  0.12466745477E+03 -0.22594178548E+03 -0.80927100892E+03  0.86307756522E+03  0.15294330000E+03 0.  0.
<mgrwt>
<rscale>  0 0.29997219E+03</rscale>
<asrwt>0</asrwt>
<pdfrwt beam="1">  1        2 0.15332052E+00 0.29997219E+03</pdfrwt>
<pdfrwt beam="2">  1       -2 0.25714401E-01 0.29997219E+03</pdfrwt>
<totfact> 0.35802894E+02</totfact>
</mgrwt>
</event>
<event>
 4    1  0.3365401E-008  0.9800280E+03  0.7818608E-02  0.9330725E-01
         -2   -1    0    0    0  501 -0.00000000000E+00  0.00000000000E+00  0.37455875695E+03  0.37455875696E+03  0.25500000000E-02 0.  1.
          2   -1    0    0  501    0  0.00000000000E+00 -0.00000000000E+00 -0.34414337568E+04  0.34414337568E+04  0.25500000000E-02 0. -1.
    8880022    1    1    2    0    0 -0.44462481849E+03 -0.85986738405E+03 -0.24967297212E+04  0.26821845763E+04  0.15294330000E+03 0.  0.
    8880022    1    1    2    0    0  0.44462481849E+03  0.85986738405E+03 -0.57014527864E+03  0.11338079375E+04  0.15294330000E+03 0.  0.
<mgrwt>
<rscale>  0 0.98002796E+03</rscale>
<asrwt>0</asrwt>
<pdfrwt beam="1">  1        2 0.52945133E+00 0.98002796E+03</pdfrwt>
<pdfrwt beam="2">  1       -2 0.57624427E-01 0.98002796E+03</pdfrwt>
<totfact> 0.26149982E+00</totfact>
</mgrwt>
</event>
<event>
 4    1  0.3365401E-008  0.3622179E+03  0.7818608E-02  0.1057709E+00
          2   -1    0    0  501    0  0.00000000000E+00  0.00000000000E+00  0.68867031977E+03  0.68867031978E+03  0.25500000000E-02 0. -1.
         -2   -1    0    0    0  501 -0.00000000000E+00 -0.00000000000E+00 -0.31315689259E+03  0.31315689260E+03  0.25500000000E-02 0.  1.
    8880022    1    1    2    0    0 -0.32734719224E+03 -0.25572155509E+02 -0.12571756732E+03  0.38341450045E+03  0.15294330000E+03 0.  0.
    8880022    1    1    2    0    0  0.32734719224E+03  0.25572155509E+02  0.50123099451E+03  0.61841271193E+03  0.15294330000E+03 0.  0.
<mgrwt>
<rscale>  0 0.36221785E+03</rscale>
<asrwt>0</asrwt>
<pdfrwt beam="1">  1        2 0.10594928E+00 0.36221785E+03</pdfrwt>
<pdfrwt beam="2">  1       -2 0.48177983E-01 0.36221785E+03</pdfrwt>
<totfact> 0.17709694E+02</totfact>
</mgrwt>
</event>
<event>
 4    1  0.3365401E-008  0.5820732E+03  0.7818608E-02  0.9943313E-01
          2   -1    0    0  501    0  0.00000000000E+00  0.00000000000E+00  0.17757236587E+04  0.17757236587E+04  0.25500000000E-02 0. -1.
         -2   -1    0    0    0  501 -0.00000000000E+00 -0.00000000000E+00 -0.20085525569E+03  0.20085525570E+03  0.25500000000E-02 0.  1.
    8880022    1    1    2    0    0 -0.28738232658E+03  0.48252350796E+03  0.10085529388E+04  0.11644690725E+04  0.15294330000E+03 0.  0.
    8880022    1    1    2    0    0  0.28738232658E+03 -0.48252350796E+03  0.56631546426E+03  0.81210984198E+03  0.15294330000E+03 0.  0.
<mgrwt>
<rscale>  0 0.58207318E+03</rscale>
<asrwt>0</asrwt>
<pdfrwt beam="1">  1        2 0.27318826E+00 0.58207318E+03</pdfrwt>
<pdfrwt beam="2">  1       -2 0.30900808E-01 0.58207318E+03</pdfrwt>
<totfact> 0.90027127E+01</totfact>
</mgrwt>
</event>
<event>
 4    1  0.3365401E-008  0.4200434E+03  0.7818608E-02  0.1037052E+00
         -2   -1    0    0    0  501 -0.00000000000E+00  0.00000000000E+00  0.30212259699E+03  0.30212259700E+03  0.25500000000E-02 0.  1.
          2   -1    0    0  501    0  0.00000000000E+00 -0.00000000000E+00 -0.16712749767E+04  0.16712749767E+04  0.25500000000E-02 0. -1.
    8880022    1    1    2    0    0  0.10333054075E+02  0.39107290277E+03 -0.14804283911E+04  0.15388647314E+04  0.15294330000E+03 0. -1.
    8880022    1    1    2    0    0 -0.10333054075E+02 -0.39107290277E+03  0.11127601143E+03  0.43453284229E+03  0.15294330000E+03 0.  0.
<mgrwt>
<rscale>  0 0.42004338E+03</rscale>
<asrwt>0</asrwt>
<pdfrwt beam="1">  1        2 0.25711922E+00 0.42004338E+03</pdfrwt>
<pdfrwt beam="2">  1       -2 0.46480400E-01 0.42004338E+03</pdfrwt>
<totfact> 0.48048716E+01</totfact>
</mgrwt>
</event>
<event>
 4    1  0.3365401E-008  0.1249556E+04  0.7818608E-02  0.9070553E-01
         -2   -1    0    0    0  501 -0.00000000000E+00  0.00000000000E+00  0.18448972863E+04  0.18448972863E+04  0.25500000000E-02 0.  1.
          2   -1    0    0  501    0  0.00000000000E+00 -0.00000000000E+00 -0.12649434889E+04  0.12649434889E+04  0.25500000000E-02 0. -1.
    8880022    1    1    2    0    0 -0.11013586037E+04 -0.57009373923E+03  0.11844760696E+04  0.17217354204E+04  0.15294330000E+03 0.  0.
    8880022    1    1    2    0    0  0.11013586037E+04  0.57009373923E+03 -0.60452227213E+03  0.13881053548E+04  0.15294330000E+03 0.  0.
<mgrwt>
<rscale>  0 0.12495556E+04</rscale>
<asrwt>0</asrwt>
<pdfrwt beam="1">  1        2 0.19460669E+00 0.12495556E+04</pdfrwt>
<pdfrwt beam="2">  1       -2 0.28383035E+00 0.12495556E+04</pdfrwt>
<totfact> 0.67022147E-01</totfact>
</mgrwt>
</event>
<event>
 4    1  0.3365401E-008  0.1577636E+03  0.7818608E-02  0.1191245E+00
         -2   -1    0    0    0  501 -0.00000000000E+00  0.00000000000E+00  0.27300186343E+03  0.27300186344E+03  0.25500000000E-02 0.  1.
          2   -1    0    0  501    0  0.00000000000E+00 -0.00000000000E+00 -0.24606861770E+03  0.24606861772E+03  0.25500000000E-02 0. -1.
    8880022    1    1    2    0    0 -0.18492427721E+02  0.33995921970E+02 -0.19245084802E+03  0.24885070728E+03  0.15294330000E+03 0. -1.
    8880022    1    1    2    0    0  0.18492427721E+02 -0.33995921970E+02  0.21938409375E+03  0.27021977388E+03  0.15294330000E+03 0.  0.
<mgrwt>
<rscale>  0 0.15776358E+03</rscale>
<asrwt>0</asrwt>
<pdfrwt beam="1">  1        2 0.37856711E-01 0.15776358E+03</pdfrwt>
<pdfrwt beam="2">  1       -2 0.42000286E-01 0.15776358E+03</pdfrwt>
<totfact> 0.73299631E+02</totfact>
</mgrwt>
</event>
<event>
 4    1  0.3365401E-008  0.1428290E+04  0.7818608E-02  0.8933591E-01
         -2   -1    0    0    0  501 -0.00000000000E+00  0.00000000000E+00  0.11368637403E+04  0.11368637403E+04  0.25500000000E-02 0.  1.
          2   -1    0    0  501    0  0.00000000000E+00 -0.00000000000E+00 -0.41004344872E+04  0.41004344872E+04  0.25500000000E-02 0. -1.
    8880022    1    1    2    0    0 -0.13555170835E+04 -0.42331472420E+03  0.48199617688E+03  0.15074262460E+04  0.15294330000E+03 0.  0.
    8880022    1    1    2    0    0  0.13555170835E+04  0.42331472420E+03 -0.34455669238E+04  0.37298719815E+04  0.15294330000E+03 0.  0.
<mgrwt>
<rscale>  0 0.14282904E+04</rscale>
<asrwt>0</asrwt>
<pdfrwt beam="1">  1        2 0.63083607E+00 0.14282904E+04</pdfrwt>
<pdfrwt beam="2">  1       -2 0.17490212E+00 0.14282904E+04</pdfrwt>
<totfact> 0.54004806E-02</totfact>
</mgrwt>
</event>
<event>
 4    1  0.3365401E-008  0.8137254E+03  0.7818608E-02  0.9540360E-01
         -2   -1    0    0    0  501 -0.00000000000E+00  0.00000000000E+00  0.54465186632E+03  0.54465186633E+03  0.25500000000E-02 0.  1.
          2   -1    0    0  501    0  0.00000000000E+00 -0.00000000000E+00 -0.25535530136E+04  0.25535530136E+04  0.25500000000E-02 0. -1.
    8880022    1    1    2    0    0  0.38529052415E+03  0.70022042056E+03 -0.21257127943E+04  0.22761379488E+04  0.15294330000E+03 0.  0.
    8880022    1    1    2    0    0 -0.38529052415E+03 -0.70022042056E+03  0.11681164697E+03  0.82206693112E+03  0.15294330000E+03 0.  0.
<mgrwt>
<rscale>  0 0.81372543E+03</rscale>
<asrwt>0</asrwt>
<pdfrwt beam="1">  1        2 0.39285430E+00 0.81372543E+03</pdfrwt>
<pdfrwt beam="2">  1       -2 0.83792596E-01 0.81372543E+03</pdfrwt>
<totfact> 0.41941269E+00</totfact>
</mgrwt>
</event>
<event>
 4    1  0.3365401E-008  0.3392790E+03  0.7818608E-02  0.1067103E+00
         -2   -1    0    0    0  501 -0.00000000000E+00  0.00000000000E+00  0.28957772052E+03  0.28957772053E+03  0.25500000000E-02 0.  1.
          2   -1    0    0  501    0  0.00000000000E+00 -0.00000000000E+00 -0.13776300242E+04  0.13776300242E+04  0.25500000000E-02 0. -1.
    8880022    1    1    2    0    0 -0.14995215076E+01 -0.30284701141E+03 -0.12471517699E+04  0.12924773696E+04  0.15294330000E+03 0.  0.
    8880022    1    1    2    0    0  0.14995215076E+01  0.30284701141E+03  0.15909946618E+03  0.37473037512E+03  0.15294330000E+03 0.  0.
<mgrwt>
<rscale>  0 0.33927896E+03</rscale>
<asrwt>0</asrwt>
<pdfrwt beam="1">  1        2 0.21194308E+00 0.33927896E+03</pdfrwt>
<pdfrwt beam="2">  1       -2 0.44550419E-01 0.33927896E+03</pdfrwt>
<totfact> 0.76665352E+01</totfact>
</mgrwt>
</event>
<event>
 4    1  0.3365401E-008  0.7116555E+03  0.7818608E-02  0.9697505E-01
         -2   -1    0    0    0  501 -0.00000000000E+00  0.00000000000E+00  0.69407770641E+03  0.69407770641E+03  0.25500000000E-02 0.  1.
          2   -1    0    0  501    0  0.00000000000E+00 -0.00000000000E+00 -0.17129644895E+04  0.17129644895E+04  0.25500000000E-02 0. -1.
    8880022    1    1    2    0    0 -0.23437186097E+03 -0.65431775100E+03  0.40239834280E+03  0.81754386292E+03  0.15294330000E+03 0.  0.
    8880022    1    1    2    0    0  0.23437186097E+03  0.65431775100E+03 -0.14212851259E+04  0.15894983330E+04  0.15294330000E+03 0.  0.
<mgrwt>
<rscale>  0 0.71165549E+03</rscale>
<asrwt>0</asrwt>
<pdfrwt beam="1">  1        2 0.26353300E+00 0.71165549E+03</pdfrwt>
<pdfrwt beam="2">  1       -2 0.10678119E+00 0.71165549E+03</pdfrwt>
<totfact> 0.70491830E+00</totfact>
</mgrwt>
</event>
<event>
 4    1  0.3365401E-008  0.6969366E+03  0.7818608E-02  0.9722485E-01
         -2   -1    0    0    0  501 -0.00000000000E+00  0.00000000000E+00  0.11094387118E+04  0.11094387118E+04  0.25500000000E-02 0.  1.
          2   -1    0    0  501    0  0.00000000000E+00 -0.00000000000E+00 -0.45904988783E+03  0.45904988784E+03  0.25500000000E-02 0. -1.
    8880022    1    1    2    0    0  0.40764577489E+03 -0.54420026928E+03  0.49389725568E+03  0.85419855013E+03  0.15294330000E+03 0.  0.
    8880022    1    1    2    0    0 -0.40764577489E+03  0.54420026928E+03  0.15649156828E+03  0.71429004951E+03  0.15294330000E+03 0.  0.
<mgrwt>
<rscale>  0 0.69693663E+03</rscale>
<asrwt>0</asrwt>
<pdfrwt beam="1">  1        2 0.70623060E-01 0.69693663E+03</pdfrwt>
<pdfrwt beam="2">  1       -2 0.17068288E+00 0.69693663E+03</pdfrwt>
<totfact> 0.14620114E+01</totfact>
</mgrwt>
</event>
<event>
 4    1  0.3365401E-008  0.7976323E+03  0.7818608E-02  0.9563451E-01
          2   -1    0    0  501    0  0.00000000000E+00  0.00000000000E+00  0.87644034241E+03  0.87644034241E+03  0.25500000000E-02 0. -1.
         -2   -1    0    0    0  501 -0.00000000000E+00 -0.00000000000E+00 -0.15341269995E+04  0.15341269995E+04  0.25500000000E-02 0.  1.
    8880022    1    1    2    0    0 -0.68154072598E+03  0.38513354621E+03  0.54598425413E+03  0.96660026296E+03  0.15294330000E+03 0.  0.
    8880022    1    1    2    0    0  0.68154072598E+03 -0.38513354621E+03 -0.12036709112E+04  0.14439670790E+04  0.15294330000E+03 0.  0.
<mgrwt>
<rscale>  0 0.79763229E+03</rscale>
<asrwt>0</asrwt>
<pdfrwt beam="1">  1        2 0.13483698E+00 0.79763229E+03</pdfrwt>
<pdfrwt beam="2">  1       -2 0.23601954E+00 0.79763229E+03</pdfrwt>
<totfact> 0.24385595E+00</totfact>
</mgrwt>
</event>
<event>
 4    1  0.3365401E-008  0.3977954E+03  0.7818608E-02  0.1044546E+00
          2   -1    0    0  501    0  0.00000000000E+00  0.00000000000E+00  0.71224215032E+03  0.71224215032E+03  0.25500000000E-02 0. -1.
         -2   -1    0    0    0  501 -0.00000000000E+00 -0.00000000000E+00 -0.34038781992E+03  0.34038781993E+03  0.25500000000E-02 0.  1.
    8880022    1    1    2    0    0  0.32035160626E+03 -0.17951139351E+03  0.49609321163E+03  0.63588491071E+03  0.15294330000E+03 0.  0.
    8880022    1    1    2    0    0 -0.32035160626E+03  0.17951139351E+03 -0.12423888122E+03  0.41674505954E+03  0.15294330000E+03 0.  1.
<mgrwt>
<rscale>  0 0.39779536E+03</rscale>
<asrwt>0</asrwt>
<pdfrwt beam="1">  1        2 0.10957571E+00 0.39779536E+03</pdfrwt>
<pdfrwt beam="2">  1       -2 0.52367357E-01 0.39779536E+03</pdfrwt>
<totfact> 0.14310118E+02</totfact>
</mgrwt>
</event>
<event>
 4    1  0.3365401E-008  0.3200058E+03  0.7818608E-02  0.1075647E+00
          2   -1    0    0  501    0  0.00000000000E+00  0.00000000000E+00  0.50560080178E+03  0.50560080179E+03  0.25500000000E-02 0. -1.
         -2   -1    0    0    0  501 -0.00000000000E+00 -0.00000000000E+00 -0.23771979308E+03  0.23771979309E+03  0.25500000000E-02 0.  1.
    8880022    1    1    2    0    0 -0.25868358564E+03  0.10997671477E+03  0.27691816038E+03  0.42318718770E+03  0.15294330000E+03 0.  0.
    8880022    1    1    2    0    0  0.25868358564E+03 -0.10997671477E+03 -0.90371516806E+01  0.32013340718E+03  0.15294330000E+03 0.  1.
<mgrwt>
<rscale>  0 0.32000583E+03</rscale>
<asrwt>0</asrwt>
<pdfrwt beam="1">  1        2 0.77784738E-01 0.32000583E+03</pdfrwt>
<pdfrwt beam="2">  1       -2 0.36572276E-01 0.32000583E+03</pdfrwt>
<totfact> 0.43631269E+02</totfact>
</mgrwt>
</event>
<event>
 4    1  0.3365401E-008  0.5023980E+03  0.7818608E-02  0.1013155E+00
         -2   -1    0    0    0  501 -0.00000000000E+00  0.00000000000E+00  0.21038475307E+04  0.21038475307E+04  0.25500000000E-02 0.  1.
          2   -1    0    0  501    0  0.00000000000E+00 -0.00000000000E+00 -0.52222056240E+03  0.52222056241E+03  0.25500000000E-02 0. -1.
    8880022    1    1    2    0    0  0.15467654413E+03  0.45286560271E+03  0.19431942774E+04  0.20070893702E+04  0.15294330000E+03 0.  0.
    8880022    1    1    2    0    0 -0.15467654413E+03 -0.45286560271E+03 -0.36156730906E+03  0.61897872291E+03  0.15294330000E+03 0.  0.
<mgrwt>
<rscale>  0 0.50239799E+03</rscale>
<asrwt>0</asrwt>
<pdfrwt beam="1">  1        2 0.80341624E-01 0.50239799E+03</pdfrwt>
<pdfrwt beam="2">  1       -2 0.32366885E+00 0.50239799E+03</pdfrwt>
<totfact> 0.14669373E+00</totfact>
</mgrwt>
</event>
<event>
 4    1  0.3365401E-008  0.3530938E+03  0.7818608E-02  0.1061352E+00
         -2   -1    0    0    0  501 -0.00000000000E+00  0.00000000000E+00  0.25445550131E+03  0.25445550132E+03  0.25500000000E-02 0.  1.
          2   -1    0    0  501    0  0.00000000000E+00 -0.00000000000E+00 -0.81955134960E+03  0.81955134961E+03  0.25500000000E-02 0. -1.
    8880022    1    1    2    0    0 -0.68412641034E+02  0.31081075096E+03 -0.62309021480E+03  0.71618201678E+03  0.15294330000E+03 0.  0.
    8880022    1    1    2    0    0  0.68412641034E+02 -0.31081075096E+03  0.57994366505E+02  0.35782483414E+03  0.15294330000E+03 0.  1.
<mgrwt>
<rscale>  0 0.35309385E+03</rscale>
<asrwt>0</asrwt>
<pdfrwt beam="1">  1        2 0.12608482E+00 0.35309385E+03</pdfrwt>
<pdfrwt beam="2">  1       -2 0.39147001E-01 0.35309385E+03</pdfrwt>
<totfact> 0.21361454E+02</totfact>
</mgrwt>
</event>
<event>
 4    1  0.3365401E-008  0.7294564E+03  0.7818608E-02  0.9668143E-01
          2   -1    0    0  501    0  0.00000000000E+00  0.00000000000E+00  0.25161173349E+04  0.25161173349E+04  0.25500000000E-02 0. -1.
         -2   -1    0    0    0  501 -0.00000000000E+00 -0.00000000000E+00 -0.39097235304E+03  0.39097235305E+03  0.25500000000E-02 0.  1.
    8880022    1    1    2    0    0 -0.70633002209E+03 -0.99060157372E+02  0.20474432976E+04  0.21735065504E+04  0.15294330000E+03 0.  0.
    8880022    1    1    2    0    0  0.70633002209E+03  0.99060157372E+02  0.77701684250E+02  0.73358313750E+03  0.15294330000E+03 0.  0.
<mgrwt>
<rscale>  0 0.72945642E+03</rscale>
<asrwt>0</asrwt>
<pdfrwt beam="1">  1        2 0.38709499E+00 0.72945642E+03</pdfrwt>
<pdfrwt beam="2">  1       -2 0.60149591E-01 0.72945642E+03</pdfrwt>
<totfact> 0.92413737E+00</totfact>
</mgrwt>
</event>
<event>
 4    1  0.3365401E-008  0.3382758E+03  0.7818608E-02  0.1067533E+00
          2   -1    0    0  501    0  0.00000000000E+00  0.00000000000E+00  0.14797157764E+04  0.14797157764E+04  0.25500000000E-02 0. -1.
         -2   -1    0    0    0  501 -0.00000000000E+00 -0.00000000000E+00 -0.34603442209E+03  0.34603442210E+03  0.25500000000E-02 0.  1.
    8880022    1    1    2    0    0 -0.20017871893E+03 -0.22575954970E+03 -0.23758673797E+03  0.41337392863E+03  0.15294330000E+03 0.  0.
    8880022    1    1    2    0    0  0.20017871893E+03  0.22575954970E+03  0.13712680923E+04  0.14123762699E+04  0.15294330000E+03 0.  0.
<mgrwt>
<rscale>  0 0.33827584E+03</rscale>
<asrwt>0</asrwt>
<pdfrwt beam="1">  1        2 0.22764858E+00 0.33827584E+03</pdfrwt>
<pdfrwt beam="2">  1       -2 0.53236065E-01 0.33827584E+03</pdfrwt>
<totfact> 0.47226427E+01</totfact>
</mgrwt>
</event>
<event>
 4    1  0.3365401E-008  0.5260923E+03  0.7818608E-02  0.1007184E+00
          2   -1    0    0  501    0  0.00000000000E+00  0.00000000000E+00  0.11708574931E+04  0.11708574931E+04  0.25500000000E-02 0. -1.
         -2   -1    0    0    0  501 -0.00000000000E+00 -0.00000000000E+00 -0.44537217252E+03  0.44537217253E+03  0.25500000000E-02 0.  1.
    8880022    1    1    2    0    0  0.49843762225E+03 -0.70294685348E+02  0.91631124229E+03  0.10565980086E+04  0.15294330000E+03 0.  0.
    8880022    1    1    2    0    0 -0.49843762225E+03  0.70294685348E+02 -0.19082592175E+03  0.55963165697E+03  0.15294330000E+03 0.  0.
<mgrwt>
<rscale>  0 0.52609225E+03</rscale>
<asrwt>0</asrwt>
<pdfrwt beam="1">  1        2 0.18013192E+00 0.52609225E+03</pdfrwt>
<pdfrwt beam="2">  1       -2 0.68518797E-01 0.52609225E+03</pdfrwt>
<totfact> 0.40129928E+01</totfact>
</mgrwt>
</event>
<event>
 4    1  0.3365401E-008  0.1194953E+04  0.7818608E-02  0.9117285E-01
          2   -1    0    0  501    0  0.00000000000E+00  0.00000000000E+00  0.14264424014E+04  0.14264424014E+04  0.25500000000E-02 0. -1.
         -2   -1    0    0    0  501 -0.00000000000E+00 -0.00000000000E+00 -0.15964383336E+04  0.15964383336E+04  0.25500000000E-02 0.  1.
    8880022    1    1    2    0    0 -0.75496836057E+03  0.91353426621E+03  0.83804488220E+03  0.14595317601E+04  0.15294330000E+03 0.  0.
    8880022    1    1    2    0    0  0.75496836057E+03 -0.91353426621E+03 -0.10080408144E+04  0.15633489749E+04  0.15294330000E+03 0.  0.
<mgrwt>
<rscale>  0 0.11949534E+04</rscale>
<asrwt>0</asrwt>
<pdfrwt beam="1">  1        2 0.21945268E+00 0.11949534E+04</pdfrwt>
<pdfrwt beam="2">  1       -2 0.24560590E+00 0.11949534E+04</pdfrwt>
<totfact> 0.92921743E-01</totfact>
</mgrwt>
</event>
<event>
 4    1  0.3365401E-008  0.3673598E+03  0.7818608E-02  0.1055707E+00
          2   -1    0    0  501    0  0.00000000000E+00  0.00000000000E+00  0.13230998153E+04  0.13230998153E+04  0.25500000000E-02 0. -1.
         -2   -1    0    0    0  501 -0.00000000000E+00 -0.00000000000E+00 -0.31707645117E+03  0.31707645118E+03  0.25500000000E-02 0.  1.
    8880022    1    1    2    0    0 -0.20591185452E+03  0.26298642604E+03  0.11784368433E+04  0.12343689071E+04  0.15294330000E+03 0.  0.
    8880022    1    1    2    0    0  0.20591185452E+03 -0.26298642604E+03 -0.17241347918E+03  0.40580735938E+03  0.15294330000E+03 0.  0.
<mgrwt>
<rscale>  0 0.36735978E+03</rscale>
<asrwt>0</asrwt>
<pdfrwt beam="1">  1        2 0.20355382E+00 0.36735978E+03</pdfrwt>
<pdfrwt beam="2">  1       -2 0.48780992E-01 0.36735978E+03</pdfrwt>
<totfact> 0.68282480E+01</totfact>
</mgrwt>
</event>
<event>
 4    1  0.3365401E-008  0.2513786E+03  0.7818608E-02  0.1112437E+00
         -2   -1    0    0    0  501 -0.00000000000E+00  0.00000000000E+00  0.28087143512E+03  0.28087143513E+03  0.25500000000E-02 0.  1.
          2   -1    0    0  501    0  0.00000000000E+00 -0.00000000000E+00 -0.15051732775E+04  0.15051732775E+04  0.25500000000E-02 0. -1.
    8880022    1    1    2    0    0  0.19887409709E+03 -0.15767828906E+02  0.21143025708E+03  0.32847212598E+03  0.15294330000E+03 0.  1.
    8880022    1    1    2    0    0 -0.19887409709E+03  0.15767828906E+02 -0.14357320995E+04  0.14575725867E+04  0.15294330000E+03 0.  0.
<mgrwt>
<rscale>  0 0.25137857E+03</rscale>
<asrwt>0</asrwt>
<pdfrwt beam="1">  1        2 0.23156511E+00 0.25137857E+03</pdfrwt>
<pdfrwt beam="2">  1       -2 0.43210991E-01 0.25137857E+03</pdfrwt>
<totfact> 0.70912314E+01</totfact>
</mgrwt>
</event>
<event>
 4    1  0.3365401E-008  0.8176012E+03  0.7818608E-02  0.9534884E-01
          2   -1    0    0  501    0  0.00000000000E+00  0.00000000000E+00  0.38105176823E+04  0.38105176823E+04  0.25500000000E-02 0. -1.
         -2   -1    0    0    0  501 -0.00000000000E+00 -0.00000000000E+00 -0.18988086155E+03  0.18988086157E+03  0.25500000000E-02 0.  1.
    8880022    1    1    2    0    0  0.61171740364E+03  0.52046308391E+03  0.23621530468E+04  0.24996477098E+04  0.15294330000E+03 0.  0.
    8880022    1    1    2    0    0 -0.61171740364E+03 -0.52046308391E+03  0.12584837740E+04  0.15007508341E+04  0.15294330000E+03 0.  0.
<mgrwt>
<rscale>  0 0.81760116E+03</rscale>
<asrwt>0</asrwt>
<pdfrwt beam="1">  1        2 0.58623342E+00 0.81760116E+03</pdfrwt>
<pdfrwt beam="2">  1       -2 0.29212444E-01 0.81760116E+03</pdfrwt>
<totfact> 0.56115929E+00</totfact>
</mgrwt>
</event>
<event>
 4    1  0.3365401E-008  0.8192044E+03  0.7818608E-02  0.9532628E-01
          2   -1    0    0  501    0  0.00000000000E+00  0.00000000000E+00  0.23240921443E+04  0.23240921443E+04  0.25500000000E-02 0. -1.
         -2   -1    0    0    0  501 -0.00000000000E+00 -0.00000000000E+00 -0.38373966235E+03  0.38373966236E+03  0.25500000000E-02 0.  1.
    8880022    1    1    2    0    0 -0.47460117219E+03 -0.64996765031E+03  0.29658336574E+03  0.87123909746E+03  0.15294330000E+03 0.  0.
    8880022    1    1    2    0    0  0.47460117219E+03  0.64996765031E+03  0.16437691162E+04  0.18365927092E+04  0.15294330000E+03 0.  0.
<mgrwt>
<rscale>  0 0.81920441E+03</rscale>
<asrwt>0</asrwt>
<pdfrwt beam="1">  1        2 0.35755264E+00 0.81920441E+03</pdfrwt>
<pdfrwt beam="2">  1       -2 0.59036871E-01 0.81920441E+03</pdfrwt>
<totfact> 0.12154963E+01</totfact>
</mgrwt>
</event>
<event>
 4    1  0.3365401E-008  0.3796950E+03  0.7818608E-02  0.1051047E+00
          2   -1    0    0  501    0  0.00000000000E+00  0.00000000000E+00  0.99059587228E+03  0.99059587228E+03  0.25500000000E-02 0. -1.
         -2   -1    0    0    0  501 -0.00000000000E+00 -0.00000000000E+00 -0.27659790126E+03  0.27659790127E+03  0.25500000000E-02 0.  1.
    8880022    1    1    2    0    0 -0.11861519976E+03 -0.32666045817E+03 -0.79140392388E+02  0.38785496680E+03  0.15294330000E+03 0.  0.
    8880022    1    1    2    0    0  0.11861519976E+03  0.32666045817E+03  0.79313836341E+03  0.87933880676E+03  0.15294330000E+03 0.  0.
<mgrwt>
<rscale>  0 0.37969497E+03</rscale>
<asrwt>0</asrwt>
<pdfrwt beam="1">  1        2 0.15239937E+00 0.37969497E+03</pdfrwt>
<pdfrwt beam="2">  1       -2 0.42553523E-01 0.37969497E+03</pdfrwt>
<totfact> 0.13997101E+02</totfact>
</mgrwt>
</event>
<event>
 4    1  0.3365401E-008  0.3767032E+03  0.7818608E-02  0.1052159E+00
         -2   -1    0    0    0  501 -0.00000000000E+00  0.00000000000E+00  0.40675439779E+03  0.40675439780E+03  0.25500000000E-02 0.  1.
          2   -1    0    0  501    0  0.00000000000E+00 -0.00000000000E+00 -0.46681478943E+03  0.46681478943E+03  0.25500000000E-02 0. -1.
    8880022    1    1    2    0    0 -0.91807869170E+02  0.33179054560E+03  0.18951822948E+03  0.42169000855E+03  0.15294330000E+03 0.  0.
    8880022    1    1    2    0    0  0.91807869170E+02 -0.33179054560E+03 -0.24957862112E+03  0.45187917868E+03  0.15294330000E+03 0.  0.
<mgrwt>
<rscale>  0 0.37670320E+03</rscale>
<asrwt>0</asrwt>
<pdfrwt beam="1">  1        2 0.71817660E-01 0.37670320E+03</pdfrwt>
<pdfrwt beam="2">  1       -2 0.62577600E-01 0.37670320E+03</pdfrwt>
<totfact> 0.16291054E+02</totfact>
</mgrwt>
</event>
<event>
 4    1  0.3365401E-008  0.3078029E+03  0.7818608E-02  0.1081404E+00
         -2   -1    0    0    0  501 -0.00000000000E+00  0.00000000000E+00  0.49714814882E+03  0.49714814883E+03  0.25500000000E-02 0.  1.
          2   -1    0    0  501    0  0.00000000000E+00 -0.00000000000E+00 -0.13268092489E+04  0.13268092489E+04  0.25500000000E-02 0. -1.
    8880022    1    1    2    0    0 -0.58443882484E+02 -0.26064401504E+03  0.42911594199E+03  0.52809386918E+03  0.15294330000E+03 0.  0.
    8880022    1    1    2    0    0  0.58443882484E+02  0.26064401504E+03 -0.12587770421E+04  0.12958635286E+04  0.15294330000E+03 0.  0.
<mgrwt>
<rscale>  0 0.30780293E+03</rscale>
<asrwt>0</asrwt>
<pdfrwt beam="1">  1        2 0.20412450E+00 0.30780293E+03</pdfrwt>
<pdfrwt beam="2">  1       -2 0.76484331E-01 0.30780293E+03</pdfrwt>
<totfact> 0.26840851E+01</totfact>
</mgrwt>
</event>
<event>
 4    1  0.3365401E-008  0.3040154E+03  0.7818608E-02  0.1083250E+00
          2   -1    0    0  501    0  0.00000000000E+00  0.00000000000E+00  0.41137076069E+03  0.41137076070E+03  0.25500000000E-02 0. -1.
         -2   -1    0    0    0  501 -0.00000000000E+00 -0.00000000000E+00 -0.16352856442E+04  0.16352856442E+04  0.25500000000E-02 0.  1.
    8880022    1    1    2    0    0 -0.26041973266E+03  0.34860359805E+02  0.33847550233E+03  0.45496263642E+03  0.15294330000E+03 0.  0.
    8880022    1    1    2    0    0  0.26041973266E+03 -0.34860359805E+02 -0.15623903858E+04  0.15916937685E+04  0.15294330000E+03 0.  0.
<mgrwt>
<rscale>  0 0.30401535E+03</rscale>
<asrwt>0</asrwt>
<pdfrwt beam="1">  1        2 0.63287810E-01 0.30401535E+03</pdfrwt>
<pdfrwt beam="2">  1       -2 0.25158240E+00 0.30401535E+03</pdfrwt>
<totfact> 0.54299403E+00</totfact>
</mgrwt>
</event>
<event>
 4    1  0.3365401E-008  0.5876284E+03  0.7818608E-02  0.9931411E-01
         -2   -1    0    0    0  501 -0.00000000000E+00  0.00000000000E+00  0.63613608178E+03  0.63613608178E+03  0.25500000000E-02 0.  1.
          2   -1    0    0  501    0  0.00000000000E+00 -0.00000000000E+00 -0.70175638217E+03  0.70175638218E+03  0.25500000000E-02 0. -1.
    8880022    1    1    2    0    0  0.34208330304E+03  0.45265268984E+03  0.28554385123E+03  0.65333175939E+03  0.15294330000E+03 0.  1.
    8880022    1    1    2    0    0 -0.34208330304E+03 -0.45265268984E+03 -0.35116415163E+03  0.68456070457E+03  0.15294330000E+03 0. -1.
<mgrwt>
<rscale>  0 0.58762837E+03</rscale>
<asrwt>0</asrwt>
<pdfrwt beam="1">  1        2 0.10796252E+00 0.58762837E+03</pdfrwt>
<pdfrwt beam="2">  1       -2 0.97867089E-01 0.58762837E+03</pdfrwt>
<totfact> 0.36509990E+01</totfact>
</mgrwt>
</event>
<event>
 4    1  0.3365401E-008  0.7993128E+03  0.7818608E-02  0.9561012E-01
         -2   -1    0    0    0  501 -0.00000000000E+00  0.00000000000E+00  0.45416012312E+03  0.45416012313E+03  0.25500000000E-02 0.  1.
          2   -1    0    0  501    0  0.00000000000E+00 -0.00000000000E+00 -0.14735709050E+04  0.14735709050E+04  0.25500000000E-02 0. -1.
    8880022    1    1    2    0    0 -0.13167445810E+03  0.77341522699E+03 -0.71491945253E+03  0.10723855430E+04  0.15294330000E+03 0.  0.
    8880022    1    1    2    0    0  0.13167445810E+03 -0.77341522699E+03 -0.30449132937E+03  0.85534548513E+03  0.15294330000E+03 0.  0.
<mgrwt>
<rscale>  0 0.79931279E+03</rscale>
<asrwt>0</asrwt>
<pdfrwt beam="1">  1        2 0.22670321E+00 0.79931279E+03</pdfrwt>
<pdfrwt beam="2">  1       -2 0.69870789E-01 0.79931279E+03</pdfrwt>
<totfact> 0.24951493E+01</totfact>
</mgrwt>
</event>
<event>
 4    1  0.3365401E-008  0.2687728E+03  0.7818608E-02  0.1101984E+00
          2   -1    0    0  501    0  0.00000000000E+00  0.00000000000E+00  0.25851621545E+03  0.25851621546E+03  0.25500000000E-02 0. -1.
         -2   -1    0    0    0  501 -0.00000000000E+00 -0.00000000000E+00 -0.38554525701E+03  0.38554525702E+03  0.25500000000E-02 0.  1.
    8880022    1    1    2    0    0 -0.19531914957E+03 -0.10342917228E+03  0.10542670790E+03  0.28871024856E+03  0.15294330000E+03 0.  0.
    8880022    1    1    2    0    0  0.19531914957E+03  0.10342917228E+03 -0.23245574946E+03  0.35535122392E+03  0.15294330000E+03 0.  0.
<mgrwt>
<rscale>  0 0.26877280E+03</rscale>
<asrwt>0</asrwt>
<pdfrwt beam="1">  1        2 0.39771725E-01 0.26877280E+03</pdfrwt>
<pdfrwt beam="2">  1       -2 0.59314655E-01 0.26877280E+03</pdfrwt>
<totfact> 0.35011276E+02</totfact>
</mgrwt>
</event>
<event>
 4    1  0.3365401E-008  0.2139219E+03  0.7818608E-02  0.1138497E+00
         -2   -1    0    0    0  501 -0.00000000000E+00  0.00000000000E+00  0.23734884518E+03  0.23734884519E+03  0.25500000000E-02 0.  1.
          2   -1    0    0  501    0  0.00000000000E+00 -0.00000000000E+00 -0.13053145339E+04  0.13053145339E+04  0.25500000000E-02 0. -1.
    8880022    1    1    2    0    0  0.13417150915E+03 -0.66097797642E+02 -0.12460730778E+04  0.12643024484E+04  0.15294330000E+03 0.  0.
    8880022    1    1    2    0    0 -0.13417150915E+03  0.66097797642E+02  0.17810738905E+03  0.27836093076E+03  0.15294330000E+03 0.  0.
<mgrwt>
<rscale>  0 0.21392187E+03</rscale>
<asrwt>0</asrwt>
<pdfrwt beam="1">  1        2 0.20081762E+00 0.21392187E+03</pdfrwt>
<pdfrwt beam="2">  1       -2 0.36515208E-01 0.21392187E+03</pdfrwt>
<totfact> 0.12680378E+02</totfact>
</mgrwt>
</event>
<event>
 4    1  0.3365401E-008  0.1195162E+04  0.7818608E-02  0.9117102E-01
          2   -1    0    0  501    0  0.00000000000E+00  0.00000000000E+00  0.22738067220E+04  0.22738067220E+04  0.25500000000E-02 0. -1.
         -2   -1    0    0    0  501 -0.00000000000E+00 -0.00000000000E+00 -0.64268557823E+03  0.64268557824E+03  0.25500000000E-02 0.  1.
    8880022    1    1    2    0    0 -0.68496256986E+03 -0.96739154675E+03  0.10344663882E+04  0.15806746939E+04  0.15294330000E+03 0.  0.
    8880022    1    1    2    0    0  0.68496256986E+03  0.96739154675E+03  0.59665475557E+03  0.13358176063E+04  0.15294330000E+03 0.  0.
<mgrwt>
<rscale>  0 0.11951618E+04</rscale>
<asrwt>0</asrwt>
<pdfrwt beam="1">  1        2 0.34981642E+00 0.11951618E+04</pdfrwt>
<pdfrwt beam="2">  1       -2 0.98874705E-01 0.11951618E+04</pdfrwt>
<totfact> 0.39072900E+00</totfact>
</mgrwt>
</event>
<event>
 4    1  0.3365401E-008  0.5712239E+03  0.7818608E-02  0.9966974E-01
          2   -1    0    0  501    0  0.00000000000E+00  0.00000000000E+00  0.30351929484E+04  0.30351929484E+04  0.25500000000E-02 0. -1.
         -2   -1    0    0    0  501 -0.00000000000E+00 -0.00000000000E+00 -0.18341599469E+03  0.18341599471E+03  0.25500000000E-02 0.  1.
    8880022    1    1    2    0    0  0.52802282014E+03  0.15523212544E+03  0.24612058811E+04  0.25266244584E+04  0.15294330000E+03 0.  0.
    8880022    1    1    2    0    0 -0.52802282014E+03 -0.15523212544E+03  0.39057107259E+03  0.69198448473E+03  0.15294330000E+03 0.  0.
<mgrwt>
<rscale>  0 0.57122392E+03</rscale>
<asrwt>0</asrwt>
<pdfrwt beam="1">  1        2 0.46695267E+00 0.57122392E+03</pdfrwt>
<pdfrwt beam="2">  1       -2 0.28217851E-01 0.57122392E+03</pdfrwt>
<totfact> 0.20849382E+01</totfact>
</mgrwt>
</event>
<event>
 4    1  0.3365401E-008  0.5799207E+03  0.7818608E-02  0.9947963E-01
          2   -1    0    0  501    0  0.00000000000E+00  0.00000000000E+00  0.17161617171E+04  0.17161617171E+04  0.25500000000E-02 0. -1.
         -2   -1    0    0    0  501 -0.00000000000E+00 -0.00000000000E+00 -0.33374783637E+03  0.33374783638E+03  0.25500000000E-02 0.  1.
    8880022    1    1    2    0    0  0.55937496425E+03 -0.39963193403E+01  0.32650927387E+02  0.58083909758E+03  0.15294330000E+03 0.  0.
    8880022    1    1    2    0    0 -0.55937496425E+03  0.39963193403E+01  0.13497629534E+04  0.14690704559E+04  0.15294330000E+03 0.  0.
<mgrwt>
<rscale>  0 0.57992066E+03</rscale>
<asrwt>0</asrwt>
<pdfrwt beam="1">  1        2 0.26402488E+00 0.57992066E+03</pdfrwt>
<pdfrwt beam="2">  1       -2 0.51345820E-01 0.57992066E+03</pdfrwt>
<totfact> 0.36157752E+01</totfact>
</mgrwt>
</event>
<event>
 4    1  0.3365401E-008  0.6722357E+03  0.7818608E-02  0.9765927E-01
         -2   -1    0    0    0  501 -0.00000000000E+00  0.00000000000E+00  0.93490572958E+03  0.93490572958E+03  0.25500000000E-02 0.  1.
          2   -1    0    0  501    0  0.00000000000E+00 -0.00000000000E+00 -0.21898267933E+04  0.21898267933E+04  0.25500000000E-02 0. -1.
    8880022    1    1    2    0    0 -0.20115658658E+03  0.62293280119E+03 -0.20066572904E+04  0.21162642513E+04  0.15294330000E+03 0.  0.
    8880022    1    1    2    0    0  0.20115658658E+03 -0.62293280119E+03  0.75173622673E+03  0.10084682715E+04  0.15294330000E+03 0.  0.
<mgrwt>
<rscale>  0 0.67223575E+03</rscale>
<asrwt>0</asrwt>
<pdfrwt beam="1">  1        2 0.33689643E+00 0.67223575E+03</pdfrwt>
<pdfrwt beam="2">  1       -2 0.14383165E+00 0.67223575E+03</pdfrwt>
<totfact> 0.18552582E+00</totfact>
</mgrwt>
</event>
<event>
 4    1  0.3365401E-008  0.2805097E+03  0.7818608E-02  0.1095411E+00
         -2   -1    0    0    0  501 -0.00000000000E+00  0.00000000000E+00  0.78567889561E+02  0.78567889603E+02  0.25500000000E-02 0.  1.
          2   -1    0    0  501    0  0.00000000000E+00 -0.00000000000E+00 -0.14191078152E+04  0.14191078152E+04  0.25500000000E-02 0. -1.
    8880022    1    1    2    0    0  0.10966836055E+03  0.20800700889E+03 -0.26404691851E+03  0.38523563340E+03  0.15294330000E+03 0.  1.
    8880022    1    1    2    0    0 -0.10966836055E+03 -0.20800700889E+03 -0.10764930071E+04  0.11124400714E+04  0.15294330000E+03 0.  0.
<mgrwt>
<rscale>  0 0.28050975E+03</rscale>
<asrwt>0</asrwt>
<pdfrwt beam="1">  1        2 0.21832426E+00 0.28050975E+03</pdfrwt>
<pdfrwt beam="2">  1       -2 0.12087369E-01 0.28050975E+03</pdfrwt>
<totfact> 0.73865154E+02</totfact>
</mgrwt>
</event>
<event>
 4    1  0.3365401E-008  0.1164393E+04  0.7818608E-02  0.9144607E-01
         -2   -1    0    0    0  501 -0.00000000000E+00  0.00000000000E+00  0.67257624590E+03  0.67257624590E+03  0.25500000000E-02 0.  1.
          2   -1    0    0  501    0  0.00000000000E+00 -0.00000000000E+00 -0.32582388732E+04  0.32582388732E+04  0.25500000000E-02 0. -1.
    8880022    1    1    2    0    0 -0.11191477376E+04  0.28271474017E+03 -0.25064728438E+04  0.27637324495E+04  0.15294330000E+03 0.  0.
    8880022    1    1    2    0    0  0.11191477376E+04 -0.28271474017E+03 -0.79189783499E+02  0.11670826696E+04  0.15294330000E+03 0.  0.
<mgrwt>
<rscale>  0 0.11643929E+04</rscale>
<asrwt>0</asrwt>
<pdfrwt beam="1">  1        2 0.50126751E+00 0.11643929E+04</pdfrwt>
<pdfrwt beam="2">  1       -2 0.10347327E+00 0.11643929E+04</pdfrwt>
<totfact> 0.90396984E-01</totfact>
</mgrwt>
</event>
<event>
 4    1  0.3365401E-008  0.9395924E+03  0.7818608E-02  0.9377399E-01
         -2   -1    0    0    0  501 -0.00000000000E+00  0.00000000000E+00  0.40572270533E+03  0.40572270533E+03  0.25500000000E-02 0.  1.
          2   -1    0    0  501    0  0.00000000000E+00 -0.00000000000E+00 -0.25387061872E+04  0.25387061872E+04  0.25500000000E-02 0. -1.
    8880022    1    1    2    0    0  0.87419463400E+03  0.30858709545E+03 -0.16229978402E+04  0.18753548720E+04  0.15294330000E+03 0.  0.
    8880022    1    1    2    0    0 -0.87419463400E+03 -0.30858709545E+03 -0.50998564159E+03  0.10690740205E+04  0.15294330000E+03 0.  0.
<mgrwt>
<rscale>  0 0.93959242E+03</rscale>
<asrwt>0</asrwt>
<pdfrwt beam="1">  1        2 0.39057017E+00 0.93959242E+03</pdfrwt>
<pdfrwt beam="2">  1       -2 0.62418879E-01 0.93959242E+03</pdfrwt>
<totfact> 0.80312572E+00</totfact>
</mgrwt>
</event>
<event>
 4    1  0.3365401E-008  0.2393255E+03  0.7818608E-02  0.1120243E+00
         -2   -1    0    0    0  501 -0.00000000000E+00  0.00000000000E+00  0.22778357907E+03  0.22778357908E+03  0.25500000000E-02 0.  1.
          2   -1    0    0  501    0  0.00000000000E+00 -0.00000000000E+00 -0.17728144432E+04  0.17728144432E+04  0.25500000000E-02 0. -1.
    8880022    1    1    2    0    0  0.17081791074E+03 -0.68602375716E+02 -0.16991628203E+04  0.17159344357E+04  0.15294330000E+03 0. -1.
    8880022    1    1    2    0    0 -0.17081791074E+03  0.68602375716E+02  0.15413195621E+03  0.28466358658E+03  0.15294330000E+03 0.  0.
<mgrwt>
<rscale>  0 0.23932551E+03</rscale>
<asrwt>0</asrwt>
<pdfrwt beam="1">  1        2 0.27274067E+00 0.23932551E+03</pdfrwt>
<pdfrwt beam="2">  1       -2 0.35043629E-01 0.23932551E+03</pdfrwt>
<totfact> 0.76632369E+01</totfact>
</mgrwt>
</event>
<event>
 4    1  0.3365401E-008  0.4753036E+03  0.7818608E-02  0.1020434E+00
          2   -1    0    0  501    0  0.00000000000E+00  0.00000000000E+00  0.77909272335E+03  0.77909272336E+03  0.25500000000E-02 0. -1.
         -2   -1    0    0    0  501 -0.00000000000E+00 -0.00000000000E+00 -0.32252835062E+03  0.32252835063E+03  0.25500000000E-02 0.  1.
    8880022    1    1    2    0    0  0.44577822442E+02  0.44781100095E+03  0.53277613494E+02  0.47828028596E+03  0.15294330000E+03 0.  0.
    8880022    1    1    2    0    0 -0.44577822442E+02 -0.44781100095E+03  0.40328675924E+03  0.62334078802E+03  0.15294330000E+03 0.  0.
<mgrwt>
<rscale>  0 0.47530362E+03</rscale>
<asrwt>0</asrwt>
<pdfrwt beam="1">  1        2 0.11986042E+00 0.47530362E+03</pdfrwt>
<pdfrwt beam="2">  1       -2 0.49619746E-01 0.47530362E+03</pdfrwt>
<totfact> 0.14142477E+02</totfact>
</mgrwt>
</event>
<event>
 4    1  0.3365401E-008  0.1855160E+03  0.7818608E-02  0.1162569E+00
          2   -1    0    0  501    0  0.00000000000E+00  0.00000000000E+00  0.45237580980E+04  0.45237580980E+04  0.25500000000E-02 0. -1.
         -2   -1    0    0    0  501 -0.00000000000E+00 -0.00000000000E+00 -0.33557067151E+03  0.33557067152E+03  0.25500000000E-02 0.  1.
    8880022    1    1    2    0    0  0.10405122495E+03 -0.14066456182E+02  0.44960581951E+04  0.44998839395E+04  0.15294330000E+03 0.  0.
    8880022    1    1    2    0    0 -0.10405122495E+03  0.14066456182E+02 -0.30787076863E+03  0.35944482997E+03  0.15294330000E+03 0.  0.
<mgrwt>
<rscale>  0 0.18551597E+03</rscale>
<asrwt>0</asrwt>
<pdfrwt beam="1">  1        2 0.69596274E+00 0.18551597E+03</pdfrwt>
<pdfrwt beam="2">  1       -2 0.51626261E-01 0.18551597E+03</pdfrwt>
<totfact> 0.64507737E-01</totfact>
</mgrwt>
</event>
<event>
 4    1  0.3365401E-008  0.1983581E+03  0.7818608E-02  0.1151132E+00
         -2   -1    0    0    0  501 -0.00000000000E+00  0.00000000000E+00  0.38475521606E+03  0.38475521607E+03  0.25500000000E-02 0.  1.
          2   -1    0    0  501    0  0.00000000000E+00 -0.00000000000E+00 -0.69973382944E+03  0.69973382944E+03  0.25500000000E-02 0. -1.
    8880022    1    1    2    0    0  0.16165535359E+01 -0.12629997937E+03 -0.65854655404E+03  0.68777141180E+03  0.15294330000E+03 0. -1.
    8880022    1    1    2    0    0 -0.16165535359E+01  0.12629997937E+03  0.34356794066E+03  0.39671763371E+03  0.15294330000E+03 0.  0.
<mgrwt>
<rscale>  0 0.19835814E+03</rscale>
<asrwt>0</asrwt>
<pdfrwt beam="1">  1        2 0.10765136E+00 0.19835814E+03</pdfrwt>
<pdfrwt beam="2">  1       -2 0.59193110E-01 0.19835814E+03</pdfrwt>
<totfact> 0.11698054E+02</totfact>
</mgrwt>
</event>
<event>
 4    1  0.3365401E-008  0.1024867E+04  0.7818608E-02  0.9281684E-01
         -2   -1    0    0    0  501 -0.00000000000E+00  0.00000000000E+00  0.12271361370E+04  0.12271361370E+04  0.25500000000E-02 0.  1.
          2   -1    0    0  501    0  0.00000000000E+00 -0.00000000000E+00 -0.12163754565E+04  0.12163754565E+04  0.25500000000E-02 0. -1.
    8880022    1    1    2    0    0  0.60151052905E+03  0.81556440336E+03  0.67044799928E+03  0.12246846065E+04  0.15294330000E+03 0.  0.
    8880022    1    1    2    0    0 -0.60151052905E+03 -0.81556440336E+03 -0.65968731878E+03  0.12188269870E+04  0.15294330000E+03 0.  0.
<mgrwt>
<rscale>  0 0.10248668E+04</rscale>
<asrwt>0</asrwt>
<pdfrwt beam="1">  1        2 0.18713469E+00 0.10248668E+04</pdfrwt>
<pdfrwt beam="2">  1       -2 0.18879017E+00 0.10248668E+04</pdfrwt>
<totfact> 0.28923848E+00</totfact>
</mgrwt>
</event>
<event>
 4    1  0.3365401E-008  0.2700827E+03  0.7818608E-02  0.1101232E+00
          2   -1    0    0  501    0  0.00000000000E+00  0.00000000000E+00  0.78865415330E+03  0.78865415330E+03  0.25500000000E-02 0. -1.
         -2   -1    0    0    0  501 -0.00000000000E+00 -0.00000000000E+00 -0.12295814367E+03  0.12295814370E+03  0.25500000000E-02 0.  1.
    8880022    1    1    2    0    0  0.20912064903E+03  0.76299131868E+02  0.55973319479E+03  0.62148685082E+03  0.15294330000E+03 0.  0.
    8880022    1    1    2    0    0 -0.20912064903E+03 -0.76299131868E+02  0.10596281484E+03  0.29012544618E+03  0.15294330000E+03 0.  0.
<mgrwt>
<rscale>  0 0.27008268E+03</rscale>
<asrwt>0</asrwt>
<pdfrwt beam="1">  1        2 0.12133141E+00 0.27008268E+03</pdfrwt>
<pdfrwt beam="2">  1       -2 0.18916638E-01 0.27008268E+03</pdfrwt>
<totfact> 0.83818576E+02</totfact>
</mgrwt>
</event>
<event>
 4    1  0.3365401E-008  0.5680380E+03  0.7818608E-02  0.9974030E-01
          2   -1    0    0  501    0  0.00000000000E+00  0.00000000000E+00  0.94777888099E+03  0.94777888099E+03  0.25500000000E-02 0. -1.
         -2   -1    0    0    0  501 -0.00000000000E+00 -0.00000000000E+00 -0.52774733769E+03  0.52774733770E+03  0.25500000000E-02 0.  1.
    8880022    1    1    2    0    0  0.51558020455E+03  0.18290051633E+03 -0.22950029202E+03  0.61264800926E+03  0.15294330000E+03 0.  0.
    8880022    1    1    2    0    0 -0.51558020455E+03 -0.18290051633E+03  0.64953183532E+03  0.86287820943E+03  0.15294330000E+03 0.  0.
<mgrwt>
<rscale>  0 0.56803803E+03</rscale>
<asrwt>0</asrwt>
<pdfrwt beam="1">  1        2 0.14581213E+00 0.56803803E+03</pdfrwt>
<pdfrwt beam="2">  1       -2 0.81191899E-01 0.56803803E+03</pdfrwt>
<totfact> 0.37685847E+01</totfact>
</mgrwt>
</event>
<event>
 4    1  0.3365401E-008  0.2363211E+03  0.7818608E-02  0.1122268E+00
          2   -1    0    0  501    0  0.00000000000E+00  0.00000000000E+00  0.13969695473E+04  0.13969695473E+04  0.25500000000E-02 0. -1.
         -2   -1    0    0    0  501 -0.00000000000E+00 -0.00000000000E+00 -0.17302996353E+04  0.17302996353E+04  0.25500000000E-02 0.  1.
    8880022    1    1    2    0    0 -0.13948820783E+02  0.17961475142E+03 -0.17121305641E+04  0.17283630261E+04  0.15294330000E+03 0.  1.
    8880022    1    1    2    0    0  0.13948820783E+02 -0.17961475142E+03  0.13788004761E+04  0.13989061564E+04  0.15294330000E+03 0.  0.
<mgrwt>
<rscale>  0 0.23632114E+03</rscale>
<asrwt>0</asrwt>
<pdfrwt beam="1">  1        2 0.21491839E+00 0.23632114E+03</pdfrwt>
<pdfrwt beam="2">  1       -2 0.26619994E+00 0.23632114E+03</pdfrwt>
<totfact> 0.93094218E-01</totfact>
</mgrwt>
</event>
<event>
 4    1  0.3365401E-008  0.2892526E+03  0.7818608E-02  0.1090740E+00
         -2   -1    0    0    0  501 -0.00000000000E+00  0.00000000000E+00  0.54242753570E+03  0.54242753571E+03  0.25500000000E-02 0.  1.
          2   -1    0    0  501    0  0.00000000000E+00 -0.00000000000E+00 -0.15949234417E+04  0.15949234417E+04  0.25500000000E-02 0. -1.
    8880022    1    1    2    0    0 -0.20744411561E+03 -0.13131015346E+03  0.48943780644E+03  0.56852127216E+03  0.15294330000E+03 0.  0.
    8880022    1    1    2    0    0  0.20744411561E+03  0.13131015346E+03 -0.15419337125E+04  0.15688297053E+04  0.15294330000E+03 0. -1.
<mgrwt>
<rscale>  0 0.28925261E+03</rscale>
<asrwt>0</asrwt>
<pdfrwt beam="1">  1        2 0.24537283E+00 0.28925261E+03</pdfrwt>
<pdfrwt beam="2">  1       -2 0.83450391E-01 0.28925261E+03</pdfrwt>
<totfact> 0.15924844E+01</totfact>
</mgrwt>
</event>
<event>
 4    1  0.3365401E-008  0.3842479E+03  0.7818608E-02  0.1049375E+00
          2   -1    0    0  501    0  0.00000000000E+00  0.00000000000E+00  0.88485060271E+03  0.88485060271E+03  0.25500000000E-02 0. -1.
         -2   -1    0    0    0  501 -0.00000000000E+00 -0.00000000000E+00 -0.21092628297E+04  0.21092628297E+04  0.25500000000E-02 0.  1.
    8880022    1    1    2    0    0  0.35245007849E+03  0.58073517297E+01 -0.20488281435E+04  0.20845486796E+04  0.15294330000E+03 0.  0.
    8880022    1    1    2    0    0 -0.35245007849E+03 -0.58073517297E+01  0.82441591648E+03  0.90956475280E+03  0.15294330000E+03 0.  0.
<mgrwt>
<rscale>  0 0.38424788E+03</rscale>
<asrwt>0</asrwt>
<pdfrwt beam="1">  1        2 0.13613086E+00 0.38424788E+03</pdfrwt>
<pdfrwt beam="2">  1       -2 0.32450197E+00 0.38424788E+03</pdfrwt>
<totfact> 0.78424251E-01</totfact>
</mgrwt>
</event>
<event>
 4    1  0.3365401E-008  0.8082369E+03  0.7818608E-02  0.9548171E-01
          2   -1    0    0  501    0  0.00000000000E+00  0.00000000000E+00  0.19256654959E+04  0.19256654959E+04  0.25500000000E-02 0. -1.
         -2   -1    0    0    0  501 -0.00000000000E+00 -0.00000000000E+00 -0.39940443811E+03  0.39940443811E+03  0.25500000000E-02 0.  1.
    8880022    1    1    2    0    0  0.67286467848E+03  0.42084236698E+03  0.12143619992E+04  0.14587398300E+04  0.15294330000E+03 0.  0.
    8880022    1    1    2    0    0 -0.67286467848E+03 -0.42084236698E+03  0.31189905857E+03  0.86633010403E+03  0.15294330000E+03 0.  0.
<mgrwt>
<rscale>  0 0.80823686E+03</rscale>
<asrwt>0</asrwt>
<pdfrwt beam="1">  1        2 0.29625623E+00 0.80823686E+03</pdfrwt>
<pdfrwt beam="2">  1       -2 0.61446836E-01 0.80823686E+03</pdfrwt>
<totfact> 0.18539654E+01</totfact>
</mgrwt>
</event>
<event>
 4    1  0.3365401E-008  0.4350985E+03  0.7818608E-02  0.1032261E+00
         -2   -1    0    0    0  501 -0.00000000000E+00  0.00000000000E+00  0.31548887027E+03  0.31548887028E+03  0.25500000000E-02 0.  1.
          2   -1    0    0  501    0  0.00000000000E+00 -0.00000000000E+00 -0.10061814773E+04  0.10061814773E+04  0.25500000000E-02 0. -1.
    8880022    1    1    2    0    0 -0.35000916121E+03 -0.20835692005E+03 -0.76518807623E+03  0.88024057171E+03  0.15294330000E+03 0.  0.
    8880022    1    1    2    0    0  0.35000916121E+03  0.20835692005E+03  0.74495469213E+02  0.44142977586E+03  0.15294330000E+03 0.  0.
<mgrwt>
<rscale>  0 0.43509846E+03</rscale>
<asrwt>0</asrwt>
<pdfrwt beam="1">  1        2 0.15479715E+00 0.43509846E+03</pdfrwt>
<pdfrwt beam="2">  1       -2 0.48536750E-01 0.43509846E+03</pdfrwt>
<totfact> 0.10476418E+02</totfact>
</mgrwt>
</event>
<event>
 4    1  0.3365401E-008  0.7613037E+03  0.7818608E-02  0.9617782E-01
         -2   -1    0    0    0  501 -0.00000000000E+00  0.00000000000E+00  0.42068583031E+03  0.42068583032E+03  0.25500000000E-02 0.  1.
          2   -1    0    0  501    0  0.00000000000E+00 -0.00000000000E+00 -0.28774997126E+04  0.28774997126E+04  0.25500000000E-02 0. -1.
    8880022    1    1    2    0    0  0.71934251874E+03  0.19681983800E+03 -0.37843532953E+02  0.76224372343E+03  0.15294330000E+03 0.  0.
    8880022    1    1    2    0    0 -0.71934251874E+03 -0.19681983800E+03 -0.24189703493E+04  0.25359418195E+04  0.15294330000E+03 0.  0.
<mgrwt>
<rscale>  0 0.76130372E+03</rscale>
<asrwt>0</asrwt>
<pdfrwt beam="1">  1        2 0.44269225E+00 0.76130372E+03</pdfrwt>
<pdfrwt beam="2">  1       -2 0.64720899E-01 0.76130372E+03</pdfrwt>
<totfact> 0.48429487E+00</totfact>
</mgrwt>
</event>
<event>
 4    1  0.3365401E-008  0.1279464E+04  0.7818608E-02  0.9046011E-01
         -2   -1    0    0    0  501 -0.00000000000E+00  0.00000000000E+00  0.99877981500E+03  0.99877981501E+03  0.25500000000E-02 0.  1.
          2   -1    0    0  501    0  0.00000000000E+00 -0.00000000000E+00 -0.36066563392E+04  0.36066563392E+04  0.25500000000E-02 0. -1.
    8880022    1    1    2    0    0 -0.43373806505E+03  0.11939460785E+04 -0.30047646172E+04  0.32658288390E+04  0.15294330000E+03 0.  0.
    8880022    1    1    2    0    0  0.43373806505E+03 -0.11939460785E+04  0.39688809306E+03  0.13396073152E+04  0.15294330000E+03 0.  0.
<mgrwt>
<rscale>  0 0.12794638E+04</rscale>
<asrwt>0</asrwt>
<pdfrwt beam="1">  1        2 0.55487020E+00 0.12794638E+04</pdfrwt>
<pdfrwt beam="2">  1       -2 0.15365843E+00 0.12794638E+04</pdfrwt>
<totfact> 0.18885822E-01</totfact>
</mgrwt>
</event>
<event>
 4    1  0.3365401E-008  0.7472924E+03  0.7818608E-02  0.9639608E-01
          2   -1    0    0  501    0  0.00000000000E+00  0.00000000000E+00  0.23931499574E+04  0.23931499574E+04  0.25500000000E-02 0. -1.
         -2   -1    0    0    0  501 -0.00000000000E+00 -0.00000000000E+00 -0.25016317593E+03  0.25016317595E+03  0.25500000000E-02 0.  1.
    8880022    1    1    2    0    0 -0.48230385498E+03  0.54994292312E+03  0.72887679521E+03  0.10438904458E+04  0.15294330000E+03 0.  0.
    8880022    1    1    2    0    0  0.48230385498E+03 -0.54994292312E+03  0.14141099862E+04  0.15994226875E+04  0.15294330000E+03 0.  0.
<mgrwt>
<rscale>  0 0.74729237E+03</rscale>
<asrwt>0</asrwt>
<pdfrwt beam="1">  1        2 0.36817693E+00 0.74729237E+03</pdfrwt>
<pdfrwt beam="2">  1       -2 0.38486641E-01 0.74729237E+03</pdfrwt>
<totfact> 0.26657699E+01</totfact>
</mgrwt>
</event>
<event>
 4    1  0.3365401E-008  0.4136979E+03  0.7818608E-02  0.1039137E+00
         -2   -1    0    0    0  501 -0.00000000000E+00  0.00000000000E+00  0.99788472234E+03  0.99788472234E+03  0.25500000000E-02 0.  1.
          2   -1    0    0  501    0  0.00000000000E+00 -0.00000000000E+00 -0.73859554337E+03  0.73859554337E+03  0.25500000000E-02 0. -1.
    8880022    1    1    2    0    0  0.13789279118E+03  0.35880339055E+03  0.89042844313E+03  0.98183947786E+03  0.15294330000E+03 0.  0.
    8880022    1    1    2    0    0 -0.13789279118E+03 -0.35880339055E+03 -0.63113926415E+03  0.75464078786E+03  0.15294330000E+03 0.  0.
<mgrwt>
<rscale>  0 0.41369789E+03</rscale>
<asrwt>0</asrwt>
<pdfrwt beam="1">  1        2 0.11363008E+00 0.41369789E+03</pdfrwt>
<pdfrwt beam="2">  1       -2 0.15352073E+00 0.41369789E+03</pdfrwt>
<totfact> 0.11493432E+01</totfact>
</mgrwt>
</event>
<event>
 4    1  0.3365401E-008  0.4541966E+03  0.7818608E-02  0.1026478E+00
         -2   -1    0    0    0  501 -0.00000000000E+00  0.00000000000E+00  0.24186810012E+03  0.24186810014E+03  0.25500000000E-02 0.  1.
          2   -1    0    0  501    0  0.00000000000E+00 -0.00000000000E+00 -0.15366036699E+04  0.15366036699E+04  0.25500000000E-02 0. -1.
    8880022    1    1    2    0    0  0.38262694025E+03  0.19104852785E+03 -0.12405158089E+04  0.13210503551E+04  0.15294330000E+03 0. -1.
    8880022    1    1    2    0    0 -0.38262694025E+03 -0.19104852785E+03 -0.54219760861E+02  0.45742141498E+03  0.15294330000E+03 0.  0.
<mgrwt>
<rscale>  0 0.45419662E+03</rscale>
<asrwt>0</asrwt>
<pdfrwt beam="1">  1        2 0.23640056E+00 0.45419662E+03</pdfrwt>
<pdfrwt beam="2">  1       -2 0.37210478E-01 0.45419662E+03</pdfrwt>
<totfact> 0.87101140E+01</totfact>
</mgrwt>
</event>
<event>
 4    1  0.3365401E-008  0.5555856E+03  0.7818608E-02  0.1000209E+00
          2   -1    0    0  501    0  0.00000000000E+00  0.00000000000E+00  0.29026391796E+04  0.29026391796E+04  0.25500000000E-02 0. -1.
         -2   -1    0    0    0  501 -0.00000000000E+00 -0.00000000000E+00 -0.20176666754E+03  0.20176666756E+03  0.25500000000E-02 0.  1.
    8880022    1    1    2    0    0 -0.32478120202E+03 -0.42402935607E+03  0.24178967820E+04  0.24809071376E+04  0.15294330000E+03 0.  0.
    8880022    1    1    2    0    0  0.32478120202E+03  0.42402935607E+03  0.28297573004E+03  0.62349870954E+03  0.15294330000E+03 0.  0.
<mgrwt>
<rscale>  0 0.55558562E+03</rscale>
<asrwt>0</asrwt>
<pdfrwt beam="1">  1        2 0.44655986E+00 0.55558562E+03</pdfrwt>
<pdfrwt beam="2">  1       -2 0.31041027E-01 0.55558562E+03</pdfrwt>
<totfact> 0.21097599E+01</totfact>
</mgrwt>
</event>
<event>
 4    1  0.3365401E-008  0.1079327E+04  0.7818608E-02  0.9225579E-01
          2   -1    0    0  501    0  0.00000000000E+00  0.00000000000E+00  0.23099408727E+04  0.23099408727E+04  0.25500000000E-02 0. -1.
         -2   -1    0    0    0  501 -0.00000000000E+00 -0.00000000000E+00 -0.66217997390E+03  0.66217997390E+03  0.25500000000E-02 0.  1.
    8880022    1    1    2    0    0  0.14684316185E+03  0.10582968812E+04  0.98299345552E+02  0.10837940844E+04  0.15294330000E+03 0.  0.
    8880022    1    1    2    0    0 -0.14684316185E+03 -0.10582968812E+04  0.15494615533E+04  0.18883267623E+04  0.15294330000E+03 0.  0.
<mgrwt>
<rscale>  0 0.10793270E+04</rscale>
<asrwt>0</asrwt>
<pdfrwt beam="1">  1        2 0.35537552E+00 0.10793270E+04</pdfrwt>
<pdfrwt beam="2">  1       -2 0.10187384E+00 0.10793270E+04</pdfrwt>
<totfact> 0.35184243E+00</totfact>
</mgrwt>
</event>
<event>
 4    1  0.3365401E-008  0.4059145E+03  0.7818608E-02  0.1041751E+00
         -2   -1    0    0    0  501 -0.00000000000E+00  0.00000000000E+00  0.51353299265E+03  0.51353299266E+03  0.25500000000E-02 0.  1.
          2   -1    0    0  501    0  0.00000000000E+00 -0.00000000000E+00 -0.11440477537E+04  0.11440477537E+04  0.25500000000E-02 0. -1.
    8880022    1    1    2    0    0  0.21150935982E+03  0.31086770193E+03 -0.10182891509E+04  0.10962113780E+04  0.15294330000E+03 0.  0.
    8880022    1    1    2    0    0 -0.21150935982E+03 -0.31086770193E+03  0.38777438980E+03  0.56136936841E+03  0.15294330000E+03 0.  0.
<mgrwt>
<rscale>  0 0.40591451E+03</rscale>
<asrwt>0</asrwt>
<pdfrwt beam="1">  1        2 0.17600735E+00 0.40591451E+03</pdfrwt>
<pdfrwt beam="2">  1       -2 0.79005076E-01 0.40591451E+03</pdfrwt>
<totfact> 0.31061923E+01</totfact>
</mgrwt>
</event>
<event>
 4    1  0.3365401E-008  0.9417680E+03  0.7818608E-02  0.9374825E-01
          2   -1    0    0  501    0  0.00000000000E+00  0.00000000000E+00  0.16732148922E+04  0.16732148922E+04  0.25500000000E-02 0. -1.
         -2   -1    0    0    0  501 -0.00000000000E+00 -0.00000000000E+00 -0.69946463488E+03  0.69946463489E+03  0.25500000000E-02 0.  1.
    8880022    1    1    2    0    0 -0.70413267024E+03 -0.60640954609E+03 -0.96934754776E+02  0.94674355271E+03  0.15294330000E+03 0.  0.
    8880022    1    1    2    0    0  0.70413267024E+03  0.60640954609E+03  0.10706850121E+04  0.14259359744E+04  0.15294330000E+03 0.  0.
<mgrwt>
<rscale>  0 0.94176802E+03</rscale>
<asrwt>0</asrwt>
<pdfrwt beam="1">  1        2 0.25741767E+00 0.94176802E+03</pdfrwt>
<pdfrwt beam="2">  1       -2 0.10760994E+00 0.94176802E+03</pdfrwt>
<totfact> 0.70526198E+00</totfact>
</mgrwt>
</event>
<event>
 4    1  0.3365401E-008  0.2611403E+03  0.7818608E-02  0.1106460E+00
         -2   -1    0    0    0  501 -0.00000000000E+00  0.00000000000E+00  0.57349745534E+02  0.57349745591E+02  0.25500000000E-02 0.  1.
          2   -1    0    0  501    0  0.00000000000E+00 -0.00000000000E+00 -0.16767979898E+04  0.16767979898E+04  0.25500000000E-02 0. -1.
    8880022    1    1    2    0    0 -0.17481665838E+02 -0.21094313419E+03 -0.34210350264E+03  0.43038247413E+03  0.15294330000E+03 0.  1.
    8880022    1    1    2    0    0  0.17481665838E+02  0.21094313419E+03 -0.12773447416E+04  0.13037652612E+04  0.15294330000E+03 0.  0.
<mgrwt>
<rscale>  0 0.26114032E+03</rscale>
<asrwt>0</asrwt>
<pdfrwt beam="1">  1        2 0.25796888E+00 0.26114032E+03</pdfrwt>
<pdfrwt beam="2">  1       -2 0.88230391E-02 0.26114032E+03</pdfrwt>
<totfact> 0.89236527E+02</totfact>
</mgrwt>
</event>
<event>
 4    1  0.3365401E-008  0.7602929E+03  0.7818608E-02  0.9619339E-01
         -2   -1    0    0    0  501 -0.00000000000E+00  0.00000000000E+00  0.39482860117E+03  0.39482860117E+03  0.25500000000E-02 0.  1.
          2   -1    0    0  501    0  0.00000000000E+00 -0.00000000000E+00 -0.17410345556E+04  0.17410345556E+04  0.25500000000E-02 0. -1.
    8880022    1    1    2    0    0 -0.74022679526E+03 -0.81963147080E+02 -0.24713745468E+03  0.79945121204E+03  0.15294330000E+03 0.  0.
    8880022    1    1    2    0    0  0.74022679526E+03  0.81963147080E+02 -0.10990684998E+04  0.13364119448E+04  0.15294330000E+03 0.  0.
<mgrwt>
<rscale>  0 0.76029292E+03</rscale>
<asrwt>0</asrwt>
<pdfrwt beam="1">  1        2 0.26785147E+00 0.76029292E+03</pdfrwt>
<pdfrwt beam="2">  1       -2 0.60742863E-01 0.76029292E+03</pdfrwt>
<totfact> 0.24107983E+01</totfact>
</mgrwt>
</event>
<event>
 4    1  0.3365401E-008  0.7047293E+03  0.7818608E-02  0.9709178E-01
         -2   -1    0    0    0  501 -0.00000000000E+00  0.00000000000E+00  0.44793076862E+03  0.44793076863E+03  0.25500000000E-02 0.  1.
          2   -1    0    0  501    0  0.00000000000E+00 -0.00000000000E+00 -0.16650979009E+04  0.16650979010E+04  0.25500000000E-02 0. -1.
    8880022    1    1    2    0    0 -0.49440414932E+03 -0.47834750051E+03  0.21173246192E+01  0.70473252386E+03  0.15294330000E+03 0.  0.
    8880022    1    1    2    0    0  0.49440414932E+03  0.47834750051E+03 -0.12192844569E+04  0.14082961457E+04  0.15294330000E+03 0.  0.
<mgrwt>
<rscale>  0 0.70472934E+03</rscale>
<asrwt>0</asrwt>
<pdfrwt beam="1">  1        2 0.25616891E+00 0.70472934E+03</pdfrwt>
<pdfrwt beam="2">  1       -2 0.68912427E-01 0.70472934E+03</pdfrwt>
<totfact> 0.20382347E+01</totfact>
</mgrwt>
</event>
<event>
 4    1  0.3365401E-008  0.1421060E+04  0.7818608E-02  0.8938714E-01
         -2   -1    0    0    0  501 -0.00000000000E+00  0.00000000000E+00  0.30175136468E+04  0.30175136468E+04  0.25500000000E-02 0.  1.
          2   -1    0    0  501    0  0.00000000000E+00 -0.00000000000E+00 -0.85837658797E+03  0.85837658798E+03  0.25500000000E-02 0. -1.
    8880022    1    1    2    0    0 -0.36349162678E+03  0.13652448075E+04  0.16986141495E+03  0.14311757755E+04  0.15294330000E+03 0.  0.
    8880022    1    1    2    0    0  0.36349162678E+03 -0.13652448075E+04  0.19892756438E+04  0.24447144592E+04  0.15294330000E+03 0.  0.
<mgrwt>
<rscale>  0 0.14210599E+04</rscale>
<asrwt>0</asrwt>
<pdfrwt beam="1">  1        2 0.13205794E+00 0.14210599E+04</pdfrwt>
<pdfrwt beam="2">  1       -2 0.46423286E+00 0.14210599E+04</pdfrwt>
<totfact> 0.83894643E-02</totfact>
</mgrwt>
</event>
<event>
 4    1  0.4051936E-008  0.1166109E+04  0.7818608E-02  0.9143050E-01
          2   -1    0    0  501    0  0.00000000000E+00  0.00000000000E+00  0.28868025784E+04  0.28868025784E+04  0.25500000000E-02 0. -1.
         -2   -1    0    0    0  501 -0.00000000000E+00 -0.00000000000E+00 -0.12931755190E+04  0.12931755190E+04  0.25500000000E-02 0.  1.
    8880022    1    1    2    0    0  0.11072171395E+04  0.33239850057E+03  0.24632393951E+04  0.27253180599E+04  0.15294330000E+03 0.  0.
    8880022    1    1    2    0    0 -0.11072171395E+04 -0.33239850057E+03 -0.86961233567E+03  0.14546600375E+04  0.15294330000E+03 0.  0.
<mgrwt>
<rscale>  0 0.11661090E+04</rscale>
<asrwt>0</asrwt>
<pdfrwt beam="1">  1        2 0.44412347E+00 0.11661090E+04</pdfrwt>
<pdfrwt beam="2">  1       -2 0.19895008E+00 0.11661090E+04</pdfrwt>
<totfact> 0.27282774E-01</totfact>
</mgrwt>
</event>
<event>
 4    1  0.3365401E-008  0.9732578E+03  0.7818608E-02  0.9338371E-01
          2   -1    0    0  501    0  0.00000000000E+00  0.00000000000E+00  0.19352598330E+04  0.19352598330E+04  0.25500000000E-02 0. -1.
         -2   -1    0    0    0  501 -0.00000000000E+00 -0.00000000000E+00 -0.62030330243E+03  0.62030330243E+03  0.25500000000E-02 0.  1.
    8880022    1    1    2    0    0 -0.73428152593E+03 -0.62021744430E+03  0.70622085622E+02  0.97581666799E+03  0.15294330000E+03 0.  0.
    8880022    1    1    2    0    0  0.73428152593E+03  0.62021744430E+03  0.12443344450E+04  0.15797464675E+04  0.15294330000E+03 0.  0.
<mgrwt>
<rscale>  0 0.97325777E+03</rscale>
<asrwt>0</asrwt>
<pdfrwt beam="1">  1        2 0.29773228E+00 0.97325777E+03</pdfrwt>
<pdfrwt beam="2">  1       -2 0.95431278E-01 0.97325777E+03</pdfrwt>
<totfact> 0.67152525E+00</totfact>
</mgrwt>
</event>
<event>
 4    1  0.3365401E-008  0.2857787E+03  0.7818608E-02  0.1092574E+00
          2   -1    0    0  501    0  0.00000000000E+00  0.00000000000E+00  0.97779248418E+03  0.97779248419E+03  0.25500000000E-02 0. -1.
         -2   -1    0    0    0  501 -0.00000000000E+00 -0.00000000000E+00 -0.48593979354E+03  0.48593979355E+03  0.25500000000E-02 0.  1.
    8880022    1    1    2    0    0 -0.84278894132E+01 -0.24126080558E+03 -0.42007906034E+03  0.50807073876E+03  0.15294330000E+03 0.  0.
    8880022    1    1    2    0    0  0.84278894132E+01  0.24126080558E+03  0.91193175098E+03  0.95566153898E+03  0.15294330000E+03 0.  0.
<mgrwt>
<rscale>  0 0.28577869E+03</rscale>
<asrwt>0</asrwt>
<pdfrwt beam="1">  1        2 0.15042961E+00 0.28577869E+03</pdfrwt>
<pdfrwt beam="2">  1       -2 0.74759969E-01 0.28577869E+03</pdfrwt>
<totfact> 0.45345647E+01</totfact>
</mgrwt>
</event>
<event>
 4    1  0.3365401E-008  0.7474669E+03  0.7818608E-02  0.9639333E-01
          2   -1    0    0  501    0  0.00000000000E+00  0.00000000000E+00  0.87144210851E+03  0.87144210851E+03  0.25500000000E-02 0. -1.
         -2   -1    0    0    0  501 -0.00000000000E+00 -0.00000000000E+00 -0.10355620025E+04  0.10355620025E+04  0.25500000000E-02 0.  1.
    8880022    1    1    2    0    0  0.54105269901E+03 -0.49252109364E+03  0.50640455315E+03  0.90285783779E+03  0.15294330000E+03 0.  0.
    8880022    1    1    2    0    0 -0.54105269901E+03  0.49252109364E+03 -0.67052444713E+03  0.10041462732E+04  0.15294330000E+03 0.  0.
<mgrwt>
<rscale>  0 0.74746686E+03</rscale>
<asrwt>0</asrwt>
<pdfrwt beam="1">  1        2 0.13406802E+00 0.74746686E+03</pdfrwt>
<pdfrwt beam="2">  1       -2 0.15931723E+00 0.74746686E+03</pdfrwt>
<totfact> 0.79563888E+00</totfact>
</mgrwt>
</event>
<event>
 4    1  0.3365401E-008  0.5128571E+03  0.7818608E-02  0.1010476E+00
         -2   -1    0    0    0  501 -0.00000000000E+00  0.00000000000E+00  0.59714451053E+03  0.59714451053E+03  0.25500000000E-02 0.  1.
          2   -1    0    0  501    0  0.00000000000E+00 -0.00000000000E+00 -0.16845505725E+04  0.16845505725E+04  0.25500000000E-02 0. -1.
    8880022    1    1    2    0    0 -0.28658766783E+03 -0.39686050906E+03 -0.15241189954E+04  0.16080923855E+04  0.15294330000E+03 0.  0.
    8880022    1    1    2    0    0  0.28658766783E+03  0.39686050906E+03  0.43671293340E+03  0.67360269760E+03  0.15294330000E+03 0.  1.
<mgrwt>
<rscale>  0 0.51285710E+03</rscale>
<asrwt>0</asrwt>
<pdfrwt beam="1">  1        2 0.25916162E+00 0.51285710E+03</pdfrwt>
<pdfrwt beam="2">  1       -2 0.91868387E-01 0.51285710E+03</pdfrwt>
<totfact> 0.10793886E+01</totfact>
</mgrwt>
</event>
<event>
 4    1  0.3365401E-008  0.2359878E+03  0.7818608E-02  0.1122495E+00
         -2   -1    0    0    0  501 -0.00000000000E+00  0.00000000000E+00  0.55400130777E+02  0.55400130836E+02  0.25500000000E-02 0.  1.
          2   -1    0    0  501    0  0.00000000000E+00 -0.00000000000E+00 -0.16835525141E+04  0.16835525141E+04  0.25500000000E-02 0. -1.
    8880022    1    1    2    0    0 -0.77406049040E+02  0.16219398939E+03 -0.13659762325E+04  0.13862111338E+04  0.15294330000E+03 0.  0.
    8880022    1    1    2    0    0  0.77406049040E+02 -0.16219398939E+03 -0.26217615081E+03  0.35274151115E+03  0.15294330000E+03 0.  0.
<mgrwt>
<rscale>  0 0.23598780E+03</rscale>
<asrwt>0</asrwt>
<pdfrwt beam="1">  1        2 0.25900804E+00 0.23598780E+03</pdfrwt>
<pdfrwt beam="2">  1       -2 0.85230984E-02 0.23598780E+03</pdfrwt>
<totfact> 0.93722906E+02</totfact>
</mgrwt>
</event>
<event>
 4    1  0.3365401E-008  0.3916092E+03  0.7818608E-02  0.1046724E+00
         -2   -1    0    0    0  501 -0.00000000000E+00  0.00000000000E+00  0.44128960029E+03  0.44128960030E+03  0.25500000000E-02 0.  1.
          2   -1    0    0  501    0  0.00000000000E+00 -0.00000000000E+00 -0.74535843596E+03  0.74535843596E+03  0.25500000000E-02 0. -1.
    8880022    1    1    2    0    0  0.19968321599E+03  0.30015451958E+03  0.28143823820E+03  0.48225020198E+03  0.15294330000E+03 0.  0.
    8880022    1    1    2    0    0 -0.19968321599E+03 -0.30015451958E+03 -0.58550707387E+03  0.70439783428E+03  0.15294330000E+03 0. -1.
<mgrwt>
<rscale>  0 0.39160921E+03</rscale>
<asrwt>0</asrwt>
<pdfrwt beam="1">  1        2 0.11467053E+00 0.39160921E+03</pdfrwt>
<pdfrwt beam="2">  1       -2 0.67890708E-01 0.39160921E+03</pdfrwt>
<totfact> 0.78635433E+01</totfact>
</mgrwt>
</event>
<event>
 4    1  0.3365401E-008  0.3105602E+03  0.7818608E-02  0.1080078E+00
          2   -1    0    0  501    0  0.00000000000E+00  0.00000000000E+00  0.16683116220E+04  0.16683116220E+04  0.25500000000E-02 0. -1.
         -2   -1    0    0    0  501 -0.00000000000E+00 -0.00000000000E+00 -0.11723601794E+03  0.11723601797E+03  0.25500000000E-02 0.  1.
    8880022    1    1    2    0    0  0.48763026091E+02 -0.26585357642E+03  0.14111521957E+04  0.14449214959E+04  0.15294330000E+03 0.  0.
    8880022    1    1    2    0    0 -0.48763026091E+02  0.26585357642E+03  0.13992340834E+03  0.34062614407E+03  0.15294330000E+03 0.  0.
<mgrwt>
<rscale>  0 0.31056015E+03</rscale>
<asrwt>0</asrwt>
<pdfrwt beam="1">  1        2 0.25666332E+00 0.31056015E+03</pdfrwt>
<pdfrwt beam="2">  1       -2 0.18036311E-01 0.31056015E+03</pdfrwt>
<totfact> 0.27831268E+02</totfact>
</mgrwt>
</event>
<event>
 4    1  0.3365401E-008  0.2546775E+03  0.7818608E-02  0.1110384E+00
         -2   -1    0    0    0  501 -0.00000000000E+00  0.00000000000E+00  0.42139594271E+02  0.42139594348E+02  0.25500000000E-02 0.  1.
          2   -1    0    0  501    0  0.00000000000E+00 -0.00000000000E+00 -0.35357502849E+04  0.35357502849E+04  0.25500000000E-02 0. -1.
    8880022    1    1    2    0    0  0.18823010712E+02 -0.20276747060E+03 -0.40249975295E+03  0.47630521412E+03  0.15294330000E+03 0.  1.
    8880022    1    1    2    0    0 -0.18823010712E+02  0.20276747060E+03 -0.30911109377E+04  0.31015846651E+04  0.15294330000E+03 0.  0.
<mgrwt>
<rscale>  0 0.25467745E+03</rscale>
<asrwt>0</asrwt>
<pdfrwt beam="1">  1        2 0.54396135E+00 0.25467745E+03</pdfrwt>
<pdfrwt beam="2">  1       -2 0.64830173E-02 0.25467745E+03</pdfrwt>
<totfact> 0.12701212E+02</totfact>
</mgrwt>
</event>
<event>
 4    1  0.3365401E-008  0.5238804E+03  0.7818608E-02  0.1007727E+00
          2   -1    0    0  501    0  0.00000000000E+00  0.00000000000E+00  0.25580186412E+03  0.25580186414E+03  0.25500000000E-02 0. -1.
         -2   -1    0    0    0  501 -0.00000000000E+00 -0.00000000000E+00 -0.14988761538E+04  0.14988761538E+04  0.25500000000E-02 0.  1.
    8880022    1    1    2    0    0 -0.79599275452E+02 -0.49469488186E+03 -0.15382848893E+03  0.54599810239E+03  0.15294330000E+03 0.  0.
    8880022    1    1    2    0    0  0.79599275452E+02  0.49469488186E+03 -0.10892458008E+04  0.12086799156E+04  0.15294330000E+03 0.  0.
<mgrwt>
<rscale>  0 0.52388045E+03</rscale>
<asrwt>0</asrwt>
<pdfrwt beam="1">  1        2 0.39354134E-01 0.52388045E+03</pdfrwt>
<pdfrwt beam="2">  1       -2 0.23059633E+00 0.52388045E+03</pdfrwt>
<totfact> 0.11674363E+01</totfact>
</mgrwt>
</event>
<event>
 4    1  0.3365401E-008  0.6357178E+03  0.7818608E-02  0.9833954E-01
          2   -1    0    0  501    0  0.00000000000E+00  0.00000000000E+00  0.32059643790E+04  0.32059643790E+04  0.25500000000E-02 0. -1.
         -2   -1    0    0    0  501 -0.00000000000E+00 -0.00000000000E+00 -0.25660218523E+03  0.25660218524E+03  0.25500000000E-02 0.  1.
    8880022    1    1    2    0    0 -0.41510192784E+03 -0.45654774112E+03  0.23982340894E+03  0.67945005034E+03  0.15294330000E+03 0.  0.
    8880022    1    1    2    0    0  0.41510192784E+03  0.45654774112E+03  0.27095387849E+04  0.27831165139E+04  0.15294330000E+03 0.  0.
<mgrwt>
<rscale>  0 0.63571779E+03</rscale>
<asrwt>0</asrwt>
<pdfrwt beam="1">  1        2 0.49322528E+00 0.63571779E+03</pdfrwt>
<pdfrwt beam="2">  1       -2 0.39477260E-01 0.63571779E+03</pdfrwt>
<totfact> 0.85494009E+00</totfact>
</mgrwt>
</event>
<event>
 4    1  0.3365401E-008  0.3227574E+03  0.7818608E-02  0.1074387E+00
         -2   -1    0    0    0  501 -0.00000000000E+00  0.00000000000E+00  0.17300134981E+03  0.17300134983E+03  0.25500000000E-02 0.  1.
          2   -1    0    0  501    0  0.00000000000E+00 -0.00000000000E+00 -0.23133932898E+04  0.23133932898E+04  0.25500000000E-02 0. -1.
    8880022    1    1    2    0    0  0.57016326196E+02 -0.27844177844E+03 -0.96502400677E+00  0.32275884143E+03  0.15294330000E+03 0.  1.
    8880022    1    1    2    0    0 -0.57016326196E+02  0.27844177844E+03 -0.21394269159E+04  0.21636357982E+04  0.15294330000E+03 0.  0.
<mgrwt>
<rscale>  0 0.32275740E+03</rscale>
<asrwt>0</asrwt>
<pdfrwt beam="1">  1        2 0.35590664E+00 0.32275740E+03</pdfrwt>
<pdfrwt beam="2">  1       -2 0.26615594E-01 0.32275740E+03</pdfrwt>
<totfact> 0.63898305E+01</totfact>
</mgrwt>
</event>
<event>
 4    1  0.3365401E-008  0.1773155E+03  0.7818608E-02  0.1170427E+00
         -2   -1    0    0    0  501 -0.00000000000E+00  0.00000000000E+00  0.66592850836E+02  0.66592850885E+02  0.25500000000E-02 0.  1.
          2   -1    0    0  501    0  0.00000000000E+00 -0.00000000000E+00 -0.18165249006E+04  0.18165249006E+04  0.25500000000E-02 0. -1.
    8880022    1    1    2    0    0  0.11588094465E+01  0.89709392760E+02 -0.64957605874E+02  0.18883924794E+03  0.15294330000E+03 0.  0.
    8880022    1    1    2    0    0 -0.11588094465E+01 -0.89709392760E+02 -0.16849744439E+04  0.16942785036E+04  0.15294330000E+03 0. -1.
<mgrwt>
<rscale>  0 0.17731546E+03</rscale>
<asrwt>0</asrwt>
<pdfrwt beam="1">  1        2 0.27946533E+00 0.17731546E+03</pdfrwt>
<pdfrwt beam="2">  1       -2 0.10245055E-01 0.17731546E+03</pdfrwt>
<totfact> 0.60322230E+02</totfact>
</mgrwt>
</event>
<event>
 4    1  0.3365401E-008  0.3688911E+03  0.7818608E-02  0.1055118E+00
         -2   -1    0    0    0  501 -0.00000000000E+00  0.00000000000E+00  0.58550481520E+03  0.58550481521E+03  0.25500000000E-02 0.  1.
          2   -1    0    0  501    0  0.00000000000E+00 -0.00000000000E+00 -0.81907071016E+03  0.81907071016E+03  0.25500000000E-02 0. -1.
    8880022    1    1    2    0    0 -0.31570952312E+03  0.11408975446E+03  0.47757177979E+03  0.60345292519E+03  0.15294330000E+03 0.  0.
    8880022    1    1    2    0    0  0.31570952312E+03 -0.11408975446E+03 -0.71113767474E+03  0.80112260017E+03  0.15294330000E+03 0.  0.
<mgrwt>
<rscale>  0 0.36889108E+03</rscale>
<asrwt>0</asrwt>
<pdfrwt beam="1">  1        2 0.12601088E+00 0.36889108E+03</pdfrwt>
<pdfrwt beam="2">  1       -2 0.90077664E-01 0.36889108E+03</pdfrwt>
<totfact> 0.37375095E+01</totfact>
</mgrwt>
</event>
<event>
 4    1  0.3365401E-008  0.8582381E+03  0.7818608E-02  0.9479346E-01
          2   -1    0    0  501    0  0.00000000000E+00  0.00000000000E+00  0.11817703659E+04  0.11817703659E+04  0.25500000000E-02 0. -1.
         -2   -1    0    0    0  501 -0.00000000000E+00 -0.00000000000E+00 -0.84396174780E+03  0.84396174781E+03  0.25500000000E-02 0.  1.
    8880022    1    1    2    0    0  0.72935632199E+03 -0.42569974234E+03 -0.34903025829E+03  0.92649591973E+03  0.15294330000E+03 0.  0.
    8880022    1    1    2    0    0 -0.72935632199E+03  0.42569974234E+03  0.68683887643E+03  0.10992361940E+04  0.15294330000E+03 0.  0.
<mgrwt>
<rscale>  0 0.85823806E+03</rscale>
<asrwt>0</asrwt>
<pdfrwt beam="1">  1        2 0.18181083E+00 0.85823806E+03</pdfrwt>
<pdfrwt beam="2">  1       -2 0.12984027E+00 0.85823806E+03</pdfrwt>
<totfact> 0.85190383E+00</totfact>
</mgrwt>
</event>
<event>
 4    1  0.3365401E-008  0.5317143E+03  0.7818608E-02  0.1005817E+00
         -2   -1    0    0    0  501 -0.00000000000E+00  0.00000000000E+00  0.48095074815E+03  0.48095074815E+03  0.25500000000E-02 0.  1.
          2   -1    0    0  501    0  0.00000000000E+00 -0.00000000000E+00 -0.10928282930E+04  0.10928282930E+04  0.25500000000E-02 0. -1.
    8880022    1    1    2    0    0 -0.26799114401E+03  0.43302327785E+03 -0.84084820912E+03  0.99485967665E+03  0.15294330000E+03 0.  0.
    8880022    1    1    2    0    0  0.26799114401E+03 -0.43302327785E+03  0.22897066431E+03  0.57891936447E+03  0.15294330000E+03 0.  0.
<mgrwt>
<rscale>  0 0.53171427E+03</rscale>
<asrwt>0</asrwt>
<pdfrwt beam="1">  1        2 0.16812743E+00 0.53171427E+03</pdfrwt>
<pdfrwt beam="2">  1       -2 0.73992423E-01 0.53171427E+03</pdfrwt>
<totfact> 0.37757643E+01</totfact>
</mgrwt>
</event>
<event>
 4    1  0.3365401E-008  0.2171277E+04  0.7818608E-02  0.8530479E-01
         -2   -1    0    0    0  501 -0.00000000000E+00  0.00000000000E+00  0.24308664761E+04  0.24308664761E+04  0.25500000000E-02 0.  1.
          2   -1    0    0  501    0  0.00000000000E+00 -0.00000000000E+00 -0.29305446108E+04  0.29305446108E+04  0.25500000000E-02 0. -1.
    8880022    1    1    2    0    0  0.18431358079E+04 -0.11374976957E+04 -0.18088231079E+04  0.28260012921E+04  0.15294330000E+03 0.  0.
    8880022    1    1    2    0    0 -0.18431358079E+04  0.11374976957E+04  0.13091449732E+04  0.25354097949E+04  0.15294330000E+03 0.  0.
<mgrwt>
<rscale>  0 0.21712766E+04</rscale>
<asrwt>0</asrwt>
<pdfrwt beam="1">  1        2 0.45085302E+00 0.21712766E+04</pdfrwt>
<pdfrwt beam="2">  1       -2 0.37397945E+00 0.21712766E+04</pdfrwt>
<totfact> 0.18209777E-02</totfact>
</mgrwt>
</event>
<event>
 4    1  0.3365401E-008  0.1606089E+03  0.7818608E-02  0.1188011E+00
         -2   -1    0    0    0  501 -0.00000000000E+00  0.00000000000E+00  0.22983480314E+02  0.22983480455E+02  0.25500000000E-02 0.  1.
          2   -1    0    0  501    0  0.00000000000E+00 -0.00000000000E+00 -0.22240785736E+04  0.22240785736E+04  0.25500000000E-02 0. -1.
    8880022    1    1    2    0    0 -0.29419743931E+02  0.39217747613E+02 -0.18913170522E+04  0.18981241788E+04  0.15294330000E+03 0.  0.
    8880022    1    1    2    0    0  0.29419743931E+02 -0.39217747613E+02 -0.30977804112E+03  0.34893787533E+03  0.15294330000E+03 0.  1.
<mgrwt>
<rscale>  0 0.16060886E+03</rscale>
<asrwt>0</asrwt>
<pdfrwt beam="1">  1        2 0.34216576E+00 0.16060886E+03</pdfrwt>
<pdfrwt beam="2">  1       -2 0.35359218E-02 0.16060886E+03</pdfrwt>
<totfact> 0.18902749E+03</totfact>
</mgrwt>
</event>
<event>
 4    1  0.3365401E-008  0.6004466E+03  0.7818608E-02  0.9904480E-01
         -2   -1    0    0    0  501 -0.00000000000E+00  0.00000000000E+00  0.29933817589E+04  0.29933817589E+04  0.25500000000E-02 0.  1.
          2   -1    0    0  501    0  0.00000000000E+00 -0.00000000000E+00 -0.16337410025E+03  0.16337410027E+03  0.25500000000E-02 0. -1.
    8880022    1    1    2    0    0  0.57055590657E+03 -0.10775155301E+03  0.60591112572E+03  0.85303246421E+03  0.15294330000E+03 0.  0.
    8880022    1    1    2    0    0 -0.57055590657E+03  0.10775155301E+03  0.22240965329E+04  0.23037233950E+04  0.15294330000E+03 0.  0.
<mgrwt>
<rscale>  0 0.60044658E+03</rscale>
<asrwt>0</asrwt>
<pdfrwt beam="1">  1        2 0.25134476E-01 0.60044658E+03</pdfrwt>
<pdfrwt beam="2">  1       -2 0.46052029E+00 0.60044658E+03</pdfrwt>
<totfact> 0.70423214E-01</totfact>
</mgrwt>
</event>
<event>
 4    1  0.3365401E-008  0.4136801E+03  0.7818608E-02  0.1039143E+00
         -2   -1    0    0    0  501 -0.00000000000E+00  0.00000000000E+00  0.83304337839E+03  0.83304337839E+03  0.25500000000E-02 0.  1.
          2   -1    0    0  501    0  0.00000000000E+00 -0.00000000000E+00 -0.38208154151E+03  0.38208154152E+03  0.25500000000E-02 0. -1.
    8880022    1    1    2    0    0 -0.36225443325E+03 -0.12849623645E+03 -0.18763595502E+03  0.45424493593E+03  0.15294330000E+03 0.  0.
    8880022    1    1    2    0    0  0.36225443325E+03  0.12849623645E+03  0.63859779190E+03  0.76087998398E+03  0.15294330000E+03 0.  1.
<mgrwt>
<rscale>  0 0.41368008E+03</rscale>
<asrwt>0</asrwt>
<pdfrwt beam="1">  1        2 0.58781776E-01 0.41368008E+03</pdfrwt>
<pdfrwt beam="2">  1       -2 0.12816052E+00 0.41368008E+03</pdfrwt>
<totfact> 0.39289224E+01</totfact>
</mgrwt>
</event>
<event>
 4    1  0.3365401E-008  0.4249130E+03  0.7818608E-02  0.1035479E+00
         -2   -1    0    0    0  501 -0.00000000000E+00  0.00000000000E+00  0.11817733592E+03  0.11817733595E+03  0.25500000000E-02 0.  1.
          2   -1    0    0  501    0  0.00000000000E+00 -0.00000000000E+00 -0.17068366444E+04  0.17068366444E+04  0.25500000000E-02 0. -1.
    8880022    1    1    2    0    0 -0.36705807949E+03  0.14975905635E+03 -0.49879121276E+03  0.65524326446E+03  0.15294330000E+03 0.  0.
    8880022    1    1    2    0    0  0.36705807949E+03 -0.14975905635E+03 -0.10898680957E+04  0.11697707159E+04  0.15294330000E+03 0.  0.
<mgrwt>
<rscale>  0 0.42491300E+03</rscale>
<asrwt>0</asrwt>
<pdfrwt beam="1">  1        2 0.26259023E+00 0.42491300E+03</pdfrwt>
<pdfrwt beam="2">  1       -2 0.18181130E-01 0.42491300E+03</pdfrwt>
<totfact> 0.25740258E+02</totfact>
</mgrwt>
</event>
<event>
 4    1  0.3365401E-008  0.6954057E+03  0.7818608E-02  0.9725121E-01
          2   -1    0    0  501    0  0.00000000000E+00  0.00000000000E+00  0.24876632568E+04  0.24876632568E+04  0.25500000000E-02 0. -1.
         -2   -1    0    0    0  501 -0.00000000000E+00 -0.00000000000E+00 -0.21889016342E+03  0.21889016344E+03  0.25500000000E-02 0.  1.
    8880022    1    1    2    0    0 -0.59478498847E+03  0.32623344910E+03  0.15870905846E+04  0.17327566542E+04  0.15294330000E+03 0.  0.
    8880022    1    1    2    0    0  0.59478498847E+03 -0.32623344910E+03  0.68168250879E+03  0.97379676608E+03  0.15294330000E+03 0.  0.
<mgrwt>
<rscale>  0 0.69540571E+03</rscale>
<asrwt>0</asrwt>
<pdfrwt beam="1">  1        2 0.38271743E+00 0.69540571E+03</pdfrwt>
<pdfrwt beam="2">  1       -2 0.33675409E-01 0.69540571E+03</pdfrwt>
<totfact> 0.30687382E+01</totfact>
</mgrwt>
</event>
<event>
 4    1  0.3365401E-008  0.5571704E+03  0.7818608E-02  0.9998478E-01
         -2   -1    0    0    0  501 -0.00000000000E+00  0.00000000000E+00  0.96162935452E+03  0.96162935453E+03  0.25500000000E-02 0.  1.
          2   -1    0    0  501    0  0.00000000000E+00 -0.00000000000E+00 -0.73341566988E+03  0.73341566988E+03  0.25500000000E-02 0. -1.
    8880022    1    1    2    0    0 -0.45299520006E+03  0.28608143205E+03  0.74823961309E+03  0.93289946331E+03  0.15294330000E+03 0.  0.
    8880022    1    1    2    0    0  0.45299520006E+03 -0.28608143205E+03 -0.52002592844E+03  0.76214556110E+03  0.15294330000E+03 0.  0.
<mgrwt>
<rscale>  0 0.55717043E+03</rscale>
<asrwt>0</asrwt>
<pdfrwt beam="1">  1        2 0.11283318E+00 0.55717043E+03</pdfrwt>
<pdfrwt beam="2">  1       -2 0.14794298E+00 0.55717043E+03</pdfrwt>
<totfact> 0.12474032E+01</totfact>
</mgrwt>
</event>
<event>
 4    1  0.3365401E-008  0.8676407E+03  0.7818608E-02  0.9466961E-01
         -2   -1    0    0    0  501 -0.00000000000E+00  0.00000000000E+00  0.61943042392E+03  0.61943042393E+03  0.25500000000E-02 0.  1.
          2   -1    0    0  501    0  0.00000000000E+00 -0.00000000000E+00 -0.15288939816E+04  0.15288939816E+04  0.25500000000E-02 0. -1.
    8880022    1    1    2    0    0  0.85402208090E+03  0.74187591034E+01  0.31739998411E+02  0.86822107390E+03  0.15294330000E+03 0.  0.
    8880022    1    1    2    0    0 -0.85402208090E+03 -0.74187591034E+01 -0.94120355610E+03  0.12801033316E+04  0.15294330000E+03 0.  0.
<mgrwt>
<rscale>  0 0.86764071E+03</rscale>
<asrwt>0</asrwt>
<pdfrwt beam="1">  1        2 0.23521446E+00 0.86764071E+03</pdfrwt>
<pdfrwt beam="2">  1       -2 0.95296989E-01 0.86764071E+03</pdfrwt>
<totfact> 0.11427237E+01</totfact>
</mgrwt>
</event>
<event>
 4    1  0.3365401E-008  0.2352738E+03  0.7818608E-02  0.1122982E+00
          2   -1    0    0  501    0  0.00000000000E+00  0.00000000000E+00  0.87206019386E+02  0.87206019423E+02  0.25500000000E-02 0. -1.
         -2   -1    0    0    0  501 -0.00000000000E+00 -0.00000000000E+00 -0.23393933283E+04  0.23393933283E+04  0.25500000000E-02 0.  1.
    8880022    1    1    2    0    0  0.20758866817E+02 -0.17757026704E+03 -0.21617926757E+04  0.21745577380E+04  0.15294330000E+03 0.  1.
    8880022    1    1    2    0    0 -0.20758866817E+02  0.17757026704E+03 -0.90394633203E+02  0.25204160969E+03  0.15294330000E+03 0.  0.
<mgrwt>
<rscale>  0 0.23527385E+03</rscale>
<asrwt>0</asrwt>
<pdfrwt beam="1">  1        2 0.13416312E-01 0.23527385E+03</pdfrwt>
<pdfrwt beam="2">  1       -2 0.35990662E+00 0.23527385E+03</pdfrwt>
<totfact> 0.72556822E+00</totfact>
</mgrwt>
</event>
<event>
 4    1  0.3365401E-008  0.6903330E+03  0.7818608E-02  0.9733908E-01
         -2   -1    0    0    0  501 -0.00000000000E+00  0.00000000000E+00  0.19972337187E+04  0.19972337187E+04  0.25500000000E-02 0.  1.
          2   -1    0    0  501    0  0.00000000000E+00 -0.00000000000E+00 -0.30813069008E+03  0.30813069009E+03  0.25500000000E-02 0. -1.
    8880022    1    1    2    0    0  0.55512825522E+03 -0.38078942047E+03  0.29703193891E+03  0.75152351144E+03  0.15294330000E+03 0.  0.
    8880022    1    1    2    0    0 -0.55512825522E+03  0.38078942047E+03  0.13920710897E+04  0.15538408974E+04  0.15294330000E+03 0.  0.
<mgrwt>
<rscale>  0 0.69033297E+03</rscale>
<asrwt>0</asrwt>
<pdfrwt beam="1">  1        2 0.47404720E-01 0.69033297E+03</pdfrwt>
<pdfrwt beam="2">  1       -2 0.30726673E+00 0.69033297E+03</pdfrwt>
<totfact> 0.32115783E+00</totfact>
</mgrwt>
</event>
<event>
 4    1  0.3365401E-008  0.4150093E+03  0.7818608E-02  0.1038703E+00
          2   -1    0    0  501    0  0.00000000000E+00  0.00000000000E+00  0.26134048088E+03  0.26134048090E+03  0.25500000000E-02 0. -1.
         -2   -1    0    0    0  501 -0.00000000000E+00 -0.00000000000E+00 -0.77048206680E+03  0.77048206680E+03  0.25500000000E-02 0.  1.
    8880022    1    1    2    0    0  0.37243367307E+03  0.10066905657E+03 -0.45078315461E+03  0.61273012435E+03  0.15294330000E+03 0.  0.
    8880022    1    1    2    0    0 -0.37243367307E+03 -0.10066905657E+03 -0.58358431303E+02  0.41909242335E+03  0.15294330000E+03 0.  0.
<mgrwt>
<rscale>  0 0.41500934E+03</rscale>
<asrwt>0</asrwt>
<pdfrwt beam="1">  1        2 0.40206228E-01 0.41500934E+03</pdfrwt>
<pdfrwt beam="2">  1       -2 0.11853570E+00 0.41500934E+03</pdfrwt>
<totfact> 0.72305908E+01</totfact>
</mgrwt>
</event>
<event>
 4    1  0.3365401E-008  0.5271029E+03  0.7818608E-02  0.1006937E+00
         -2   -1    0    0    0  501 -0.00000000000E+00  0.00000000000E+00  0.46984381511E+03  0.46984381511E+03  0.25500000000E-02 0.  1.
          2   -1    0    0  501    0  0.00000000000E+00 -0.00000000000E+00 -0.68094743875E+03  0.68094743875E+03  0.25500000000E-02 0. -1.
    8880022    1    1    2    0    0  0.48974157843E+03 -0.12082642563E+03 -0.31428020739E+03  0.61368521291E+03  0.15294330000E+03 0.  0.
    8880022    1    1    2    0    0 -0.48974157843E+03  0.12082642563E+03  0.10317658375E+03  0.53710604095E+03  0.15294330000E+03 0.  0.
<mgrwt>
<rscale>  0 0.52710292E+03</rscale>
<asrwt>0</asrwt>
<pdfrwt beam="1">  1        2 0.10476114E+00 0.52710292E+03</pdfrwt>
<pdfrwt beam="2">  1       -2 0.72283664E-01 0.52710292E+03</pdfrwt>
<totfact> 0.75722995E+01</totfact>
</mgrwt>
</event>
<event>
 4    1  0.3365401E-008  0.5948658E+03  0.7818608E-02  0.9916116E-01
          2   -1    0    0  501    0  0.00000000000E+00  0.00000000000E+00  0.29987757823E+04  0.29987757823E+04  0.25500000000E-02 0. -1.
         -2   -1    0    0    0  501 -0.00000000000E+00 -0.00000000000E+00 -0.35794171929E+03  0.35794171930E+03  0.25500000000E-02 0.  1.
    8880022    1    1    2    0    0 -0.62084793337E+02 -0.57150601139E+03  0.26945494232E+04  0.27594314432E+04  0.15294330000E+03 0.  0.
    8880022    1    1    2    0    0  0.62084793337E+02  0.57150601139E+03 -0.53715360195E+02  0.59728605840E+03  0.15294330000E+03 0.  0.
<mgrwt>
<rscale>  0 0.59486578E+03</rscale>
<asrwt>0</asrwt>
<pdfrwt beam="1">  1        2 0.46135015E+00 0.59486578E+03</pdfrwt>
<pdfrwt beam="2">  1       -2 0.55067954E-01 0.59486578E+03</pdfrwt>
<totfact> 0.59585163E+00</totfact>
</mgrwt>
</event>
<event>
 4    1  0.3365401E-008  0.3744367E+03  0.7818608E-02  0.1053009E+00
         -2   -1    0    0    0  501 -0.00000000000E+00  0.00000000000E+00  0.34024159602E+03  0.34024159602E+03  0.25500000000E-02 0.  1.
          2   -1    0    0  501    0  0.00000000000E+00 -0.00000000000E+00 -0.24929006877E+04  0.24929006877E+04  0.25500000000E-02 0. -1.
    8880022    1    1    2    0    0 -0.32352852747E+03 -0.11018397369E+03 -0.23705385660E+04  0.23999283244E+04  0.15294330000E+03 0.  0.
    8880022    1    1    2    0    0  0.32352852747E+03  0.11018397369E+03  0.21787947440E+03  0.43321395929E+03  0.15294330000E+03 0.  0.
<mgrwt>
<rscale>  0 0.37443674E+03</rscale>
<asrwt>0</asrwt>
<pdfrwt beam="1">  1        2 0.38352317E+00 0.37443674E+03</pdfrwt>
<pdfrwt beam="2">  1       -2 0.52344862E-01 0.37443674E+03</pdfrwt>
<totfact> 0.13816073E+01</totfact>
</mgrwt>
</event>
<event>
 4    1  0.4023977E-008  0.4135938E+03  0.7818608E-02  0.1039172E+00
          2   -1    0    0  501    0  0.00000000000E+00  0.00000000000E+00  0.16499092520E+04  0.16499092520E+04  0.25500000000E-02 0. -1.
         -2   -1    0    0    0  501 -0.00000000000E+00 -0.00000000000E+00 -0.98168696506E+03  0.98168696506E+03  0.25500000000E-02 0.  1.
    8880022    1    1    2    0    0 -0.23798246906E+03  0.30171602061E+03 -0.91026631288E+03  0.99982229723E+03  0.15294330000E+03 0.  0.
    8880022    1    1    2    0    0  0.23798246906E+03 -0.30171602061E+03  0.15784885998E+04  0.16317739198E+04  0.15294330000E+03 0. -1.
<mgrwt>
<rscale>  0 0.41359384E+03</rscale>
<asrwt>0</asrwt>
<pdfrwt beam="1">  1        2 0.25383219E+00 0.41359384E+03</pdfrwt>
<pdfrwt beam="2">  1       -2 0.15102877E+00 0.41359384E+03</pdfrwt>
<totfact> 0.34155413E+00</totfact>
</mgrwt>
</event>
<event>
 4    1  0.3365401E-008  0.4777805E+03  0.7818608E-02  0.1019747E+00
         -2   -1    0    0    0  501 -0.00000000000E+00  0.00000000000E+00  0.61371085587E+03  0.61371085587E+03  0.25500000000E-02 0.  1.
          2   -1    0    0  501    0  0.00000000000E+00 -0.00000000000E+00 -0.94218663111E+03  0.94218663111E+03  0.25500000000E-02 0. -1.
    8880022    1    1    2    0    0  0.35891483979E+03  0.27579459578E+03 -0.76944960470E+03  0.90571897875E+03  0.15294330000E+03 0.  0.
    8880022    1    1    2    0    0 -0.35891483979E+03 -0.27579459578E+03  0.44097382946E+03  0.65017850823E+03  0.15294330000E+03 0.  0.
<mgrwt>
<rscale>  0 0.47778047E+03</rscale>
<asrwt>0</asrwt>
<pdfrwt beam="1">  1        2 0.14495179E+00 0.47778047E+03</pdfrwt>
<pdfrwt beam="2">  1       -2 0.94417055E-01 0.47778047E+03</pdfrwt>
<totfact> 0.27265017E+01</totfact>
</mgrwt>
</event>
<event>
 4    1  0.3365401E-008  0.1746770E+03  0.7818608E-02  0.1173056E+00
          2   -1    0    0  501    0  0.00000000000E+00  0.00000000000E+00  0.23299231514E+04  0.23299231514E+04  0.25500000000E-02 0. -1.
         -2   -1    0    0    0  501 -0.00000000000E+00 -0.00000000000E+00 -0.50868345047E+02  0.50868345111E+02  0.25500000000E-02 0.  1.
    8880022    1    1    2    0    0 -0.32705457391E+02  0.77786620977E+02  0.11374308610E+03  0.20844555164E+03  0.15294330000E+03 0.  0.
    8880022    1    1    2    0    0  0.32705457391E+02 -0.77786620977E+02  0.21653117203E+04  0.21723459449E+04  0.15294330000E+03 0. -1.
<mgrwt>
<rscale>  0 0.17467701E+03</rscale>
<asrwt>0</asrwt>
<pdfrwt beam="1">  1        2 0.35844970E+00 0.17467701E+03</pdfrwt>
<pdfrwt beam="2">  1       -2 0.78258996E-02 0.17467701E+03</pdfrwt>
<totfact> 0.49768354E+02</totfact>
</mgrwt>
</event>
<event>
 4    1  0.3365401E-008  0.9074886E+03  0.7818608E-02  0.9416268E-01
         -2   -1    0    0    0  501 -0.00000000000E+00  0.00000000000E+00  0.17097154797E+04  0.17097154797E+04  0.25500000000E-02 0.  1.
          2   -1    0    0  501    0  0.00000000000E+00 -0.00000000000E+00 -0.80611683703E+03  0.80611683704E+03  0.25500000000E-02 0. -1.
    8880022    1    1    2    0    0 -0.87429035955E+03  0.18910399306E+03  0.12498267827E+04  0.15445396054E+04  0.15294330000E+03 0.  0.
    8880022    1    1    2    0    0  0.87429035955E+03 -0.18910399306E+03 -0.34622814006E+03  0.97129271127E+03  0.15294330000E+03 0.  0.
<mgrwt>
<rscale>  0 0.90748863E+03</rscale>
<asrwt>0</asrwt>
<pdfrwt beam="1">  1        2 0.12401798E+00 0.90748863E+03</pdfrwt>
<pdfrwt beam="2">  1       -2 0.26303315E+00 0.90748863E+03</pdfrwt>
<totfact> 0.18428936E+00</totfact>
</mgrwt>
</event>
<event>
 4    1  0.3365401E-008  0.9605920E+03  0.7818608E-02  0.9352855E-01
          2   -1    0    0  501    0  0.00000000000E+00  0.00000000000E+00  0.28334359659E+04  0.28334359659E+04  0.25500000000E-02 0. -1.
         -2   -1    0    0    0  501 -0.00000000000E+00 -0.00000000000E+00 -0.80828016498E+03  0.80828016498E+03  0.25500000000E-02 0.  1.
    8880022    1    1    2    0    0  0.94819311858E+03 -0.16589096754E+02  0.24195899612E+04  0.26032964913E+04  0.15294330000E+03 0.  0.
    8880022    1    1    2    0    0 -0.94819311858E+03  0.16589096754E+02 -0.39443416022E+03  0.10384196397E+04  0.15294330000E+03 0.  0.
<mgrwt>
<rscale>  0 0.96059203E+03</rscale>
<asrwt>0</asrwt>
<pdfrwt beam="1">  1        2 0.43591321E+00 0.96059203E+03</pdfrwt>
<pdfrwt beam="2">  1       -2 0.12435080E+00 0.96059203E+03</pdfrwt>
<totfact> 0.10939618E+00</totfact>
</mgrwt>
</event>
<event>
 4    1  0.3365401E-008  0.8723483E+03  0.7818608E-02  0.9460823E-01
          2   -1    0    0  501    0  0.00000000000E+00  0.00000000000E+00  0.31456770344E+04  0.31456770344E+04  0.25500000000E-02 0. -1.
         -2   -1    0    0    0  501 -0.00000000000E+00 -0.00000000000E+00 -0.47088225904E+03  0.47088225905E+03  0.25500000000E-02 0.  1.
    8880022    1    1    2    0    0  0.54184748812E+03 -0.66633418808E+03  0.25983378231E+04  0.27408668422E+04  0.15294330000E+03 0.  0.
    8880022    1    1    2    0    0 -0.54184748812E+03  0.66633418808E+03  0.76456952221E+02  0.87569245123E+03  0.15294330000E+03 0.  0.
<mgrwt>
<rscale>  0 0.87234833E+03</rscale>
<asrwt>0</asrwt>
<pdfrwt beam="1">  1        2 0.48395031E+00 0.87234833E+03</pdfrwt>
<pdfrwt beam="2">  1       -2 0.72443426E-01 0.87234833E+03</pdfrwt>
<totfact> 0.25400813E+00</totfact>
</mgrwt>
</event>
<event>
 4    1  0.3365401E-008  0.5144624E+03  0.7818608E-02  0.1010071E+00
         -2   -1    0    0    0  501 -0.00000000000E+00  0.00000000000E+00  0.55309536329E+03  0.55309536330E+03  0.25500000000E-02 0.  1.
          2   -1    0    0  501    0  0.00000000000E+00 -0.00000000000E+00 -0.19586538022E+04  0.19586538022E+04  0.25500000000E-02 0. -1.
    8880022    1    1    2    0    0  0.20019179629E+03  0.44855672735E+03 -0.17945130411E+04  0.18668017037E+04  0.15294330000E+03 0.  0.
    8880022    1    1    2    0    0 -0.20019179629E+03 -0.44855672735E+03  0.38895460222E+03  0.64494746186E+03  0.15294330000E+03 0.  0.
<mgrwt>
<rscale>  0 0.51446239E+03</rscale>
<asrwt>0</asrwt>
<pdfrwt beam="1">  1        2 0.30133135E+00 0.51446239E+03</pdfrwt>
<pdfrwt beam="2">  1       -2 0.85091596E-01 0.51446239E+03</pdfrwt>
<totfact> 0.91504362E+00</totfact>
</mgrwt>
</event>
<event>
 4    1  0.3365401E-008  0.6871672E+03  0.7818608E-02  0.9739433E-01
          2   -1    0    0  501    0  0.00000000000E+00  0.00000000000E+00  0.95236976820E+03  0.95236976820E+03  0.25500000000E-02 0. -1.
         -2   -1    0    0    0  501 -0.00000000000E+00 -0.00000000000E+00 -0.89837014767E+03  0.89837014767E+03  0.25500000000E-02 0.  1.
    8880022    1    1    2    0    0 -0.65659799831E+03  0.13298916251E+03 -0.59244229731E+03  0.90729630077E+03  0.15294330000E+03 0.  0.
    8880022    1    1    2    0    0  0.65659799831E+03 -0.13298916251E+03  0.64644191784E+03  0.94344361510E+03  0.15294330000E+03 0.  0.
<mgrwt>
<rscale>  0 0.68716716E+03</rscale>
<asrwt>0</asrwt>
<pdfrwt beam="1">  1        2 0.14651843E+00 0.68716716E+03</pdfrwt>
<pdfrwt beam="2">  1       -2 0.13821079E+00 0.68716716E+03</pdfrwt>
<totfact> 0.10297098E+01</totfact>
</mgrwt>
</event>
<event>
 4    1  0.3365401E-008  0.4422440E+03  0.7818608E-02  0.1030061E+00
         -2   -1    0    0    0  501 -0.00000000000E+00  0.00000000000E+00  0.45025255118E+03  0.45025255118E+03  0.25500000000E-02 0.  1.
          2   -1    0    0  501    0  0.00000000000E+00 -0.00000000000E+00 -0.23268611647E+04  0.23268611647E+04  0.25500000000E-02 0. -1.
    8880022    1    1    2    0    0  0.25230674573E+03 -0.32943804472E+03 -0.21905641446E+04  0.22347597284E+04  0.15294330000E+03 0.  0.
    8880022    1    1    2    0    0 -0.25230674573E+03  0.32943804472E+03  0.31395553104E+03  0.54235398748E+03  0.15294330000E+03 0.  0.
<mgrwt>
<rscale>  0 0.44224402E+03</rscale>
<asrwt>0</asrwt>
<pdfrwt beam="1">  1        2 0.35797863E+00 0.44224402E+03</pdfrwt>
<pdfrwt beam="2">  1       -2 0.69269625E-01 0.44224402E+03</pdfrwt>
<totfact> 0.92844041E+00</totfact>
</mgrwt>
</event>
<event>
 4    1  0.3365401E-008  0.9798743E+03  0.7818608E-02  0.9330898E-01
         -2   -1    0    0    0  501 -0.00000000000E+00  0.00000000000E+00  0.41995958430E+03  0.41995958431E+03  0.25500000000E-02 0.  1.
          2   -1    0    0  501    0  0.00000000000E+00 -0.00000000000E+00 -0.27643248354E+04  0.27643248354E+04  0.25500000000E-02 0. -1.
    8880022    1    1    2    0    0 -0.95892590049E+03 -0.13123686835E+03 -0.51009954342E+03  0.11046968794E+04  0.15294330000E+03 0.  0.
    8880022    1    1    2    0    0  0.95892590049E+03  0.13123686835E+03 -0.18342657077E+04  0.20795875403E+04  0.15294330000E+03 0.  0.
<mgrwt>
<rscale>  0 0.97987430E+03</rscale>
<asrwt>0</asrwt>
<pdfrwt beam="1">  1        2 0.42528073E+00 0.97987430E+03</pdfrwt>
<pdfrwt beam="2">  1       -2 0.64609169E-01 0.97987430E+03</pdfrwt>
<totfact> 0.54805604E+00</totfact>
</mgrwt>
</event>
<event>
 4    1  0.3365401E-008  0.2402479E+03  0.7818608E-02  0.1119628E+00
          2   -1    0    0  501    0  0.00000000000E+00  0.00000000000E+00  0.11737187193E+04  0.11737187193E+04  0.25500000000E-02 0. -1.
         -2   -1    0    0    0  501 -0.00000000000E+00 -0.00000000000E+00 -0.10966042035E+03  0.10966042038E+03  0.25500000000E-02 0.  1.
    8880022    1    1    2    0    0 -0.16954522258E+03  0.74711541041E+02  0.55465405500E+02  0.24656735608E+03  0.15294330000E+03 0.  0.
    8880022    1    1    2    0    0  0.16954522258E+03 -0.74711541041E+02  0.10085928934E+04  0.10368117836E+04  0.15294330000E+03 0.  0.
<mgrwt>
<rscale>  0 0.24024789E+03</rscale>
<asrwt>0</asrwt>
<pdfrwt beam="1">  1        2 0.18057211E+00 0.24024789E+03</pdfrwt>
<pdfrwt beam="2">  1       -2 0.16870834E-01 0.24024789E+03</pdfrwt>
<totfact> 0.58570419E+02</totfact>
</mgrwt>
</event>
<event>
 4    1  0.3365401E-008  0.2598729E+03  0.7818608E-02  0.1107220E+00
         -2   -1    0    0    0  501 -0.00000000000E+00  0.00000000000E+00  0.48491039956E+03  0.48491039957E+03  0.25500000000E-02 0.  1.
          2   -1    0    0  501    0  0.00000000000E+00 -0.00000000000E+00 -0.10312247235E+04  0.10312247235E+04  0.25500000000E-02 0. -1.
    8880022    1    1    2    0    0 -0.17236978657E+03  0.12012889831E+03  0.43186443361E+03  0.50402463984E+03  0.15294330000E+03 0.  0.
    8880022    1    1    2    0    0  0.17236978657E+03 -0.12012889831E+03 -0.97817875754E+03  0.10121104832E+04  0.15294330000E+03 0.  0.
<mgrwt>
<rscale>  0 0.25987295E+03</rscale>
<asrwt>0</asrwt>
<pdfrwt beam="1">  1        2 0.15864996E+00 0.25987295E+03</pdfrwt>
<pdfrwt beam="2">  1       -2 0.74601600E-01 0.25987295E+03</pdfrwt>
<totfact> 0.42514699E+01</totfact>
</mgrwt>
</event>
<event>
 4    1  0.3365401E-008  0.4734871E+03  0.7818608E-02  0.1020941E+00
          2   -1    0    0  501    0  0.00000000000E+00  0.00000000000E+00  0.13603369624E+04  0.13603369624E+04  0.25500000000E-02 0. -1.
         -2   -1    0    0    0  501 -0.00000000000E+00 -0.00000000000E+00 -0.46111016280E+03  0.46111016281E+03  0.25500000000E-02 0.  1.
    8880022    1    1    2    0    0  0.39302714833E+03  0.21523958557E+03  0.11796657042E+04  0.12711417093E+04  0.15294330000E+03 0.  0.
    8880022    1    1    2    0    0 -0.39302714833E+03 -0.21523958557E+03 -0.28043890459E+03  0.55030541588E+03  0.15294330000E+03 0.  0.
<mgrwt>
<rscale>  0 0.47348714E+03</rscale>
<asrwt>0</asrwt>
<pdfrwt beam="1">  1        2 0.20928261E+00 0.47348714E+03</pdfrwt>
<pdfrwt beam="2">  1       -2 0.70940025E-01 0.47348714E+03</pdfrwt>
<totfact> 0.29218714E+01</totfact>
</mgrwt>
</event>
<event>
 4    1  0.3365401E-008  0.6161957E+03  0.7818608E-02  0.9872363E-01
          2   -1    0    0  501    0  0.00000000000E+00  0.00000000000E+00  0.18282266567E+04  0.18282266568E+04  0.25500000000E-02 0. -1.
         -2   -1    0    0    0  501 -0.00000000000E+00 -0.00000000000E+00 -0.49050569449E+03  0.49050569450E+03  0.25500000000E-02 0.  1.
    8880022    1    1    2    0    0  0.26851508250E+03  0.53310891939E+03 -0.21148554072E+03  0.65147774821E+03  0.15294330000E+03 0.  0.
    8880022    1    1    2    0    0 -0.26851508250E+03 -0.53310891939E+03  0.15492065030E+04  0.16672546030E+04  0.15294330000E+03 0.  0.
<mgrwt>
<rscale>  0 0.61619569E+03</rscale>
<asrwt>0</asrwt>
<pdfrwt beam="1">  1        2 0.28126564E+00 0.61619569E+03</pdfrwt>
<pdfrwt beam="2">  1       -2 0.75462413E-01 0.61619569E+03</pdfrwt>
<totfact> 0.13801067E+01</totfact>
</mgrwt>
</event>
<event>
 4    1  0.3365401E-008  0.2370608E+03  0.7818608E-02  0.1121766E+00
         -2   -1    0    0    0  501 -0.00000000000E+00  0.00000000000E+00  0.24608462857E+03  0.24608462858E+03  0.25500000000E-02 0.  1.
          2   -1    0    0  501    0  0.00000000000E+00 -0.00000000000E+00 -0.26171248676E+03  0.26171248677E+03  0.25500000000E-02 0. -1.
    8880022    1    1    2    0    0 -0.12597175395E+03 -0.13014340280E+03 -0.98441509223E+02  0.25668769320E+03  0.15294330000E+03 0. -1.
    8880022    1    1    2    0    0  0.12597175395E+03  0.13014340280E+03  0.82813651033E+02  0.25110942216E+03  0.15294330000E+03 0.  0.
<mgrwt>
<rscale>  0 0.23706084E+03</rscale>
<asrwt>0</asrwt>
<pdfrwt beam="1">  1        2 0.40263460E-01 0.23706084E+03</pdfrwt>
<pdfrwt beam="2">  1       -2 0.37859173E-01 0.23706084E+03</pdfrwt>
<totfact> 0.84030849E+02</totfact>
</mgrwt>
</event>
<event>
 4    1  0.3365401E-008  0.4295862E+03  0.7818608E-02  0.1033991E+00
         -2   -1    0    0    0  501 -0.00000000000E+00  0.00000000000E+00  0.22944193095E+04  0.22944193095E+04  0.25500000000E-02 0.  1.
          2   -1    0    0  501    0  0.00000000000E+00 -0.00000000000E+00 -0.46313863223E+03  0.46313863224E+03  0.25500000000E-02 0. -1.
    8880022    1    1    2    0    0 -0.25985150022E+03 -0.30599000571E+03  0.21689899727E+04  0.22111223033E+04  0.15294330000E+03 0.  0.
    8880022    1    1    2    0    0  0.25985150022E+03  0.30599000571E+03 -0.33770929537E+03  0.54643563844E+03  0.15294330000E+03 0.  0.
<mgrwt>
<rscale>  0 0.42958624E+03</rscale>
<asrwt>0</asrwt>
<pdfrwt beam="1">  1        2 0.71252098E-01 0.42958624E+03</pdfrwt>
<pdfrwt beam="2">  1       -2 0.35298758E+00 0.42958624E+03</pdfrwt>
<totfact> 0.11391101E+00</totfact>
</mgrwt>
</event>
<event>
 4    1  0.3365401E-008  0.6312886E+03  0.7818608E-02  0.9842537E-01
         -2   -1    0    0    0  501 -0.00000000000E+00  0.00000000000E+00  0.29164773405E+03  0.29164773406E+03  0.25500000000E-02 0.  1.
          2   -1    0    0  501    0  0.00000000000E+00 -0.00000000000E+00 -0.16238818043E+04  0.16238818043E+04  0.25500000000E-02 0. -1.
    8880022    1    1    2    0    0  0.61245593180E+03 -0.56005899216E+01 -0.28478492737E+03  0.69255161748E+03  0.15294330000E+03 0.  0.
    8880022    1    1    2    0    0 -0.61245593180E+03  0.56005899216E+01 -0.10474491429E+04  0.12229779209E+04  0.15294330000E+03 0.  0.
<mgrwt>
<rscale>  0 0.63128859E+03</rscale>
<asrwt>0</asrwt>
<pdfrwt beam="1">  1        2 0.24982797E+00 0.63128859E+03</pdfrwt>
<pdfrwt beam="2">  1       -2 0.44868883E-01 0.63128859E+03</pdfrwt>
<totfact> 0.52863857E+01</totfact>
</mgrwt>
</event>
<event>
 4    1  0.3365401E-008  0.3985825E+03  0.7818608E-02  0.1044272E+00
         -2   -1    0    0    0  501 -0.00000000000E+00  0.00000000000E+00  0.64404116462E+03  0.64404116462E+03  0.25500000000E-02 0.  1.
          2   -1    0    0  501    0  0.00000000000E+00 -0.00000000000E+00 -0.22439292681E+04  0.22439292681E+04  0.25500000000E-02 0. -1.
    8880022    1    1    2    0    0  0.35606521362E+03 -0.93241123421E+02 -0.21622510546E+04  0.21986808817E+04  0.15294330000E+03 0.  0.
    8880022    1    1    2    0    0 -0.35606521362E+03  0.93241123421E+02  0.56236295107E+03  0.68928955106E+03  0.15294330000E+03 0.  0.
<mgrwt>
<rscale>  0 0.39858248E+03</rscale>
<asrwt>0</asrwt>
<pdfrwt beam="1">  1        2 0.34521988E+00 0.39858248E+03</pdfrwt>
<pdfrwt beam="2">  1       -2 0.99083257E-01 0.39858248E+03</pdfrwt>
<totfact> 0.46720325E+00</totfact>
</mgrwt>
</event>
<event>
 4    1  0.3365401E-008  0.9597418E+03  0.7818608E-02  0.9353836E-01
         -2   -1    0    0    0  501 -0.00000000000E+00  0.00000000000E+00  0.81438858213E+03  0.81438858213E+03  0.25500000000E-02 0.  1.
          2   -1    0    0  501    0  0.00000000000E+00 -0.00000000000E+00 -0.15701067630E+04  0.15701067630E+04  0.25500000000E-02 0. -1.
    8880022    1    1    2    0    0  0.35463763311E+03  0.87860388570E+03  0.25261645704E+03  0.99243103849E+03  0.15294330000E+03 0.  0.
    8880022    1    1    2    0    0 -0.35463763311E+03 -0.87860388570E+03 -0.10083346379E+04  0.13920643066E+04  0.15294330000E+03 0.  0.
<mgrwt>
<rscale>  0 0.95974178E+03</rscale>
<asrwt>0</asrwt>
<pdfrwt beam="1">  1        2 0.24155489E+00 0.95974178E+03</pdfrwt>
<pdfrwt beam="2">  1       -2 0.12529055E+00 0.95974178E+03</pdfrwt>
<totfact> 0.55184018E+00</totfact>
</mgrwt>
</event>
<event>
 4    1  0.3365401E-008  0.1439585E+04  0.7818608E-02  0.8925653E-01
          2   -1    0    0  501    0  0.00000000000E+00  0.00000000000E+00  0.25400781333E+04  0.25400781333E+04  0.25500000000E-02 0. -1.
         -2   -1    0    0    0  501 -0.00000000000E+00 -0.00000000000E+00 -0.11557689725E+04  0.11557689725E+04  0.25500000000E-02 0.  1.
    8880022    1    1    2    0    0 -0.13044648354E+04 -0.58939357729E+03 -0.30995568954E+03  0.14725751180E+04  0.15294330000E+03 0.  0.
    8880022    1    1    2    0    0  0.13044648354E+04  0.58939357729E+03  0.16942648503E+04  0.22232719878E+04  0.15294330000E+03 0.  0.
<mgrwt>
<rscale>  0 0.14395850E+04</rscale>
<asrwt>0</asrwt>
<pdfrwt beam="1">  1        2 0.39078124E+00 0.14395850E+04</pdfrwt>
<pdfrwt beam="2">  1       -2 0.17781062E+00 0.14395850E+04</pdfrwt>
<totfact> 0.58733900E-01</totfact>
</mgrwt>
</event>
<event>
 4    1  0.3365401E-008  0.7595000E+03  0.7818608E-02  0.9620563E-01
         -2   -1    0    0    0  501 -0.00000000000E+00  0.00000000000E+00  0.78241788388E+03  0.78241788388E+03  0.25500000000E-02 0.  1.
          2   -1    0    0  501    0  0.00000000000E+00 -0.00000000000E+00 -0.11726780775E+04  0.11726780775E+04  0.25500000000E-02 0. -1.
    8880022    1    1    2    0    0  0.68495849549E+03  0.29031103342E+03 -0.79079933245E+03  0.10964505798E+04  0.15294330000E+03 0.  0.
    8880022    1    1    2    0    0 -0.68495849549E+03 -0.29031103342E+03  0.40053913880E+03  0.85864538163E+03  0.15294330000E+03 0.  0.
<mgrwt>
<rscale>  0 0.75950003E+03</rscale>
<asrwt>0</asrwt>
<pdfrwt beam="1">  1        2 0.18041201E+00 0.75950003E+03</pdfrwt>
<pdfrwt beam="2">  1       -2 0.12037198E+00 0.75950003E+03</pdfrwt>
<totfact> 0.10553548E+01</totfact>
</mgrwt>
</event>
<event>
 4    1  0.3365401E-008  0.4976034E+03  0.7818608E-02  0.1014406E+00
         -2   -1    0    0    0  501 -0.00000000000E+00  0.00000000000E+00  0.77559749553E+03  0.77559749553E+03  0.25500000000E-02 0.  1.
          2   -1    0    0  501    0  0.00000000000E+00 -0.00000000000E+00 -0.12038860071E+04  0.12038860072E+04  0.25500000000E-02 0. -1.
    8880022    1    1    2    0    0  0.46459810874E+03  0.91466255046E+02 -0.10625656876E+04  0.11733094102E+04  0.15294330000E+03 0.  0.
    8880022    1    1    2    0    0 -0.46459810874E+03 -0.91466255046E+02  0.63427717600E+03  0.80617409252E+03  0.15294330000E+03 0.  0.
<mgrwt>
<rscale>  0 0.49760339E+03</rscale>
<asrwt>0</asrwt>
<pdfrwt beam="1">  1        2 0.18521323E+00 0.49760339E+03</pdfrwt>
<pdfrwt beam="2">  1       -2 0.11932269E+00 0.49760339E+03</pdfrwt>
<totfact> 0.10756214E+01</totfact>
</mgrwt>
</event>
<event>
 4    1  0.3365401E-008  0.1037510E+04  0.7818608E-02  0.9268335E-01
         -2   -1    0    0    0  501 -0.00000000000E+00  0.00000000000E+00  0.10638049525E+04  0.10638049525E+04  0.25500000000E-02 0.  1.
          2   -1    0    0  501    0  0.00000000000E+00 -0.00000000000E+00 -0.17137246816E+04  0.17137246816E+04  0.25500000000E-02 0. -1.
    8880022    1    1    2    0    0 -0.21105024656E+03 -0.10042371424E+04  0.56379827086E+03  0.11808025186E+04  0.15294330000E+03 0.  0.
    8880022    1    1    2    0    0  0.21105024656E+03  0.10042371424E+04 -0.12137180000E+04  0.15967271155E+04  0.15294330000E+03 0.  0.
<mgrwt>
<rscale>  0 0.10375096E+04</rscale>
<asrwt>0</asrwt>
<pdfrwt beam="1">  1        2 0.26364995E+00 0.10375096E+04</pdfrwt>
<pdfrwt beam="2">  1       -2 0.16366230E+00 0.10375096E+04</pdfrwt>
<totfact> 0.22576057E+00</totfact>
</mgrwt>
</event>
<event>
 4    1  0.3365401E-008  0.7118097E+03  0.7818608E-02  0.9697246E-01
         -2   -1    0    0    0  501 -0.00000000000E+00  0.00000000000E+00  0.13203277374E+04  0.13203277374E+04  0.25500000000E-02 0.  1.
          2   -1    0    0  501    0  0.00000000000E+00 -0.00000000000E+00 -0.56116721332E+03  0.56116721333E+03  0.25500000000E-02 0. -1.
    8880022    1    1    2    0    0 -0.64865615858E+03  0.25005329440E+03 -0.14938512408E+03  0.72731632074E+03  0.15294330000E+03 0.  0.
    8880022    1    1    2    0    0  0.64865615858E+03 -0.25005329440E+03  0.90854564816E+03  0.11541786300E+04  0.15294330000E+03 0.  0.
<mgrwt>
<rscale>  0 0.71180975E+03</rscale>
<asrwt>0</asrwt>
<pdfrwt beam="1">  1        2 0.86333417E-01 0.71180975E+03</pdfrwt>
<pdfrwt beam="2">  1       -2 0.20312734E+00 0.71180975E+03</pdfrwt>
<totfact> 0.69902378E+00</totfact>
</mgrwt>
</event>
<event>
 4    1  0.3365401E-008  0.1873948E+03  0.7818608E-02  0.1160832E+00
          2   -1    0    0  501    0  0.00000000000E+00  0.00000000000E+00  0.11323793293E+04  0.11323793293E+04  0.25500000000E-02 0. -1.
         -2   -1    0    0    0  501 -0.00000000000E+00 -0.00000000000E+00 -0.11801792942E+03  0.11801792944E+03  0.25500000000E-02 0.  1.
    8880022    1    1    2    0    0 -0.70880897682E+02 -0.81860047199E+02  0.10439894743E+04  0.10606747119E+04  0.15294330000E+03 0.  0.
    8880022    1    1    2    0    0  0.70880897682E+02  0.81860047199E+02 -0.29628074398E+02  0.18972254687E+03  0.15294330000E+03 0.  1.
<mgrwt>
<rscale>  0 0.18739483E+03</rscale>
<asrwt>0</asrwt>
<pdfrwt beam="1">  1        2 0.17421220E+00 0.18739483E+03</pdfrwt>
<pdfrwt beam="2">  1       -2 0.18156605E-01 0.18739483E+03</pdfrwt>
<totfact> 0.54993902E+02</totfact>
</mgrwt>
</event>
<event>
 4    1  0.3365401E-008  0.6053147E+03  0.7818608E-02  0.9894441E-01
          2   -1    0    0  501    0  0.00000000000E+00  0.00000000000E+00  0.69745867975E+03  0.69745867976E+03  0.25500000000E-02 0. -1.
         -2   -1    0    0    0  501 -0.00000000000E+00 -0.00000000000E+00 -0.98391099889E+03  0.98391099889E+03  0.25500000000E-02 0.  1.
    8880022    1    1    2    0    0 -0.35876127250E+03 -0.46293036833E+03  0.43070081967E+03  0.74290579864E+03  0.15294330000E+03 0.  0.
    8880022    1    1    2    0    0  0.35876127250E+03  0.46293036833E+03 -0.71715313880E+03  0.93846388001E+03  0.15294330000E+03 0.  0.
<mgrwt>
<rscale>  0 0.60531465E+03</rscale>
<asrwt>0</asrwt>
<pdfrwt beam="1">  1        2 0.10730134E+00 0.60531465E+03</pdfrwt>
<pdfrwt beam="2">  1       -2 0.15137092E+00 0.60531465E+03</pdfrwt>
<totfact> 0.12431460E+01</totfact>
</mgrwt>
</event>
<event>
 4    1  0.3365401E-008  0.3785635E+03  0.7818608E-02  0.1051466E+00
          2   -1    0    0  501    0  0.00000000000E+00  0.00000000000E+00  0.44522951596E+04  0.44522951596E+04  0.25500000000E-02 0. -1.
         -2   -1    0    0    0  501 -0.00000000000E+00 -0.00000000000E+00 -0.31116235032E+03  0.31116235033E+03  0.25500000000E-02 0.  1.
    8880022    1    1    2    0    0 -0.32419891515E+03 -0.12171179755E+03  0.43257449838E+04  0.43422782058E+04  0.15294330000E+03 0.  0.
    8880022    1    1    2    0    0  0.32419891515E+03  0.12171179755E+03 -0.18461217454E+03  0.42117930416E+03  0.15294330000E+03 0.  0.
<mgrwt>
<rscale>  0 0.37856354E+03</rscale>
<asrwt>0</asrwt>
<pdfrwt beam="1">  1        2 0.68496846E+00 0.37856354E+03</pdfrwt>
<pdfrwt beam="2">  1       -2 0.47871133E-01 0.37856354E+03</pdfrwt>
<totfact> 0.74370558E-01</totfact>
</mgrwt>
</event>
<event>
 4    1  0.3365401E-008  0.7559962E+03  0.7818608E-02  0.9625990E-01
         -2   -1    0    0    0  501 -0.00000000000E+00  0.00000000000E+00  0.10379882928E+04  0.10379882928E+04  0.25500000000E-02 0.  1.
          2   -1    0    0  501    0  0.00000000000E+00 -0.00000000000E+00 -0.10479861910E+04  0.10479861910E+04  0.25500000000E-02 0. -1.
    8880022    1    1    2    0    0 -0.95772743949E+02  0.73414312733E+03 -0.72352456054E+03  0.10464310740E+04  0.15294330000E+03 0.  0.
    8880022    1    1    2    0    0  0.95772743949E+02 -0.73414312733E+03  0.71352666240E+03  0.10395434098E+04  0.15294330000E+03 0.  0.
<mgrwt>
<rscale>  0 0.75599617E+03</rscale>
<asrwt>0</asrwt>
<pdfrwt beam="1">  1        2 0.16122864E+00 0.75599617E+03</pdfrwt>
<pdfrwt beam="2">  1       -2 0.15969051E+00 0.75599617E+03</pdfrwt>
<totfact> 0.60581744E+00</totfact>
</mgrwt>
</event>
<event>
 4    1  0.3365401E-008  0.4494247E+03  0.7818608E-02  0.1027894E+00
          2   -1    0    0  501    0  0.00000000000E+00  0.00000000000E+00  0.62722326834E+03  0.62722326835E+03  0.25500000000E-02 0. -1.
         -2   -1    0    0    0  501 -0.00000000000E+00 -0.00000000000E+00 -0.14190984850E+04  0.14190984850E+04  0.25500000000E-02 0.  1.
    8880022    1    1    2    0    0  0.42238494931E+03  0.13485713807E+02  0.50367431767E+03  0.67503361485E+03  0.15294330000E+03 0.  0.
    8880022    1    1    2    0    0 -0.42238494931E+03 -0.13485713807E+02 -0.12955495343E+04  0.13712881385E+04  0.15294330000E+03 0.  1.
<mgrwt>
<rscale>  0 0.44942470E+03</rscale>
<asrwt>0</asrwt>
<pdfrwt beam="1">  1        2 0.96495888E-01 0.44942470E+03</pdfrwt>
<pdfrwt beam="2">  1       -2 0.21832284E+00 0.44942470E+03</pdfrwt>
<totfact> 0.51216191E+00</totfact>
</mgrwt>
</event>
<event>
 4    1  0.3365401E-008  0.4672935E+03  0.7818608E-02  0.1022687E+00
         -2   -1    0    0    0  501 -0.00000000000E+00  0.00000000000E+00  0.45584533862E+03  0.45584533863E+03  0.25500000000E-02 0.  1.
          2   -1    0    0  501    0  0.00000000000E+00 -0.00000000000E+00 -0.38523703808E+04  0.38523703808E+04  0.25500000000E-02 0. -1.
    8880022    1    1    2    0    0  0.36631580200E+03  0.24654480610E+03  0.31747303788E+03  0.56493574060E+03  0.15294330000E+03 0.  0.
    8880022    1    1    2    0    0 -0.36631580200E+03 -0.24654480610E+03 -0.37139980800E+04  0.37432799788E+04  0.15294330000E+03 0.  0.
<mgrwt>
<rscale>  0 0.46729355E+03</rscale>
<asrwt>0</asrwt>
<pdfrwt beam="1">  1        2 0.59267234E+00 0.46729355E+03</pdfrwt>
<pdfrwt beam="2">  1       -2 0.70130055E-01 0.46729355E+03</pdfrwt>
<totfact> 0.10023399E+00</totfact>
</mgrwt>
</event>
<event>
 4    1  0.3365401E-008  0.3912129E+03  0.7818608E-02  0.1046866E+00
         -2   -1    0    0    0  501 -0.00000000000E+00  0.00000000000E+00  0.10890369028E+03  0.10890369031E+03  0.25500000000E-02 0.  1.
          2   -1    0    0  501    0  0.00000000000E+00 -0.00000000000E+00 -0.14297261514E+04  0.14297261514E+04  0.25500000000E-02 0. -1.
    8880022    1    1    2    0    0  0.10588148919E+03 -0.34415840361E+03 -0.55995407539E+03  0.68307841138E+03  0.15294330000E+03 0.  0.
    8880022    1    1    2    0    0 -0.10588148919E+03  0.34415840361E+03 -0.76086838577E+03  0.85555143037E+03  0.15294330000E+03 0.  0.
<mgrwt>
<rscale>  0 0.39121292E+03</rscale>
<asrwt>0</asrwt>
<pdfrwt beam="1">  1        2 0.21995786E+00 0.39121292E+03</pdfrwt>
<pdfrwt beam="2">  1       -2 0.16754415E-01 0.39121292E+03</pdfrwt>
<totfact> 0.41956718E+02</totfact>
</mgrwt>
</event>
<event>
 4    1  0.3365401E-008  0.5676548E+03  0.7818608E-02  0.9974882E-01
         -2   -1    0    0    0  501 -0.00000000000E+00  0.00000000000E+00  0.11717971186E+04  0.11717971186E+04  0.25500000000E-02 0.  1.
          2   -1    0    0  501    0  0.00000000000E+00 -0.00000000000E+00 -0.93874237093E+03  0.93874237094E+03  0.25500000000E-02 0. -1.
    8880022    1    1    2    0    0 -0.21765854349E+03  0.50146290595E+03  0.10038743476E+04  0.11532543719E+04  0.15294330000E+03 0.  1.
    8880022    1    1    2    0    0  0.21765854349E+03 -0.50146290595E+03 -0.77081959997E+03  0.95728511757E+03  0.15294330000E+03 0.  0.
<mgrwt>
<rscale>  0 0.56765477E+03</rscale>
<asrwt>0</asrwt>
<pdfrwt beam="1">  1        2 0.14442190E+00 0.56765477E+03</pdfrwt>
<pdfrwt beam="2">  1       -2 0.18027648E+00 0.56765477E+03</pdfrwt>
<totfact> 0.52354339E+00</totfact>
</mgrwt>
</event>
<event>
 4    1  0.3365401E-008  0.2812146E+03  0.7818608E-02  0.1095027E+00
         -2   -1    0    0    0  501 -0.00000000000E+00  0.00000000000E+00  0.59854827105E+03  0.59854827106E+03  0.25500000000E-02 0.  1.
          2   -1    0    0  501    0  0.00000000000E+00 -0.00000000000E+00 -0.36858436412E+03  0.36858436413E+03  0.25500000000E-02 0. -1.
    8880022    1    1    2    0    0  0.61081437573E+02 -0.22794523918E+03  0.50230045764E+03  0.57566255466E+03  0.15294330000E+03 0.  0.
    8880022    1    1    2    0    0 -0.61081437573E+02  0.22794523918E+03 -0.27233655070E+03  0.39147008052E+03  0.15294330000E+03 0.  0.
<mgrwt>
<rscale>  0 0.28121456E+03</rscale>
<asrwt>0</asrwt>
<pdfrwt beam="1">  1        2 0.56705287E-01 0.28121456E+03</pdfrwt>
<pdfrwt beam="2">  1       -2 0.92084348E-01 0.28121456E+03</pdfrwt>
<totfact> 0.91410123E+01</totfact>
</mgrwt>
</event>
<event>
 4    1  0.3365401E-008  0.2687929E+03  0.7818608E-02  0.1101972E+00
          2   -1    0    0  501    0  0.00000000000E+00  0.00000000000E+00  0.12522312339E+04  0.12522312339E+04  0.25500000000E-02 0. -1.
         -2   -1    0    0    0  501 -0.00000000000E+00 -0.00000000000E+00 -0.19091119074E+03  0.19091119075E+03  0.25500000000E-02 0.  1.
    8880022    1    1    2    0    0  0.20542946447E+03  0.81588782112E+02 -0.72092715085E+02  0.27829302331E+03  0.15294330000E+03 0.  0.
    8880022    1    1    2    0    0 -0.20542946447E+03 -0.81588782112E+02  0.11334127583E+04  0.11648494014E+04  0.15294330000E+03 0.  0.
<mgrwt>
<rscale>  0 0.26879294E+03</rscale>
<asrwt>0</asrwt>
<pdfrwt beam="1">  1        2 0.19265097E+00 0.26879294E+03</pdfrwt>
<pdfrwt beam="2">  1       -2 0.29370950E-01 0.26879294E+03</pdfrwt>
<totfact> 0.20040008E+02</totfact>
</mgrwt>
</event>
<event>
 4    1  0.3537696E-008  0.8608495E+03  0.7818608E-02  0.9475890E-01
          2   -1    0    0  501    0  0.00000000000E+00  0.00000000000E+00  0.23018653232E+04  0.23018653232E+04  0.25500000000E-02 0. -1.
         -2   -1    0    0    0  501 -0.00000000000E+00 -0.00000000000E+00 -0.14348423114E+04  0.14348423114E+04  0.25500000000E-02 0.  1.
    8880022    1    1    2    0    0 -0.51038846863E+03  0.67614634915E+03 -0.12119419755E+04  0.14865615626E+04  0.15294330000E+03 0.  0.
    8880022    1    1    2    0    0  0.51038846863E+03 -0.67614634915E+03  0.20789649873E+04  0.22501460721E+04  0.15294330000E+03 0.  0.
<mgrwt>
<rscale>  0 0.86084954E+03</rscale>
<asrwt>0</asrwt>
<pdfrwt beam="1">  1        2 0.35413312E+00 0.86084954E+03</pdfrwt>
<pdfrwt beam="2">  1       -2 0.22074497E+00 0.86084954E+03</pdfrwt>
<totfact> 0.45581480E-01</totfact>
</mgrwt>
</event>
<event>
 4    1  0.3365401E-008  0.2642649E+03  0.7818608E-02  0.1104608E+00
          2   -1    0    0  501    0  0.00000000000E+00  0.00000000000E+00  0.52748404450E+03  0.52748404451E+03  0.25500000000E-02 0. -1.
         -2   -1    0    0    0  501 -0.00000000000E+00 -0.00000000000E+00 -0.15179277169E+04  0.15179277169E+04  0.25500000000E-02 0.  1.
    8880022    1    1    2    0    0 -0.71636315566E+02 -0.20325483954E+03 -0.14723098621E+04  0.14958383183E+04  0.15294330000E+03 0.  0.
    8880022    1    1    2    0    0  0.71636315566E+02  0.20325483954E+03  0.48186618972E+03  0.54957344306E+03  0.15294330000E+03 0.  0.
<mgrwt>
<rscale>  0 0.26426491E+03</rscale>
<asrwt>0</asrwt>
<pdfrwt beam="1">  1        2 0.81151392E-01 0.26426491E+03</pdfrwt>
<pdfrwt beam="2">  1       -2 0.23352734E+00 0.26426491E+03</pdfrwt>
<totfact> 0.53384676E+00</totfact>
</mgrwt>
</event>
<event>
 4    1  0.3365401E-008  0.6058392E+03  0.7818608E-02  0.9893365E-01
         -2   -1    0    0    0  501 -0.00000000000E+00  0.00000000000E+00  0.51600220641E+03  0.51600220641E+03  0.25500000000E-02 0.  1.
          2   -1    0    0  501    0  0.00000000000E+00 -0.00000000000E+00 -0.11221713642E+04  0.11221713642E+04  0.25500000000E-02 0. -1.
    8880022    1    1    2    0    0  0.30364309225E+03 -0.50144826721E+03  0.19253023248E+03  0.63569570991E+03  0.15294330000E+03 0.  0.
    8880022    1    1    2    0    0 -0.30364309225E+03  0.50144826721E+03 -0.79869939023E+03  0.10024778607E+04  0.15294330000E+03 0.  0.
<mgrwt>
<rscale>  0 0.60583921E+03</rscale>
<asrwt>0</asrwt>
<pdfrwt beam="1">  1        2 0.17264175E+00 0.60583921E+03</pdfrwt>
<pdfrwt beam="2">  1       -2 0.79384955E-01 0.60583921E+03</pdfrwt>
<totfact> 0.30710875E+01</totfact>
</mgrwt>
</event>
<event>
 4    1  0.3365401E-008  0.3705903E+03  0.7818608E-02  0.1054467E+00
         -2   -1    0    0    0  501 -0.00000000000E+00  0.00000000000E+00  0.52867854585E+03  0.52867854586E+03  0.25500000000E-02 0.  1.
          2   -1    0    0  501    0  0.00000000000E+00 -0.00000000000E+00 -0.86065210233E+03  0.86065210233E+03  0.25500000000E-02 0. -1.
    8880022    1    1    2    0    0  0.32020392345E+03 -0.10684087418E+03  0.41444987587E+03  0.55597291086E+03  0.15294330000E+03 0.  0.
    8880022    1    1    2    0    0 -0.32020392345E+03  0.10684087418E+03 -0.74642343235E+03  0.83335773733E+03  0.15294330000E+03 0.  0.
<mgrwt>
<rscale>  0 0.37059031E+03</rscale>
<asrwt>0</asrwt>
<pdfrwt beam="1">  1        2 0.13240802E+00 0.37059031E+03</pdfrwt>
<pdfrwt beam="2">  1       -2 0.81335161E-01 0.37059031E+03</pdfrwt>
<totfact> 0.44071360E+01</totfact>
</mgrwt>
</event>
<event>
 4    1  0.3365401E-008  0.4181004E+03  0.7818608E-02  0.1037686E+00
          2   -1    0    0  501    0  0.00000000000E+00  0.00000000000E+00  0.53205018647E+03  0.53205018648E+03  0.25500000000E-02 0. -1.
         -2   -1    0    0    0  501 -0.00000000000E+00 -0.00000000000E+00 -0.46193921151E+03  0.46193921151E+03  0.25500000000E-02 0.  1.
    8880022    1    1    2    0    0  0.35725814363E+03 -0.15421697407E+03  0.30211685262E+03  0.51583185433E+03  0.15294330000E+03 0.  0.
    8880022    1    1    2    0    0 -0.35725814363E+03  0.15421697407E+03 -0.23200587766E+03  0.47815754367E+03  0.15294330000E+03 0.  0.
<mgrwt>
<rscale>  0 0.41810036E+03</rscale>
<asrwt>0</asrwt>
<pdfrwt beam="1">  1        2 0.81853875E-01 0.41810036E+03</pdfrwt>
<pdfrwt beam="2">  1       -2 0.71067571E-01 0.41810036E+03</pdfrwt>
<totfact> 0.10653455E+02</totfact>
</mgrwt>
</event>
<event>
 4    1  0.3365401E-008  0.5004937E+03  0.7818608E-02  0.1013650E+00
          2   -1    0    0  501    0  0.00000000000E+00  0.00000000000E+00  0.23651733528E+03  0.23651733530E+03  0.25500000000E-02 0. -1.
         -2   -1    0    0    0  501 -0.00000000000E+00 -0.00000000000E+00 -0.23674086374E+04  0.23674086374E+04  0.25500000000E-02 0.  1.
    8880022    1    1    2    0    0 -0.34620833284E+03  0.32747835781E+03 -0.97572970500E+02  0.50991609324E+03  0.15294330000E+03 0.  0.
    8880022    1    1    2    0    0  0.34620833284E+03 -0.32747835781E+03 -0.20333183316E+04  0.20940098794E+04  0.15294330000E+03 0.  0.
<mgrwt>
<rscale>  0 0.50049369E+03</rscale>
<asrwt>0</asrwt>
<pdfrwt beam="1">  1        2 0.36387284E-01 0.50049369E+03</pdfrwt>
<pdfrwt beam="2">  1       -2 0.36421670E+00 0.50049369E+03</pdfrwt>
<totfact> 0.20016747E+00</totfact>
</mgrwt>
</event>
<event>
 4    1  0.3365401E-008  0.1241418E+04  0.7818608E-02  0.9077356E-01
          2   -1    0    0  501    0  0.00000000000E+00  0.00000000000E+00  0.35212102333E+04  0.35212102333E+04  0.25500000000E-02 0. -1.
         -2   -1    0    0    0  501 -0.00000000000E+00 -0.00000000000E+00 -0.83696543585E+03  0.83696543585E+03  0.25500000000E-02 0.  1.
    8880022    1    1    2    0    0  0.87705348080E+03  0.86516175080E+03 -0.16299196862E+03  0.12520725610E+04  0.15294330000E+03 0.  0.
    8880022    1    1    2    0    0 -0.87705348080E+03 -0.86516175080E+03  0.28472367661E+04  0.31061031081E+04  0.15294330000E+03 0.  0.
<mgrwt>
<rscale>  0 0.12414183E+04</rscale>
<asrwt>0</asrwt>
<pdfrwt beam="1">  1        2 0.54172465E+00 0.12414183E+04</pdfrwt>
<pdfrwt beam="2">  1       -2 0.12876391E+00 0.12414183E+04</pdfrwt>
<totfact> 0.34634778E-01</totfact>
</mgrwt>
</event>
<event>
 4    1  0.3365401E-008  0.1876414E+03  0.7818608E-02  0.1160606E+00
         -2   -1    0    0    0  501 -0.00000000000E+00  0.00000000000E+00  0.24553839627E+03  0.24553839628E+03  0.25500000000E-02 0.  1.
          2   -1    0    0  501    0  0.00000000000E+00 -0.00000000000E+00 -0.66949597271E+03  0.66949597272E+03  0.25500000000E-02 0. -1.
    8880022    1    1    2    0    0 -0.96578902816E+02  0.49901575756E+02 -0.61755028934E+03  0.64542827999E+03  0.15294330000E+03 0.  0.
    8880022    1    1    2    0    0  0.96578902816E+02 -0.49901575756E+02  0.19359271289E+03  0.26960608901E+03  0.15294330000E+03 0.  0.
<mgrwt>
<rscale>  0 0.18764143E+03</rscale>
<asrwt>0</asrwt>
<pdfrwt beam="1">  1        2 0.10299938E+00 0.18764143E+03</pdfrwt>
<pdfrwt beam="2">  1       -2 0.37775138E-01 0.18764143E+03</pdfrwt>
<totfact> 0.29927273E+02</totfact>
</mgrwt>
</event>
<event>
 4    1  0.3365401E-008  0.4475135E+03  0.7818608E-02  0.1028466E+00
         -2   -1    0    0    0  501 -0.00000000000E+00  0.00000000000E+00  0.61762722005E+03  0.61762722006E+03  0.25500000000E-02 0.  1.
          2   -1    0    0  501    0  0.00000000000E+00 -0.00000000000E+00 -0.61270575720E+03  0.61270575721E+03  0.25500000000E-02 0. -1.
    8880022    1    1    2    0    0  0.42039356753E+03 -0.12079269462E+02  0.42454874456E+03  0.61685488561E+03  0.15294330000E+03 0.  0.
    8880022    1    1    2    0    0 -0.42039356753E+03  0.12079269462E+02 -0.41962728172E+03  0.61347809166E+03  0.15294330000E+03 0.  0.
<mgrwt>
<rscale>  0 0.44751348E+03</rscale>
<asrwt>0</asrwt>
<pdfrwt beam="1">  1        2 0.94262424E-01 0.44751348E+03</pdfrwt>
<pdfrwt beam="2">  1       -2 0.95019572E-01 0.44751348E+03</pdfrwt>
<totfact> 0.46903571E+01</totfact>
</mgrwt>
</event>
<event>
 4    1  0.3365401E-008  0.2821644E+03  0.7818608E-02  0.1094513E+00
         -2   -1    0    0    0  501 -0.00000000000E+00  0.00000000000E+00  0.39561445748E+03  0.39561445749E+03  0.25500000000E-02 0.  1.
          2   -1    0    0  501    0  0.00000000000E+00 -0.00000000000E+00 -0.51914290478E+03  0.51914290479E+03  0.25500000000E-02 0. -1.
    8880022    1    1    2    0    0 -0.15194557366E+03  0.18203749253E+03  0.29614591175E+03  0.40904664783E+03  0.15294330000E+03 0.  0.
    8880022    1    1    2    0    0  0.15194557366E+03 -0.18203749253E+03 -0.41967435905E+03  0.50571071444E+03  0.15294330000E+03 0.  0.
<mgrwt>
<rscale>  0 0.28216442E+03</rscale>
<asrwt>0</asrwt>
<pdfrwt beam="1">  1        2 0.79868139E-01 0.28216442E+03</pdfrwt>
<pdfrwt beam="2">  1       -2 0.60863763E-01 0.28216442E+03</pdfrwt>
<totfact> 0.15447045E+02</totfact>
</mgrwt>
</event>
<event>
 4    1  0.3365401E-008  0.1678499E+03  0.7818608E-02  0.1180109E+00
          2   -1    0    0  501    0  0.00000000000E+00  0.00000000000E+00  0.23070851150E+04  0.23070851150E+04  0.25500000000E-02 0. -1.
         -2   -1    0    0    0  501 -0.00000000000E+00 -0.00000000000E+00 -0.40876014243E+02  0.40876014323E+02  0.25500000000E-02 0.  1.
    8880022    1    1    2    0    0  0.17701913321E+02  0.66847355758E+02  0.21162028098E+04  0.21228490083E+04  0.15294330000E+03 0.  0.
    8880022    1    1    2    0    0 -0.17701913321E+02 -0.66847355758E+02  0.15000629099E+03  0.22511212108E+03  0.15294330000E+03 0.  1.
<mgrwt>
<rscale>  0 0.16784987E+03</rscale>
<asrwt>0</asrwt>
<pdfrwt beam="1">  1        2 0.35493620E+00 0.16784987E+03</pdfrwt>
<pdfrwt beam="2">  1       -2 0.62886170E-02 0.16784987E+03</pdfrwt>
<totfact> 0.71791005E+02</totfact>
</mgrwt>
</event>
<event>
 4    1  0.3365401E-008  0.4451990E+03  0.7818608E-02  0.1029163E+00
          2   -1    0    0  501    0  0.00000000000E+00  0.00000000000E+00  0.13425043451E+04  0.13425043451E+04  0.25500000000E-02 0. -1.
         -2   -1    0    0    0  501 -0.00000000000E+00 -0.00000000000E+00 -0.30647220323E+03  0.30647220324E+03  0.25500000000E-02 0.  1.
    8880022    1    1    2    0    0 -0.29750758478E+03 -0.29376815310E+03 -0.75542405575E+02  0.45156261895E+03  0.15294330000E+03 0.  0.
    8880022    1    1    2    0    0  0.29750758478E+03  0.29376815310E+03  0.11115745475E+04  0.11974139294E+04  0.15294330000E+03 0.  0.
<mgrwt>
<rscale>  0 0.44519899E+03</rscale>
<asrwt>0</asrwt>
<pdfrwt beam="1">  1        2 0.20653913E+00 0.44519899E+03</pdfrwt>
<pdfrwt beam="2">  1       -2 0.47149569E-01 0.44519899E+03</pdfrwt>
<totfact> 0.70328965E+01</totfact>
</mgrwt>
</event>
<event>
 4    1  0.3365401E-008  0.3670690E+03  0.7818608E-02  0.1055819E+00
         -2   -1    0    0    0  501 -0.00000000000E+00  0.00000000000E+00  0.24051645034E+03  0.24051645035E+03  0.25500000000E-02 0.  1.
          2   -1    0    0  501    0  0.00000000000E+00 -0.00000000000E+00 -0.18196441329E+04  0.18196441329E+04  0.25500000000E-02 0. -1.
    8880022    1    1    2    0    0 -0.22321804329E+03  0.24803570012E+03 -0.16465338493E+04  0.16869538741E+04  0.15294330000E+03 0.  0.
    8880022    1    1    2    0    0  0.22321804329E+03 -0.24803570012E+03  0.67406166804E+02  0.37320670911E+03  0.15294330000E+03 0.  1.
<mgrwt>
<rscale>  0 0.36706901E+03</rscale>
<asrwt>0</asrwt>
<pdfrwt beam="1">  1        2 0.27994524E+00 0.36706901E+03</pdfrwt>
<pdfrwt beam="2">  1       -2 0.37002532E-01 0.36706901E+03</pdfrwt>
<totfact> 0.63078284E+01</totfact>
</mgrwt>
</event>
<event>
 4    1  0.3365401E-008  0.5379643E+03  0.7818608E-02  0.1004319E+00
         -2   -1    0    0    0  501 -0.00000000000E+00  0.00000000000E+00  0.84342537667E+03  0.84342537667E+03  0.25500000000E-02 0.  1.
          2   -1    0    0  501    0  0.00000000000E+00 -0.00000000000E+00 -0.42411343517E+03  0.42411343518E+03  0.25500000000E-02 0. -1.
    8880022    1    1    2    0    0 -0.31099841407E+03 -0.41145340598E+03  0.48659559749E+03  0.72538324171E+03  0.15294330000E+03 0.  0.
    8880022    1    1    2    0    0  0.31099841407E+03  0.41145340598E+03 -0.67283655994E+02  0.54215557013E+03  0.15294330000E+03 0.  0.
<mgrwt>
<rscale>  0 0.53796428E+03</rscale>
<asrwt>0</asrwt>
<pdfrwt beam="1">  1        2 0.65248221E-01 0.53796428E+03</pdfrwt>
<pdfrwt beam="2">  1       -2 0.12975775E+00 0.53796428E+03</pdfrwt>
<totfact> 0.33455555E+01</totfact>
</mgrwt>
</event>
<event>
 4    1  0.3365401E-008  0.1323829E+04  0.7818608E-02  0.9010879E-01
          2   -1    0    0  501    0  0.00000000000E+00  0.00000000000E+00  0.19449032705E+04  0.19449032705E+04  0.25500000000E-02 0. -1.
         -2   -1    0    0    0  501 -0.00000000000E+00 -0.00000000000E+00 -0.15110341452E+04  0.15110341452E+04  0.25500000000E-02 0.  1.
    8880022    1    1    2    0    0 -0.11782792253E+04  0.58377255640E+03  0.13147906082E+04  0.18657969683E+04  0.15294330000E+03 0.  0.
    8880022    1    1    2    0    0  0.11782792253E+04 -0.58377255640E+03 -0.88092148297E+03  0.15901404474E+04  0.15294330000E+03 0.  0.
<mgrwt>
<rscale>  0 0.13238293E+04</rscale>
<asrwt>0</asrwt>
<pdfrwt beam="1">  1        2 0.29921589E+00 0.13238293E+04</pdfrwt>
<pdfrwt beam="2">  1       -2 0.23246679E+00 0.13238293E+04</pdfrwt>
<totfact> 0.56600170E-01</totfact>
</mgrwt>
</event>
<event>
 4    1  0.3365401E-008  0.1158709E+04  0.7818608E-02  0.9149786E-01
         -2   -1    0    0    0  501 -0.00000000000E+00  0.00000000000E+00  0.60656119375E+03  0.60656119376E+03  0.25500000000E-02 0.  1.
          2   -1    0    0  501    0  0.00000000000E+00 -0.00000000000E+00 -0.29903771951E+04  0.29903771951E+04  0.25500000000E-02 0. -1.
    8880022    1    1    2    0    0  0.10948139429E+04  0.34727269705E+03 -0.21085999498E+04  0.24059927882E+04  0.15294330000E+03 0.  0.
    8880022    1    1    2    0    0 -0.10948139429E+04 -0.34727269705E+03 -0.27521605154E+03  0.11909456006E+04  0.15294330000E+03 0.  0.
<mgrwt>
<rscale>  0 0.11587094E+04</rscale>
<asrwt>0</asrwt>
<pdfrwt beam="1">  1        2 0.46005802E+00 0.11587094E+04</pdfrwt>
<pdfrwt beam="2">  1       -2 0.93317108E-01 0.11587094E+04</pdfrwt>
<totfact> 0.17100096E+00</totfact>
</mgrwt>
</event>
<event>
 4    1  0.3365401E-008  0.9141971E+03  0.7818608E-02  0.9408006E-01
         -2   -1    0    0    0  501 -0.00000000000E+00  0.00000000000E+00  0.70949203306E+03  0.70949203306E+03  0.25500000000E-02 0.  1.
          2   -1    0    0  501    0  0.00000000000E+00 -0.00000000000E+00 -0.26760372810E+04  0.26760372810E+04  0.25500000000E-02 0. -1.
    8880022    1    1    2    0    0  0.76978169766E+03  0.46882920746E+03 -0.22498069876E+04  0.24284537925E+04  0.15294330000E+03 0.  0.
    8880022    1    1    2    0    0 -0.76978169766E+03 -0.46882920746E+03  0.28326173966E+03  0.95707552157E+03  0.15294330000E+03 0.  0.
<mgrwt>
<rscale>  0 0.91419710E+03</rscale>
<asrwt>0</asrwt>
<pdfrwt beam="1">  1        2 0.41169804E+00 0.91419710E+03</pdfrwt>
<pdfrwt beam="2">  1       -2 0.10915262E+00 0.91419710E+03</pdfrwt>
<totfact> 0.18832722E+00</totfact>
</mgrwt>
</event>
<event>
 4    1  0.3365401E-008  0.8243136E+03  0.7818608E-02  0.9525476E-01
          2   -1    0    0  501    0  0.00000000000E+00  0.00000000000E+00  0.21538171259E+04  0.21538171259E+04  0.25500000000E-02 0. -1.
         -2   -1    0    0    0  501 -0.00000000000E+00 -0.00000000000E+00 -0.49961691788E+03  0.49961691788E+03  0.25500000000E-02 0.  1.
    8880022    1    1    2    0    0 -0.89142505257E+02 -0.80508063439E+03  0.16325277496E+04  0.18288356187E+04  0.15294330000E+03 0.  0.
    8880022    1    1    2    0    0  0.89142505257E+02  0.80508063439E+03  0.21672458414E+02  0.82459842504E+03  0.15294330000E+03 0.  0.
<mgrwt>
<rscale>  0 0.82431357E+03</rscale>
<asrwt>0</asrwt>
<pdfrwt beam="1">  1        2 0.33135648E+00 0.82431357E+03</pdfrwt>
<pdfrwt beam="2">  1       -2 0.76864142E-01 0.82431357E+03</pdfrwt>
<totfact> 0.85185488E+00</totfact>
</mgrwt>
</event>
<event>
 4    1  0.3365401E-008  0.6224074E+03  0.7818608E-02  0.9859978E-01
         -2   -1    0    0    0  501 -0.00000000000E+00  0.00000000000E+00  0.86164584081E+03  0.86164584081E+03  0.25500000000E-02 0.  1.
          2   -1    0    0  501    0  0.00000000000E+00 -0.00000000000E+00 -0.67237816601E+03  0.67237816602E+03  0.25500000000E-02 0. -1.
    8880022    1    1    2    0    0  0.45497306072E+03 -0.39623085882E+03  0.53614049524E+03  0.82148503523E+03  0.15294330000E+03 0.  0.
    8880022    1    1    2    0    0 -0.45497306072E+03  0.39623085882E+03 -0.34687282045E+03  0.71253897159E+03  0.15294330000E+03 0.  0.
<mgrwt>
<rscale>  0 0.62240745E+03</rscale>
<asrwt>0</asrwt>
<pdfrwt beam="1">  1        2 0.10344280E+00 0.62240745E+03</pdfrwt>
<pdfrwt beam="2">  1       -2 0.13256090E+00 0.62240745E+03</pdfrwt>
<totfact> 0.18306934E+01</totfact>
</mgrwt>
</event>
<event>
 4    1  0.3365401E-008  0.5512168E+03  0.7818608E-02  0.1001213E+00
         -2   -1    0    0    0  501 -0.00000000000E+00  0.00000000000E+00  0.28045479942E+03  0.28045479943E+03  0.25500000000E-02 0.  1.
          2   -1    0    0  501    0  0.00000000000E+00 -0.00000000000E+00 -0.25622689787E+04  0.25622689787E+04  0.25500000000E-02 0. -1.
    8880022    1    1    2    0    0 -0.30443240474E+03  0.43332349643E+03 -0.61066530117E+02  0.55458914137E+03  0.15294330000E+03 0.  0.
    8880022    1    1    2    0    0  0.30443240474E+03 -0.43332349643E+03 -0.22207476492E+04  0.22881346367E+04  0.15294330000E+03 0.  0.
<mgrwt>
<rscale>  0 0.55121683E+03</rscale>
<asrwt>0</asrwt>
<pdfrwt beam="1">  1        2 0.39419521E+00 0.55121683E+03</pdfrwt>
<pdfrwt beam="2">  1       -2 0.43146894E-01 0.55121683E+03</pdfrwt>
<totfact> 0.17732526E+01</totfact>
</mgrwt>
</event>
<event>
 4    1  0.3365401E-008  0.4519231E+03  0.7818608E-02  0.1027150E+00
         -2   -1    0    0    0  501 -0.00000000000E+00  0.00000000000E+00  0.13359673315E+03  0.13359673317E+03  0.25500000000E-02 0.  1.
          2   -1    0    0  501    0  0.00000000000E+00 -0.00000000000E+00 -0.25090318265E+04  0.25090318265E+04  0.25500000000E-02 0. -1.
    8880022    1    1    2    0    0  0.20030251614E+03  0.37512890729E+03 -0.36181063236E+03  0.57891396749E+03  0.15294330000E+03 0.  0.
    8880022    1    1    2    0    0 -0.20030251614E+03 -0.37512890729E+03 -0.20136244610E+04  0.20637145922E+04  0.15294330000E+03 0.  0.
<mgrwt>
<rscale>  0 0.45192306E+03</rscale>
<asrwt>0</asrwt>
<pdfrwt beam="1">  1        2 0.38600486E+00 0.45192306E+03</pdfrwt>
<pdfrwt beam="2">  1       -2 0.20553345E-01 0.45192306E+03</pdfrwt>
<totfact> 0.76276807E+01</totfact>
</mgrwt>
</event>
<event>
 4    1  0.3365401E-008  0.3060881E+03  0.7818608E-02  0.1082236E+00
          2   -1    0    0  501    0  0.00000000000E+00  0.00000000000E+00  0.23506453191E+04  0.23506453191E+04  0.25500000000E-02 0. -1.
         -2   -1    0    0    0  501 -0.00000000000E+00 -0.00000000000E+00 -0.16279147286E+03  0.16279147288E+03  0.25500000000E-02 0.  1.
    8880022    1    1    2    0    0  0.24638243021E+03 -0.97948911766E+02  0.18360387426E+01  0.30609363810E+03  0.15294330000E+03 0.  1.
    8880022    1    1    2    0    0 -0.24638243021E+03  0.97948911766E+02  0.21860178075E+04  0.22073431539E+04  0.15294330000E+03 0.  0.
<mgrwt>
<rscale>  0 0.30608813E+03</rscale>
<asrwt>0</asrwt>
<pdfrwt beam="1">  1        2 0.36163771E+00 0.30608813E+03</pdfrwt>
<pdfrwt beam="2">  1       -2 0.25044844E-01 0.30608813E+03</pdfrwt>
<totfact> 0.68343856E+01</totfact>
</mgrwt>
</event>
<event>
 4    1  0.3365401E-008  0.1407788E+04  0.7818608E-02  0.8948201E-01
          2   -1    0    0  501    0  0.00000000000E+00  0.00000000000E+00  0.20415588741E+04  0.20415588741E+04  0.25500000000E-02 0. -1.
         -2   -1    0    0    0  501 -0.00000000000E+00 -0.00000000000E+00 -0.14255462362E+04  0.14255462362E+04  0.25500000000E-02 0.  1.
    8880022    1    1    2    0    0  0.13894683137E+04  0.16689130781E+03  0.12871565824E+04  0.19075215920E+04  0.15294330000E+03 0.  0.
    8880022    1    1    2    0    0 -0.13894683137E+04 -0.16689130781E+03 -0.67114394441E+03  0.15595835183E+04  0.15294330000E+03 0.  0.
<mgrwt>
<rscale>  0 0.14077878E+04</rscale>
<asrwt>0</asrwt>
<pdfrwt beam="1">  1        2 0.31408598E+00 0.14077878E+04</pdfrwt>
<pdfrwt beam="2">  1       -2 0.21931481E+00 0.14077878E+04</pdfrwt>
<totfact> 0.59927695E-01</totfact>
</mgrwt>
</event>
<event>
 4    1  0.3365401E-008  0.6729846E+03  0.7818608E-02  0.9764581E-01
         -2   -1    0    0    0  501 -0.00000000000E+00  0.00000000000E+00  0.58268720397E+03  0.58268720398E+03  0.25500000000E-02 0.  1.
          2   -1    0    0  501    0  0.00000000000E+00 -0.00000000000E+00 -0.10272872173E+04  0.10272872173E+04  0.25500000000E-02 0. -1.
    8880022    1    1    2    0    0  0.12417361184E+03 -0.64350407671E+03 -0.61942168567E+03  0.91465373793E+03  0.15294330000E+03 0.  0.
    8880022    1    1    2    0    0 -0.12417361184E+03  0.64350407671E+03  0.17482167231E+03  0.69532068338E+03  0.15294330000E+03 0.  0.
<mgrwt>
<rscale>  0 0.67298457E+03</rscale>
<asrwt>0</asrwt>
<pdfrwt beam="1">  1        2 0.15804419E+00 0.67298457E+03</pdfrwt>
<pdfrwt beam="2">  1       -2 0.89644185E-01 0.67298457E+03</pdfrwt>
<totfact> 0.26448627E+01</totfact>
</mgrwt>
</event>
<event>
 4    1  0.3365401E-008  0.2243153E+03  0.7818608E-02  0.1130706E+00
         -2   -1    0    0    0  501 -0.00000000000E+00  0.00000000000E+00  0.54324605572E+03  0.54324605572E+03  0.25500000000E-02 0.  1.
          2   -1    0    0  501    0  0.00000000000E+00 -0.00000000000E+00 -0.22259185304E+03  0.22259185306E+03  0.25500000000E-02 0. -1.
    8880022    1    1    2    0    0 -0.15486725557E+03  0.54238754124E+02  0.45292486673E+03  0.50542882507E+03  0.15294330000E+03 0.  0.
    8880022    1    1    2    0    0  0.15486725557E+03 -0.54238754124E+02 -0.13227066405E+03  0.26040908371E+03  0.15294330000E+03 0. -1.
<mgrwt>
<rscale>  0 0.22431532E+03</rscale>
<asrwt>0</asrwt>
<pdfrwt beam="1">  1        2 0.34244901E-01 0.22431532E+03</pdfrwt>
<pdfrwt beam="2">  1       -2 0.83576315E-01 0.22431532E+03</pdfrwt>
<totfact> 0.19743329E+02</totfact>
</mgrwt>
</event>
<event>
 4    1  0.3365401E-008  0.2767632E+03  0.7818608E-02  0.1097470E+00
          2   -1    0    0  501    0  0.00000000000E+00  0.00000000000E+00  0.86546660952E+02  0.86546660989E+02  0.25500000000E-02 0. -1.
         -2   -1    0    0    0  501 -0.00000000000E+00 -0.00000000000E+00 -0.12764007387E+04  0.12764007387E+04  0.25500000000E-02 0.  1.
    8880022    1    1    2    0    0 -0.21381331369E+03 -0.86545274296E+02 -0.21758058876E+03  0.35204997264E+03  0.15294330000E+03 0.  0.
    8880022    1    1    2    0    0  0.21381331369E+03  0.86545274296E+02 -0.97227348897E+03  0.10108974270E+04  0.15294330000E+03 0.  0.
<mgrwt>
<rscale>  0 0.27676320E+03</rscale>
<asrwt>0</asrwt>
<pdfrwt beam="1">  1        2 0.13314872E-01 0.27676320E+03</pdfrwt>
<pdfrwt beam="2">  1       -2 0.19636933E+00 0.27676320E+03</pdfrwt>
<totfact> 0.68495467E+01</totfact>
</mgrwt>
</event>
<event>
 4    1  0.3365401E-008  0.2878274E+03  0.7818608E-02  0.1091489E+00
         -2   -1    0    0    0  501 -0.00000000000E+00  0.00000000000E+00  0.34214168709E+03  0.34214168710E+03  0.25500000000E-02 0.  1.
          2   -1    0    0  501    0  0.00000000000E+00 -0.00000000000E+00 -0.17564205054E+04  0.17564205054E+04  0.25500000000E-02 0. -1.
    8880022    1    1    2    0    0  0.22845008114E+03  0.85226354103E+02  0.26713528120E+03  0.39269056837E+03  0.15294330000E+03 0.  0.
    8880022    1    1    2    0    0 -0.22845008114E+03 -0.85226354103E+02 -0.16814140995E+04  0.17058716241E+04  0.15294330000E+03 0.  0.
<mgrwt>
<rscale>  0 0.28782742E+03</rscale>
<asrwt>0</asrwt>
<pdfrwt beam="1">  1        2 0.27021853E+00 0.28782742E+03</pdfrwt>
<pdfrwt beam="2">  1       -2 0.52637184E-01 0.28782742E+03</pdfrwt>
<totfact> 0.34882130E+01</totfact>
</mgrwt>
</event>
<event>
 4    1  0.3365401E-008  0.5169134E+03  0.7818608E-02  0.1009456E+00
         -2   -1    0    0    0  501 -0.00000000000E+00  0.00000000000E+00  0.27767585409E+03  0.27767585410E+03  0.25500000000E-02 0.  1.
          2   -1    0    0  501    0  0.00000000000E+00 -0.00000000000E+00 -0.10643004750E+04  0.10643004750E+04  0.25500000000E-02 0. -1.
    8880022    1    1    2    0    0 -0.48810365086E+03 -0.74583242468E+02 -0.60106423589E+03  0.79276585617E+03  0.15294330000E+03 0.  0.
    8880022    1    1    2    0    0  0.48810365086E+03  0.74583242468E+02 -0.18556038498E+03  0.54921047289E+03  0.15294330000E+03 0.  0.
<mgrwt>
<rscale>  0 0.51691342E+03</rscale>
<asrwt>0</asrwt>
<pdfrwt beam="1">  1        2 0.16373853E+00 0.51691342E+03</pdfrwt>
<pdfrwt beam="2">  1       -2 0.42719363E-01 0.51691342E+03</pdfrwt>
<totfact> 0.12311040E+02</totfact>
</mgrwt>
</event>
<event>
 4    1  0.3365401E-008  0.6761184E+03  0.7818608E-02  0.9758968E-01
         -2   -1    0    0    0  501 -0.00000000000E+00  0.00000000000E+00  0.10715637620E+04  0.10715637620E+04  0.25500000000E-02 0.  1.
          2   -1    0    0  501    0  0.00000000000E+00 -0.00000000000E+00 -0.13750247274E+04  0.13750247274E+04  0.25500000000E-02 0. -1.
    8880022    1    1    2    0    0  0.10381359549E+03 -0.65035923611E+03  0.86422722017E+03  0.10972806112E+04  0.15294330000E+03 0.  0.
    8880022    1    1    2    0    0 -0.10381359549E+03  0.65035923611E+03 -0.11676881855E+04  0.13493078782E+04  0.15294330000E+03 0.  0.
<mgrwt>
<rscale>  0 0.67611837E+03</rscale>
<asrwt>0</asrwt>
<pdfrwt beam="1">  1        2 0.21154227E+00 0.67611837E+03</pdfrwt>
<pdfrwt beam="2">  1       -2 0.16485596E+00 0.67611837E+03</pdfrwt>
<totfact> 0.36031394E+00</totfact>
</mgrwt>
</event>
<event>
 4    1  0.3365401E-008  0.2564072E+03  0.7818608E-02  0.1109321E+00
         -2   -1    0    0    0  501 -0.00000000000E+00  0.00000000000E+00  0.38348373531E+03  0.38348373532E+03  0.25500000000E-02 0.  1.
          2   -1    0    0  501    0  0.00000000000E+00 -0.00000000000E+00 -0.67544743847E+03  0.67544743847E+03  0.25500000000E-02 0. -1.
    8880022    1    1    2    0    0  0.13009291219E+03  0.15946426861E+03 -0.60334396299E+03  0.65556739505E+03  0.15294330000E+03 0.  0.
    8880022    1    1    2    0    0 -0.13009291219E+03 -0.15946426861E+03  0.31138025983E+03  0.40336377874E+03  0.15294330000E+03 0.  0.
<mgrwt>
<rscale>  0 0.25640724E+03</rscale>
<asrwt>0</asrwt>
<pdfrwt beam="1">  1        2 0.10391499E+00 0.25640724E+03</pdfrwt>
<pdfrwt beam="2">  1       -2 0.58997498E-01 0.25640724E+03</pdfrwt>
<totfact> 0.12165817E+02</totfact>
</mgrwt>
</event>
<event>
 4    1  0.3365401E-008  0.2558709E+03  0.7818608E-02  0.1109650E+00
          2   -1    0    0  501    0  0.00000000000E+00  0.00000000000E+00  0.36111341531E+03  0.36111341532E+03  0.25500000000E-02 0. -1.
         -2   -1    0    0    0  501 -0.00000000000E+00 -0.00000000000E+00 -0.21302723840E+03  0.21302723842E+03  0.25500000000E-02 0.  1.
    8880022    1    1    2    0    0 -0.20365926909E+03  0.24518193041E+02  0.18482944841E+03  0.31564508184E+03  0.15294330000E+03 0.  1.
    8880022    1    1    2    0    0  0.20365926909E+03 -0.24518193041E+02 -0.36743271502E+02  0.25849557190E+03  0.15294330000E+03 0.  0.
<mgrwt>
<rscale>  0 0.25587085E+03</rscale>
<asrwt>0</asrwt>
<pdfrwt beam="1">  1        2 0.55555909E-01 0.25587085E+03</pdfrwt>
<pdfrwt beam="2">  1       -2 0.32773422E-01 0.25587085E+03</pdfrwt>
<totfact> 0.77762864E+02</totfact>
</mgrwt>
</event>
<event>
 4    1  0.3670229E-008  0.6871579E+03  0.7818608E-02  0.9739449E-01
         -2   -1    0    0    0  501 -0.00000000000E+00  0.00000000000E+00  0.69456645656E+03  0.69456645657E+03  0.25500000000E-02 0.  1.
          2   -1    0    0  501    0  0.00000000000E+00 -0.00000000000E+00 -0.23316316076E+04  0.23316316076E+04  0.25500000000E-02 0. -1.
    8880022    1    1    2    0    0  0.66381314056E+03  0.90257870713E+02 -0.20920841452E+04  0.22020449796E+04  0.15294330000E+03 0.  0.
    8880022    1    1    2    0    0 -0.66381314056E+03 -0.90257870713E+02  0.45501899410E+03  0.82415308457E+03  0.15294330000E+03 0.  0.
<mgrwt>
<rscale>  0 0.68715793E+03</rscale>
<asrwt>0</asrwt>
<pdfrwt beam="1">  1        2 0.35871255E+00 0.68715793E+03</pdfrwt>
<pdfrwt beam="2">  1       -2 0.10685638E+00 0.68715793E+03</pdfrwt>
<totfact> 0.32432926E+00</totfact>
</mgrwt>
</event>
<event>
 4    1  0.3365401E-008  0.8556345E+03  0.7818608E-02  0.9482806E-01
          2   -1    0    0  501    0  0.00000000000E+00  0.00000000000E+00  0.34358088447E+04  0.34358088447E+04  0.25500000000E-02 0. -1.
         -2   -1    0    0    0  501 -0.00000000000E+00 -0.00000000000E+00 -0.46092261481E+03  0.46092261481E+03  0.25500000000E-02 0.  1.
    8880022    1    1    2    0    0  0.72339498094E+03 -0.43060245043E+03  0.58738804353E+02  0.85764833639E+03  0.15294330000E+03 0.  0.
    8880022    1    1    2    0    0 -0.72339498094E+03  0.43060245043E+03  0.29161474256E+04  0.30390831232E+04  0.15294330000E+03 0.  0.
<mgrwt>
<rscale>  0 0.85563451E+03</rscale>
<asrwt>0</asrwt>
<pdfrwt beam="1">  1        2 0.52858597E+00 0.85563451E+03</pdfrwt>
<pdfrwt beam="2">  1       -2 0.70911172E-01 0.85563451E+03</pdfrwt>
<totfact> 0.17274919E+00</totfact>
</mgrwt>
</event>
<event>
 4    1  0.3365401E-008  0.1162955E+04  0.7818608E-02  0.9145915E-01
          2   -1    0    0  501    0  0.00000000000E+00  0.00000000000E+00  0.45520881996E+03  0.45520881996E+03  0.25500000000E-02 0. -1.
         -2   -1    0    0    0  501 -0.00000000000E+00 -0.00000000000E+00 -0.31047364020E+04  0.31047364020E+04  0.25500000000E-02 0.  1.
    8880022    1    1    2    0    0 -0.20665856385E+03  0.11341799708E+04 -0.95545520015E+03  0.15051107137E+04  0.15294330000E+03 0.  0.
    8880022    1    1    2    0    0  0.20665856385E+03 -0.11341799708E+04 -0.16940723819E+04  0.20548345082E+04  0.15294330000E+03 0.  0.
<mgrwt>
<rscale>  0 0.11629547E+04</rscale>
<asrwt>0</asrwt>
<pdfrwt beam="1">  1        2 0.70032128E-01 0.11629547E+04</pdfrwt>
<pdfrwt beam="2">  1       -2 0.47765174E+00 0.11629547E+04</pdfrwt>
<totfact> 0.15627331E-01</totfact>
</mgrwt>
</event>
<event>
 4    1  0.3365401E-008  0.2389149E+03  0.7818608E-02  0.1120518E+00
         -2   -1    0    0    0  501 -0.00000000000E+00  0.00000000000E+00  0.19980247115E+04  0.19980247115E+04  0.25500000000E-02 0.  1.
          2   -1    0    0  501    0  0.00000000000E+00 -0.00000000000E+00 -0.17748309286E+03  0.17748309288E+03  0.25500000000E-02 0. -1.
    8880022    1    1    2    0    0  0.78383709286E+02 -0.16596585392E+03 -0.86099928063E+02  0.25395574649E+03  0.15294330000E+03 0. -1.
    8880022    1    1    2    0    0 -0.78383709286E+02  0.16596585392E+03  0.19066415468E+04  0.19215520579E+04  0.15294330000E+03 0.  0.
<mgrwt>
<rscale>  0 0.23891489E+03</rscale>
<asrwt>0</asrwt>
<pdfrwt beam="1">  1        2 0.27305093E-01 0.23891489E+03</pdfrwt>
<pdfrwt beam="2">  1       -2 0.30738840E+00 0.23891489E+03</pdfrwt>
<totfact> 0.65570644E+00</totfact>
</mgrwt>
</event>
<event>
 4    1  0.3365401E-008  0.3156290E+03  0.7818608E-02  0.1077679E+00
         -2   -1    0    0    0  501 -0.00000000000E+00  0.00000000000E+00  0.35182984612E+03  0.35182984613E+03  0.25500000000E-02 0.  1.
          2   -1    0    0  501    0  0.00000000000E+00 -0.00000000000E+00 -0.12851600244E+04  0.12851600244E+04  0.25500000000E-02 0. -1.
    8880022    1    1    2    0    0 -0.27034447345E+03  0.56070276867E+02 -0.11893895994E+04  0.12305564930E+04  0.15294330000E+03 0.  0.
    8880022    1    1    2    0    0  0.27034447345E+03 -0.56070276867E+02  0.25605942108E+03  0.40643337758E+03  0.15294330000E+03 0.  1.
<mgrwt>
<rscale>  0 0.31562900E+03</rscale>
<asrwt>0</asrwt>
<pdfrwt beam="1">  1        2 0.19771692E+00 0.31562900E+03</pdfrwt>
<pdfrwt beam="2">  1       -2 0.54127669E-01 0.31562900E+03</pdfrwt>
<totfact> 0.58736029E+01</totfact>
</mgrwt>
</event>
<event>
 4    1  0.3365401E-008  0.3566876E+03  0.7818608E-02  0.1059903E+00
          2   -1    0    0  501    0  0.00000000000E+00  0.00000000000E+00  0.11943121827E+04  0.11943121827E+04  0.25500000000E-02 0. -1.
         -2   -1    0    0    0  501 -0.00000000000E+00 -0.00000000000E+00 -0.79400775947E+03  0.79400775947E+03  0.25500000000E-02 0.  1.
    8880022    1    1    2    0    0 -0.30006989272E+03  0.11744139925E+03 -0.72491712163E+03  0.80791763753E+03  0.15294330000E+03 0.  0.
    8880022    1    1    2    0    0  0.30006989272E+03 -0.11744139925E+03  0.11252215448E+04  0.11804023046E+04  0.15294330000E+03 0.  0.
<mgrwt>
<rscale>  0 0.35668764E+03</rscale>
<asrwt>0</asrwt>
<pdfrwt beam="1">  1        2 0.18374034E+00 0.35668764E+03</pdfrwt>
<pdfrwt beam="2">  1       -2 0.12215504E+00 0.35668764E+03</pdfrwt>
<totfact> 0.10616491E+01</totfact>
</mgrwt>
</event>
<event>
 4    1  0.3365401E-008  0.5505365E+03  0.7818608E-02  0.1001370E+00
          2   -1    0    0  501    0  0.00000000000E+00  0.00000000000E+00  0.18173380136E+04  0.18173380136E+04  0.25500000000E-02 0. -1.
         -2   -1    0    0    0  501 -0.00000000000E+00 -0.00000000000E+00 -0.73843590374E+03  0.73843590375E+03  0.25500000000E-02 0.  1.
    8880022    1    1    2    0    0 -0.31706276077E+03 -0.42328476861E+03 -0.58490656454E+03  0.80324724205E+03  0.15294330000E+03 0.  0.
    8880022    1    1    2    0    0  0.31706276077E+03  0.42328476861E+03  0.16638086744E+04  0.17525266753E+04  0.15294330000E+03 0.  0.
<mgrwt>
<rscale>  0 0.55053650E+03</rscale>
<asrwt>0</asrwt>
<pdfrwt beam="1">  1        2 0.27959046E+00 0.55053650E+03</pdfrwt>
<pdfrwt beam="2">  1       -2 0.11360552E+00 0.55053650E+03</pdfrwt>
<totfact> 0.54898027E+00</totfact>
</mgrwt>
</event>
<event>
 4    1  0.3365401E-008  0.8129175E+03  0.7818608E-02  0.9541506E-01
         -2   -1    0    0    0  501 -0.00000000000E+00  0.00000000000E+00  0.71335473666E+03  0.71335473666E+03  0.25500000000E-02 0.  1.
          2   -1    0    0  501    0  0.00000000000E+00 -0.00000000000E+00 -0.10047201880E+04  0.10047201880E+04  0.25500000000E-02 0. -1.
    8880022    1    1    2    0    0 -0.74309698379E+03  0.29197603797E+03 -0.38556194230E+03  0.89971817723E+03  0.15294330000E+03 0.  0.
    8880022    1    1    2    0    0  0.74309698379E+03 -0.29197603797E+03  0.94196490999E+02  0.81835674739E+03  0.15294330000E+03 0.  0.
<mgrwt>
<rscale>  0 0.81291745E+03</rscale>
<asrwt>0</asrwt>
<pdfrwt beam="1">  1        2 0.15457234E+00 0.81291745E+03</pdfrwt>
<pdfrwt beam="2">  1       -2 0.10974688E+00 0.81291745E+03</pdfrwt>
<totfact> 0.16693500E+01</totfact>
</mgrwt>
</event>
<event>
 4    1  0.3365401E-008  0.4819687E+03  0.7818608E-02  0.1018596E+00
         -2   -1    0    0    0  501 -0.00000000000E+00  0.00000000000E+00  0.39594286659E+03  0.39594286660E+03  0.25500000000E-02 0.  1.
          2   -1    0    0  501    0  0.00000000000E+00 -0.00000000000E+00 -0.94855286993E+03  0.94855286994E+03  0.25500000000E-02 0. -1.
    8880022    1    1    2    0    0  0.28975135223E+03 -0.35347753218E+03  0.13891043042E+03  0.50158745256E+03  0.15294330000E+03 0.  0.
    8880022    1    1    2    0    0 -0.28975135223E+03  0.35347753218E+03 -0.69152043376E+03  0.84290828398E+03  0.15294330000E+03 0.  0.
<mgrwt>
<rscale>  0 0.48196874E+03</rscale>
<asrwt>0</asrwt>
<pdfrwt beam="1">  1        2 0.14593121E+00 0.48196874E+03</pdfrwt>
<pdfrwt beam="2">  1       -2 0.60914287E-01 0.48196874E+03</pdfrwt>
<totfact> 0.71047157E+01</totfact>
</mgrwt>
</event>
<event>
 4    1  0.3365401E-008  0.6806423E+03  0.7818608E-02  0.9750921E-01
          2   -1    0    0  501    0  0.00000000000E+00  0.00000000000E+00  0.13098389243E+04  0.13098389243E+04  0.25500000000E-02 0. -1.
         -2   -1    0    0    0  501 -0.00000000000E+00 -0.00000000000E+00 -0.84679519046E+03  0.84679519047E+03  0.25500000000E-02 0.  1.
    8880022    1    1    2    0    0  0.58146349559E+03 -0.31903372457E+03 -0.59134214087E+03  0.90164266464E+03  0.15294330000E+03 0.  0.
    8880022    1    1    2    0    0 -0.58146349559E+03  0.31903372457E+03  0.10543858748E+04  0.12549914502E+04  0.15294330000E+03 0.  0.
<mgrwt>
<rscale>  0 0.68064232E+03</rscale>
<asrwt>0</asrwt>
<pdfrwt beam="1">  1        2 0.20151368E+00 0.68064232E+03</pdfrwt>
<pdfrwt beam="2">  1       -2 0.13027618E+00 0.68064232E+03</pdfrwt>
<totfact> 0.72744772E+00</totfact>
</mgrwt>
</event>
<event>
 4    1  0.3365401E-008  0.4210497E+03  0.7818608E-02  0.1036725E+00
         -2   -1    0    0    0  501 -0.00000000000E+00  0.00000000000E+00  0.74777472784E+03  0.74777472784E+03  0.25500000000E-02 0.  1.
          2   -1    0    0  501    0  0.00000000000E+00 -0.00000000000E+00 -0.25789940662E+04  0.25789940662E+04  0.25500000000E-02 0. -1.
    8880022    1    1    2    0    0 -0.22215621175E+03 -0.32332306172E+03  0.66947650990E+03  0.79087396909E+03  0.15294330000E+03 0.  0.
    8880022    1    1    2    0    0  0.22215621175E+03  0.32332306172E+03 -0.25006958483E+04  0.25358948249E+04  0.15294330000E+03 0.  0.
<mgrwt>
<rscale>  0 0.42104969E+03</rscale>
<asrwt>0</asrwt>
<pdfrwt beam="1">  1        2 0.39676831E+00 0.42104969E+03</pdfrwt>
<pdfrwt beam="2">  1       -2 0.11504227E+00 0.42104969E+03</pdfrwt>
<totfact> 0.21223659E+00</totfact>
</mgrwt>
</event>
<event>
 4    1  0.3365401E-008  0.5406393E+03  0.7818608E-02  0.1003684E+00
         -2   -1    0    0    0  501 -0.00000000000E+00  0.00000000000E+00  0.98447034452E+03  0.98447034453E+03  0.25500000000E-02 0.  1.
          2   -1    0    0  501    0  0.00000000000E+00 -0.00000000000E+00 -0.95296279561E+03  0.95296279562E+03  0.25500000000E-02 0. -1.
    8880022    1    1    2    0    0  0.49486494212E+03  0.15494474555E+03 -0.78801462036E+03  0.95564526893E+03  0.15294330000E+03 0.  0.
    8880022    1    1    2    0    0 -0.49486494212E+03 -0.15494474555E+03  0.81952216928E+03  0.98178787121E+03  0.15294330000E+03 0.  0.
<mgrwt>
<rscale>  0 0.54063929E+03</rscale>
<asrwt>0</asrwt>
<pdfrwt beam="1">  1        2 0.14660966E+00 0.54063929E+03</pdfrwt>
<pdfrwt beam="2">  1       -2 0.15145698E+00 0.54063929E+03</pdfrwt>
<totfact> 0.82826147E+00</totfact>
</mgrwt>
</event>
<event>
 4    1  0.3365401E-008  0.7584697E+03  0.7818608E-02  0.9622156E-01
          2   -1    0    0  501    0  0.00000000000E+00  0.00000000000E+00  0.20092233339E+04  0.20092233339E+04  0.25500000000E-02 0. -1.
         -2   -1    0    0    0  501 -0.00000000000E+00 -0.00000000000E+00 -0.36420109763E+03  0.36420109764E+03  0.25500000000E-02 0.  1.
    8880022    1    1    2    0    0 -0.21998083225E+03  0.70957247959E+03  0.27373264580E+03  0.80635344902E+03  0.15294330000E+03 0.  0.
    8880022    1    1    2    0    0  0.21998083225E+03 -0.70957247959E+03  0.13712895905E+04  0.15670709826E+04  0.15294330000E+03 0.  0.
<mgrwt>
<rscale>  0 0.75846972E+03</rscale>
<asrwt>0</asrwt>
<pdfrwt beam="1">  1        2 0.30911129E+00 0.75846972E+03</pdfrwt>
<pdfrwt beam="2">  1       -2 0.56030938E-01 0.75846972E+03</pdfrwt>
<totfact> 0.20398762E+01</totfact>
</mgrwt>
</event>
<event>
 4    1  0.3365401E-008  0.6465050E+03  0.7818608E-02  0.9813359E-01
          2   -1    0    0  501    0  0.00000000000E+00  0.00000000000E+00  0.70184855683E+03  0.70184855683E+03  0.25500000000E-02 0. -1.
         -2   -1    0    0    0  501 -0.00000000000E+00 -0.00000000000E+00 -0.12925020110E+04  0.12925020110E+04  0.25500000000E-02 0.  1.
    8880022    1    1    2    0    0 -0.62485864196E+03  0.64255700893E+02 -0.10275860962E+04  0.12140436383E+04  0.15294330000E+03 0.  0.
    8880022    1    1    2    0    0  0.62485864196E+03 -0.64255700893E+02  0.43693264207E+03  0.78030692951E+03  0.15294330000E+03 0.  0.
<mgrwt>
<rscale>  0 0.64650504E+03</rscale>
<asrwt>0</asrwt>
<pdfrwt beam="1">  1        2 0.10797670E+00 0.64650504E+03</pdfrwt>
<pdfrwt beam="2">  1       -2 0.19884646E+00 0.64650504E+03</pdfrwt>
<totfact> 0.57222830E+00</totfact>
</mgrwt>
</event>
<event>
 4    1  0.3365401E-008  0.5656123E+03  0.7818608E-02  0.9979435E-01
         -2   -1    0    0    0  501 -0.00000000000E+00  0.00000000000E+00  0.81255126289E+03  0.81255126290E+03  0.25500000000E-02 0.  1.
          2   -1    0    0  501    0  0.00000000000E+00 -0.00000000000E+00 -0.12180959991E+04  0.12180959991E+04  0.25500000000E-02 0. -1.
    8880022    1    1    2    0    0  0.44133848434E+03  0.31897645314E+03  0.63249695898E+03  0.84851027781E+03  0.15294330000E+03 0.  0.
    8880022    1    1    2    0    0 -0.44133848434E+03 -0.31897645314E+03 -0.10380416952E+04  0.11821369842E+04  0.15294330000E+03 0.  0.
<mgrwt>
<rscale>  0 0.56561231E+03</rscale>
<asrwt>0</asrwt>
<pdfrwt beam="1">  1        2 0.18739938E+00 0.56561231E+03</pdfrwt>
<pdfrwt beam="2">  1       -2 0.12500789E+00 0.56561231E+03</pdfrwt>
<totfact> 0.92875448E+00</totfact>
</mgrwt>
</event>
<event>
 4    1  0.3365401E-008  0.4462307E+03  0.7818608E-02  0.1028852E+00
          2   -1    0    0  501    0  0.00000000000E+00  0.00000000000E+00  0.23252010505E+04  0.23252010505E+04  0.25500000000E-02 0. -1.
         -2   -1    0    0    0  501 -0.00000000000E+00 -0.00000000000E+00 -0.15896538438E+03  0.15896538440E+03  0.25500000000E-02 0.  1.
    8880022    1    1    2    0    0 -0.23918300965E+03 -0.34426981964E+03  0.23951658676E+03  0.50644848620E+03  0.15294330000E+03 0.  0.
    8880022    1    1    2    0    0  0.23918300965E+03  0.34426981964E+03  0.19267190794E+04  0.19777179487E+04  0.15294330000E+03 0.  0.
<mgrwt>
<rscale>  0 0.44623074E+03</rscale>
<asrwt>0</asrwt>
<pdfrwt beam="1">  1        2 0.35772321E+00 0.44623074E+03</pdfrwt>
<pdfrwt beam="2">  1       -2 0.24456215E-01 0.44623074E+03</pdfrwt>
<totfact> 0.71043782E+01</totfact>
</mgrwt>
</event>
<event>
 4    1  0.3365401E-008  0.8769462E+03  0.7818608E-02  0.9454868E-01
         -2   -1    0    0    0  501 -0.00000000000E+00  0.00000000000E+00  0.83400699444E+03  0.83400699444E+03  0.25500000000E-02 0.  1.
          2   -1    0    0  501    0  0.00000000000E+00 -0.00000000000E+00 -0.12713253528E+04  0.12713253528E+04  0.25500000000E-02 0. -1.
    8880022    1    1    2    0    0  0.82639168336E+03  0.25043903533E+03 -0.77037779168E+03  0.11672688292E+04  0.15294330000E+03 0.  0.
    8880022    1    1    2    0    0 -0.82639168336E+03 -0.25043903533E+03  0.33305943331E+03  0.93806351804E+03  0.15294330000E+03 0.  0.
<mgrwt>
<rscale>  0 0.87694617E+03</rscale>
<asrwt>0</asrwt>
<pdfrwt beam="1">  1        2 0.19558852E+00 0.87694617E+03</pdfrwt>
<pdfrwt beam="2">  1       -2 0.12830877E+00 0.87694617E+03</pdfrwt>
<totfact> 0.77559473E+00</totfact>
</mgrwt>
</event>
<event>
 4    1  0.3365401E-008  0.8198715E+03  0.7818608E-02  0.9531691E-01
          2   -1    0    0  501    0  0.00000000000E+00  0.00000000000E+00  0.29641081301E+04  0.29641081301E+04  0.25500000000E-02 0. -1.
         -2   -1    0    0    0  501 -0.00000000000E+00 -0.00000000000E+00 -0.24672714978E+03  0.24672714980E+03  0.25500000000E-02 0.  1.
    8880022    1    1    2    0    0 -0.42870780014E+03 -0.68191442143E+03  0.90216937786E+03  0.12190565596E+04  0.15294330000E+03 0.  0.
    8880022    1    1    2    0    0  0.42870780014E+03  0.68191442143E+03  0.18152116024E+04  0.19917787203E+04  0.15294330000E+03 0.  0.
<mgrwt>
<rscale>  0 0.81987152E+03</rscale>
<asrwt>0</asrwt>
<pdfrwt beam="1">  1        2 0.45601665E+00 0.81987152E+03</pdfrwt>
<pdfrwt beam="2">  1       -2 0.37958022E-01 0.81987152E+03</pdfrwt>
<totfact> 0.12594749E+01</totfact>
</mgrwt>
</event>
<event>
 4    1  0.3745392E-008  0.8794225E+03  0.7818608E-02  0.9451676E-01
          2   -1    0    0  501    0  0.00000000000E+00  0.00000000000E+00  0.33457951790E+04  0.33457951790E+04  0.25500000000E-02 0. -1.
         -2   -1    0    0    0  501 -0.00000000000E+00 -0.00000000000E+00 -0.10218064257E+04  0.10218064257E+04  0.25500000000E-02 0.  1.
    8880022    1    1    2    0    0 -0.36233455096E+03  0.78657860707E+03 -0.75898337776E+03  0.11616538437E+04  0.15294330000E+03 0.  0.
    8880022    1    1    2    0    0  0.36233455096E+03 -0.78657860707E+03  0.30829721311E+04  0.32059477610E+04  0.15294330000E+03 0.  0.
<mgrwt>
<rscale>  0 0.87942247E+03</rscale>
<asrwt>0</asrwt>
<pdfrwt beam="1">  1        2 0.51473772E+00 0.87942247E+03</pdfrwt>
<pdfrwt beam="2">  1       -2 0.15720099E+00 0.87942247E+03</pdfrwt>
<totfact> 0.28835211E-01</totfact>
</mgrwt>
</event>
<event>
 4    1  0.3365401E-008  0.1905675E+03  0.7818608E-02  0.1157950E+00
         -2   -1    0    0    0  501 -0.00000000000E+00  0.00000000000E+00  0.35304124731E+02  0.35304124824E+02  0.25500000000E-02 0.  1.
          2   -1    0    0  501    0  0.00000000000E+00 -0.00000000000E+00 -0.37425020713E+04  0.37425020713E+04  0.25500000000E-02 0. -1.
    8880022    1    1    2    0    0  0.10360149391E+03 -0.46808671826E+02 -0.34620982283E+04  0.34673390542E+04  0.15294330000E+03 0.  0.
    8880022    1    1    2    0    0 -0.10360149391E+03  0.46808671826E+02 -0.24509971818E+03  0.31046714185E+03  0.15294330000E+03 0.  0.
<mgrwt>
<rscale>  0 0.19056751E+03</rscale>
<asrwt>0</asrwt>
<pdfrwt beam="1">  1        2 0.57576924E+00 0.19056751E+03</pdfrwt>
<pdfrwt beam="2">  1       -2 0.54314068E-02 0.19056751E+03</pdfrwt>
<totfact> 0.12410485E+02</totfact>
</mgrwt>
</event>
<event>
 4    1  0.3365401E-008  0.5056372E+03  0.7818608E-02  0.1012318E+00
          2   -1    0    0  501    0  0.00000000000E+00  0.00000000000E+00  0.14182523109E+04  0.14182523109E+04  0.25500000000E-02 0. -1.
         -2   -1    0    0    0  501 -0.00000000000E+00 -0.00000000000E+00 -0.27229735175E+03  0.27229735176E+03  0.25500000000E-02 0.  1.
    8880022    1    1    2    0    0 -0.46790129438E+03 -0.11552379822E+03  0.10643756814E+04  0.11783737155E+04  0.15294330000E+03 0.  0.
    8880022    1    1    2    0    0  0.46790129438E+03  0.11552379822E+03  0.81579277720E+02  0.51217594712E+03  0.15294330000E+03 0.  0.
<mgrwt>
<rscale>  0 0.50563724E+03</rscale>
<asrwt>0</asrwt>
<pdfrwt beam="1">  1        2 0.21819266E+00 0.50563724E+03</pdfrwt>
<pdfrwt beam="2">  1       -2 0.41891901E-01 0.50563724E+03</pdfrwt>
<totfact> 0.79872822E+01</totfact>
</mgrwt>
</event>
<event>
 4    1  0.3365401E-008  0.8947173E+03  0.7818608E-02  0.9432209E-01
          2   -1    0    0  501    0  0.00000000000E+00  0.00000000000E+00  0.28450108023E+04  0.28450108023E+04  0.25500000000E-02 0. -1.
         -2   -1    0    0    0  501 -0.00000000000E+00 -0.00000000000E+00 -0.36143276559E+03  0.36143276560E+03  0.25500000000E-02 0.  1.
    8880022    1    1    2    0    0 -0.55972670474E+03  0.68105311719E+03  0.19963210756E+04  0.21876509827E+04  0.15294330000E+03 0.  0.
    8880022    1    1    2    0    0  0.55972670474E+03 -0.68105311719E+03  0.48725696115E+03  0.10187925852E+04  0.15294330000E+03 0.  0.
<mgrwt>
<rscale>  0 0.89471727E+03</rscale>
<asrwt>0</asrwt>
<pdfrwt beam="1">  1        2 0.43769397E+00 0.89471727E+03</pdfrwt>
<pdfrwt beam="2">  1       -2 0.55605041E-01 0.89471727E+03</pdfrwt>
<totfact> 0.68269834E+00</totfact>
</mgrwt>
</event>
<event>
 4    1  0.3365401E-008  0.4101180E+03  0.7818608E-02  0.1040331E+00
          2   -1    0    0  501    0  0.00000000000E+00  0.00000000000E+00  0.95805079677E+03  0.95805079678E+03  0.25500000000E-02 0. -1.
         -2   -1    0    0    0  501 -0.00000000000E+00 -0.00000000000E+00 -0.53828198610E+03  0.53828198610E+03  0.25500000000E-02 0.  1.
    8880022    1    1    2    0    0  0.36600871943E+03 -0.10412862313E+03 -0.40427249082E+03  0.57587590044E+03  0.15294330000E+03 0.  0.
    8880022    1    1    2    0    0 -0.36600871943E+03  0.10412862313E+03  0.82404130150E+03  0.92045688244E+03  0.15294330000E+03 0.  0.
<mgrwt>
<rscale>  0 0.41011804E+03</rscale>
<asrwt>0</asrwt>
<pdfrwt beam="1">  1        2 0.14739243E+00 0.41011804E+03</pdfrwt>
<pdfrwt beam="2">  1       -2 0.82812613E-01 0.41011804E+03</pdfrwt>
<totfact> 0.36306542E+01</totfact>
</mgrwt>
</event>
<event>
 4    1  0.3365401E-008  0.5240238E+03  0.7818608E-02  0.1007692E+00
         -2   -1    0    0    0  501 -0.00000000000E+00  0.00000000000E+00  0.49813460946E+03  0.49813460946E+03  0.25500000000E-02 0.  1.
          2   -1    0    0  501    0  0.00000000000E+00 -0.00000000000E+00 -0.91451414447E+03  0.91451414448E+03  0.25500000000E-02 0. -1.
    8880022    1    1    2    0    0 -0.46778523510E+03  0.17996183637E+03  0.23696923675E+03  0.57511334614E+03  0.15294330000E+03 0.  0.
    8880022    1    1    2    0    0  0.46778523510E+03 -0.17996183637E+03 -0.65334877177E+03  0.83753540780E+03  0.15294330000E+03 0.  0.
<mgrwt>
<rscale>  0 0.52402380E+03</rscale>
<asrwt>0</asrwt>
<pdfrwt beam="1">  1        2 0.14069448E+00 0.52402380E+03</pdfrwt>
<pdfrwt beam="2">  1       -2 0.76636094E-01 0.52402380E+03</pdfrwt>
<totfact> 0.45311160E+01</totfact>
</mgrwt>
</event>
<event>
 4    1  0.3365401E-008  0.3018316E+03  0.7818608E-02  0.1084329E+00
         -2   -1    0    0    0  501 -0.00000000000E+00  0.00000000000E+00  0.86812920704E+02  0.86812920741E+02  0.25500000000E-02 0.  1.
          2   -1    0    0  501    0  0.00000000000E+00 -0.00000000000E+00 -0.23289683625E+04  0.23289683625E+04  0.25500000000E-02 0. -1.
    8880022    1    1    2    0    0 -0.83340239497E+01 -0.26007917944E+03 -0.22576246195E+03  0.37692303959E+03  0.15294330000E+03 0.  0.
    8880022    1    1    2    0    0  0.83340239497E+01  0.26007917944E+03 -0.20163929798E+04  0.20388582436E+04  0.15294330000E+03 0.  0.
<mgrwt>
<rscale>  0 0.30183156E+03</rscale>
<asrwt>0</asrwt>
<pdfrwt beam="1">  1        2 0.35830278E+00 0.30183156E+03</pdfrwt>
<pdfrwt beam="2">  1       -2 0.13355836E-01 0.30183156E+03</pdfrwt>
<totfact> 0.20526048E+02</totfact>
</mgrwt>
</event>
<event>
 4    1  0.3651982E-008  0.6727902E+03  0.7818608E-02  0.9764930E-01
          2   -1    0    0  501    0  0.00000000000E+00  0.00000000000E+00  0.19078549858E+04  0.19078549858E+04  0.25500000000E-02 0. -1.
         -2   -1    0    0    0  501 -0.00000000000E+00 -0.00000000000E+00 -0.99938936093E+03  0.99938936093E+03  0.25500000000E-02 0.  1.
    8880022    1    1    2    0    0 -0.28807796649E+03  0.58844377658E+03 -0.81517209104E+03  0.10569542015E+04  0.15294330000E+03 0.  0.
    8880022    1    1    2    0    0  0.28807796649E+03 -0.58844377658E+03  0.17236377159E+04  0.18502901453E+04  0.15294330000E+03 0. -1.
<mgrwt>
<rscale>  0 0.67279019E+03</rscale>
<asrwt>0</asrwt>
<pdfrwt beam="1">  1        2 0.29351615E+00 0.67279019E+03</pdfrwt>
<pdfrwt beam="2">  1       -2 0.15375221E+00 0.67279019E+03</pdfrwt>
<totfact> 0.22173752E+00</totfact>
</mgrwt>
</event>
<event>
 4    1  0.3365401E-008  0.2207984E+03  0.7818608E-02  0.1133289E+00
          2   -1    0    0  501    0  0.00000000000E+00  0.00000000000E+00  0.10050928444E+03  0.10050928447E+03  0.25500000000E-02 0. -1.
         -2   -1    0    0    0  501 -0.00000000000E+00 -0.00000000000E+00 -0.64208293032E+03  0.64208293032E+03  0.25500000000E-02 0.  1.
    8880022    1    1    2    0    0  0.33770556654E+02 -0.15562718070E+03 -0.45440752921E+03  0.50521097127E+03  0.15294330000E+03 0.  0.
    8880022    1    1    2    0    0 -0.33770556654E+02  0.15562718070E+03 -0.87166116669E+02  0.23738124353E+03  0.15294330000E+03 0.  0.
<mgrwt>
<rscale>  0 0.22079838E+03</rscale>
<asrwt>0</asrwt>
<pdfrwt beam="1">  1        2 0.15462967E-01 0.22079838E+03</pdfrwt>
<pdfrwt beam="2">  1       -2 0.98781987E-01 0.22079838E+03</pdfrwt>
<totfact> 0.33198667E+02</totfact>
</mgrwt>
</event>
<event>
 4    1  0.3365401E-008  0.6914517E+03  0.7818608E-02  0.9731964E-01
         -2   -1    0    0    0  501 -0.00000000000E+00  0.00000000000E+00  0.17348894433E+04  0.17348894433E+04  0.25500000000E-02 0.  1.
          2   -1    0    0  501    0  0.00000000000E+00 -0.00000000000E+00 -0.53300796622E+03  0.53300796622E+03  0.25500000000E-02 0. -1.
    8880022    1    1    2    0    0  0.20031974792E+03 -0.64388332079E+03 -0.18710642221E+03  0.71631989951E+03  0.15294330000E+03 0.  0.
    8880022    1    1    2    0    0 -0.20031974792E+03  0.64388332079E+03  0.13889878993E+04  0.15515775100E+04  0.15294330000E+03 0.  0.
<mgrwt>
<rscale>  0 0.69145165E+03</rscale>
<asrwt>0</asrwt>
<pdfrwt beam="1">  1        2 0.82001224E-01 0.69145165E+03</pdfrwt>
<pdfrwt beam="2">  1       -2 0.26690607E+00 0.69145165E+03</pdfrwt>
<totfact> 0.30154641E+00</totfact>
</mgrwt>
</event>
<event>
 4    1  0.3365401E-008  0.3172755E+03  0.7818608E-02  0.1076910E+00
         -2   -1    0    0    0  501 -0.00000000000E+00  0.00000000000E+00  0.12354897280E+04  0.12354897280E+04  0.25500000000E-02 0.  1.
          2   -1    0    0  501    0  0.00000000000E+00 -0.00000000000E+00 -0.19351748693E+03  0.19351748695E+03  0.25500000000E-02 0. -1.
    8880022    1    1    2    0    0 -0.23453268959E+03 -0.14921959765E+03  0.10646522031E+04  0.11109221564E+04  0.15294330000E+03 0.  1.
    8880022    1    1    2    0    0  0.23453268959E+03  0.14921959765E+03 -0.22679962072E+02  0.31808505860E+03  0.15294330000E+03 0.  0.
<mgrwt>
<rscale>  0 0.31727547E+03</rscale>
<asrwt>0</asrwt>
<pdfrwt beam="1">  1        2 0.29771922E-01 0.31727547E+03</pdfrwt>
<pdfrwt beam="2">  1       -2 0.19007534E+00 0.31727547E+03</pdfrwt>
<totfact> 0.29489162E+01</totfact>
</mgrwt>
</event>
<event>
 4    1  0.3365401E-008  0.9710793E+03  0.7818608E-02  0.9340846E-01
          2   -1    0    0  501    0  0.00000000000E+00  0.00000000000E+00  0.44990852526E+03  0.44990852527E+03  0.25500000000E-02 0. -1.
         -2   -1    0    0    0  501 -0.00000000000E+00 -0.00000000000E+00 -0.24888415330E+04  0.24888415330E+04  0.25500000000E-02 0.  1.
    8880022    1    1    2    0    0  0.35709158447E+03 -0.88999378658E+03 -0.43567329134E+03  0.10643336928E+04  0.15294330000E+03 0.  0.
    8880022    1    1    2    0    0 -0.35709158447E+03  0.88999378658E+03 -0.16032597164E+04  0.18744163655E+04  0.15294330000E+03 0.  0.
<mgrwt>
<rscale>  0 0.97107929E+03</rscale>
<asrwt>0</asrwt>
<pdfrwt beam="1">  1        2 0.69216698E-01 0.97107929E+03</pdfrwt>
<pdfrwt beam="2">  1       -2 0.38289869E+00 0.97107929E+03</pdfrwt>
<totfact> 0.68272350E-01</totfact>
</mgrwt>
</event>
<event>
 4    1  0.3365401E-008  0.4169609E+03  0.7818608E-02  0.1038060E+00
         -2   -1    0    0    0  501 -0.00000000000E+00  0.00000000000E+00  0.13247379158E+03  0.13247379161E+03  0.25500000000E-02 0.  1.
          2   -1    0    0  501    0  0.00000000000E+00 -0.00000000000E+00 -0.32081990434E+04  0.32081990434E+04  0.25500000000E-02 0. -1.
    8880022    1    1    2    0    0 -0.33998590233E+03  0.18674673234E+03 -0.28218813162E+04  0.28525200388E+04  0.15294330000E+03 0.  0.
    8880022    1    1    2    0    0  0.33998590233E+03 -0.18674673234E+03 -0.25384393563E+03  0.48815279626E+03  0.15294330000E+03 0.  0.
<mgrwt>
<rscale>  0 0.41696092E+03</rscale>
<asrwt>0</asrwt>
<pdfrwt beam="1">  1        2 0.49356903E+00 0.41696092E+03</pdfrwt>
<pdfrwt beam="2">  1       -2 0.20380586E-01 0.41696092E+03</pdfrwt>
<totfact> 0.30262752E+01</totfact>
</mgrwt>
</event>
<event>
 4    1  0.3365401E-008  0.4668984E+03  0.7818608E-02  0.1022799E+00
          2   -1    0    0  501    0  0.00000000000E+00  0.00000000000E+00  0.11887629732E+04  0.11887629732E+04  0.25500000000E-02 0. -1.
         -2   -1    0    0    0  501 -0.00000000000E+00 -0.00000000000E+00 -0.22624231828E+03  0.22624231830E+03  0.25500000000E-02 0.  1.
    8880022    1    1    2    0    0  0.28154292581E+03 -0.33961158847E+03  0.78921323342E+03  0.91697962404E+03  0.15294330000E+03 0.  0.
    8880022    1    1    2    0    0 -0.28154292581E+03  0.33961158847E+03  0.17330742152E+03  0.49802566748E+03  0.15294330000E+03 0.  0.
<mgrwt>
<rscale>  0 0.46689839E+03</rscale>
<asrwt>0</asrwt>
<pdfrwt beam="1">  1        2 0.18288661E+00 0.46689839E+03</pdfrwt>
<pdfrwt beam="2">  1       -2 0.34806511E-01 0.46689839E+03</pdfrwt>
<totfact> 0.15470125E+02</totfact>
</mgrwt>
</event>
<event>
 4    1  0.3365401E-008  0.5430455E+03  0.7818608E-02  0.1003117E+00
          2   -1    0    0  501    0  0.00000000000E+00  0.00000000000E+00  0.15372659690E+04  0.15372659690E+04  0.25500000000E-02 0. -1.
         -2   -1    0    0    0  501 -0.00000000000E+00 -0.00000000000E+00 -0.42497557000E+03  0.42497557001E+03  0.25500000000E-02 0.  1.
    8880022    1    1    2    0    0 -0.43566020452E+03 -0.28584419928E+03 -0.17054827144E+03  0.56919687804E+03  0.15294330000E+03 0.  0.
    8880022    1    1    2    0    0  0.43566020452E+03  0.28584419928E+03  0.12828386704E+04  0.13930446610E+04  0.15294330000E+03 0.  0.
<mgrwt>
<rscale>  0 0.54304546E+03</rscale>
<asrwt>0</asrwt>
<pdfrwt beam="1">  1        2 0.23650246E+00 0.54304546E+03</pdfrwt>
<pdfrwt beam="2">  1       -2 0.65380856E-01 0.54304546E+03</pdfrwt>
<totfact> 0.27480678E+01</totfact>
</mgrwt>
</event>
<event>
 4    1  0.3365401E-008  0.5641949E+03  0.7818608E-02  0.9982607E-01
         -2   -1    0    0    0  501 -0.00000000000E+00  0.00000000000E+00  0.11061539106E+04  0.11061539106E+04  0.25500000000E-02 0.  1.
          2   -1    0    0  501    0  0.00000000000E+00 -0.00000000000E+00 -0.81537048738E+03  0.81537048738E+03  0.25500000000E-02 0. -1.
    8880022    1    1    2    0    0  0.43927231187E+03  0.31931817443E+03 -0.62745213018E+03  0.84380808788E+03  0.15294330000E+03 0.  0.
    8880022    1    1    2    0    0 -0.43927231187E+03 -0.31931817443E+03  0.91823555336E+03  0.10777163101E+04  0.15294330000E+03 0.  0.
<mgrwt>
<rscale>  0 0.56419493E+03</rscale>
<asrwt>0</asrwt>
<pdfrwt beam="1">  1        2 0.12544161E+00 0.56419493E+03</pdfrwt>
<pdfrwt beam="2">  1       -2 0.17017753E+00 0.56419493E+03</pdfrwt>
<totfact> 0.74580183E+00</totfact>
</mgrwt>
</event>
<event>
 4    1  0.3365401E-008  0.4549335E+03  0.7818608E-02  0.1026261E+00
         -2   -1    0    0    0  501 -0.00000000000E+00  0.00000000000E+00  0.14349637736E+03  0.14349637738E+03  0.25500000000E-02 0.  1.
          2   -1    0    0  501    0  0.00000000000E+00 -0.00000000000E+00 -0.20930327126E+04  0.20930327126E+04  0.25500000000E-02 0. -1.
    8880022    1    1    2    0    0 -0.40846483129E+03 -0.12934171823E+03 -0.35123618270E+03  0.57474455850E+03  0.15294330000E+03 0.  0.
    8880022    1    1    2    0    0  0.40846483129E+03  0.12934171823E+03 -0.15983001525E+04  0.16617845315E+04  0.15294330000E+03 0.  0.
<mgrwt>
<rscale>  0 0.45493346E+03</rscale>
<asrwt>0</asrwt>
<pdfrwt beam="1">  1        2 0.32200501E+00 0.45493346E+03</pdfrwt>
<pdfrwt beam="2">  1       -2 0.22076367E-01 0.45493346E+03</pdfrwt>
<totfact> 0.11362214E+02</totfact>
</mgrwt>
</event>
<event>
 4    1  0.3365401E-008  0.6098392E+03  0.7818608E-02  0.9885200E-01
          2   -1    0    0  501    0  0.00000000000E+00  0.00000000000E+00  0.56896663391E+03  0.56896663391E+03  0.25500000000E-02 0. -1.
         -2   -1    0    0    0  501 -0.00000000000E+00 -0.00000000000E+00 -0.83691628408E+03  0.83691628408E+03  0.25500000000E-02 0.  1.
    8880022    1    1    2    0    0 -0.16003785253E+03  0.56824300665E+03  0.19496908375E+03  0.64024747206E+03  0.15294330000E+03 0.  0.
    8880022    1    1    2    0    0  0.16003785253E+03 -0.56824300665E+03 -0.46291873392E+03  0.76563544594E+03  0.15294330000E+03 0.  0.
<mgrwt>
<rscale>  0 0.60983923E+03</rscale>
<asrwt>0</asrwt>
<pdfrwt beam="1">  1        2 0.87533328E-01 0.60983923E+03</pdfrwt>
<pdfrwt beam="2">  1       -2 0.12875635E+00 0.60983923E+03</pdfrwt>
<totfact> 0.24150485E+01</totfact>
</mgrwt>
</event>
<event>
 4    1  0.3365401E-008  0.6774820E+03  0.7818608E-02  0.9756535E-01
          2   -1    0    0  501    0  0.00000000000E+00  0.00000000000E+00  0.19154360966E+04  0.19154360966E+04  0.25500000000E-02 0. -1.
         -2   -1    0    0    0  501 -0.00000000000E+00 -0.00000000000E+00 -0.55184153334E+03  0.55184153335E+03  0.25500000000E-02 0.  1.
    8880022    1    1    2    0    0  0.22862418410E+03 -0.61912937910E+03  0.16097170393E+04  0.17464738204E+04  0.15294330000E+03 0.  0.
    8880022    1    1    2    0    0 -0.22862418410E+03  0.61912937910E+03 -0.24612247607E+03  0.72080380955E+03  0.15294330000E+03 0.  0.
<mgrwt>
<rscale>  0 0.67748200E+03</rscale>
<asrwt>0</asrwt>
<pdfrwt beam="1">  1        2 0.29468248E+00 0.67748200E+03</pdfrwt>
<pdfrwt beam="2">  1       -2 0.84898697E-01 0.67748200E+03</pdfrwt>
<totfact> 0.94036787E+00</totfact>
</mgrwt>
</event>
<event>
 4    1  0.3365401E-008  0.8465075E+03  0.7818608E-02  0.9495037E-01
         -2   -1    0    0    0  501 -0.00000000000E+00  0.00000000000E+00  0.72300958611E+03  0.72300958611E+03  0.25500000000E-02 0.  1.
          2   -1    0    0  501    0  0.00000000000E+00 -0.00000000000E+00 -0.16395325767E+04  0.16395325767E+04  0.25500000000E-02 0. -1.
    8880022    1    1    2    0    0 -0.66914225575E+03 -0.49541081264E+03 -0.12011470623E+04  0.14694656001E+04  0.15294330000E+03 0.  0.
    8880022    1    1    2    0    0  0.66914225575E+03  0.49541081264E+03  0.28462407165E+03  0.89307656272E+03  0.15294330000E+03 0.  0.
<mgrwt>
<rscale>  0 0.84650746E+03</rscale>
<asrwt>0</asrwt>
<pdfrwt beam="1">  1        2 0.25223578E+00 0.84650746E+03</pdfrwt>
<pdfrwt beam="2">  1       -2 0.11123224E+00 0.84650746E+03</pdfrwt>
<totfact> 0.68730859E+00</totfact>
</mgrwt>
</event>
<event>
 4    1  0.3365401E-008  0.5675077E+03  0.7818608E-02  0.9975209E-01
          2   -1    0    0  501    0  0.00000000000E+00  0.00000000000E+00  0.11913589802E+04  0.11913589802E+04  0.25500000000E-02 0. -1.
         -2   -1    0    0    0  501 -0.00000000000E+00 -0.00000000000E+00 -0.42454233550E+03  0.42454233550E+03  0.25500000000E-02 0.  1.
    8880022    1    1    2    0    0  0.26798276234E+03  0.47629668413E+03 -0.10353468675E+03  0.57687466282E+03  0.15294330000E+03 0.  0.
    8880022    1    1    2    0    0 -0.26798276234E+03 -0.47629668413E+03  0.87035133144E+03  0.10390266529E+04  0.15294330000E+03 0.  0.
<mgrwt>
<rscale>  0 0.56750766E+03</rscale>
<asrwt>0</asrwt>
<pdfrwt beam="1">  1        2 0.18328600E+00 0.56750766E+03</pdfrwt>
<pdfrwt beam="2">  1       -2 0.65314206E-01 0.56750766E+03</pdfrwt>
<totfact> 0.43026775E+01</totfact>
</mgrwt>
</event>
<event>
 4    1  0.3365401E-008  0.4837068E+03  0.7818608E-02  0.1018121E+00
          2   -1    0    0  501    0  0.00000000000E+00  0.00000000000E+00  0.20327055040E+04  0.20327055040E+04  0.25500000000E-02 0. -1.
         -2   -1    0    0    0  501 -0.00000000000E+00 -0.00000000000E+00 -0.43420657401E+03  0.43420657402E+03  0.25500000000E-02 0.  1.
    8880022    1    1    2    0    0 -0.25842018025E+03  0.37920916319E+03  0.18566529400E+04  0.19186277313E+04  0.15294330000E+03 0.  0.
    8880022    1    1    2    0    0  0.25842018025E+03 -0.37920916319E+03 -0.25815400993E+03  0.54828434673E+03  0.15294330000E+03 0.  0.
<mgrwt>
<rscale>  0 0.48370676E+03</rscale>
<asrwt>0</asrwt>
<pdfrwt beam="1">  1        2 0.31272393E+00 0.48370676E+03</pdfrwt>
<pdfrwt beam="2">  1       -2 0.66801011E-01 0.48370676E+03</pdfrwt>
<totfact> 0.14338276E+01</totfact>
</mgrwt>
</event>
<event>
 4    1  0.3365401E-008  0.4174147E+03  0.7818608E-02  0.1037911E+00
         -2   -1    0    0    0  501 -0.00000000000E+00  0.00000000000E+00  0.26241348252E+03  0.26241348253E+03  0.25500000000E-02 0.  1.
          2   -1    0    0  501    0  0.00000000000E+00 -0.00000000000E+00 -0.25024804163E+04  0.25024804163E+04  0.25500000000E-02 0. -1.
    8880022    1    1    2    0    0 -0.30754768261E+03  0.23718731110E+03 -0.23049725150E+04  0.23424630937E+04  0.15294330000E+03 0.  0.
    8880022    1    1    2    0    0  0.30754768261E+03 -0.23718731110E+03  0.64905581195E+02  0.42243080511E+03  0.15294330000E+03 0.  0.
<mgrwt>
<rscale>  0 0.41741472E+03</rscale>
<asrwt>0</asrwt>
<pdfrwt beam="1">  1        2 0.38499697E+00 0.41741472E+03</pdfrwt>
<pdfrwt beam="2">  1       -2 0.40371307E-01 0.41741472E+03</pdfrwt>
<totfact> 0.22540476E+01</totfact>
</mgrwt>
</event>
<event>
 4    1  0.3365401E-008  0.4985190E+03  0.7818608E-02  0.1014166E+00
          2   -1    0    0  501    0  0.00000000000E+00  0.00000000000E+00  0.13282945381E+04  0.13282945381E+04  0.25500000000E-02 0. -1.
         -2   -1    0    0    0  501 -0.00000000000E+00 -0.00000000000E+00 -0.50032273852E+03  0.50032273853E+03  0.25500000000E-02 0.  1.
    8880022    1    1    2    0    0 -0.42975148795E+03  0.20110493097E+03 -0.30944284897E+03  0.58675042774E+03  0.15294330000E+03 0.  0.
    8880022    1    1    2    0    0  0.42975148795E+03 -0.20110493097E+03  0.11374146486E+04  0.12418668489E+04  0.15294330000E+03 0.  0.
<mgrwt>
<rscale>  0 0.49851899E+03</rscale>
<asrwt>0</asrwt>
<pdfrwt beam="1">  1        2 0.20435301E+00 0.49851899E+03</pdfrwt>
<pdfrwt beam="2">  1       -2 0.76972728E-01 0.49851899E+03</pdfrwt>
<totfact> 0.25349874E+01</totfact>
</mgrwt>
</event>
<event>
 4    1  0.3365401E-008  0.6278767E+03  0.7818608E-02  0.9849201E-01
         -2   -1    0    0    0  501 -0.00000000000E+00  0.00000000000E+00  0.61587327742E+03  0.61587327742E+03  0.25500000000E-02 0.  1.
          2   -1    0    0  501    0  0.00000000000E+00 -0.00000000000E+00 -0.10433907234E+04  0.10433907234E+04  0.25500000000E-02 0. -1.
    8880022    1    1    2    0    0  0.33807852033E+03  0.50649822632E+03  0.30202010760E+03  0.69673907425E+03  0.15294330000E+03 0.  0.
    8880022    1    1    2    0    0 -0.33807852033E+03 -0.50649822632E+03 -0.72953755356E+03  0.96252492656E+03  0.15294330000E+03 0. -1.
<mgrwt>
<rscale>  0 0.62787673E+03</rscale>
<asrwt>0</asrwt>
<pdfrwt beam="1">  1        2 0.16052165E+00 0.62787673E+03</pdfrwt>
<pdfrwt beam="2">  1       -2 0.94749735E-01 0.62787673E+03</pdfrwt>
<totfact> 0.22853264E+01</totfact>
</mgrwt>
</event>
<event>
 4    1  0.3365401E-008  0.5657483E+03  0.7818608E-02  0.9979131E-01
         -2   -1    0    0    0  501 -0.00000000000E+00  0.00000000000E+00  0.84004187603E+03  0.84004187604E+03  0.25500000000E-02 0.  1.
          2   -1    0    0  501    0  0.00000000000E+00 -0.00000000000E+00 -0.11401769619E+04  0.11401769619E+04  0.25500000000E-02 0. -1.
    8880022    1    1    2    0    0 -0.49963347888E+03  0.21690048738E+03 -0.95797835226E+03  0.11125617336E+04  0.15294330000E+03 0.  0.
    8880022    1    1    2    0    0  0.49963347888E+03 -0.21690048738E+03  0.65784326636E+03  0.86765710437E+03  0.15294330000E+03 0.  0.
<mgrwt>
<rscale>  0 0.56574825E+03</rscale>
<asrwt>0</asrwt>
<pdfrwt beam="1">  1        2 0.17541184E+00 0.56574825E+03</pdfrwt>
<pdfrwt beam="2">  1       -2 0.12923721E+00 0.56574825E+03</pdfrwt>
<totfact> 0.94986697E+00</totfact>
</mgrwt>
</event>
<event>
 4    1  0.3365401E-008  0.4224887E+03  0.7818608E-02  0.1036259E+00
          2   -1    0    0  501    0  0.00000000000E+00  0.00000000000E+00  0.19173400146E+04  0.19173400146E+04  0.25500000000E-02 0. -1.
         -2   -1    0    0    0  501 -0.00000000000E+00 -0.00000000000E+00 -0.19455534780E+03  0.19455534782E+03  0.25500000000E-02 0.  1.
    8880022    1    1    2    0    0  0.32231109637E+03 -0.22631969385E+03  0.98844955098E+02  0.43389748193E+03  0.15294330000E+03 0.  0.
    8880022    1    1    2    0    0 -0.32231109637E+03  0.22631969385E+03  0.16239397117E+04  0.16779978805E+04  0.15294330000E+03 0.  0.
<mgrwt>
<rscale>  0 0.42248870E+03</rscale>
<asrwt>0</asrwt>
<pdfrwt beam="1">  1        2 0.29497538E+00 0.42248870E+03</pdfrwt>
<pdfrwt beam="2">  1       -2 0.29931592E-01 0.42248870E+03</pdfrwt>
<totfact> 0.82189287E+01</totfact>
</mgrwt>
</event>
<event>
 4    1  0.3365401E-008  0.3617700E+03  0.7818608E-02  0.1057885E+00
         -2   -1    0    0    0  501 -0.00000000000E+00  0.00000000000E+00  0.27629828065E+03  0.27629828066E+03  0.25500000000E-02 0.  1.
          2   -1    0    0  501    0  0.00000000000E+00 -0.00000000000E+00 -0.83500049357E+03  0.83500049357E+03  0.25500000000E-02 0. -1.
    8880022    1    1    2    0    0  0.28684559207E+03 -0.15876245082E+03 -0.64486381477E+03  0.73940983365E+03  0.15294330000E+03 0.  0.
    8880022    1    1    2    0    0 -0.28684559207E+03  0.15876245082E+03  0.86161601854E+02  0.37188894058E+03  0.15294330000E+03 0.  0.
<mgrwt>
<rscale>  0 0.36177004E+03</rscale>
<asrwt>0</asrwt>
<pdfrwt beam="1">  1        2 0.12846161E+00 0.36177004E+03</pdfrwt>
<pdfrwt beam="2">  1       -2 0.42507428E-01 0.36177004E+03</pdfrwt>
<totfact> 0.17759768E+02</totfact>
</mgrwt>
</event>
<event>
 4    1  0.3365401E-008  0.3676075E+03  0.7818608E-02  0.1055612E+00
         -2   -1    0    0    0  501 -0.00000000000E+00  0.00000000000E+00  0.12670762374E+04  0.12670762374E+04  0.25500000000E-02 0.  1.
          2   -1    0    0  501    0  0.00000000000E+00 -0.00000000000E+00 -0.58580689129E+03  0.58580689130E+03  0.25500000000E-02 0. -1.
    8880022    1    1    2    0    0 -0.65041552597E+02  0.32789213675E+03 -0.49724003228E+03  0.61837121507E+03  0.15294330000E+03 0.  0.
    8880022    1    1    2    0    0  0.65041552597E+02 -0.32789213675E+03  0.11785093784E+04  0.12345119136E+04  0.15294330000E+03 0.  0.
<mgrwt>
<rscale>  0 0.36760755E+03</rscale>
<asrwt>0</asrwt>
<pdfrwt beam="1">  1        2 0.90124138E-01 0.36760755E+03</pdfrwt>
<pdfrwt beam="2">  1       -2 0.19493480E+00 0.36760755E+03</pdfrwt>
<totfact> 0.79553494E+00</totfact>
</mgrwt>
</event>
<event>
 4    1  0.3365401E-008  0.1153043E+04  0.7818608E-02  0.9154981E-01
          2   -1    0    0  501    0  0.00000000000E+00  0.00000000000E+00  0.18531820324E+04  0.18531820324E+04  0.25500000000E-02 0. -1.
         -2   -1    0    0    0  501 -0.00000000000E+00 -0.00000000000E+00 -0.10470270690E+04  0.10470270690E+04  0.25500000000E-02 0.  1.
    8880022    1    1    2    0    0  0.51591395511E+03  0.10197787358E+04 -0.41053845105E+03  0.12239482635E+04  0.15294330000E+03 0.  0.
    8880022    1    1    2    0    0 -0.51591395511E+03 -0.10197787358E+04  0.12166934144E+04  0.16762608379E+04  0.15294330000E+03 0.  0.
<mgrwt>
<rscale>  0 0.11530427E+04</rscale>
<asrwt>0</asrwt>
<pdfrwt beam="1">  1        2 0.28510493E+00 0.11530427E+04</pdfrwt>
<pdfrwt beam="2">  1       -2 0.16108109E+00 0.11530427E+04</pdfrwt>
<totfact> 0.19479266E+00</totfact>
</mgrwt>
</event>
<event>
 4    1  0.3365401E-008  0.8420068E+03  0.7818608E-02  0.9501128E-01
         -2   -1    0    0    0  501 -0.00000000000E+00  0.00000000000E+00  0.36479849003E+04  0.36479849003E+04  0.25500000000E-02 0.  1.
          2   -1    0    0  501    0  0.00000000000E+00 -0.00000000000E+00 -0.24715599872E+03  0.24715599874E+03  0.25500000000E-02 0. -1.
    8880022    1    1    2    0    0  0.77310944258E+03  0.29645491746E+03  0.80016876921E+03  0.11615702478E+04  0.15294330000E+03 0.  0.
    8880022    1    1    2    0    0 -0.77310944258E+03 -0.29645491746E+03  0.26006601323E+04  0.27335706512E+04  0.15294330000E+03 0.  0.
<mgrwt>
<rscale>  0 0.84200676E+03</rscale>
<asrwt>0</asrwt>
<pdfrwt beam="1">  1        2 0.38024003E-01 0.84200676E+03</pdfrwt>
<pdfrwt beam="2">  1       -2 0.56122840E+00 0.84200676E+03</pdfrwt>
<totfact> 0.10388031E-01</totfact>
</mgrwt>
</event>
<event>
 4    1  0.3365401E-008  0.4309196E+03  0.7818608E-02  0.1033570E+00
         -2   -1    0    0    0  501 -0.00000000000E+00  0.00000000000E+00  0.59551227369E+03  0.59551227369E+03  0.25500000000E-02 0.  1.
          2   -1    0    0  501    0  0.00000000000E+00 -0.00000000000E+00 -0.16017827369E+04  0.16017827369E+04  0.25500000000E-02 0. -1.
    8880022    1    1    2    0    0 -0.11567458696E+03 -0.38590076756E+03  0.48279328170E+03  0.64713292169E+03  0.15294330000E+03 0.  0.
    8880022    1    1    2    0    0  0.11567458696E+03  0.38590076756E+03 -0.14890637449E+04  0.15501620889E+04  0.15294330000E+03 0.  0.
<mgrwt>
<rscale>  0 0.43091956E+03</rscale>
<asrwt>0</asrwt>
<pdfrwt beam="1">  1        2 0.24642811E+00 0.43091956E+03</pdfrwt>
<pdfrwt beam="2">  1       -2 0.91617274E-01 0.43091956E+03</pdfrwt>
<totfact> 0.12264548E+01</totfact>
</mgrwt>
</event>
<event>
 4    1  0.3365401E-008  0.6428843E+03  0.7818608E-02  0.9820224E-01
         -2   -1    0    0    0  501 -0.00000000000E+00  0.00000000000E+00  0.20487674264E+03  0.20487674265E+03  0.25500000000E-02 0.  1.
          2   -1    0    0  501    0  0.00000000000E+00 -0.00000000000E+00 -0.30523148291E+04  0.30523148291E+04  0.25500000000E-02 0. -1.
    8880022    1    1    2    0    0  0.28144168703E+03 -0.55740389994E+03 -0.23720709953E+04  0.24576454160E+04  0.15294330000E+03 0.  0.
    8880022    1    1    2    0    0 -0.28144168703E+03  0.55740389994E+03 -0.47536709118E+03  0.79954615580E+03  0.15294330000E+03 0.  0.
<mgrwt>
<rscale>  0 0.64288427E+03</rscale>
<asrwt>0</asrwt>
<pdfrwt beam="1">  1        2 0.46958686E+00 0.64288427E+03</pdfrwt>
<pdfrwt beam="2">  1       -2 0.31519501E-01 0.64288427E+03</pdfrwt>
<totfact> 0.16339642E+01</totfact>
</mgrwt>
</event>
<event>
 4    1  0.3365401E-008  0.5996157E+03  0.7818608E-02  0.9906204E-01
          2   -1    0    0  501    0  0.00000000000E+00  0.00000000000E+00  0.66889026758E+03  0.66889026759E+03  0.25500000000E-02 0. -1.
         -2   -1    0    0    0  501 -0.00000000000E+00 -0.00000000000E+00 -0.20545954301E+04  0.20545954301E+04  0.25500000000E-02 0.  1.
    8880022    1    1    2    0    0 -0.12934762864E+03  0.56516946959E+03 -0.18629880761E+04  0.19571059152E+04  0.15294330000E+03 0.  0.
    8880022    1    1    2    0    0  0.12934762864E+03 -0.56516946959E+03  0.47728291362E+03  0.76637978251E+03  0.15294330000E+03 0.  0.
<mgrwt>
<rscale>  0 0.59961570E+03</rscale>
<asrwt>0</asrwt>
<pdfrwt beam="1">  1        2 0.10290620E+00 0.59961570E+03</pdfrwt>
<pdfrwt beam="2">  1       -2 0.31609160E+00 0.59961570E+03</pdfrwt>
<totfact> 0.11848433E+00</totfact>
</mgrwt>
</event>
<event>
 4    1  0.3542277E-008  0.5968962E+03  0.7818608E-02  0.9911866E-01
         -2   -1    0    0    0  501 -0.00000000000E+00  0.00000000000E+00  0.10995165931E+04  0.10995165931E+04  0.25500000000E-02 0.  1.
          2   -1    0    0  501    0  0.00000000000E+00 -0.00000000000E+00 -0.27071128943E+04  0.27071128943E+04  0.25500000000E-02 0. -1.
    8880022    1    1    2    0    0  0.49988138770E+03 -0.28811810326E+03  0.98197495841E+03  0.11491561753E+04  0.15294330000E+03 0.  1.
    8880022    1    1    2    0    0 -0.49988138770E+03  0.28811810326E+03 -0.25895712596E+04  0.26574733122E+04  0.15294330000E+03 0.  0.
<mgrwt>
<rscale>  0 0.59689622E+03</rscale>
<asrwt>0</asrwt>
<pdfrwt beam="1">  1        2 0.41647890E+00 0.59689622E+03</pdfrwt>
<pdfrwt beam="2">  1       -2 0.16915640E+00 0.59689622E+03</pdfrwt>
<totfact> 0.62746306E-01</totfact>
</mgrwt>
</event>
<event>
 4    1  0.3365401E-008  0.1786717E+03  0.7818608E-02  0.1169095E+00
          2   -1    0    0  501    0  0.00000000000E+00  0.00000000000E+00  0.12412908462E+04  0.12412908462E+04  0.25500000000E-02 0. -1.
         -2   -1    0    0    0  501 -0.00000000000E+00 -0.00000000000E+00 -0.20321590617E+03  0.20321590619E+03  0.25500000000E-02 0.  1.
    8880022    1    1    2    0    0 -0.88572479120E+02 -0.26207476711E+02 -0.15596800982E+03  0.23716995804E+03  0.15294330000E+03 0.  0.
    8880022    1    1    2    0    0  0.88572479120E+02  0.26207476711E+02  0.11940429499E+04  0.12073367944E+04  0.15294330000E+03 0. -1.
<mgrwt>
<rscale>  0 0.17867168E+03</rscale>
<asrwt>0</asrwt>
<pdfrwt beam="1">  1        2 0.19096782E+00 0.17867168E+03</pdfrwt>
<pdfrwt beam="2">  1       -2 0.31263986E-01 0.17867168E+03</pdfrwt>
<totfact> 0.18504205E+02</totfact>
</mgrwt>
</event>
<event>
 4    1  0.3365401E-008  0.2244587E+03  0.7818608E-02  0.1130602E+00
         -2   -1    0    0    0  501 -0.00000000000E+00  0.00000000000E+00  0.10431185865E+03  0.10431185868E+03  0.25500000000E-02 0.  1.
          2   -1    0    0  501    0  0.00000000000E+00 -0.00000000000E+00 -0.31882181808E+04  0.31882181808E+04  0.25500000000E-02 0. -1.
    8880022    1    1    2    0    0 -0.10662343417E+03  0.12498594582E+03 -0.30584014266E+04  0.30666269716E+04  0.15294330000E+03 0.  0.
    8880022    1    1    2    0    0  0.10662343417E+03 -0.12498594582E+03 -0.25504895498E+02  0.22590306788E+03  0.15294330000E+03 0.  0.
<mgrwt>
<rscale>  0 0.22445867E+03</rscale>
<asrwt>0</asrwt>
<pdfrwt beam="1">  1        2 0.49049503E+00 0.22445867E+03</pdfrwt>
<pdfrwt beam="2">  1       -2 0.16047981E-01 0.22445867E+03</pdfrwt>
<totfact> 0.50423549E+01</totfact>
</mgrwt>
</event>
<event>
 4    1  0.3365401E-008  0.6116468E+03  0.7818608E-02  0.9881533E-01
          2   -1    0    0  501    0  0.00000000000E+00  0.00000000000E+00  0.16237912318E+04  0.16237912318E+04  0.25500000000E-02 0. -1.
         -2   -1    0    0    0  501 -0.00000000000E+00 -0.00000000000E+00 -0.28668760723E+03  0.28668760724E+03  0.25500000000E-02 0.  1.
    8880022    1    1    2    0    0  0.19994580261E+03  0.55744217463E+03  0.10918411413E+04  0.12514906443E+04  0.15294330000E+03 0.  0.
    8880022    1    1    2    0    0 -0.19994580261E+03 -0.55744217463E+03  0.24526248329E+03  0.65898819471E+03  0.15294330000E+03 0.  0.
<mgrwt>
<rscale>  0 0.61164676E+03</rscale>
<asrwt>0</asrwt>
<pdfrwt beam="1">  1        2 0.24981403E+00 0.61164676E+03</pdfrwt>
<pdfrwt beam="2">  1       -2 0.44105786E-01 0.61164676E+03</pdfrwt>
<totfact> 0.54839191E+01</totfact>
</mgrwt>
</event>
<event>
 4    1  0.3365401E-008  0.4065457E+03  0.7818608E-02  0.1041536E+00
          2   -1    0    0  501    0  0.00000000000E+00  0.00000000000E+00  0.40517277593E+04  0.40517277593E+04  0.25500000000E-02 0. -1.
         -2   -1    0    0    0  501 -0.00000000000E+00 -0.00000000000E+00 -0.48934688564E+02  0.48934688630E+02  0.25500000000E-02 0.  1.
    8880022    1    1    2    0    0  0.29065150583E+03  0.23960263226E+03  0.28377522150E+04  0.28667258338E+04  0.15294330000E+03 0.  0.
    8880022    1    1    2    0    0 -0.29065150583E+03 -0.23960263226E+03  0.11650408557E+04  0.12339366142E+04  0.15294330000E+03 0.  0.
<mgrwt>
<rscale>  0 0.40654566E+03</rscale>
<asrwt>0</asrwt>
<pdfrwt beam="1">  1        2 0.62334297E+00 0.40654566E+03</pdfrwt>
<pdfrwt beam="2">  1       -2 0.75284107E-02 0.40654566E+03</pdfrwt>
<totfact> 0.40253730E+01</totfact>
</mgrwt>
</event>
<event>
 4    1  0.3365401E-008  0.8226634E+03  0.7818608E-02  0.9527780E-01
          2   -1    0    0  501    0  0.00000000000E+00  0.00000000000E+00  0.17761218178E+04  0.17761218178E+04  0.25500000000E-02 0. -1.
         -2   -1    0    0    0  501 -0.00000000000E+00 -0.00000000000E+00 -0.88012790161E+03  0.88012790161E+03  0.25500000000E-02 0.  1.
    8880022    1    1    2    0    0 -0.80814091513E+03  0.17077167881E+02 -0.55212773310E+03  0.99076740714E+03  0.15294330000E+03 0.  0.
    8880022    1    1    2    0    0  0.80814091513E+03 -0.17077167881E+02  0.14481216493E+04  0.16654823123E+04  0.15294330000E+03 0.  0.
<mgrwt>
<rscale>  0 0.82266337E+03</rscale>
<asrwt>0</asrwt>
<pdfrwt beam="1">  1        2 0.27324951E+00 0.82266337E+03</pdfrwt>
<pdfrwt beam="2">  1       -2 0.13540429E+00 0.82266337E+03</pdfrwt>
<totfact> 0.35520140E+00</totfact>
</mgrwt>
</event>
<event>
 4    1  0.5875873E-008  0.1260675E+04  0.7818608E-02  0.9061345E-01
          2   -1    0    0  501    0  0.00000000000E+00  0.00000000000E+00  0.17401308246E+04  0.17401308246E+04  0.25500000000E-02 0. -1.
         -2   -1    0    0    0  501 -0.00000000000E+00 -0.00000000000E+00 -0.24666876833E+04  0.24666876833E+04  0.25500000000E-02 0.  1.
    8880022    1    1    2    0    0 -0.21545868039E+03 -0.12326745627E+04 -0.20324596036E+04  0.23916924371E+04  0.15294330000E+03 0.  0.
    8880022    1    1    2    0    0  0.21545868039E+03  0.12326745627E+04  0.13059027449E+04  0.18151260707E+04  0.15294330000E+03 0.  0.
<mgrwt>
<rscale>  0 0.12606747E+04</rscale>
<asrwt>0</asrwt>
<pdfrwt beam="1">  1        2 0.26771244E+00 0.12606747E+04</pdfrwt>
<pdfrwt beam="2">  1       -2 0.37949041E+00 0.12606747E+04</pdfrwt>
<totfact> 0.91445630E-02</totfact>
</mgrwt>
</event>
<event>
 4    1  0.3365401E-008  0.5269022E+03  0.7818608E-02  0.1006986E+00
         -2   -1    0    0    0  501 -0.00000000000E+00  0.00000000000E+00  0.20134974558E+03  0.20134974560E+03  0.25500000000E-02 0.  1.
          2   -1    0    0  501    0  0.00000000000E+00 -0.00000000000E+00 -0.24754081460E+04  0.24754081460E+04  0.25500000000E-02 0. -1.
    8880022    1    1    2    0    0  0.46895325907E+03  0.18524879468E+03 -0.20278218074E+04  0.20951580396E+04  0.15294330000E+03 0.  0.
    8880022    1    1    2    0    0 -0.46895325907E+03 -0.18524879468E+03 -0.24623659299E+03  0.58159985201E+03  0.15294330000E+03 0.  0.
<mgrwt>
<rscale>  0 0.52690220E+03</rscale>
<asrwt>0</asrwt>
<pdfrwt beam="1">  1        2 0.38083200E+00 0.52690220E+03</pdfrwt>
<pdfrwt beam="2">  1       -2 0.30976886E-01 0.52690220E+03</pdfrwt>
<totfact> 0.37555285E+01</totfact>
</mgrwt>
</event>
<event>
 4    1  0.3365401E-008  0.5397135E+03  0.7818608E-02  0.1003903E+00
          2   -1    0    0  501    0  0.00000000000E+00  0.00000000000E+00  0.21356124732E+04  0.21356124732E+04  0.25500000000E-02 0. -1.
         -2   -1    0    0    0  501 -0.00000000000E+00 -0.00000000000E+00 -0.22709418034E+03  0.22709418036E+03  0.25500000000E-02 0.  1.
    8880022    1    1    2    0    0  0.38358073120E+03  0.34751233341E+03  0.20768277675E+03  0.57829299494E+03  0.15294330000E+03 0.  0.
    8880022    1    1    2    0    0 -0.38358073120E+03 -0.34751233341E+03  0.17008355161E+04  0.17844136587E+04  0.15294330000E+03 0.  0.
<mgrwt>
<rscale>  0 0.53971349E+03</rscale>
<asrwt>0</asrwt>
<pdfrwt beam="1">  1        2 0.32855575E+00 0.53971349E+03</pdfrwt>
<pdfrwt beam="2">  1       -2 0.34937568E-01 0.53971349E+03</pdfrwt>
<totfact> 0.45986406E+01</totfact>
</mgrwt>
</event>
<event>
 4    1  0.3365401E-008  0.2184494E+03  0.7818608E-02  0.1135044E+00
          2   -1    0    0  501    0  0.00000000000E+00  0.00000000000E+00  0.15660685554E+04  0.15660685554E+04  0.25500000000E-02 0. -1.
         -2   -1    0    0    0  501 -0.00000000000E+00 -0.00000000000E+00 -0.32439612963E+03  0.32439612964E+03  0.25500000000E-02 0.  1.
    8880022    1    1    2    0    0  0.90407686821E+02  0.12710209742E+03 -0.27890761931E+03  0.35427334945E+03  0.15294330000E+03 0.  1.
    8880022    1    1    2    0    0 -0.90407686821E+02 -0.12710209742E+03  0.15205800451E+04  0.15361913356E+04  0.15294330000E+03 0.  0.
<mgrwt>
<rscale>  0 0.21844941E+03</rscale>
<asrwt>0</asrwt>
<pdfrwt beam="1">  1        2 0.24093363E+00 0.21844941E+03</pdfrwt>
<pdfrwt beam="2">  1       -2 0.49907096E-01 0.21844941E+03</pdfrwt>
<totfact> 0.50122453E+01</totfact>
</mgrwt>
</event>
<event>
 4    1  0.3365401E-008  0.5625351E+03  0.7818608E-02  0.9986335E-01
          2   -1    0    0  501    0  0.00000000000E+00  0.00000000000E+00  0.64028569694E+03  0.64028569694E+03  0.25500000000E-02 0. -1.
         -2   -1    0    0    0  501 -0.00000000000E+00 -0.00000000000E+00 -0.13412925235E+04  0.13412925235E+04  0.25500000000E-02 0.  1.
    8880022    1    1    2    0    0  0.19883629394E+03 -0.50350596303E+03 -0.11378723114E+04  0.12693302079E+04  0.15294330000E+03 0.  0.
    8880022    1    1    2    0    0 -0.19883629394E+03  0.50350596303E+03  0.43686548481E+03  0.71224801259E+03  0.15294330000E+03 0.  0.
<mgrwt>
<rscale>  0 0.56253514E+03</rscale>
<asrwt>0</asrwt>
<pdfrwt beam="1">  1        2 0.98505492E-01 0.56253514E+03</pdfrwt>
<pdfrwt beam="2">  1       -2 0.20635269E+00 0.56253514E+03</pdfrwt>
<totfact> 0.58123301E+00</totfact>
</mgrwt>
</event>
<event>
 4    1  0.3365401E-008  0.2866839E+03  0.7818608E-02  0.1092093E+00
          2   -1    0    0  501    0  0.00000000000E+00  0.00000000000E+00  0.14165120614E+04  0.14165120614E+04  0.25500000000E-02 0. -1.
         -2   -1    0    0    0  501 -0.00000000000E+00 -0.00000000000E+00 -0.73781714541E+02  0.73781714585E+02  0.25500000000E-02 0.  1.
    8880022    1    1    2    0    0  0.23985150134E+03 -0.35598645325E+02  0.10157574482E+04  0.10554387016E+04  0.15294330000E+03 0.  0.
    8880022    1    1    2    0    0 -0.23985150134E+03  0.35598645325E+02  0.32697289863E+03  0.43485507436E+03  0.15294330000E+03 0.  0.
<mgrwt>
<rscale>  0 0.28668390E+03</rscale>
<asrwt>0</asrwt>
<pdfrwt beam="1">  1        2 0.21792493E+00 0.28668390E+03</pdfrwt>
<pdfrwt beam="2">  1       -2 0.11351033E-01 0.28668390E+03</pdfrwt>
<totfact> 0.82001513E+02</totfact>
</mgrwt>
</event>
<event>
 4    1  0.3365401E-008  0.6607388E+03  0.7818608E-02  0.9786835E-01
          2   -1    0    0  501    0  0.00000000000E+00  0.00000000000E+00  0.15477404590E+04  0.15477404590E+04  0.25500000000E-02 0. -1.
         -2   -1    0    0    0  501 -0.00000000000E+00 -0.00000000000E+00 -0.62909062733E+03  0.62909062733E+03  0.25500000000E-02 0.  1.
    8880022    1    1    2    0    0 -0.46956883062E+03 -0.43896374241E+03  0.12677018838E+04  0.14295606923E+04  0.15294330000E+03 0.  0.
    8880022    1    1    2    0    0  0.46956883062E+03  0.43896374241E+03 -0.34905205204E+03  0.74727039409E+03  0.15294330000E+03 0.  0.
<mgrwt>
<rscale>  0 0.66073876E+03</rscale>
<asrwt>0</asrwt>
<pdfrwt beam="1">  1        2 0.23811391E+00 0.66073876E+03</pdfrwt>
<pdfrwt beam="2">  1       -2 0.96783174E-01 0.66073876E+03</pdfrwt>
<totfact> 0.11058781E+01</totfact>
</mgrwt>
</event>
<event>
 4    1  0.3365401E-008  0.9986270E+03  0.7818608E-02  0.9310052E-01
          2   -1    0    0  501    0  0.00000000000E+00  0.00000000000E+00  0.13669809608E+04  0.13669809608E+04  0.25500000000E-02 0. -1.
         -2   -1    0    0    0  501 -0.00000000000E+00 -0.00000000000E+00 -0.11223255292E+04  0.11223255292E+04  0.25500000000E-02 0.  1.
    8880022    1    1    2    0    0  0.50886216095E+03 -0.84553155252E+03  0.85865565116E+03  0.13170214446E+04  0.15294330000E+03 0. -1.
    8880022    1    1    2    0    0 -0.50886216095E+03  0.84553155252E+03 -0.61400021953E+03  0.11722850454E+04  0.15294330000E+03 0.  0.
<mgrwt>
<rscale>  0 0.99862704E+03</rscale>
<asrwt>0</asrwt>
<pdfrwt beam="1">  1        2 0.21030476E+00 0.99862704E+03</pdfrwt>
<pdfrwt beam="2">  1       -2 0.17266547E+00 0.99862704E+03</pdfrwt>
<totfact> 0.30601538E+00</totfact>
</mgrwt>
</event>
<event>
 4    1  0.3365401E-008  0.4521343E+03  0.7818608E-02  0.1027087E+00
         -2   -1    0    0    0  501 -0.00000000000E+00  0.00000000000E+00  0.28354104074E+04  0.28354104074E+04  0.25500000000E-02 0.  1.
          2   -1    0    0  501    0  0.00000000000E+00 -0.00000000000E+00 -0.20192013712E+03  0.20192013714E+03  0.25500000000E-02 0. -1.
    8880022    1    1    2    0    0 -0.34596281105E+03  0.24767614934E+03  0.99024074369E+02  0.46285112283E+03  0.15294330000E+03 0.  0.
    8880022    1    1    2    0    0  0.34596281105E+03 -0.24767614934E+03  0.25344661959E+04  0.25744794217E+04  0.15294330000E+03 0.  0.
<mgrwt>
<rscale>  0 0.45213427E+03</rscale>
<asrwt>0</asrwt>
<pdfrwt beam="1">  1        2 0.31064637E-01 0.45213427E+03</pdfrwt>
<pdfrwt beam="2">  1       -2 0.43621698E+00 0.45213427E+03</pdfrwt>
<totfact> 0.83248262E-01</totfact>
</mgrwt>
</event>
<event>
 4    1  0.3365401E-008  0.2699890E+03  0.7818608E-02  0.1101286E+00
          2   -1    0    0  501    0  0.00000000000E+00  0.00000000000E+00  0.75299418449E+03  0.75299418449E+03  0.25500000000E-02 0. -1.
         -2   -1    0    0    0  501 -0.00000000000E+00 -0.00000000000E+00 -0.12426787102E+03  0.12426787104E+03  0.25500000000E-02 0.  1.
    8880022    1    1    2    0    0  0.19440078713E+03 -0.10821622106E+03  0.10816348015E+03  0.29084945933E+03  0.15294330000E+03 0.  0.
    8880022    1    1    2    0    0 -0.19440078713E+03  0.10821622106E+03  0.52056283332E+03  0.58641259620E+03  0.15294330000E+03 0.  0.
<mgrwt>
<rscale>  0 0.26998902E+03</rscale>
<asrwt>0</asrwt>
<pdfrwt beam="1">  1        2 0.11584526E+00 0.26998902E+03</pdfrwt>
<pdfrwt beam="2">  1       -2 0.19118134E-01 0.26998902E+03</pdfrwt>
<totfact> 0.87261296E+02</totfact>
</mgrwt>
</event>
<event>
 4    1  0.3365401E-008  0.4065061E+03  0.7818608E-02  0.1041550E+00
          2   -1    0    0  501    0  0.00000000000E+00  0.00000000000E+00  0.92597373657E+03  0.92597373657E+03  0.25500000000E-02 0. -1.
         -2   -1    0    0    0  501 -0.00000000000E+00 -0.00000000000E+00 -0.29593175102E+03  0.29593175103E+03  0.25500000000E-02 0.  1.
    8880022    1    1    2    0    0  0.33987880523E+03 -0.16228977694E+03 -0.69909790411E+02  0.41247376371E+03  0.15294330000E+03 0.  1.
    8880022    1    1    2    0    0 -0.33987880523E+03  0.16228977694E+03  0.69995177596E+03  0.80943172389E+03  0.15294330000E+03 0.  0.
<mgrwt>
<rscale>  0 0.40650612E+03</rscale>
<asrwt>0</asrwt>
<pdfrwt beam="1">  1        2 0.14245750E+00 0.40650612E+03</pdfrwt>
<pdfrwt beam="2">  1       -2 0.45527962E-01 0.40650612E+03</pdfrwt>
<totfact> 0.13431219E+02</totfact>
</mgrwt>
</event>
<event>
 4    1  0.3365401E-008  0.9735234E+03  0.7818608E-02  0.9338070E-01
         -2   -1    0    0    0  501 -0.00000000000E+00  0.00000000000E+00  0.71684454282E+03  0.71684454283E+03  0.25500000000E-02 0.  1.
          2   -1    0    0  501    0  0.00000000000E+00 -0.00000000000E+00 -0.21141336653E+04  0.21141336653E+04  0.25500000000E-02 0. -1.
    8880022    1    1    2    0    0 -0.84373968428E+03 -0.46093320210E+03 -0.15650262029E+04  0.18431100728E+04  0.15294330000E+03 0.  0.
    8880022    1    1    2    0    0  0.84373968428E+03  0.46093320210E+03  0.16773708044E+03  0.98786813533E+03  0.15294330000E+03 0.  0.
<mgrwt>
<rscale>  0 0.97352336E+03</rscale>
<asrwt>0</asrwt>
<pdfrwt beam="1">  1        2 0.32525133E+00 0.97352336E+03</pdfrwt>
<pdfrwt beam="2">  1       -2 0.11028378E+00 0.97352336E+03</pdfrwt>
<totfact> 0.37853186E+00</totfact>
</mgrwt>
</event>
<event>
 4    1  0.3365401E-008  0.1062714E+04  0.7818608E-02  0.9242315E-01
         -2   -1    0    0    0  501 -0.00000000000E+00  0.00000000000E+00  0.16109600141E+04  0.16109600141E+04  0.25500000000E-02 0.  1.
          2   -1    0    0  501    0  0.00000000000E+00 -0.00000000000E+00 -0.12976555162E+04  0.12976555162E+04  0.25500000000E-02 0. -1.
    8880022    1    1    2    0    0  0.63785790648E+03 -0.83612572211E+03 -0.82944763864E+03  0.13480890068E+04  0.15294330000E+03 0.  0.
    8880022    1    1    2    0    0 -0.63785790648E+03  0.83612572211E+03  0.11427521366E+04  0.15605265235E+04  0.15294330000E+03 0.  0.
<mgrwt>
<rscale>  0 0.10627138E+04</rscale>
<asrwt>0</asrwt>
<pdfrwt beam="1">  1        2 0.19963931E+00 0.10627138E+04</pdfrwt>
<pdfrwt beam="2">  1       -2 0.24784000E+00 0.10627138E+04</pdfrwt>
<totfact> 0.10862158E+00</totfact>
</mgrwt>
</event>
<event>
 4    1  0.3365401E-008  0.5546256E+03  0.7818608E-02  0.1000429E+00
          2   -1    0    0  501    0  0.00000000000E+00  0.00000000000E+00  0.30227554999E+03  0.30227555000E+03  0.25500000000E-02 0. -1.
         -2   -1    0    0    0  501 -0.00000000000E+00 -0.00000000000E+00 -0.10523945638E+04  0.10523945638E+04  0.25500000000E-02 0.  1.
    8880022    1    1    2    0    0  0.41919377568E+03  0.32938501188E+03 -0.25198119757E+03  0.60918312892E+03  0.15294330000E+03 0.  0.
    8880022    1    1    2    0    0 -0.41919377568E+03 -0.32938501188E+03 -0.49813781621E+03  0.74548698485E+03  0.15294330000E+03 0.  0.
<mgrwt>
<rscale>  0 0.55462560E+03</rscale>
<asrwt>0</asrwt>
<pdfrwt beam="1">  1        2 0.46503931E-01 0.55462560E+03</pdfrwt>
<pdfrwt beam="2">  1       -2 0.16190685E+00 0.55462560E+03</pdfrwt>
<totfact> 0.27338479E+01</totfact>
</mgrwt>
</event>
<event>
 4    1  0.3365401E-008  0.8468599E+03  0.7818608E-02  0.9494561E-01
          2   -1    0    0  501    0  0.00000000000E+00  0.00000000000E+00  0.15449931526E+04  0.15449931526E+04  0.25500000000E-02 0. -1.
         -2   -1    0    0    0  501 -0.00000000000E+00 -0.00000000000E+00 -0.54211681086E+03  0.54211681087E+03  0.25500000000E-02 0.  1.
    8880022    1    1    2    0    0 -0.13115284548E+03  0.82254419931E+03  0.10578924886E+03  0.85344188254E+03  0.15294330000E+03 0.  1.
    8880022    1    1    2    0    0  0.13115284548E+03 -0.82254419931E+03  0.89708709289E+03  0.12336680809E+04  0.15294330000E+03 0.  0.
<mgrwt>
<rscale>  0 0.84685989E+03</rscale>
<asrwt>0</asrwt>
<pdfrwt beam="1">  1        2 0.23769125E+00 0.84685989E+03</pdfrwt>
<pdfrwt beam="2">  1       -2 0.83402587E-01 0.84685989E+03</pdfrwt>
<totfact> 0.15261374E+01</totfact>
</mgrwt>
</event>
<event>
 4    1  0.3365401E-008  0.2278044E+03  0.7818608E-02  0.1128195E+00
         -2   -1    0    0    0  501 -0.00000000000E+00  0.00000000000E+00  0.51197267302E+02  0.51197267366E+02  0.25500000000E-02 0.  1.
          2   -1    0    0  501    0  0.00000000000E+00 -0.00000000000E+00 -0.20523993080E+04  0.20523993080E+04  0.25500000000E-02 0. -1.
    8880022    1    1    2    0    0  0.11646781497E+03  0.12222288569E+03 -0.25232454083E+03  0.33994486705E+03  0.15294330000E+03 0. -1.
    8880022    1    1    2    0    0 -0.11646781497E+03 -0.12222288569E+03 -0.17488774998E+04  0.17636517083E+04  0.15294330000E+03 0. -1.
<mgrwt>
<rscale>  0 0.22780439E+03</rscale>
<asrwt>0</asrwt>
<pdfrwt beam="1">  1        2 0.31575368E+00 0.22780439E+03</pdfrwt>
<pdfrwt beam="2">  1       -2 0.78765042E-02 0.22780439E+03</pdfrwt>
<totfact> 0.68102000E+02</totfact>
</mgrwt>
</event>
<event>
 4    1  0.3365401E-008  0.3015786E+03  0.7818608E-02  0.1084454E+00
         -2   -1    0    0    0  501 -0.00000000000E+00  0.00000000000E+00  0.17424779670E+03  0.17424779672E+03  0.25500000000E-02 0.  1.
          2   -1    0    0  501    0  0.00000000000E+00 -0.00000000000E+00 -0.13831543655E+04  0.13831543655E+04  0.25500000000E-02 0. -1.
    8880022    1    1    2    0    0  0.21711617115E+03  0.14289363316E+03 -0.12189040101E+04  0.12556578599E+04  0.15294330000E+03 0.  0.
    8880022    1    1    2    0    0 -0.21711617115E+03 -0.14289363316E+03  0.99974412900E+01  0.30174430238E+03  0.15294330000E+03 0.  0.
<mgrwt>
<rscale>  0 0.30157864E+03</rscale>
<asrwt>0</asrwt>
<pdfrwt beam="1">  1        2 0.21279297E+00 0.30157864E+03</pdfrwt>
<pdfrwt beam="2">  1       -2 0.26807354E-01 0.30157864E+03</pdfrwt>
<totfact> 0.19878858E+02</totfact>
</mgrwt>
</event>
<event>
 4    1  0.3365401E-008  0.5619793E+03  0.7818608E-02  0.9987586E-01
         -2   -1    0    0    0  501 -0.00000000000E+00  0.00000000000E+00  0.16203770314E+03  0.16203770316E+03  0.25500000000E-02 0.  1.
          2   -1    0    0  501    0  0.00000000000E+00 -0.00000000000E+00 -0.21307728740E+04  0.21307728740E+04  0.25500000000E-02 0. -1.
    8880022    1    1    2    0    0 -0.29591722656E+02 -0.53995690754E+03 -0.13191522469E+04  0.14338700902E+04  0.15294330000E+03 0.  0.
    8880022    1    1    2    0    0  0.29591722656E+02  0.53995690754E+03 -0.64958292402E+03  0.85894048702E+03  0.15294330000E+03 0.  0.
<mgrwt>
<rscale>  0 0.56197935E+03</rscale>
<asrwt>0</asrwt>
<pdfrwt beam="1">  1        2 0.32781119E+00 0.56197935E+03</pdfrwt>
<pdfrwt beam="2">  1       -2 0.24928879E-01 0.56197935E+03</pdfrwt>
<totfact> 0.85856996E+01</totfact>
</mgrwt>
</event>
<event>
 4    1  0.3365401E-008  0.3024352E+03  0.7818608E-02  0.1084030E+00
         -2   -1    0    0    0  501 -0.00000000000E+00  0.00000000000E+00  0.26276818776E+03  0.26276818778E+03  0.25500000000E-02 0.  1.
          2   -1    0    0  501    0  0.00000000000E+00 -0.00000000000E+00 -0.58712210827E+03  0.58712210827E+03  0.25500000000E-02 0. -1.
    8880022    1    1    2    0    0  0.19464334056E+03  0.17375080318E+03  0.10896492988E+03  0.32146598667E+03  0.15294330000E+03 0.  0.
    8880022    1    1    2    0    0 -0.19464334056E+03 -0.17375080318E+03 -0.43331885038E+03  0.52842430938E+03  0.15294330000E+03 0.  0.
<mgrwt>
<rscale>  0 0.30243516E+03</rscale>
<asrwt>0</asrwt>
<pdfrwt beam="1">  1        2 0.90326478E-01 0.30243516E+03</pdfrwt>
<pdfrwt beam="2">  1       -2 0.40425875E-01 0.30243516E+03</pdfrwt>
<totfact> 0.30380736E+02</totfact>
</mgrwt>
</event>
<event>
 4    1  0.3365401E-008  0.5380680E+03  0.7818608E-02  0.1004294E+00
         -2   -1    0    0    0  501 -0.00000000000E+00  0.00000000000E+00  0.43230212757E+03  0.43230212758E+03  0.25500000000E-02 0.  1.
          2   -1    0    0  501    0  0.00000000000E+00 -0.00000000000E+00 -0.94133846243E+03  0.94133846243E+03  0.25500000000E-02 0. -1.
    8880022    1    1    2    0    0  0.62773713763E+02 -0.51204000646E+03 -0.62345980053E+03  0.82354069920E+03  0.15294330000E+03 0.  0.
    8880022    1    1    2    0    0 -0.62773713763E+02  0.51204000646E+03  0.11442346567E+03  0.55009989081E+03  0.15294330000E+03 0.  0.
<mgrwt>
<rscale>  0 0.53806799E+03</rscale>
<asrwt>0</asrwt>
<pdfrwt beam="1">  1        2 0.14482130E+00 0.53806799E+03</pdfrwt>
<pdfrwt beam="2">  1       -2 0.66508020E-01 0.53806799E+03</pdfrwt>
<totfact> 0.59187293E+01</totfact>
</mgrwt>
</event>
<event>
 4    1  0.3365401E-008  0.5952943E+03  0.7818608E-02  0.9915217E-01
         -2   -1    0    0    0  501 -0.00000000000E+00  0.00000000000E+00  0.14102688994E+04  0.14102688994E+04  0.25500000000E-02 0.  1.
          2   -1    0    0  501    0  0.00000000000E+00 -0.00000000000E+00 -0.61294457077E+03  0.61294457077E+03  0.25500000000E-02 0. -1.
    8880022    1    1    2    0    0 -0.50003542954E+03 -0.28451398583E+03 -0.37839478684E+03  0.70537784672E+03  0.15294330000E+03 0.  0.
    8880022    1    1    2    0    0  0.50003542954E+03  0.28451398583E+03  0.11757191155E+04  0.13178356235E+04  0.15294330000E+03 0.  0.
<mgrwt>
<rscale>  0 0.59529429E+03</rscale>
<asrwt>0</asrwt>
<pdfrwt beam="1">  1        2 0.94299166E-01 0.59529429E+03</pdfrwt>
<pdfrwt beam="2">  1       -2 0.21696444E+00 0.59529429E+03</pdfrwt>
<totfact> 0.52236894E+00</totfact>
</mgrwt>
</event>
<event>
 4    1  0.3365401E-008  0.2611321E+03  0.7818608E-02  0.1106465E+00
          2   -1    0    0  501    0  0.00000000000E+00  0.00000000000E+00  0.32025229280E+04  0.32025229280E+04  0.25500000000E-02 0. -1.
         -2   -1    0    0    0  501 -0.00000000000E+00 -0.00000000000E+00 -0.41631714383E+02  0.41631714461E+02  0.25500000000E-02 0.  1.
    8880022    1    1    2    0    0  0.13356987846E+03 -0.16418707213E+03  0.27142175082E+04  0.27267501980E+04  0.15294330000E+03 0. -1.
    8880022    1    1    2    0    0 -0.13356987846E+03  0.16418707213E+03  0.44667370536E+03  0.51740444447E+03  0.15294330000E+03 0.  0.
<mgrwt>
<rscale>  0 0.26113207E+03</rscale>
<asrwt>0</asrwt>
<pdfrwt beam="1">  1        2 0.49269613E+00 0.26113207E+03</pdfrwt>
<pdfrwt beam="2">  1       -2 0.64048753E-02 0.26113207E+03</pdfrwt>
<totfact> 0.21110073E+02</totfact>
</mgrwt>
</event>
