<event>
 4    1  0.4964158E-009  0.1125541E+04  0.7818608E-02  0.9180649E-01
         -1   -1    0    0    0  501 -0.00000000000E+00  0.00000000000E+00  0.18654277594E+04  0.18654277594E+04  0.50400000000E-02 0.  1.
          1   -1    0    0  501    0  0.00000000000E+00 -0.00000000000E+00 -0.89835506582E+03  0.89835506583E+03  0.50400000000E-02 0. -1.
    8880022    1    1    2    0    0  0.28618108887E+03 -0.10777532591E+04 -0.19912933805E+03  0.11430204939E+04  0.15294330000E+03 0.  0.
    8880022    1    1    2    0    0 -0.28618108887E+03  0.10777532591E+04  0.11662020316E+04  0.16207623314E+04  0.15294330000E+03 0.  0.
<mgrwt>
<rscale>  0 0.11255414E+04</rscale>
<asrwt>0</asrwt>
<pdfrwt beam="1">  1        1 0.13820847E+00 0.11255414E+04</pdfrwt>
<pdfrwt beam="2">  1       -1 0.28698888E+00 0.11255414E+04</pdfrwt>
<totfact> 0.72799888E-01</totfact>
</mgrwt>
</event>
<event>
 4    1  0.4964158E-009  0.1112429E+04  0.7818608E-02  0.9193161E-01
          1   -1    0    0  501    0  0.00000000000E+00  0.00000000000E+00  0.10809481973E+04  0.10809481973E+04  0.50400000000E-02 0. -1.
         -1   -1    0    0    0  501 -0.00000000000E+00 -0.00000000000E+00 -0.27285637518E+04  0.27285637518E+04  0.50400000000E-02 0.  1.
    8880022    1    1    2    0    0  0.99387056946E+03  0.47574034583E+03 -0.22749624970E+04  0.25323810142E+04  0.15294330000E+03 0.  0.
    8880022    1    1    2    0    0 -0.99387056946E+03 -0.47574034583E+03  0.62734694251E+03  0.12771309349E+04  0.15294330000E+03 0.  0.
<mgrwt>
<rscale>  0 0.11124294E+04</rscale>
<asrwt>0</asrwt>
<pdfrwt beam="1">  1        1 0.16629972E+00 0.11124294E+04</pdfrwt>
<pdfrwt beam="2">  1       -1 0.41977904E+00 0.11124294E+04</pdfrwt>
<totfact> 0.69011692E-02</totfact>
</mgrwt>
</event>
<event>
 4    1  0.4964158E-009  0.6140816E+03  0.7818608E-02  0.9876614E-01
         -1   -1    0    0    0  501 -0.00000000000E+00  0.00000000000E+00  0.60026091701E+03  0.60026091703E+03  0.50400000000E-02 0.  1.
          1   -1    0    0  501    0  0.00000000000E+00 -0.00000000000E+00 -0.19869318081E+04  0.19869318081E+04  0.50400000000E-02 0. -1.
    8880022    1    1    2    0    0  0.45065075546E+03  0.38809594595E+03 -0.17630573722E+04  0.18669406839E+04  0.15294330000E+03 0.  0.
    8880022    1    1    2    0    0 -0.45065075546E+03 -0.38809594595E+03  0.37638648112E+03  0.72025204119E+03  0.15294330000E+03 0.  0.
<mgrwt>
<rscale>  0 0.61408161E+03</rscale>
<asrwt>0</asrwt>
<pdfrwt beam="1">  1        1 0.30568181E+00 0.61408161E+03</pdfrwt>
<pdfrwt beam="2">  1       -1 0.92347834E-01 0.61408161E+03</pdfrwt>
<totfact> 0.37495698E+00</totfact>
</mgrwt>
</event>
<event>
 4    1  0.4964158E-009  0.2960448E+03  0.7818608E-02  0.1087235E+00
          1   -1    0    0  501    0  0.00000000000E+00  0.00000000000E+00  0.14764886055E+04  0.14764886055E+04  0.50400000000E-02 0. -1.
         -1   -1    0    0    0  501 -0.00000000000E+00 -0.00000000000E+00 -0.88865161200E+03  0.88865161201E+03  0.50400000000E-02 0.  1.
    8880022    1    1    2    0    0 -0.19875970144E+03  0.15730695915E+03 -0.84847333340E+03  0.89863760706E+03  0.15294330000E+03 0.  1.
    8880022    1    1    2    0    0  0.19875970144E+03 -0.15730695915E+03  0.14363103269E+04  0.14665026104E+04  0.15294330000E+03 0.  0.
<mgrwt>
<rscale>  0 0.29604485E+03</rscale>
<asrwt>0</asrwt>
<pdfrwt beam="1">  1        1 0.22715209E+00 0.29604485E+03</pdfrwt>
<pdfrwt beam="2">  1       -1 0.13671563E+00 0.29604485E+03</pdfrwt>
<totfact> 0.35927220E+00</totfact>
</mgrwt>
</event>
<event>
 4    1  0.4964158E-009  0.1546742E+04  0.7818608E-02  0.8853952E-01
         -1   -1    0    0    0  501 -0.00000000000E+00  0.00000000000E+00  0.10438825532E+04  0.10438825532E+04  0.50400000000E-02 0.  1.
          1   -1    0    0  501    0  0.00000000000E+00 -0.00000000000E+00 -0.24668091392E+04  0.24668091392E+04  0.50400000000E-02 0. -1.
    8880022    1    1    2    0    0  0.80514628458E+03  0.13117764912E+04 -0.11789594756E+04  0.19448278074E+04  0.15294330000E+03 0.  0.
    8880022    1    1    2    0    0 -0.80514628458E+03 -0.13117764912E+04 -0.24396711044E+03  0.15658638850E+04  0.15294330000E+03 0.  0.
<mgrwt>
<rscale>  0 0.15467417E+04</rscale>
<asrwt>0</asrwt>
<pdfrwt beam="1">  1        1 0.37950910E+00 0.15467417E+04</pdfrwt>
<pdfrwt beam="2">  1       -1 0.16059732E+00 0.15467417E+04</pdfrwt>
<totfact> 0.38988712E-01</totfact>
</mgrwt>
</event>
<event>
 4    1  0.4964158E-009  0.1210451E+04  0.7818608E-02  0.9103758E-01
          1   -1    0    0  501    0  0.00000000000E+00  0.00000000000E+00  0.14951349505E+04  0.14951349505E+04  0.50400000000E-02 0. -1.
         -1   -1    0    0    0  501 -0.00000000000E+00 -0.00000000000E+00 -0.11630953793E+04  0.11630953793E+04  0.50400000000E-02 0.  1.
    8880022    1    1    2    0    0  0.78838557175E+03  0.90567519070E+03  0.69340305543E+03  0.13949906133E+04  0.15294330000E+03 0.  0.
    8880022    1    1    2    0    0 -0.78838557175E+03 -0.90567519070E+03 -0.36136348415E+03  0.12632397166E+04  0.15294330000E+03 0.  0.
<mgrwt>
<rscale>  0 0.12104507E+04</rscale>
<asrwt>0</asrwt>
<pdfrwt beam="1">  1        1 0.23002076E+00 0.12104507E+04</pdfrwt>
<pdfrwt beam="2">  1       -1 0.17893775E+00 0.12104507E+04</pdfrwt>
<totfact> 0.13668638E+00</totfact>
</mgrwt>
</event>
<event>
 4    1  0.4964158E-009  0.3988675E+03  0.7818608E-02  0.1044173E+00
         -1   -1    0    0    0  501 -0.00000000000E+00  0.00000000000E+00  0.15926155212E+03  0.15926155219E+03  0.50400000000E-02 0.  1.
          1   -1    0    0  501    0  0.00000000000E+00 -0.00000000000E+00 -0.16536130242E+04  0.16536130242E+04  0.50400000000E-02 0. -1.
    8880022    1    1    2    0    0 -0.12390881488E+03  0.34691535362E+03 -0.17684381324E+03  0.43631301181E+03  0.15294330000E+03 0.  0.
    8880022    1    1    2    0    0  0.12390881488E+03 -0.34691535362E+03 -0.13175076589E+04  0.13765615646E+04  0.15294330000E+03 0.  0.
<mgrwt>
<rscale>  0 0.39886753E+03</rscale>
<asrwt>0</asrwt>
<pdfrwt beam="1">  1        1 0.25440199E+00 0.39886753E+03</pdfrwt>
<pdfrwt beam="2">  1       -1 0.24501778E-01 0.39886753E+03</pdfrwt>
<totfact> 0.80030099E+01</totfact>
</mgrwt>
</event>
<event>
 4    1  0.4964158E-009  0.5892005E+03  0.7818608E-02  0.9928068E-01
          1   -1    0    0  501    0  0.00000000000E+00  0.00000000000E+00  0.35315014942E+04  0.35315014942E+04  0.50400000000E-02 0. -1.
         -1   -1    0    0    0  501 -0.00000000000E+00 -0.00000000000E+00 -0.20752792275E+03  0.20752792281E+03  0.50400000000E-02 0.  1.
    8880022    1    1    2    0    0  0.29759545344E+03 -0.48497677741E+03  0.30182734623E+04  0.30752450105E+04  0.15294330000E+03 0. -1.
    8880022    1    1    2    0    0 -0.29759545344E+03  0.48497677741E+03  0.30570010912E+03  0.66378440646E+03  0.15294330000E+03 0.  0.
<mgrwt>
<rscale>  0 0.58920046E+03</rscale>
<asrwt>0</asrwt>
<pdfrwt beam="1">  1        1 0.54330792E+00 0.58920046E+03</pdfrwt>
<pdfrwt beam="2">  1       -1 0.31927373E-01 0.58920046E+03</pdfrwt>
<totfact> 0.24309453E+00</totfact>
</mgrwt>
</event>
<event>
 4    1  0.4964158E-009  0.6281879E+03  0.7818608E-02  0.9848591E-01
         -1   -1    0    0    0  501 -0.00000000000E+00  0.00000000000E+00  0.90553160273E+03  0.90553160275E+03  0.50400000000E-02 0.  1.
          1   -1    0    0  501    0  0.00000000000E+00 -0.00000000000E+00 -0.14113538018E+04  0.14113538018E+04  0.50400000000E-02 0. -1.
    8880022    1    1    2    0    0 -0.73866475657E+02 -0.60479100009E+03 -0.12160409207E+04  0.13687131123E+04  0.15294330000E+03 0.  0.
    8880022    1    1    2    0    0  0.73866475657E+02  0.60479100009E+03  0.71021872169E+03  0.94817229218E+03  0.15294330000E+03 0.  0.
<mgrwt>
<rscale>  0 0.62818792E+03</rscale>
<asrwt>0</asrwt>
<pdfrwt beam="1">  1        1 0.21713135E+00 0.62818792E+03</pdfrwt>
<pdfrwt beam="2">  1       -1 0.13931255E+00 0.62818792E+03</pdfrwt>
<totfact> 0.34192888E+00</totfact>
</mgrwt>
</event>
<event>
 4    1  0.4964158E-009  0.8603738E+03  0.7818608E-02  0.9476518E-01
         -1   -1    0    0    0  501 -0.00000000000E+00  0.00000000000E+00  0.64760345779E+03  0.64760345780E+03  0.50400000000E-02 0.  1.
          1   -1    0    0  501    0  0.00000000000E+00 -0.00000000000E+00 -0.14379616209E+04  0.14379616209E+04  0.50400000000E-02 0. -1.
    8880022    1    1    2    0    0 -0.66583802423E+03  0.52298286047E+03 -0.86742280767E+03  0.12217468343E+04  0.15294330000E+03 0.  0.
    8880022    1    1    2    0    0  0.66583802423E+03 -0.52298286047E+03  0.77064644583E+02  0.86381824438E+03  0.15294330000E+03 0.  0.
<mgrwt>
<rscale>  0 0.86037376E+03</rscale>
<asrwt>0</asrwt>
<pdfrwt beam="1">  1        1 0.22122486E+00 0.86037376E+03</pdfrwt>
<pdfrwt beam="2">  1       -1 0.99631302E-01 0.86037376E+03</pdfrwt>
<totfact> 0.71034622E+00</totfact>
</mgrwt>
</event>
<event>
 4    1  0.4964158E-009  0.4726784E+03  0.7818608E-02  0.1021167E+00
          1   -1    0    0  501    0  0.00000000000E+00  0.00000000000E+00  0.30918996275E+04  0.30918996275E+04  0.50400000000E-02 0. -1.
         -1   -1    0    0    0  501 -0.00000000000E+00 -0.00000000000E+00 -0.11815946980E+04  0.11815946980E+04  0.50400000000E-02 0.  1.
    8880022    1    1    2    0    0 -0.43611281040E+03  0.99190972264E+02  0.30255316877E+04  0.30622323358E+04  0.15294330000E+03 0.  0.
    8880022    1    1    2    0    0  0.43611281040E+03 -0.99190972264E+02 -0.11152267582E+04  0.12112619897E+04  0.15294330000E+03 0.  0.
<mgrwt>
<rscale>  0 0.47267842E+03</rscale>
<asrwt>0</asrwt>
<pdfrwt beam="1">  1        1 0.47567686E+00 0.47267842E+03</pdfrwt>
<pdfrwt beam="2">  1       -1 0.18178380E+00 0.47267842E+03</pdfrwt>
<totfact> 0.12492233E-01</totfact>
</mgrwt>
</event>
<event>
 4    1  0.4964158E-009  0.1202423E+04  0.7818608E-02  0.9110738E-01
         -1   -1    0    0    0  501 -0.00000000000E+00  0.00000000000E+00  0.58515211523E+03  0.58515211525E+03  0.50400000000E-02 0.  1.
          1   -1    0    0  501    0  0.00000000000E+00 -0.00000000000E+00 -0.30584158581E+04  0.30584158581E+04  0.50400000000E-02 0. -1.
    8880022    1    1    2    0    0  0.55059339066E+02  0.11913852297E+04 -0.20351368297E+04  0.23638113006E+04  0.15294330000E+03 0.  0.
    8880022    1    1    2    0    0 -0.55059339066E+02 -0.11913852297E+04 -0.43812691317E+03  0.12797566727E+04  0.15294330000E+03 0.  0.
<mgrwt>
<rscale>  0 0.12024234E+04</rscale>
<asrwt>0</asrwt>
<pdfrwt beam="1">  1        1 0.47052551E+00 0.12024234E+04</pdfrwt>
<pdfrwt beam="2">  1       -1 0.90023404E-01 0.12024234E+04</pdfrwt>
<totfact> 0.65223404E-01</totfact>
</mgrwt>
</event>
<event>
 4    1  0.4964158E-009  0.1376907E+04  0.7818608E-02  0.8970706E-01
          1   -1    0    0  501    0  0.00000000000E+00  0.00000000000E+00  0.17929596580E+04  0.17929596581E+04  0.50400000000E-02 0. -1.
         -1   -1    0    0    0  501 -0.00000000000E+00 -0.00000000000E+00 -0.18758302970E+04  0.18758302970E+04  0.50400000000E-02 0.  1.
    8880022    1    1    2    0    0 -0.12753584707E+04 -0.49592584517E+03  0.11702427754E+04  0.18070255889E+04  0.15294330000E+03 0.  0.
    8880022    1    1    2    0    0  0.12753584707E+04  0.49592584517E+03 -0.12531134144E+04  0.18617643661E+04  0.15294330000E+03 0.  0.
<mgrwt>
<rscale>  0 0.13769072E+04</rscale>
<asrwt>0</asrwt>
<pdfrwt beam="1">  1        1 0.27583995E+00 0.13769072E+04</pdfrwt>
<pdfrwt beam="2">  1       -1 0.28858928E+00 0.13769072E+04</pdfrwt>
<totfact> 0.15468710E-01</totfact>
</mgrwt>
</event>
<event>
 4    1  0.4964158E-009  0.6827312E+03  0.7818608E-02  0.9747229E-01
          1   -1    0    0  501    0  0.00000000000E+00  0.00000000000E+00  0.16623908844E+04  0.16623908844E+04  0.50400000000E-02 0. -1.
         -1   -1    0    0    0  501 -0.00000000000E+00 -0.00000000000E+00 -0.86833910638E+03  0.86833910639E+03  0.50400000000E-02 0.  1.
    8880022    1    1    2    0    0  0.46100107271E+03  0.47980017494E+03  0.14382401292E+04  0.15920604634E+04  0.15294330000E+03 0.  0.
    8880022    1    1    2    0    0 -0.46100107271E+03 -0.47980017494E+03 -0.64418835115E+03  0.93866952741E+03  0.15294330000E+03 0.  0.
<mgrwt>
<rscale>  0 0.68273117E+03</rscale>
<asrwt>0</asrwt>
<pdfrwt beam="1">  1        1 0.25575244E+00 0.68273117E+03</pdfrwt>
<pdfrwt beam="2">  1       -1 0.13359063E+00 0.68273117E+03</pdfrwt>
<totfact> 0.25408219E+00</totfact>
</mgrwt>
</event>
<event>
 4    1  0.4964158E-009  0.3618996E+03  0.7818608E-02  0.1057834E+00
          1   -1    0    0  501    0  0.00000000000E+00  0.00000000000E+00  0.82054163790E+03  0.82054163791E+03  0.50400000000E-02 0. -1.
         -1   -1    0    0    0  501 -0.00000000000E+00 -0.00000000000E+00 -0.21545009685E+03  0.21545009691E+03  0.50400000000E-02 0.  1.
    8880022    1    1    2    0    0  0.20256065420E+03 -0.25797069128E+03  0.38849637039E+02  0.36397890530E+03  0.15294330000E+03 0.  0.
    8880022    1    1    2    0    0 -0.20256065420E+03  0.25797069128E+03  0.56624190401E+03  0.67201282953E+03  0.15294330000E+03 0.  0.
<mgrwt>
<rscale>  0 0.36189964E+03</rscale>
<asrwt>0</asrwt>
<pdfrwt beam="1">  1        1 0.12623717E+00 0.36189964E+03</pdfrwt>
<pdfrwt beam="2">  1       -1 0.33146169E-01 0.36189964E+03</pdfrwt>
<totfact> 0.19008376E+02</totfact>
</mgrwt>
</event>
<event>
 4    1  0.4964158E-009  0.1693271E+04  0.7818608E-02  0.8765212E-01
          1   -1    0    0  501    0  0.00000000000E+00  0.00000000000E+00  0.17902205819E+04  0.17902205819E+04  0.50400000000E-02 0. -1.
         -1   -1    0    0    0  501 -0.00000000000E+00 -0.00000000000E+00 -0.19052871143E+04  0.19052871143E+04  0.50400000000E-02 0.  1.
    8880022    1    1    2    0    0 -0.15534074050E+04 -0.65627687687E+03 -0.79526377086E+03  0.18707244649E+04  0.15294330000E+03 0.  0.
    8880022    1    1    2    0    0  0.15534074050E+04  0.65627687687E+03  0.68019723843E+03  0.18247832313E+04  0.15294330000E+03 0.  0.
<mgrwt>
<rscale>  0 0.16932707E+04</rscale>
<asrwt>0</asrwt>
<pdfrwt beam="1">  1        1 0.27541855E+00 0.16932707E+04</pdfrwt>
<pdfrwt beam="2">  1       -1 0.29312109E+00 0.16932707E+04</pdfrwt>
<totfact> 0.13974090E-01</totfact>
</mgrwt>
</event>
<event>
 4    1  0.4964158E-009  0.3759693E+03  0.7818608E-02  0.1052434E+00
         -1   -1    0    0    0  501 -0.00000000000E+00  0.00000000000E+00  0.22753484361E+03  0.22753484367E+03  0.50400000000E-02 0.  1.
          1   -1    0    0  501    0  0.00000000000E+00 -0.00000000000E+00 -0.85515098487E+03  0.85515098489E+03  0.50400000000E-02 0. -1.
    8880022    1    1    2    0    0  0.34345460389E+03 -0.47117677511E+00 -0.59693400653E+03  0.70546661729E+03  0.15294330000E+03 0.  0.
    8880022    1    1    2    0    0 -0.34345460389E+03  0.47117677511E+00 -0.30682134728E+02  0.37721921127E+03  0.15294330000E+03 0.  1.
<mgrwt>
<rscale>  0 0.37596933E+03</rscale>
<asrwt>0</asrwt>
<pdfrwt beam="1">  1        1 0.13156169E+00 0.37596933E+03</pdfrwt>
<pdfrwt beam="2">  1       -1 0.35005361E-01 0.37596933E+03</pdfrwt>
<totfact> 0.16148571E+02</totfact>
</mgrwt>
</event>
<event>
 4    1  0.4964158E-009  0.9902450E+03  0.7818608E-02  0.9319309E-01
         -1   -1    0    0    0  501 -0.00000000000E+00  0.00000000000E+00  0.10300654163E+04  0.10300654163E+04  0.50400000000E-02 0.  1.
          1   -1    0    0  501    0  0.00000000000E+00 -0.00000000000E+00 -0.11959507181E+04  0.11959507181E+04  0.50400000000E-02 0. -1.
    8880022    1    1    2    0    0  0.97825576286E+03  0.14459373082E+02 -0.58566115966E+03  0.11504712330E+04  0.15294330000E+03 0.  0.
    8880022    1    1    2    0    0 -0.97825576286E+03 -0.14459373082E+02  0.41977585791E+03  0.10755449014E+04  0.15294330000E+03 0.  0.
<mgrwt>
<rscale>  0 0.99024495E+03</rscale>
<asrwt>0</asrwt>
<pdfrwt beam="1">  1        1 0.18399242E+00 0.99024495E+03</pdfrwt>
<pdfrwt beam="2">  1       -1 0.15847160E+00 0.99024495E+03</pdfrwt>
<totfact> 0.32448681E+00</totfact>
</mgrwt>
</event>
<event>
 4    1  0.4964158E-009  0.6339359E+03  0.7818608E-02  0.9837398E-01
          1   -1    0    0  501    0  0.00000000000E+00  0.00000000000E+00  0.11434240693E+04  0.11434240693E+04  0.50400000000E-02 0. -1.
         -1   -1    0    0    0  501 -0.00000000000E+00 -0.00000000000E+00 -0.11493236920E+04  0.11493236920E+04  0.50400000000E-02 0.  1.
    8880022    1    1    2    0    0  0.38496191999E+03  0.47988269829E+03  0.95219189347E+03  0.11439161416E+04  0.15294330000E+03 0.  0.
    8880022    1    1    2    0    0 -0.38496191999E+03 -0.47988269829E+03 -0.95809151624E+03  0.11488316197E+04  0.15294330000E+03 0.  0.
<mgrwt>
<rscale>  0 0.63393591E+03</rscale>
<asrwt>0</asrwt>
<pdfrwt beam="1">  1        1 0.17591140E+00 0.63393591E+03</pdfrwt>
<pdfrwt beam="2">  1       -1 0.17681903E+00 0.63393591E+03</pdfrwt>
<totfact> 0.27498567E+00</totfact>
</mgrwt>
</event>
<event>
 4    1  0.4964158E-009  0.4075572E+03  0.7818608E-02  0.1041194E+00
          1   -1    0    0  501    0  0.00000000000E+00  0.00000000000E+00  0.15726470729E+04  0.15726470729E+04  0.50400000000E-02 0. -1.
         -1   -1    0    0    0  501 -0.00000000000E+00 -0.00000000000E+00 -0.22217745772E+03  0.22217745778E+03  0.50400000000E-02 0.  1.
    8880022    1    1    2    0    0  0.29535317905E+03 -0.23553708976E+03  0.13252330281E+04  0.13864867301E+04  0.15294330000E+03 0.  0.
    8880022    1    1    2    0    0 -0.29535317905E+03  0.23553708976E+03  0.25236587076E+02  0.40833780056E+03  0.15294330000E+03 0.  0.
<mgrwt>
<rscale>  0 0.40755720E+03</rscale>
<asrwt>0</asrwt>
<pdfrwt beam="1">  1        1 0.24194570E+00 0.40755720E+03</pdfrwt>
<pdfrwt beam="2">  1       -1 0.34181148E-01 0.40755720E+03</pdfrwt>
<totfact> 0.51090726E+01</totfact>
</mgrwt>
</event>
<event>
 4    1  0.4964158E-009  0.4230081E+03  0.7818608E-02  0.1036092E+00
         -1   -1    0    0    0  501 -0.00000000000E+00  0.00000000000E+00  0.52475078280E+03  0.52475078282E+03  0.50400000000E-02 0.  1.
          1   -1    0    0  501    0  0.00000000000E+00 -0.00000000000E+00 -0.15964127829E+04  0.15964127829E+04  0.50400000000E-02 0. -1.
    8880022    1    1    2    0    0 -0.38215940774E+03 -0.97459454422E+02 -0.14763470785E+04  0.15357527494E+04  0.15294330000E+03 0.  0.
    8880022    1    1    2    0    0  0.38215940774E+03  0.97459454422E+02  0.40468507838E+03  0.58541081631E+03  0.15294330000E+03 0.  0.
<mgrwt>
<rscale>  0 0.42300805E+03</rscale>
<asrwt>0</asrwt>
<pdfrwt beam="1">  1        1 0.24560196E+00 0.42300805E+03</pdfrwt>
<pdfrwt beam="2">  1       -1 0.80730890E-01 0.42300805E+03</pdfrwt>
<totfact> 0.95531752E+00</totfact>
</mgrwt>
</event>
<event>
 4    1  0.4964158E-009  0.6125596E+03  0.7818608E-02  0.9879686E-01
         -1   -1    0    0    0  501 -0.00000000000E+00  0.00000000000E+00  0.12284885318E+04  0.12284885318E+04  0.50400000000E-02 0.  1.
          1   -1    0    0  501    0  0.00000000000E+00 -0.00000000000E+00 -0.10799835768E+04  0.10799835768E+04  0.50400000000E-02 0. -1.
    8880022    1    1    2    0    0  0.38710316730E+03 -0.44943151762E+03 -0.90323018876E+03  0.10913541946E+04  0.15294330000E+03 0.  0.
    8880022    1    1    2    0    0 -0.38710316730E+03  0.44943151762E+03  0.10517351437E+04  0.12171179140E+04  0.15294330000E+03 0.  0.
<mgrwt>
<rscale>  0 0.61255955E+03</rscale>
<asrwt>0</asrwt>
<pdfrwt beam="1">  1        1 0.16615132E+00 0.61255955E+03</pdfrwt>
<pdfrwt beam="2">  1       -1 0.18899824E+00 0.61255955E+03</pdfrwt>
<totfact> 0.25247893E+00</totfact>
</mgrwt>
</event>
<event>
 4    1  0.4964158E-009  0.1050469E+04  0.7818608E-02  0.9254860E-01
         -1   -1    0    0    0  501 -0.00000000000E+00  0.00000000000E+00  0.13905465357E+04  0.13905465357E+04  0.50400000000E-02 0.  1.
          1   -1    0    0  501    0  0.00000000000E+00 -0.00000000000E+00 -0.12643044037E+04  0.12643044038E+04  0.50400000000E-02 0. -1.
    8880022    1    1    2    0    0 -0.75317582998E+03  0.71611462961E+03  0.87310374213E+03  0.13659413571E+04  0.15294330000E+03 0.  0.
    8880022    1    1    2    0    0  0.75317582998E+03 -0.71611462961E+03 -0.74686161018E+03  0.12889095823E+04  0.15294330000E+03 0.  0.
<mgrwt>
<rscale>  0 0.10504693E+04</rscale>
<asrwt>0</asrwt>
<pdfrwt beam="1">  1        1 0.19450837E+00 0.10504693E+04</pdfrwt>
<pdfrwt beam="2">  1       -1 0.21393024E+00 0.10504693E+04</pdfrwt>
<totfact> 0.11591600E+00</totfact>
</mgrwt>
</event>
<event>
 4    1  0.4964158E-009  0.1734191E+03  0.7818608E-02  0.1174328E+00
          1   -1    0    0  501    0  0.00000000000E+00  0.00000000000E+00  0.19709884138E+04  0.19709884138E+04  0.50400000000E-02 0. -1.
         -1   -1    0    0    0  501 -0.00000000000E+00 -0.00000000000E+00 -0.45572211337E+03  0.45572211340E+03  0.50400000000E-02 0.  1.
    8880022    1    1    2    0    0 -0.66271850077E+02  0.47860088595E+02  0.19505027688E+04  0.19581969386E+04  0.15294330000E+03 0. -1.
    8880022    1    1    2    0    0  0.66271850077E+02 -0.47860088595E+02 -0.43523646843E+03  0.46851358856E+03  0.15294330000E+03 0.  0.
<mgrwt>
<rscale>  0 0.17341914E+03</rscale>
<asrwt>0</asrwt>
<pdfrwt beam="1">  1        1 0.30322899E+00 0.17341914E+03</pdfrwt>
<pdfrwt beam="2">  1       -1 0.70111094E-01 0.17341914E+03</pdfrwt>
<totfact> 0.81445724E+00</totfact>
</mgrwt>
</event>
<event>
 4    1  0.4964158E-009  0.7524502E+03  0.7818608E-02  0.9631514E-01
         -1   -1    0    0    0  501 -0.00000000000E+00  0.00000000000E+00  0.58073470319E+03  0.58073470321E+03  0.50400000000E-02 0.  1.
          1   -1    0    0  501    0  0.00000000000E+00 -0.00000000000E+00 -0.10045610047E+04  0.10045610048E+04  0.50400000000E-02 0. -1.
    8880022    1    1    2    0    0 -0.51423483797E+03  0.52759087511E+03 -0.75801583951E+02  0.75625864175E+03  0.15294330000E+03 0.  0.
    8880022    1    1    2    0    0  0.51423483797E+03 -0.52759087511E+03 -0.34802471761E+03  0.82903706621E+03  0.15294330000E+03 0.  0.
<mgrwt>
<rscale>  0 0.75245017E+03</rscale>
<asrwt>0</asrwt>
<pdfrwt beam="1">  1        1 0.15454785E+00 0.75245017E+03</pdfrwt>
<pdfrwt beam="2">  1       -1 0.89343800E-01 0.75245017E+03</pdfrwt>
<totfact> 0.18959964E+01</totfact>
</mgrwt>
</event>
<event>
 4    1  0.4964158E-009  0.5526199E+03  0.7818608E-02  0.1000889E+00
         -1   -1    0    0    0  501 -0.00000000000E+00  0.00000000000E+00  0.79093711111E+03  0.79093711112E+03  0.50400000000E-02 0.  1.
          1   -1    0    0  501    0  0.00000000000E+00 -0.00000000000E+00 -0.51136850186E+03  0.51136850188E+03  0.50400000000E-02 0. -1.
    8880022    1    1    2    0    0 -0.43812258972E+03  0.30007608322E+03  0.46205407573E+03  0.72033511733E+03  0.15294330000E+03 0.  0.
    8880022    1    1    2    0    0  0.43812258972E+03 -0.30007608322E+03 -0.18248546648E+03  0.58197049568E+03  0.15294330000E+03 0.  0.
<mgrwt>
<rscale>  0 0.55261986E+03</rscale>
<asrwt>0</asrwt>
<pdfrwt beam="1">  1        1 0.78672077E-01 0.55261986E+03</pdfrwt>
<pdfrwt beam="2">  1       -1 0.12168263E+00 0.55261986E+03</pdfrwt>
<totfact> 0.26946408E+01</totfact>
</mgrwt>
</event>
<event>
 4    1  0.4964158E-009  0.9357585E+03  0.7818608E-02  0.9381953E-01
         -1   -1    0    0    0  501 -0.00000000000E+00  0.00000000000E+00  0.15321105274E+04  0.15321105274E+04  0.50400000000E-02 0.  1.
          1   -1    0    0  501    0  0.00000000000E+00 -0.00000000000E+00 -0.15489671639E+04  0.15489671639E+04  0.50400000000E-02 0. -1.
    8880022    1    1    2    0    0 -0.78345125951E+03 -0.48832003821E+03  0.12153321713E+04  0.15338436280E+04  0.15294330000E+03 0.  0.
    8880022    1    1    2    0    0  0.78345125951E+03  0.48832003821E+03 -0.12321888077E+04  0.15472340633E+04  0.15294330000E+03 0.  0.
<mgrwt>
<rscale>  0 0.93575851E+03</rscale>
<asrwt>0</asrwt>
<pdfrwt beam="1">  1        1 0.23830264E+00 0.93575851E+03</pdfrwt>
<pdfrwt beam="2">  1       -1 0.23570931E+00 0.93575851E+03</pdfrwt>
<totfact> 0.53477232E-01</totfact>
</mgrwt>
</event>
<event>
 4    1  0.4964158E-009  0.1303451E+04  0.7818608E-02  0.9026833E-01
          1   -1    0    0  501    0  0.00000000000E+00  0.00000000000E+00  0.25769397916E+04  0.25769397916E+04  0.50400000000E-02 0. -1.
         -1   -1    0    0    0  501 -0.00000000000E+00 -0.00000000000E+00 -0.87880609603E+03  0.87880609605E+03  0.50400000000E-02 0.  1.
    8880022    1    1    2    0    0 -0.30914393319E+03  0.12569899959E+04  0.17126120687E+04  0.21522141092E+04  0.15294330000E+03 0.  0.
    8880022    1    1    2    0    0  0.30914393319E+03 -0.12569899959E+04 -0.14478373108E+02  0.13035317784E+04  0.15294330000E+03 0.  0.
<mgrwt>
<rscale>  0 0.13034514E+04</rscale>
<asrwt>0</asrwt>
<pdfrwt beam="1">  1        1 0.39645228E+00 0.13034514E+04</pdfrwt>
<pdfrwt beam="2">  1       -1 0.13520094E+00 0.13034514E+04</pdfrwt>
<totfact> 0.53557993E-01</totfact>
</mgrwt>
</event>
<event>
 4    1  0.4964158E-009  0.3815839E+03  0.7818608E-02  0.1050350E+00
         -1   -1    0    0    0  501 -0.00000000000E+00  0.00000000000E+00  0.38974657702E+03  0.38974657705E+03  0.50400000000E-02 0.  1.
          1   -1    0    0  501    0  0.00000000000E+00 -0.00000000000E+00 -0.22976877574E+04  0.22976877574E+04  0.50400000000E-02 0. -1.
    8880022    1    1    2    0    0  0.34690463464E+03 -0.43263862582E+02  0.27566292201E+03  0.47074014798E+03  0.15294330000E+03 0.  0.
    8880022    1    1    2    0    0 -0.34690463464E+03  0.43263862582E+02 -0.21836041024E+04  0.22166941864E+04  0.15294330000E+03 0.  0.
<mgrwt>
<rscale>  0 0.38158386E+03</rscale>
<asrwt>0</asrwt>
<pdfrwt beam="1">  1        1 0.35349042E+00 0.38158386E+03</pdfrwt>
<pdfrwt beam="2">  1       -1 0.59961013E-01 0.38158386E+03</pdfrwt>
<totfact> 0.60855935E+00</totfact>
</mgrwt>
</event>
<event>
 4    1  0.4964158E-009  0.5193186E+03  0.7818608E-02  0.1008856E+00
         -1   -1    0    0    0  501 -0.00000000000E+00  0.00000000000E+00  0.41186752038E+03  0.41186752041E+03  0.50400000000E-02 0.  1.
          1   -1    0    0  501    0  0.00000000000E+00 -0.00000000000E+00 -0.11863748086E+04  0.11863748086E+04  0.50400000000E-02 0. -1.
    8880022    1    1    2    0    0  0.44260968416E+03 -0.22449226403E+03  0.14765912869E+03  0.53990275090E+03  0.15294330000E+03 0.  0.
    8880022    1    1    2    0    0 -0.44260968416E+03  0.22449226403E+03 -0.92216641692E+03  0.10583395781E+04  0.15294330000E+03 0.  0.
<mgrwt>
<rscale>  0 0.51931856E+03</rscale>
<asrwt>0</asrwt>
<pdfrwt beam="1">  1        1 0.18251920E+00 0.51931856E+03</pdfrwt>
<pdfrwt beam="2">  1       -1 0.63364234E-01 0.51931856E+03</pdfrwt>
<totfact> 0.29357463E+01</totfact>
</mgrwt>
</event>
<event>
 4    1  0.4964158E-009  0.1696330E+03  0.7818608E-02  0.1178231E+00
          1   -1    0    0  501    0  0.00000000000E+00  0.00000000000E+00  0.40106600553E+03  0.40106600556E+03  0.50400000000E-02 0. -1.
         -1   -1    0    0    0  501 -0.00000000000E+00 -0.00000000000E+00 -0.83251304115E+02  0.83251304268E+02  0.50400000000E-02 0.  1.
    8880022    1    1    2    0    0  0.73356082407E+02 -0.16094289247E+01  0.68888989381E+02  0.18308754999E+03  0.15294330000E+03 0.  0.
    8880022    1    1    2    0    0 -0.73356082407E+02  0.16094289247E+01  0.24892571203E+03  0.30122975984E+03  0.15294330000E+03 0.  0.
<mgrwt>
<rscale>  0 0.16963301E+03</rscale>
<asrwt>0</asrwt>
<pdfrwt beam="1">  1        1 0.61702463E-01 0.16963301E+03</pdfrwt>
<pdfrwt beam="2">  1       -1 0.12807893E-01 0.16963301E+03</pdfrwt>
<totfact> 0.24544524E+03</totfact>
</mgrwt>
</event>
<event>
 4    1  0.4964158E-009  0.7978877E+03  0.7818608E-02  0.9563080E-01
          1   -1    0    0  501    0  0.00000000000E+00  0.00000000000E+00  0.42024395919E+03  0.42024395922E+03  0.50400000000E-02 0. -1.
         -1   -1    0    0    0  501 -0.00000000000E+00 -0.00000000000E+00 -0.26992369611E+04  0.26992369611E+04  0.50400000000E-02 0.  1.
    8880022    1    1    2    0    0 -0.77135050731E+03 -0.13509797585E+03 -0.10632904428E+03  0.80494135617E+03  0.15294330000E+03 0.  0.
    8880022    1    1    2    0    0  0.77135050731E+03  0.13509797585E+03 -0.21726639576E+04  0.23145395642E+04  0.15294330000E+03 0.  0.
<mgrwt>
<rscale>  0 0.79788766E+03</rscale>
<asrwt>0</asrwt>
<pdfrwt beam="1">  1        1 0.64652919E-01 0.79788766E+03</pdfrwt>
<pdfrwt beam="2">  1       -1 0.41526721E+00 0.79788766E+03</pdfrwt>
<totfact> 0.33565494E-01</totfact>
</mgrwt>
</event>
<event>
 4    1  0.4964158E-009  0.6982037E+03  0.7818608E-02  0.9720309E-01
         -1   -1    0    0    0  501 -0.00000000000E+00  0.00000000000E+00  0.16722674643E+04  0.16722674643E+04  0.50400000000E-02 0.  1.
          1   -1    0    0  501    0  0.00000000000E+00 -0.00000000000E+00 -0.75188762699E+03  0.75188762700E+03  0.50400000000E-02 0. -1.
    8880022    1    1    2    0    0 -0.53737673891E+03 -0.41871580999E+03  0.14086290129E+04  0.15721717585E+04  0.15294330000E+03 0.  0.
    8880022    1    1    2    0    0  0.53737673891E+03  0.41871580999E+03 -0.48824917557E+03  0.85198333289E+03  0.15294330000E+03 0.  0.
<mgrwt>
<rscale>  0 0.69820365E+03</rscale>
<asrwt>0</asrwt>
<pdfrwt beam="1">  1        1 0.11567502E+00 0.69820365E+03</pdfrwt>
<pdfrwt beam="2">  1       -1 0.25727191E+00 0.69820365E+03</pdfrwt>
<totfact> 0.16144429E+00</totfact>
</mgrwt>
</event>
<event>
 4    1  0.4964158E-009  0.6187180E+03  0.7818608E-02  0.9867315E-01
         -1   -1    0    0    0  501 -0.00000000000E+00  0.00000000000E+00  0.66398640230E+03  0.66398640232E+03  0.50400000000E-02 0.  1.
          1   -1    0    0  501    0  0.00000000000E+00 -0.00000000000E+00 -0.15481477562E+04  0.15481477562E+04  0.50400000000E-02 0. -1.
    8880022    1    1    2    0    0 -0.17770228889E+03  0.57257510603E+03 -0.13183178263E+04  0.14562877118E+04  0.15294330000E+03 0.  0.
    8880022    1    1    2    0    0  0.17770228889E+03 -0.57257510603E+03  0.43415647235E+03  0.75584644672E+03  0.15294330000E+03 0.  0.
<mgrwt>
<rscale>  0 0.61871804E+03</rscale>
<asrwt>0</asrwt>
<pdfrwt beam="1">  1        1 0.23817658E+00 0.61871804E+03</pdfrwt>
<pdfrwt beam="2">  1       -1 0.10215176E+00 0.61871804E+03</pdfrwt>
<totfact> 0.58666876E+00</totfact>
</mgrwt>
</event>
<event>
 4    1  0.4964158E-009  0.1164814E+04  0.7818608E-02  0.9144225E-01
         -1   -1    0    0    0  501 -0.00000000000E+00  0.00000000000E+00  0.13927453794E+04  0.13927453794E+04  0.50400000000E-02 0.  1.
          1   -1    0    0  501    0  0.00000000000E+00 -0.00000000000E+00 -0.11181059899E+04  0.11181059899E+04  0.50400000000E-02 0. -1.
    8880022    1    1    2    0    0 -0.58608953744E+03  0.99493651628E+03  0.58773382915E+03  0.13046924252E+04  0.15294330000E+03 0.  0.
    8880022    1    1    2    0    0  0.58608953744E+03 -0.99493651628E+03 -0.31309443962E+03  0.12061589441E+04  0.15294330000E+03 0.  0.
<mgrwt>
<rscale>  0 0.11648138E+04</rscale>
<asrwt>0</asrwt>
<pdfrwt beam="1">  1        1 0.17201631E+00 0.11648138E+04</pdfrwt>
<pdfrwt beam="2">  1       -1 0.21426852E+00 0.11648138E+04</pdfrwt>
<totfact> 0.14550998E+00</totfact>
</mgrwt>
</event>
<event>
 4    1  0.4964158E-009  0.1077057E+04  0.7818608E-02  0.9227846E-01
          1   -1    0    0  501    0  0.00000000000E+00  0.00000000000E+00  0.17370599448E+04  0.17370599448E+04  0.50400000000E-02 0. -1.
         -1   -1    0    0    0  501 -0.00000000000E+00 -0.00000000000E+00 -0.10649374519E+04  0.10649374519E+04  0.50400000000E-02 0.  1.
    8880022    1    1    2    0    0  0.99576119810E+03  0.38094713438E+03 -0.51946279928E+03  0.11957818930E+04  0.15294330000E+03 0.  0.
    8880022    1    1    2    0    0 -0.99576119810E+03 -0.38094713438E+03  0.11915852922E+04  0.16062155037E+04  0.15294330000E+03 0.  0.
<mgrwt>
<rscale>  0 0.10770574E+04</rscale>
<asrwt>0</asrwt>
<pdfrwt beam="1">  1        1 0.26723999E+00 0.10770574E+04</pdfrwt>
<pdfrwt beam="2">  1       -1 0.16383653E+00 0.10770574E+04</pdfrwt>
<totfact> 0.12256389E+00</totfact>
</mgrwt>
</event>
<event>
 4    1  0.4964158E-009  0.5479259E+03  0.7818608E-02  0.1001975E+00
          1   -1    0    0  501    0  0.00000000000E+00  0.00000000000E+00  0.98109428057E+03  0.98109428058E+03  0.50400000000E-02 0. -1.
         -1   -1    0    0    0  501 -0.00000000000E+00 -0.00000000000E+00 -0.15449433032E+04  0.15449433032E+04  0.50400000000E-02 0.  1.
    8880022    1    1    2    0    0  0.26232074693E+03 -0.45609100498E+03  0.84911513749E+03  0.10105539811E+04  0.15294330000E+03 0.  0.
    8880022    1    1    2    0    0 -0.26232074693E+03  0.45609100498E+03 -0.14129641601E+04  0.15154836026E+04  0.15294330000E+03 0.  0.
<mgrwt>
<rscale>  0 0.54792594E+03</rscale>
<asrwt>0</asrwt>
<pdfrwt beam="1">  1        1 0.15093758E+00 0.54792594E+03</pdfrwt>
<pdfrwt beam="2">  1       -1 0.23768358E+00 0.54792594E+03</pdfrwt>
<totfact> 0.14424513E+00</totfact>
</mgrwt>
</event>
<event>
 4    1  0.4964158E-009  0.8682699E+03  0.7818608E-02  0.9466139E-01
         -1   -1    0    0    0  501 -0.00000000000E+00  0.00000000000E+00  0.47722762947E+03  0.47722762949E+03  0.50400000000E-02 0.  1.
          1   -1    0    0  501    0  0.00000000000E+00 -0.00000000000E+00 -0.21058966968E+04  0.21058966968E+04  0.50400000000E-02 0. -1.
    8880022    1    1    2    0    0 -0.72108930199E+03 -0.45883669436E+03 -0.14599247683E+04  0.16986091003E+04  0.15294330000E+03 0.  0.
    8880022    1    1    2    0    0  0.72108930199E+03  0.45883669436E+03 -0.16874429903E+03  0.88451522598E+03  0.15294330000E+03 0.  0.
<mgrwt>
<rscale>  0 0.86826986E+03</rscale>
<asrwt>0</asrwt>
<pdfrwt beam="1">  1        1 0.32398410E+00 0.86826986E+03</pdfrwt>
<pdfrwt beam="2">  1       -1 0.73419636E-01 0.86826986E+03</pdfrwt>
<totfact> 0.48690602E+00</totfact>
</mgrwt>
</event>
<event>
 4    1  0.4964158E-009  0.1039681E+04  0.7818608E-02  0.9266063E-01
         -1   -1    0    0    0  501 -0.00000000000E+00  0.00000000000E+00  0.16046230875E+04  0.16046230875E+04  0.50400000000E-02 0.  1.
          1   -1    0    0  501    0  0.00000000000E+00 -0.00000000000E+00 -0.85192391679E+03  0.85192391680E+03  0.50400000000E-02 0. -1.
    8880022    1    1    2    0    0 -0.60328746539E+03  0.83282019397E+03  0.93824026103E+03  0.14004398173E+04  0.15294330000E+03 0.  0.
    8880022    1    1    2    0    0  0.60328746539E+03 -0.83282019397E+03 -0.18554109028E+03  0.10561071871E+04  0.15294330000E+03 0.  0.
<mgrwt>
<rscale>  0 0.10396812E+04</rscale>
<asrwt>0</asrwt>
<pdfrwt beam="1">  1        1 0.13106522E+00 0.10396812E+04</pdfrwt>
<pdfrwt beam="2">  1       -1 0.24686509E+00 0.10396812E+04</pdfrwt>
<totfact> 0.14618118E+00</totfact>
</mgrwt>
</event>
<event>
 4    1  0.4964158E-009  0.2007804E+03  0.7818608E-02  0.1149082E+00
         -1   -1    0    0    0  501 -0.00000000000E+00  0.00000000000E+00  0.10350757818E+03  0.10350757830E+03  0.50400000000E-02 0.  1.
          1   -1    0    0  501    0  0.00000000000E+00 -0.00000000000E+00 -0.40466970871E+03  0.40466970874E+03  0.50400000000E-02 0. -1.
    8880022    1    1    2    0    0  0.12471641001E+03  0.36971920995E+02 -0.10133187054E+03  0.22490199392E+03  0.15294330000E+03 0.  1.
    8880022    1    1    2    0    0 -0.12471641001E+03 -0.36971920995E+02 -0.19983025999E+03  0.28327529312E+03  0.15294330000E+03 0. -1.
<mgrwt>
<rscale>  0 0.20078037E+03</rscale>
<asrwt>0</asrwt>
<pdfrwt beam="1">  1        1 0.62256878E-01 0.20078037E+03</pdfrwt>
<pdfrwt beam="2">  1       -1 0.15924243E-01 0.20078037E+03</pdfrwt>
<totfact> 0.17303522E+03</totfact>
</mgrwt>
</event>
<event>
 4    1  0.4964158E-009  0.5429830E+03  0.7818608E-02  0.1003131E+00
          1   -1    0    0  501    0  0.00000000000E+00  0.00000000000E+00  0.27480460674E+04  0.27480460674E+04  0.50400000000E-02 0. -1.
         -1   -1    0    0    0  501 -0.00000000000E+00 -0.00000000000E+00 -0.14675503888E+03  0.14675503896E+03  0.50400000000E-02 0.  1.
    8880022    1    1    2    0    0 -0.51009145342E+03 -0.10604547452E+03  0.20512532899E+04  0.21219026004E+04  0.15294330000E+03 0.  0.
    8880022    1    1    2    0    0  0.51009145342E+03  0.10604547452E+03  0.55003773864E+03  0.77289850592E+03  0.15294330000E+03 0.  0.
<mgrwt>
<rscale>  0 0.54298304E+03</rscale>
<asrwt>0</asrwt>
<pdfrwt beam="1">  1        1 0.42277635E+00 0.54298304E+03</pdfrwt>
<pdfrwt beam="2">  1       -1 0.22577697E-01 0.54298304E+03</pdfrwt>
<totfact> 0.16549687E+01</totfact>
</mgrwt>
</event>
<event>
 4    1  0.4964158E-009  0.9255621E+03  0.7818608E-02  0.9394180E-01
         -1   -1    0    0    0  501 -0.00000000000E+00  0.00000000000E+00  0.78249854065E+03  0.78249854066E+03  0.50400000000E-02 0.  1.
          1   -1    0    0  501    0  0.00000000000E+00 -0.00000000000E+00 -0.20988255940E+04  0.20988255940E+04  0.50400000000E-02 0. -1.
    8880022    1    1    2    0    0 -0.91283152865E+03  0.34790808421E+01 -0.16546015115E+04  0.18958827281E+04  0.15294330000E+03 0.  0.
    8880022    1    1    2    0    0  0.91283152865E+03 -0.34790808421E+01  0.33827445819E+03  0.98544140656E+03  0.15294330000E+03 0.  0.
<mgrwt>
<rscale>  0 0.92556208E+03</rscale>
<asrwt>0</asrwt>
<pdfrwt beam="1">  1        1 0.32289624E+00 0.92556208E+03</pdfrwt>
<pdfrwt beam="2">  1       -1 0.12038439E+00 0.92556208E+03</pdfrwt>
<totfact> 0.16060749E+00</totfact>
</mgrwt>
</event>
<event>
 4    1  0.4964158E-009  0.6133711E+03  0.7818608E-02  0.9878047E-01
         -1   -1    0    0    0  501 -0.00000000000E+00  0.00000000000E+00  0.14851101213E+04  0.14851101213E+04  0.50400000000E-02 0.  1.
          1   -1    0    0  501    0  0.00000000000E+00 -0.00000000000E+00 -0.42977408646E+03  0.42977408649E+03  0.50400000000E-02 0. -1.
    8880022    1    1    2    0    0 -0.58573931438E+03 -0.98700828933E+02 -0.85804409593E+02  0.61934356197E+03  0.15294330000E+03 0.  0.
    8880022    1    1    2    0    0  0.58573931438E+03  0.98700828933E+02  0.11411404444E+04  0.12955406458E+04  0.15294330000E+03 0.  0.
<mgrwt>
<rscale>  0 0.61337105E+03</rscale>
<asrwt>0</asrwt>
<pdfrwt beam="1">  1        1 0.66119090E-01 0.61337105E+03</pdfrwt>
<pdfrwt beam="2">  1       -1 0.22847848E+00 0.61337105E+03</pdfrwt>
<totfact> 0.55769416E+00</totfact>
</mgrwt>
</event>
<event>
 4    1  0.4964158E-009  0.9685008E+03  0.7818608E-02  0.9343784E-01
         -1   -1    0    0    0  501 -0.00000000000E+00  0.00000000000E+00  0.76030569172E+03  0.76030569174E+03  0.50400000000E-02 0.  1.
          1   -1    0    0  501    0  0.00000000000E+00 -0.00000000000E+00 -0.18810458638E+04  0.18810458638E+04  0.50400000000E-02 0. -1.
    8880022    1    1    2    0    0 -0.92745963911E+03 -0.23328241199E+03  0.21438187682E+03  0.99194420611E+03  0.15294330000E+03 0.  0.
    8880022    1    1    2    0    0  0.92745963911E+03  0.23328241199E+03 -0.13351220489E+04  0.16494073494E+04  0.15294330000E+03 0.  0.
<mgrwt>
<rscale>  0 0.96850076E+03</rscale>
<asrwt>0</asrwt>
<pdfrwt beam="1">  1        1 0.28939167E+00 0.96850076E+03</pdfrwt>
<pdfrwt beam="2">  1       -1 0.11697011E+00 0.96850076E+03</pdfrwt>
<totfact> 0.23978086E+00</totfact>
</mgrwt>
</event>
<event>
 4    1  0.4964158E-009  0.4511250E+03  0.7818608E-02  0.1027387E+00
         -1   -1    0    0    0  501 -0.00000000000E+00  0.00000000000E+00  0.85477131391E+03  0.85477131393E+03  0.50400000000E-02 0.  1.
          1   -1    0    0  501    0  0.00000000000E+00 -0.00000000000E+00 -0.66891413874E+03  0.66891413876E+03  0.50400000000E-02 0. -1.
    8880022    1    1    2    0    0  0.42169559341E+03  0.47905543782E+02 -0.51847700323E+03  0.68726426542E+03  0.15294330000E+03 0.  0.
    8880022    1    1    2    0    0 -0.42169559341E+03 -0.47905543782E+02  0.70433417841E+03  0.83642118727E+03  0.15294330000E+03 0.  0.
<mgrwt>
<rscale>  0 0.45112500E+03</rscale>
<asrwt>0</asrwt>
<pdfrwt beam="1">  1        1 0.10290987E+00 0.45112500E+03</pdfrwt>
<pdfrwt beam="2">  1       -1 0.13150328E+00 0.45112500E+03</pdfrwt>
<totfact> 0.15475736E+01</totfact>
</mgrwt>
</event>
<event>
 4    1  0.7142681E-009  0.7470471E+03  0.7818608E-02  0.9639994E-01
         -1   -1    0    0    0  501 -0.00000000000E+00  0.00000000000E+00  0.23028931711E+04  0.23028931711E+04  0.50400000000E-02 0.  1.
          1   -1    0    0  501    0  0.00000000000E+00 -0.00000000000E+00 -0.18076571864E+04  0.18076571864E+04  0.50400000000E-02 0. -1.
    8880022    1    1    2    0    0 -0.27064671229E+03  0.67929228510E+03 -0.16649344335E+04  0.18248523152E+04  0.15294330000E+03 0.  0.
    8880022    1    1    2    0    0  0.27064671229E+03 -0.67929228510E+03  0.21601704182E+04  0.22856980422E+04  0.15294330000E+03 0.  0.
<mgrwt>
<rscale>  0 0.74704706E+03</rscale>
<asrwt>0</asrwt>
<pdfrwt beam="1">  1        1 0.27810110E+00 0.74704706E+03</pdfrwt>
<pdfrwt beam="2">  1       -1 0.35429126E+00 0.74704706E+03</pdfrwt>
<totfact> 0.64023862E-02</totfact>
</mgrwt>
</event>
<event>
 4    1  0.4964158E-009  0.1908594E+04  0.7818608E-02  0.8650590E-01
          1   -1    0    0  501    0  0.00000000000E+00  0.00000000000E+00  0.13375587694E+04  0.13375587695E+04  0.50400000000E-02 0. -1.
         -1   -1    0    0    0  501 -0.00000000000E+00 -0.00000000000E+00 -0.31947363011E+04  0.31947363011E+04  0.50400000000E-02 0.  1.
    8880022    1    1    2    0    0 -0.55907205347E+02  0.19016344016E+04 -0.17990073517E+04  0.26228149225E+04  0.15294330000E+03 0.  0.
    8880022    1    1    2    0    0  0.55907205347E+02 -0.19016344016E+04 -0.58170179952E+02  0.19094801481E+04  0.15294330000E+03 0.  0.
<mgrwt>
<rscale>  0 0.19085939E+04</rscale>
<asrwt>0</asrwt>
<pdfrwt beam="1">  1        1 0.20577827E+00 0.19085939E+04</pdfrwt>
<pdfrwt beam="2">  1       -1 0.49149789E+00 0.19085939E+04</pdfrwt>
<totfact> 0.12925210E-02</totfact>
</mgrwt>
</event>
<event>
 4    1  0.4964158E-009  0.2745300E+03  0.7818608E-02  0.1098715E+00
          1   -1    0    0  501    0  0.00000000000E+00  0.00000000000E+00  0.48461443843E+03  0.48461443846E+03  0.50400000000E-02 0. -1.
         -1   -1    0    0    0  501 -0.00000000000E+00 -0.00000000000E+00 -0.11206074923E+04  0.11206074923E+04  0.50400000000E-02 0.  1.
    8880022    1    1    2    0    0 -0.55656198976E+02  0.22108244793E+03  0.42684162590E+03  0.50750417524E+03  0.15294330000E+03 0. -1.
    8880022    1    1    2    0    0  0.55656198976E+02 -0.22108244793E+03 -0.10628346798E+04  0.10977177556E+04  0.15294330000E+03 0.  0.
<mgrwt>
<rscale>  0 0.27452999E+03</rscale>
<asrwt>0</asrwt>
<pdfrwt beam="1">  1        1 0.74556068E-01 0.27452999E+03</pdfrwt>
<pdfrwt beam="2">  1       -1 0.17240115E+00 0.27452999E+03</pdfrwt>
<totfact> 0.12356672E+01</totfact>
</mgrwt>
</event>
<event>
 4    1  0.1080394E-008  0.1772095E+04  0.7818608E-02  0.8721282E-01
         -1   -1    0    0    0  501 -0.00000000000E+00  0.00000000000E+00  0.17742403736E+04  0.17742403736E+04  0.50400000000E-02 0.  1.
          1   -1    0    0  501    0  0.00000000000E+00 -0.00000000000E+00 -0.29546609100E+04  0.29546609100E+04  0.50400000000E-02 0. -1.
    8880022    1    1    2    0    0 -0.47319947901E+03 -0.17008851553E+04 -0.20874188824E+04  0.27381813859E+04  0.15294330000E+03 0.  0.
    8880022    1    1    2    0    0  0.47319947901E+03  0.17008851553E+04  0.90699834600E+03  0.19907198977E+04  0.15294330000E+03 0.  0.
<mgrwt>
<rscale>  0 0.17720947E+04</rscale>
<asrwt>0</asrwt>
<pdfrwt beam="1">  1        1 0.45456322E+00 0.17720947E+04</pdfrwt>
<pdfrwt beam="2">  1       -1 0.27296006E+00 0.17720947E+04</pdfrwt>
<totfact> 0.29051751E-02</totfact>
</mgrwt>
</event>
<event>
 4    1  0.4964158E-009  0.1883633E+04  0.7818608E-02  0.8663047E-01
          1   -1    0    0  501    0  0.00000000000E+00  0.00000000000E+00  0.42382188174E+04  0.42382188174E+04  0.50400000000E-02 0. -1.
         -1   -1    0    0    0  501 -0.00000000000E+00 -0.00000000000E+00 -0.10528850629E+04  0.10528850629E+04  0.50400000000E-02 0.  1.
    8880022    1    1    2    0    0 -0.12730367045E+04 -0.13798761952E+04  0.27901651303E+04  0.33664660807E+04  0.15294330000E+03 0.  0.
    8880022    1    1    2    0    0  0.12730367045E+04  0.13798761952E+04  0.39516862428E+03  0.19246377996E+04  0.15294330000E+03 0.  0.
<mgrwt>
<rscale>  0 0.18836328E+04</rscale>
<asrwt>0</asrwt>
<pdfrwt beam="1">  1        1 0.65203368E+00 0.18836328E+04</pdfrwt>
<pdfrwt beam="2">  1       -1 0.16198231E+00 0.18836328E+04</pdfrwt>
<totfact> 0.15052128E-02</totfact>
</mgrwt>
</event>
<event>
 4    1  0.4964158E-009  0.5011631E+03  0.7818608E-02  0.1013476E+00
         -1   -1    0    0    0  501 -0.00000000000E+00  0.00000000000E+00  0.96998716784E+03  0.96998716785E+03  0.50400000000E-02 0.  1.
          1   -1    0    0  501    0  0.00000000000E+00 -0.00000000000E+00 -0.48229611368E+03  0.48229611371E+03  0.50400000000E-02 0. -1.
    8880022    1    1    2    0    0  0.29537444109E+03  0.37486897512E+03  0.73800532146E+03  0.89208537511E+03  0.15294330000E+03 0.  0.
    8880022    1    1    2    0    0 -0.29537444109E+03 -0.37486897512E+03 -0.25031426730E+03  0.56019790645E+03  0.15294330000E+03 0.  0.
<mgrwt>
<rscale>  0 0.50116311E+03</rscale>
<asrwt>0</asrwt>
<pdfrwt beam="1">  1        1 0.74199401E-01 0.50116311E+03</pdfrwt>
<pdfrwt beam="2">  1       -1 0.14922880E+00 0.50116311E+03</pdfrwt>
<totfact> 0.17503552E+01</totfact>
</mgrwt>
</event>
<event>
 4    1  0.4964158E-009  0.1614236E+04  0.7818608E-02  0.8811850E-01
         -1   -1    0    0    0  501 -0.00000000000E+00  0.00000000000E+00  0.14766560010E+04  0.14766560010E+04  0.50400000000E-02 0.  1.
          1   -1    0    0  501    0  0.00000000000E+00 -0.00000000000E+00 -0.41964151090E+04  0.41964151090E+04  0.50400000000E-02 0. -1.
    8880022    1    1    2    0    0  0.13641449521E+04 -0.84939706218E+03 -0.35191706062E+04  0.38717334914E+04  0.15294330000E+03 0.  0.
    8880022    1    1    2    0    0 -0.13641449521E+04  0.84939706218E+03  0.79941149829E+03  0.18013376186E+04  0.15294330000E+03 0.  0.
<mgrwt>
<rscale>  0 0.16142362E+04</rscale>
<asrwt>0</asrwt>
<pdfrwt beam="1">  1        1 0.64560232E+00 0.16142362E+04</pdfrwt>
<pdfrwt beam="2">  1       -1 0.22717785E+00 0.16142362E+04</pdfrwt>
<totfact> 0.59187233E-03</totfact>
</mgrwt>
</event>
<event>
 4    1  0.4964158E-009  0.3030137E+03  0.7818608E-02  0.1083744E+00
          1   -1    0    0  501    0  0.00000000000E+00  0.00000000000E+00  0.92130363871E+03  0.92130363872E+03  0.50400000000E-02 0. -1.
         -1   -1    0    0    0  501 -0.00000000000E+00 -0.00000000000E+00 -0.44850199230E+03  0.44850199233E+03  0.50400000000E-02 0.  1.
    8880022    1    1    2    0    0 -0.19765742899E+03 -0.17133943042E+03  0.84043430526E+03  0.89339080705E+03  0.15294330000E+03 0.  0.
    8880022    1    1    2    0    0  0.19765742899E+03  0.17133943042E+03 -0.36763265886E+03  0.47641482399E+03  0.15294330000E+03 0.  0.
<mgrwt>
<rscale>  0 0.30301372E+03</rscale>
<asrwt>0</asrwt>
<pdfrwt beam="1">  1        1 0.14173902E+00 0.30301372E+03</pdfrwt>
<pdfrwt beam="2">  1       -1 0.69000308E-01 0.30301372E+03</pdfrwt>
<totfact> 0.40869629E+01</totfact>
</mgrwt>
</event>
<event>
 4    1  0.4964158E-009  0.9002761E+03  0.7818608E-02  0.9425236E-01
          1   -1    0    0  501    0  0.00000000000E+00  0.00000000000E+00  0.12902522238E+04  0.12902522239E+04  0.50400000000E-02 0. -1.
         -1   -1    0    0    0  501 -0.00000000000E+00 -0.00000000000E+00 -0.74180982891E+03  0.74180982893E+03  0.50400000000E-02 0.  1.
    8880022    1    1    2    0    0  0.46668568272E+03  0.75452626546E+03  0.67189498288E+03  0.11233609984E+04  0.15294330000E+03 0.  0.
    8880022    1    1    2    0    0 -0.46668568272E+03 -0.75452626546E+03 -0.12345258795E+03  0.90870105437E+03  0.15294330000E+03 0.  0.
<mgrwt>
<rscale>  0 0.90027610E+03</rscale>
<asrwt>0</asrwt>
<pdfrwt beam="1">  1        1 0.19850034E+00 0.90027610E+03</pdfrwt>
<pdfrwt beam="2">  1       -1 0.11412459E+00 0.90027610E+03</pdfrwt>
<totfact> 0.65295337E+00</totfact>
</mgrwt>
</event>
<event>
 4    1  0.4964158E-009  0.6117055E+03  0.7818608E-02  0.9881414E-01
         -1   -1    0    0    0  501 -0.00000000000E+00  0.00000000000E+00  0.59736936221E+03  0.59736936223E+03  0.50400000000E-02 0.  1.
          1   -1    0    0  501    0  0.00000000000E+00 -0.00000000000E+00 -0.27653750271E+04  0.27653750271E+04  0.50400000000E-02 0. -1.
    8880022    1    1    2    0    0 -0.51593006653E+03  0.29087475580E+03 -0.25627405633E+04  0.26347339154E+04  0.15294330000E+03 0.  0.
    8880022    1    1    2    0    0  0.51593006653E+03 -0.29087475580E+03  0.39473489842E+03  0.72801047394E+03  0.15294330000E+03 0.  0.
<mgrwt>
<rscale>  0 0.61170549E+03</rscale>
<asrwt>0</asrwt>
<pdfrwt beam="1">  1        1 0.42544231E+00 0.61170549E+03</pdfrwt>
<pdfrwt beam="2">  1       -1 0.91902980E-01 0.61170549E+03</pdfrwt>
<totfact> 0.11290903E+00</totfact>
</mgrwt>
</event>
<event>
 4    1  0.4964158E-009  0.5674754E+03  0.7818608E-02  0.9975281E-01
          1   -1    0    0  501    0  0.00000000000E+00  0.00000000000E+00  0.70570858496E+03  0.70570858498E+03  0.50400000000E-02 0. -1.
         -1   -1    0    0    0  501 -0.00000000000E+00 -0.00000000000E+00 -0.50544581794E+03  0.50544581797E+03  0.50400000000E-02 0.  1.
    8880022    1    1    2    0    0  0.17618900434E+03  0.51729498316E+03 -0.88663845974E+02  0.57436016179E+03  0.15294330000E+03 0.  0.
    8880022    1    1    2    0    0 -0.17618900434E+03 -0.51729498316E+03  0.28892661299E+03  0.63679424115E+03  0.15294330000E+03 0.  0.
<mgrwt>
<rscale>  0 0.56747539E+03</rscale>
<asrwt>0</asrwt>
<pdfrwt beam="1">  1        1 0.10857055E+00 0.56747539E+03</pdfrwt>
<pdfrwt beam="2">  1       -1 0.77760896E-01 0.56747539E+03</pdfrwt>
<totfact> 0.46493246E+01</totfact>
</mgrwt>
</event>
<event>
 4    1  0.4964158E-009  0.4729406E+03  0.7818608E-02  0.1021094E+00
         -1   -1    0    0    0  501 -0.00000000000E+00  0.00000000000E+00  0.19951564556E+04  0.19951564556E+04  0.50400000000E-02 0.  1.
          1   -1    0    0  501    0  0.00000000000E+00 -0.00000000000E+00 -0.58757882529E+03  0.58757882531E+03  0.50400000000E-02 0. -1.
    8880022    1    1    2    0    0 -0.44191529348E+00  0.44752762833E+03  0.18654482067E+04  0.19244661177E+04  0.15294330000E+03 0.  0.
    8880022    1    1    2    0    0  0.44191529348E+00 -0.44752762833E+03 -0.45787057641E+03  0.65826916316E+03  0.15294330000E+03 0.  0.
<mgrwt>
<rscale>  0 0.47294062E+03</rscale>
<asrwt>0</asrwt>
<pdfrwt beam="1">  1        1 0.90396742E-01 0.47294062E+03</pdfrwt>
<pdfrwt beam="2">  1       -1 0.30694715E+00 0.47294062E+03</pdfrwt>
<totfact> 0.11854530E+00</totfact>
</mgrwt>
</event>
<event>
 4    1  0.4964158E-009  0.1117216E+04  0.7818608E-02  0.9188572E-01
         -1   -1    0    0    0  501 -0.00000000000E+00  0.00000000000E+00  0.92413952678E+03  0.92413952680E+03  0.50400000000E-02 0.  1.
          1   -1    0    0  501    0  0.00000000000E+00 -0.00000000000E+00 -0.16616885722E+04  0.16616885722E+04  0.50400000000E-02 0. -1.
    8880022    1    1    2    0    0  0.87546456632E+03 -0.67700958747E+03 -0.92816486504E+03  0.14524675067E+04  0.15294330000E+03 0.  0.
    8880022    1    1    2    0    0 -0.87546456632E+03  0.67700958747E+03  0.19061581962E+03  0.11333605923E+04  0.15294330000E+03 0.  0.
<mgrwt>
<rscale>  0 0.11172161E+04</rscale>
<asrwt>0</asrwt>
<pdfrwt beam="1">  1        1 0.25564440E+00 0.11172161E+04</pdfrwt>
<pdfrwt beam="2">  1       -1 0.14217531E+00 0.11172161E+04</pdfrwt>
<totfact> 0.20203802E+00</totfact>
</mgrwt>
</event>
<event>
 4    1  0.4964158E-009  0.7446903E+03  0.7818608E-02  0.9643717E-01
         -1   -1    0    0    0  501 -0.00000000000E+00  0.00000000000E+00  0.94806026269E+03  0.94806026270E+03  0.50400000000E-02 0.  1.
          1   -1    0    0  501    0  0.00000000000E+00 -0.00000000000E+00 -0.12674465304E+04  0.12674465304E+04  0.50400000000E-02 0. -1.
    8880022    1    1    2    0    0  0.27420443643E+03 -0.67526580427E+03  0.65319335755E+03  0.99056811716E+03  0.15294330000E+03 0.  0.
    8880022    1    1    2    0    0 -0.27420443643E+03  0.67526580427E+03 -0.97257962525E+03  0.12249386760E+04  0.15294330000E+03 0.  0.
<mgrwt>
<rscale>  0 0.74469029E+03</rscale>
<asrwt>0</asrwt>
<pdfrwt beam="1">  1        1 0.19499177E+00 0.74469029E+03</pdfrwt>
<pdfrwt beam="2">  1       -1 0.14585543E+00 0.74469029E+03</pdfrwt>
<totfact> 0.37400667E+00</totfact>
</mgrwt>
</event>
<event>
 4    1  0.4964158E-009  0.1244079E+04  0.7818608E-02  0.9075126E-01
          1   -1    0    0  501    0  0.00000000000E+00  0.00000000000E+00  0.21817600537E+04  0.21817600537E+04  0.50400000000E-02 0. -1.
         -1   -1    0    0    0  501 -0.00000000000E+00 -0.00000000000E+00 -0.11961410972E+04  0.11961410972E+04  0.50400000000E-02 0.  1.
    8880022    1    1    2    0    0  0.11449743078E+04 -0.46192456035E+03  0.15702082442E+04  0.20033187585E+04  0.15294330000E+03 0.  0.
    8880022    1    1    2    0    0 -0.11449743078E+04  0.46192456035E+03 -0.58458928769E+03  0.13745823923E+04  0.15294330000E+03 0.  0.
<mgrwt>
<rscale>  0 0.12440788E+04</rscale>
<asrwt>0</asrwt>
<pdfrwt beam="1">  1        1 0.33565539E+00 0.12440788E+04</pdfrwt>
<pdfrwt beam="2">  1       -1 0.18402171E+00 0.12440788E+04</pdfrwt>
<totfact> 0.42656516E-01</totfact>
</mgrwt>
</event>
<event>
 4    1  0.4964158E-009  0.6224193E+03  0.7818608E-02  0.9859955E-01
          1   -1    0    0  501    0  0.00000000000E+00  0.00000000000E+00  0.27501663121E+03  0.27501663126E+03  0.50400000000E-02 0. -1.
         -1   -1    0    0    0  501 -0.00000000000E+00 -0.00000000000E+00 -0.17867161805E+04  0.17867161805E+04  0.50400000000E-02 0.  1.
    8880022    1    1    2    0    0 -0.38898532463E+03  0.46119909375E+03 -0.28166143764E+03  0.68318299549E+03  0.15294330000E+03 0.  0.
    8880022    1    1    2    0    0  0.38898532463E+03 -0.46119909375E+03 -0.12300381116E+04  0.13785498163E+04  0.15294330000E+03 0.  0.
<mgrwt>
<rscale>  0 0.62241934E+03</rscale>
<asrwt>0</asrwt>
<pdfrwt beam="1">  1        1 0.42310252E-01 0.62241934E+03</pdfrwt>
<pdfrwt beam="2">  1       -1 0.27487940E+00 0.62241934E+03</pdfrwt>
<totfact> 0.50140405E+00</totfact>
</mgrwt>
</event>
<event>
 4    1  0.4964158E-009  0.1127070E+04  0.7818608E-02  0.9179202E-01
         -1   -1    0    0    0  501 -0.00000000000E+00  0.00000000000E+00  0.10288056075E+04  0.10288056075E+04  0.50400000000E-02 0.  1.
          1   -1    0    0  501    0  0.00000000000E+00 -0.00000000000E+00 -0.13469950338E+04  0.13469950338E+04  0.50400000000E-02 0. -1.
    8880022    1    1    2    0    0  0.48050049495E+03 -0.10079750192E+04  0.18386268975E+03  0.11419682599E+04  0.15294330000E+03 0.  0.
    8880022    1    1    2    0    0 -0.48050049495E+03  0.10079750192E+04 -0.50205211609E+03  0.12338323813E+04  0.15294330000E+03 0.  0.
<mgrwt>
<rscale>  0 0.11270697E+04</rscale>
<asrwt>0</asrwt>
<pdfrwt beam="1">  1        1 0.20723001E+00 0.11270697E+04</pdfrwt>
<pdfrwt beam="2">  1       -1 0.15827779E+00 0.11270697E+04</pdfrwt>
<totfact> 0.24939812E+00</totfact>
</mgrwt>
</event>
<event>
 4    1  0.4964158E-009  0.7328329E+03  0.7818608E-02  0.9662675E-01
          1   -1    0    0  501    0  0.00000000000E+00  0.00000000000E+00  0.87779654373E+03  0.87779654374E+03  0.50400000000E-02 0. -1.
         -1   -1    0    0    0  501 -0.00000000000E+00 -0.00000000000E+00 -0.63975628210E+03  0.63975628212E+03  0.50400000000E-02 0.  1.
    8880022    1    1    2    0    0  0.37385098698E+03 -0.61146363582E+03 -0.39569527954E+02  0.73390036037E+03  0.15294330000E+03 0.  0.
    8880022    1    1    2    0    0 -0.37385098698E+03  0.61146363582E+03  0.27760978958E+03  0.78365246550E+03  0.15294330000E+03 0.  0.
<mgrwt>
<rscale>  0 0.73283285E+03</rscale>
<asrwt>0</asrwt>
<pdfrwt beam="1">  1        1 0.13504562E+00 0.73283285E+03</pdfrwt>
<pdfrwt beam="2">  1       -1 0.98424044E-01 0.73283285E+03</pdfrwt>
<totfact> 0.19330102E+01</totfact>
</mgrwt>
</event>
<event>
 4    1  0.4964158E-009  0.1573876E+04  0.7818608E-02  0.8836760E-01
         -1   -1    0    0    0  501 -0.00000000000E+00  0.00000000000E+00  0.25002194633E+04  0.25002194633E+04  0.50400000000E-02 0.  1.
          1   -1    0    0  501    0  0.00000000000E+00 -0.00000000000E+00 -0.15931691192E+04  0.15931691192E+04  0.50400000000E-02 0. -1.
    8880022    1    1    2    0    0  0.83157768605E+03  0.13274684313E+04  0.17120807708E+04  0.23255765097E+04  0.15294330000E+03 0.  1.
    8880022    1    1    2    0    0 -0.83157768605E+03 -0.13274684313E+04 -0.80503042665E+03  0.17678120728E+04  0.15294330000E+03 0.  0.
<mgrwt>
<rscale>  0 0.15738760E+04</rscale>
<asrwt>0</asrwt>
<pdfrwt beam="1">  1        1 0.24510294E+00 0.15738760E+04</pdfrwt>
<pdfrwt beam="2">  1       -1 0.38464915E+00 0.15738760E+04</pdfrwt>
<totfact> 0.48105085E-02</totfact>
</mgrwt>
</event>
<event>
 4    1  0.4964158E-009  0.1516112E+04  0.7818608E-02  0.8873809E-01
          1   -1    0    0  501    0  0.00000000000E+00  0.00000000000E+00  0.21386075002E+04  0.21386075002E+04  0.50400000000E-02 0. -1.
         -1   -1    0    0    0  501 -0.00000000000E+00 -0.00000000000E+00 -0.17447817201E+04  0.17447817201E+04  0.50400000000E-02 0.  1.
    8880022    1    1    2    0    0 -0.51946226089E+03  0.14161079832E+04  0.14001159976E+04  0.20637149320E+04  0.15294330000E+03 0.  0.
    8880022    1    1    2    0    0  0.51946226089E+03 -0.14161079832E+04 -0.10062902175E+04  0.18196742883E+04  0.15294330000E+03 0.  0.
<mgrwt>
<rscale>  0 0.15161116E+04</rscale>
<asrwt>0</asrwt>
<pdfrwt beam="1">  1        1 0.32901654E+00 0.15161116E+04</pdfrwt>
<pdfrwt beam="2">  1       -1 0.26842796E+00 0.15161116E+04</pdfrwt>
<totfact> 0.11941427E-01</totfact>
</mgrwt>
</event>
<event>
 4    1  0.4964158E-009  0.1080530E+04  0.7818608E-02  0.9224379E-01
         -1   -1    0    0    0  501 -0.00000000000E+00  0.00000000000E+00  0.13566690732E+04  0.13566690732E+04  0.50400000000E-02 0.  1.
          1   -1    0    0  501    0  0.00000000000E+00 -0.00000000000E+00 -0.14444514959E+04  0.14444514960E+04  0.50400000000E-02 0. -1.
    8880022    1    1    2    0    0  0.11048365541E+03 -0.10639296160E+04 -0.93432752584E+03  0.14284650659E+04  0.15294330000E+03 0.  0.
    8880022    1    1    2    0    0 -0.11048365541E+03  0.10639296160E+04  0.84654510313E+03  0.13726555033E+04  0.15294330000E+03 0.  0.
<mgrwt>
<rscale>  0 0.10805297E+04</rscale>
<asrwt>0</asrwt>
<pdfrwt beam="1">  1        1 0.22222331E+00 0.10805297E+04</pdfrwt>
<pdfrwt beam="2">  1       -1 0.20871832E+00 0.10805297E+04</pdfrwt>
<totfact> 0.93371066E-01</totfact>
</mgrwt>
</event>
<event>
 4    1  0.4964158E-009  0.1315516E+04  0.7818608E-02  0.9017350E-01
          1   -1    0    0  501    0  0.00000000000E+00  0.00000000000E+00  0.17457386907E+04  0.17457386907E+04  0.50400000000E-02 0. -1.
         -1   -1    0    0    0  501 -0.00000000000E+00 -0.00000000000E+00 -0.23527034321E+04  0.23527034321E+04  0.50400000000E-02 0.  1.
    8880022    1    1    2    0    0 -0.11121662426E+04  0.68576814265E+03 -0.18623012646E+04  0.22800766105E+04  0.15294330000E+03 0.  0.
    8880022    1    1    2    0    0  0.11121662426E+04 -0.68576814265E+03  0.12553365232E+04  0.18183655123E+04  0.15294330000E+03 0.  0.
<mgrwt>
<rscale>  0 0.13155164E+04</rscale>
<asrwt>0</asrwt>
<pdfrwt beam="1">  1        1 0.26857518E+00 0.13155164E+04</pdfrwt>
<pdfrwt beam="2">  1       -1 0.36195437E+00 0.13155164E+04</pdfrwt>
<totfact> 0.55705748E-02</totfact>
</mgrwt>
</event>
<event>
 4    1  0.4964158E-009  0.9026613E+03  0.7818608E-02  0.9422261E-01
         -1   -1    0    0    0  501 -0.00000000000E+00  0.00000000000E+00  0.80333561403E+03  0.80333561404E+03  0.50400000000E-02 0.  1.
          1   -1    0    0  501    0  0.00000000000E+00 -0.00000000000E+00 -0.14901142431E+04  0.14901142431E+04  0.50400000000E-02 0. -1.
    8880022    1    1    2    0    0  0.76448523322E+03  0.45493749621E+03  0.30462243730E+03  0.95267637715E+03  0.15294330000E+03 0.  0.
    8880022    1    1    2    0    0 -0.76448523322E+03 -0.45493749621E+03 -0.99140106638E+03  0.13407734800E+04  0.15294330000E+03 0.  0.
<mgrwt>
<rscale>  0 0.90266132E+03</rscale>
<asrwt>0</asrwt>
<pdfrwt beam="1">  1        1 0.22924835E+00 0.90266132E+03</pdfrwt>
<pdfrwt beam="2">  1       -1 0.12359009E+00 0.90266132E+03</pdfrwt>
<totfact> 0.38964014E+00</totfact>
</mgrwt>
</event>
<event>
 4    1  0.4964158E-009  0.2155740E+03  0.7818608E-02  0.1137226E+00
          1   -1    0    0  501    0  0.00000000000E+00  0.00000000000E+00  0.87227245589E+03  0.87227245590E+03  0.50400000000E-02 0. -1.
         -1   -1    0    0    0  501 -0.00000000000E+00 -0.00000000000E+00 -0.82004791315E+03  0.82004791317E+03  0.50400000000E-02 0.  1.
    8880022    1    1    2    0    0  0.56895741214E+02  0.14086648305E+03  0.84432411117E+03  0.87140997765E+03  0.15294330000E+03 0.  0.
    8880022    1    1    2    0    0 -0.56895741214E+02 -0.14086648305E+03 -0.79209956844E+03  0.82091039143E+03  0.15294330000E+03 0.  1.
<mgrwt>
<rscale>  0 0.21557399E+03</rscale>
<asrwt>0</asrwt>
<pdfrwt beam="1">  1        1 0.13419576E+00 0.21557399E+03</pdfrwt>
<pdfrwt beam="2">  1       -1 0.12616122E+00 0.21557399E+03</pdfrwt>
<totfact> 0.12292573E+01</totfact>
</mgrwt>
</event>
<event>
 4    1  0.4964158E-009  0.1332116E+04  0.7818608E-02  0.9004477E-01
         -1   -1    0    0    0  501 -0.00000000000E+00  0.00000000000E+00  0.83198542332E+03  0.83198542333E+03  0.50400000000E-02 0.  1.
          1   -1    0    0  501    0  0.00000000000E+00 -0.00000000000E+00 -0.31500830397E+04  0.31500830397E+04  0.50400000000E-02 0. -1.
    8880022    1    1    2    0    0 -0.74588202010E+03  0.10930701756E+04 -0.22904568106E+04  0.26496653470E+04  0.15294330000E+03 0.  0.
    8880022    1    1    2    0    0  0.74588202010E+03 -0.10930701756E+04 -0.27640805783E+02  0.13324031161E+04  0.15294330000E+03 0.  0.
<mgrwt>
<rscale>  0 0.13321164E+04</rscale>
<asrwt>0</asrwt>
<pdfrwt beam="1">  1        1 0.48462815E+00 0.13321164E+04</pdfrwt>
<pdfrwt beam="2">  1       -1 0.12799776E+00 0.13321164E+04</pdfrwt>
<totfact> 0.23869408E-01</totfact>
</mgrwt>
</event>
<event>
 4    1  0.4964158E-009  0.1189941E+04  0.7818608E-02  0.9121707E-01
          1   -1    0    0  501    0  0.00000000000E+00  0.00000000000E+00  0.13454711986E+04  0.13454711987E+04  0.50400000000E-02 0. -1.
         -1   -1    0    0    0  501 -0.00000000000E+00 -0.00000000000E+00 -0.10903859096E+04  0.10903859097E+04  0.50400000000E-02 0.  1.
    8880022    1    1    2    0    0  0.71219857019E+03  0.94092607910E+03 -0.99810262324E+02  0.11941199400E+04  0.15294330000E+03 0.  0.
    8880022    1    1    2    0    0 -0.71219857019E+03 -0.94092607910E+03  0.35489555133E+03  0.12417371683E+04  0.15294330000E+03 0.  0.
<mgrwt>
<rscale>  0 0.11899413E+04</rscale>
<asrwt>0</asrwt>
<pdfrwt beam="1">  1        1 0.20699557E+00 0.11899413E+04</pdfrwt>
<pdfrwt beam="2">  1       -1 0.16775168E+00 0.11899413E+04</pdfrwt>
<totfact> 0.21065071E+00</totfact>
</mgrwt>
</event>
<event>
 4    1  0.4964158E-009  0.1160042E+04  0.7818608E-02  0.9148569E-01
          1   -1    0    0  501    0  0.00000000000E+00  0.00000000000E+00  0.16352810945E+04  0.16352810946E+04  0.50400000000E-02 0. -1.
         -1   -1    0    0    0  501 -0.00000000000E+00 -0.00000000000E+00 -0.13671776989E+04  0.13671776990E+04  0.50400000000E-02 0.  1.
    8880022    1    1    2    0    0  0.10893975263E+04  0.36812736407E+03 -0.81314264939E+03  0.14166500442E+04  0.15294330000E+03 0.  0.
    8880022    1    1    2    0    0 -0.10893975263E+04 -0.36812736407E+03  0.10812460450E+04  0.15858087493E+04  0.15294330000E+03 0.  0.
<mgrwt>
<rscale>  0 0.11600415E+04</rscale>
<asrwt>0</asrwt>
<pdfrwt beam="1">  1        1 0.25158171E+00 0.11600415E+04</pdfrwt>
<pdfrwt beam="2">  1       -1 0.21033503E+00 0.11600415E+04</pdfrwt>
<totfact> 0.66512127E-01</totfact>
</mgrwt>
</event>
<event>
 4    1  0.4964158E-009  0.3312775E+03  0.7818608E-02  0.1070573E+00
         -1   -1    0    0    0  501 -0.00000000000E+00  0.00000000000E+00  0.21429175128E+03  0.21429175134E+03  0.50400000000E-02 0.  1.
          1   -1    0    0  501    0  0.00000000000E+00 -0.00000000000E+00 -0.14343354261E+04  0.14343354261E+04  0.50400000000E-02 0. -1.
    8880022    1    1    2    0    0  0.20206348404E+03  0.21336226005E+03  0.50947718294E+02  0.33517223723E+03  0.15294330000E+03 0.  1.
    8880022    1    1    2    0    0 -0.20206348404E+03 -0.21336226005E+03 -0.12709913931E+04  0.13134549402E+04  0.15294330000E+03 0.  0.
<mgrwt>
<rscale>  0 0.33127746E+03</rscale>
<asrwt>0</asrwt>
<pdfrwt beam="1">  1        1 0.22066698E+00 0.33127746E+03</pdfrwt>
<pdfrwt beam="2">  1       -1 0.32967963E-01 0.33127746E+03</pdfrwt>
<totfact> 0.68510323E+01</totfact>
</mgrwt>
</event>
<event>
 4    1  0.4964158E-009  0.1778991E+04  0.7818608E-02  0.8717552E-01
         -1   -1    0    0    0  501 -0.00000000000E+00  0.00000000000E+00  0.48646883081E+04  0.48646883081E+04  0.50400000000E-02 0.  1.
          1   -1    0    0  501    0  0.00000000000E+00 -0.00000000000E+00 -0.86505608839E+03  0.86505608841E+03  0.50400000000E-02 0. -1.
    8880022    1    1    2    0    0  0.14277947374E+04  0.10501522022E+04  0.57327265236E+03  0.18690774855E+04  0.15294330000E+03 0.  0.
    8880022    1    1    2    0    0 -0.14277947374E+04 -0.10501522022E+04  0.34263595673E+04  0.38606669110E+04  0.15294330000E+03 0.  0.
<mgrwt>
<rscale>  0 0.17789910E+04</rscale>
<asrwt>0</asrwt>
<pdfrwt beam="1">  1        1 0.13308555E+00 0.17789910E+04</pdfrwt>
<pdfrwt beam="2">  1       -1 0.74841359E+00 0.17789910E+04</pdfrwt>
<totfact> 0.23162466E-03</totfact>
</mgrwt>
</event>
<event>
 4    1  0.4964158E-009  0.4329674E+03  0.7818608E-02  0.1032927E+00
         -1   -1    0    0    0  501 -0.00000000000E+00  0.00000000000E+00  0.79457254077E+03  0.79457254079E+03  0.50400000000E-02 0.  1.
          1   -1    0    0  501    0  0.00000000000E+00 -0.00000000000E+00 -0.28187528965E+03  0.28187528970E+03  0.50400000000E-02 0. -1.
    8880022    1    1    2    0    0 -0.54635867075E+02 -0.40135272282E+03  0.39042782392E+02  0.43472414007E+03  0.15294330000E+03 0. -1.
    8880022    1    1    2    0    0  0.54635867075E+02  0.40135272282E+03  0.47365446873E+03  0.64172369042E+03  0.15294330000E+03 0.  0.
<mgrwt>
<rscale>  0 0.43296736E+03</rscale>
<asrwt>0</asrwt>
<pdfrwt beam="1">  1        1 0.43365430E-01 0.43296736E+03</pdfrwt>
<pdfrwt beam="2">  1       -1 0.12224193E+00 0.43296736E+03</pdfrwt>
<totfact> 0.59099658E+01</totfact>
</mgrwt>
</event>
<event>
 4    1  0.4964158E-009  0.1134981E+04  0.7818608E-02  0.9171752E-01
          1   -1    0    0  501    0  0.00000000000E+00  0.00000000000E+00  0.19214093729E+04  0.19214093729E+04  0.50400000000E-02 0. -1.
         -1   -1    0    0    0  501 -0.00000000000E+00 -0.00000000000E+00 -0.16542397473E+04  0.16542397473E+04  0.50400000000E-02 0.  1.
    8880022    1    1    2    0    0 -0.22028905065E+03  0.11028435805E+04  0.15123166675E+04  0.18908422951E+04  0.15294330000E+03 0.  0.
    8880022    1    1    2    0    0  0.22028905065E+03 -0.11028435805E+04 -0.12451470420E+04  0.16848068252E+04  0.15294330000E+03 0.  0.
<mgrwt>
<rscale>  0 0.11349814E+04</rscale>
<asrwt>0</asrwt>
<pdfrwt beam="1">  1        1 0.29560144E+00 0.11349814E+04</pdfrwt>
<pdfrwt beam="2">  1       -1 0.25449842E+00 0.11349814E+04</pdfrwt>
<totfact> 0.21795991E-01</totfact>
</mgrwt>
</event>
<event>
 4    1  0.4964158E-009  0.4253127E+03  0.7818608E-02  0.1035351E+00
         -1   -1    0    0    0  501 -0.00000000000E+00  0.00000000000E+00  0.24236983071E+03  0.24236983076E+03  0.50400000000E-02 0.  1.
          1   -1    0    0  501    0  0.00000000000E+00 -0.00000000000E+00 -0.13289972436E+04  0.13289972436E+04  0.50400000000E-02 0. -1.
    8880022    1    1    2    0    0 -0.10599782238E+03  0.38244442745E+03 -0.10635387035E+04  0.11454280882E+04  0.15294330000E+03 0.  0.
    8880022    1    1    2    0    0  0.10599782238E+03 -0.38244442745E+03 -0.23088709429E+02  0.42593898619E+03  0.15294330000E+03 0.  1.
<mgrwt>
<rscale>  0 0.42531275E+03</rscale>
<asrwt>0</asrwt>
<pdfrwt beam="1">  1        1 0.20446111E+00 0.42531275E+03</pdfrwt>
<pdfrwt beam="2">  1       -1 0.37287667E-01 0.42531275E+03</pdfrwt>
<totfact> 0.63877400E+01</totfact>
</mgrwt>
</event>
<event>
 4    1  0.4964158E-009  0.7017199E+03  0.7818608E-02  0.9714295E-01
          1   -1    0    0  501    0  0.00000000000E+00  0.00000000000E+00  0.64418782140E+03  0.64418782142E+03  0.50400000000E-02 0. -1.
         -1   -1    0    0    0  501 -0.00000000000E+00 -0.00000000000E+00 -0.79948080612E+03  0.79948080613E+03  0.50400000000E-02 0.  1.
    8880022    1    1    2    0    0  0.60377269728E+03 -0.32323005517E+03  0.73580589609E+02  0.70556707316E+03  0.15294330000E+03 0.  0.
    8880022    1    1    2    0    0 -0.60377269728E+03  0.32323005517E+03 -0.22887357432E+03  0.73810155439E+03  0.15294330000E+03 0.  0.
<mgrwt>
<rscale>  0 0.70171988E+03</rscale>
<asrwt>0</asrwt>
<pdfrwt beam="1">  1        1 0.99105819E-01 0.70171988E+03</pdfrwt>
<pdfrwt beam="2">  1       -1 0.12299705E+00 0.70171988E+03</pdfrwt>
<totfact> 0.18570538E+01</totfact>
</mgrwt>
</event>
<event>
 4    1  0.4964158E-009  0.1157935E+04  0.7818608E-02  0.9150494E-01
         -1   -1    0    0    0  501 -0.00000000000E+00  0.00000000000E+00  0.62490345820E+03  0.62490345822E+03  0.50400000000E-02 0.  1.
          1   -1    0    0  501    0  0.00000000000E+00 -0.00000000000E+00 -0.26739621593E+04  0.26739621593E+04  0.50400000000E-02 0. -1.
    8880022    1    1    2    0    0 -0.93661247412E+03  0.66345932749E+03 -0.29135088554E+03  0.11940260455E+04  0.15294330000E+03 0.  0.
    8880022    1    1    2    0    0  0.93661247412E+03 -0.66345932749E+03 -0.17577078156E+04  0.21048395720E+04  0.15294330000E+03 0.  0.
<mgrwt>
<rscale>  0 0.11579347E+04</rscale>
<asrwt>0</asrwt>
<pdfrwt beam="1">  1        1 0.41137879E+00 0.11579347E+04</pdfrwt>
<pdfrwt beam="2">  1       -1 0.96138995E-01 0.11579347E+04</pdfrwt>
<totfact> 0.10650813E+00</totfact>
</mgrwt>
</event>
<event>
 4    1  0.4964158E-009  0.6838144E+03  0.7818608E-02  0.9745319E-01
         -1   -1    0    0    0  501 -0.00000000000E+00  0.00000000000E+00  0.13823163932E+03  0.13823163942E+03  0.50400000000E-02 0.  1.
          1   -1    0    0  501    0  0.00000000000E+00 -0.00000000000E+00 -0.38314489884E+04  0.38314489884E+04  0.50400000000E-02 0. -1.
    8880022    1    1    2    0    0 -0.37559822325E+03 -0.55057827413E+03 -0.25258513562E+04  0.26167780166E+04  0.15294330000E+03 0.  0.
    8880022    1    1    2    0    0  0.37559822325E+03  0.55057827413E+03 -0.11673659929E+04  0.13529026113E+04  0.15294330000E+03 0.  0.
<mgrwt>
<rscale>  0 0.68381439E+03</rscale>
<asrwt>0</asrwt>
<pdfrwt beam="1">  1        1 0.58945361E+00 0.68381439E+03</pdfrwt>
<pdfrwt beam="2">  1       -1 0.21266409E-01 0.68381439E+03</pdfrwt>
<totfact> 0.27399959E+00</totfact>
</mgrwt>
</event>
<event>
 4    1  0.4964158E-009  0.9563493E+03  0.7818608E-02  0.9357760E-01
         -1   -1    0    0    0  501 -0.00000000000E+00  0.00000000000E+00  0.42272644446E+03  0.42272644449E+03  0.50400000000E-02 0.  1.
          1   -1    0    0  501    0  0.00000000000E+00 -0.00000000000E+00 -0.24930394030E+04  0.24930394030E+04  0.50400000000E-02 0. -1.
    8880022    1    1    2    0    0 -0.69503918569E+02  0.94147838231E+03 -0.50517990338E+03  0.10815778876E+04  0.15294330000E+03 0.  0.
    8880022    1    1    2    0    0  0.69503918569E+02 -0.94147838231E+03 -0.15651330551E+04  0.18341879599E+04  0.15294330000E+03 0.  0.
<mgrwt>
<rscale>  0 0.95634930E+03</rscale>
<asrwt>0</asrwt>
<pdfrwt beam="1">  1        1 0.38354452E+00 0.95634930E+03</pdfrwt>
<pdfrwt beam="2">  1       -1 0.65034839E-01 0.95634930E+03</pdfrwt>
<totfact> 0.33662996E+00</totfact>
</mgrwt>
</event>
<event>
 4    1  0.4964158E-009  0.4038400E+03  0.7818608E-02  0.1042458E+00
          1   -1    0    0  501    0  0.00000000000E+00  0.00000000000E+00  0.15017668419E+04  0.15017668419E+04  0.50400000000E-02 0. -1.
         -1   -1    0    0    0  501 -0.00000000000E+00 -0.00000000000E+00 -0.60526363474E+03  0.60526363476E+03  0.50400000000E-02 0.  1.
    8880022    1    1    2    0    0  0.34594891274E+03 -0.14147246989E+03  0.14025873725E+04  0.14595677786E+04  0.15294330000E+03 0.  0.
    8880022    1    1    2    0    0 -0.34594891274E+03  0.14147246989E+03 -0.50608416531E+03  0.64746269804E+03  0.15294330000E+03 0.  0.
<mgrwt>
<rscale>  0 0.40384002E+03</rscale>
<asrwt>0</asrwt>
<pdfrwt beam="1">  1        1 0.23104105E+00 0.40384002E+03</pdfrwt>
<pdfrwt beam="2">  1       -1 0.93117483E-01 0.40384002E+03</pdfrwt>
<totfact> 0.81782238E+00</totfact>
</mgrwt>
</event>
<event>
 4    1  0.4964158E-009  0.8883563E+03  0.7818608E-02  0.9440255E-01
          1   -1    0    0  501    0  0.00000000000E+00  0.00000000000E+00  0.72407906445E+03  0.72407906447E+03  0.50400000000E-02 0. -1.
         -1   -1    0    0    0  501 -0.00000000000E+00 -0.00000000000E+00 -0.12587886176E+04  0.12587886176E+04  0.50400000000E-02 0.  1.
    8880022    1    1    2    0    0  0.86800463699E+03  0.11114528096E+03 -0.63050125446E+03  0.10893616517E+04  0.15294330000E+03 0.  0.
    8880022    1    1    2    0    0 -0.86800463699E+03 -0.11114528096E+03  0.95791701281E+02  0.89350603040E+03  0.15294330000E+03 0.  0.
<mgrwt>
<rscale>  0 0.88835633E+03</rscale>
<asrwt>0</asrwt>
<pdfrwt beam="1">  1        1 0.11139678E+00 0.88835633E+03</pdfrwt>
<pdfrwt beam="2">  1       -1 0.19365979E+00 0.88835633E+03</pdfrwt>
<totfact> 0.43826525E+00</totfact>
</mgrwt>
</event>
<event>
 4    1  0.4964158E-009  0.1379311E+04  0.7818608E-02  0.8968932E-01
          1   -1    0    0  501    0  0.00000000000E+00  0.00000000000E+00  0.52623774924E+04  0.52623774924E+04  0.50400000000E-02 0. -1.
         -1   -1    0    0    0  501 -0.00000000000E+00 -0.00000000000E+00 -0.54786628276E+03  0.54786628278E+03  0.50400000000E-02 0.  1.
    8880022    1    1    2    0    0 -0.10045951836E+04  0.93268190277E+03  0.40515064255E+04  0.42798601594E+04  0.15294330000E+03 0.  0.
    8880022    1    1    2    0    0  0.10045951836E+04 -0.93268190277E+03  0.66300478407E+03  0.15303836158E+04  0.15294330000E+03 0.  0.
<mgrwt>
<rscale>  0 0.13793109E+04</rscale>
<asrwt>0</asrwt>
<pdfrwt beam="1">  1        1 0.80959656E+00 0.13793109E+04</pdfrwt>
<pdfrwt beam="2">  1       -1 0.84287118E-01 0.13793109E+04</pdfrwt>
<totfact> 0.53497484E-03</totfact>
</mgrwt>
</event>
<event>
 4    1  0.4964158E-009  0.3942555E+03  0.7818608E-02  0.1045787E+00
          1   -1    0    0  501    0  0.00000000000E+00  0.00000000000E+00  0.33384065268E+03  0.33384065272E+03  0.50400000000E-02 0. -1.
         -1   -1    0    0    0  501 -0.00000000000E+00 -0.00000000000E+00 -0.65958593084E+03  0.65958593086E+03  0.50400000000E-02 0.  1.
    8880022    1    1    2    0    0  0.27829765555E+03 -0.23365820154E+03  0.10649860490E+03  0.40838627070E+03  0.15294330000E+03 0.  0.
    8880022    1    1    2    0    0 -0.27829765555E+03  0.23365820154E+03 -0.43224388307E+03  0.58504031288E+03  0.15294330000E+03 0.  0.
<mgrwt>
<rscale>  0 0.39425549E+03</rscale>
<asrwt>0</asrwt>
<pdfrwt beam="1">  1        1 0.51360101E-01 0.39425549E+03</pdfrwt>
<pdfrwt beam="2">  1       -1 0.10147476E+00 0.39425549E+03</pdfrwt>
<totfact> 0.73979476E+01</totfact>
</mgrwt>
</event>
<event>
 4    1  0.4964158E-009  0.6918569E+03  0.7818608E-02  0.9731260E-01
          1   -1    0    0  501    0  0.00000000000E+00  0.00000000000E+00  0.39461458617E+04  0.39461458617E+04  0.50400000000E-02 0. -1.
         -1   -1    0    0    0  501 -0.00000000000E+00 -0.00000000000E+00 -0.73975312408E+03  0.73975312410E+03  0.50400000000E-02 0.  1.
    8880022    1    1    2    0    0 -0.40878042449E+03 -0.53681742549E+03  0.37454606468E+04  0.38088241615E+04  0.15294330000E+03 0.  0.
    8880022    1    1    2    0    0  0.40878042449E+03  0.53681742549E+03 -0.53906790914E+03  0.87707482431E+03  0.15294330000E+03 0.  0.
<mgrwt>
<rscale>  0 0.69185695E+03</rscale>
<asrwt>0</asrwt>
<pdfrwt beam="1">  1        1 0.60709935E+00 0.69185695E+03</pdfrwt>
<pdfrwt beam="2">  1       -1 0.11380817E+00 0.69185695E+03</pdfrwt>
<totfact> 0.85806153E-02</totfact>
</mgrwt>
</event>
<event>
 4    1  0.4964158E-009  0.1664376E+04  0.7818608E-02  0.8781947E-01
         -1   -1    0    0    0  501 -0.00000000000E+00  0.00000000000E+00  0.15796016139E+04  0.15796016139E+04  0.50400000000E-02 0.  1.
          1   -1    0    0  501    0  0.00000000000E+00 -0.00000000000E+00 -0.29749985518E+04  0.29749985518E+04  0.50400000000E-02 0. -1.
    8880022    1    1    2    0    0 -0.14460615326E+04  0.80972957167E+03  0.76141066751E+03  0.18302715080E+04  0.15294330000E+03 0.  0.
    8880022    1    1    2    0    0  0.14460615326E+04 -0.80972957167E+03 -0.21568076054E+04  0.27243286577E+04  0.15294330000E+03 0.  0.
<mgrwt>
<rscale>  0 0.16643760E+04</rscale>
<asrwt>0</asrwt>
<pdfrwt beam="1">  1        1 0.45769208E+00 0.16643760E+04</pdfrwt>
<pdfrwt beam="2">  1       -1 0.24301563E+00 0.16643760E+04</pdfrwt>
<totfact> 0.44667759E-02</totfact>
</mgrwt>
</event>
<event>
 4    1  0.4964158E-009  0.6023918E+03  0.7818608E-02  0.9900456E-01
          1   -1    0    0  501    0  0.00000000000E+00  0.00000000000E+00  0.14243899894E+04  0.14243899894E+04  0.50400000000E-02 0. -1.
         -1   -1    0    0    0  501 -0.00000000000E+00 -0.00000000000E+00 -0.47185340266E+03  0.47185340268E+03  0.50400000000E-02 0.  1.
    8880022    1    1    2    0    0  0.24913038223E+03  0.52670508712E+03  0.11193780185E+04  0.12711738659E+04  0.15294330000E+03 0.  0.
    8880022    1    1    2    0    0 -0.24913038223E+03 -0.52670508712E+03 -0.16684143176E+03  0.62506952614E+03  0.15294330000E+03 0.  0.
<mgrwt>
<rscale>  0 0.60239177E+03</rscale>
<asrwt>0</asrwt>
<pdfrwt beam="1">  1        1 0.21913692E+00 0.60239177E+03</pdfrwt>
<pdfrwt beam="2">  1       -1 0.72592832E-01 0.60239177E+03</pdfrwt>
<totfact> 0.14973864E+01</totfact>
</mgrwt>
</event>
<event>
 4    1  0.4964158E-009  0.1865922E+03  0.7818608E-02  0.1161571E+00
          1   -1    0    0  501    0  0.00000000000E+00  0.00000000000E+00  0.23695159157E+04  0.23695159157E+04  0.50400000000E-02 0. -1.
         -1   -1    0    0    0  501 -0.00000000000E+00 -0.00000000000E+00 -0.14903211726E+03  0.14903211735E+03  0.50400000000E-02 0.  1.
    8880022    1    1    2    0    0  0.68114770157E+02  0.82373367067E+02  0.23058273775E+04  0.23133647661E+04  0.15294330000E+03 0. -1.
    8880022    1    1    2    0    0 -0.68114770157E+02 -0.82373367067E+02 -0.85343579048E+02  0.20518326690E+03  0.15294330000E+03 0.  0.
<mgrwt>
<rscale>  0 0.18659219E+03</rscale>
<asrwt>0</asrwt>
<pdfrwt beam="1">  1        1 0.36454092E+00 0.18659219E+03</pdfrwt>
<pdfrwt beam="2">  1       -1 0.22928017E-01 0.18659219E+03</pdfrwt>
<totfact> 0.32688677E+01</totfact>
</mgrwt>
</event>
<event>
 4    1  0.4964158E-009  0.5203511E+03  0.7818608E-02  0.1008599E+00
          1   -1    0    0  501    0  0.00000000000E+00  0.00000000000E+00  0.22481926311E+04  0.22481926311E+04  0.50400000000E-02 0. -1.
         -1   -1    0    0    0  501 -0.00000000000E+00 -0.00000000000E+00 -0.37798213176E+03  0.37798213179E+03  0.50400000000E-02 0.  1.
    8880022    1    1    2    0    0 -0.16504834717E+03  0.46918297468E+03 -0.14878367523E+03  0.54120407950E+03  0.15294330000E+03 0.  0.
    8880022    1    1    2    0    0  0.16504834717E+03 -0.46918297468E+03  0.20189941746E+04  0.20849706834E+04  0.15294330000E+03 0.  0.
<mgrwt>
<rscale>  0 0.52035111E+03</rscale>
<asrwt>0</asrwt>
<pdfrwt beam="1">  1        1 0.34587579E+00 0.52035111E+03</pdfrwt>
<pdfrwt beam="2">  1       -1 0.58151098E-01 0.52035111E+03</pdfrwt>
<totfact> 0.66815098E+00</totfact>
</mgrwt>
</event>
<event>
 4    1  0.4964158E-009  0.6856192E+03  0.7818608E-02  0.9742146E-01
         -1   -1    0    0    0  501 -0.00000000000E+00  0.00000000000E+00  0.39806433039E+03  0.39806433043E+03  0.50400000000E-02 0.  1.
          1   -1    0    0  501    0  0.00000000000E+00 -0.00000000000E+00 -0.16872600017E+04  0.16872600018E+04  0.50400000000E-02 0. -1.
    8880022    1    1    2    0    0 -0.10625259837E+03 -0.65984270057E+03 -0.73404862767E+02  0.68953747617E+03  0.15294330000E+03 0.  0.
    8880022    1    1    2    0    0  0.10625259837E+03  0.65984270057E+03 -0.12157908086E+04  0.13957868560E+04  0.15294330000E+03 0.  0.
<mgrwt>
<rscale>  0 0.68561918E+03</rscale>
<asrwt>0</asrwt>
<pdfrwt beam="1">  1        1 0.25957846E+00 0.68561918E+03</pdfrwt>
<pdfrwt beam="2">  1       -1 0.61240667E-01 0.68561918E+03</pdfrwt>
<totfact> 0.13801034E+01</totfact>
</mgrwt>
</event>
<event>
 4    1  0.4964158E-009  0.3023710E+03  0.7818608E-02  0.1084061E+00
         -1   -1    0    0    0  501 -0.00000000000E+00  0.00000000000E+00  0.10392729143E+04  0.10392729143E+04  0.50400000000E-02 0.  1.
          1   -1    0    0  501    0  0.00000000000E+00 -0.00000000000E+00 -0.46604025307E+03  0.46604025309E+03  0.50400000000E-02 0. -1.
    8880022    1    1    2    0    0  0.18527195785E+03  0.18360514630E+03 -0.39128977537E+03  0.49450570213E+03  0.15294330000E+03 0.  0.
    8880022    1    1    2    0    0 -0.18527195785E+03 -0.18360514630E+03  0.96452243660E+03  0.10108074653E+04  0.15294330000E+03 0.  0.
<mgrwt>
<rscale>  0 0.30237097E+03</rscale>
<asrwt>0</asrwt>
<pdfrwt beam="1">  1        1 0.71698501E-01 0.30237097E+03</pdfrwt>
<pdfrwt beam="2">  1       -1 0.15988814E+00 0.30237097E+03</pdfrwt>
<totfact> 0.15895646E+01</totfact>
</mgrwt>
</event>
<event>
 4    1  0.4964158E-009  0.4916997E+03  0.7818608E-02  0.1015968E+00
         -1   -1    0    0    0  501 -0.00000000000E+00  0.00000000000E+00  0.20829097138E+03  0.20829097144E+03  0.50400000000E-02 0.  1.
          1   -1    0    0  501    0  0.00000000000E+00 -0.00000000000E+00 -0.22030973504E+04  0.22030973504E+04  0.50400000000E-02 0. -1.
    8880022    1    1    2    0    0 -0.39330038210E+03 -0.25237224325E+03 -0.18267414474E+04  0.18917592099E+04  0.15294330000E+03 0.  0.
    8880022    1    1    2    0    0  0.39330038210E+03  0.25237224325E+03 -0.16806493167E+03  0.51962911196E+03  0.15294330000E+03 0.  0.
<mgrwt>
<rscale>  0 0.49169970E+03</rscale>
<asrwt>0</asrwt>
<pdfrwt beam="1">  1        1 0.33893804E+00 0.49169970E+03</pdfrwt>
<pdfrwt beam="2">  1       -1 0.32044766E-01 0.49169970E+03</pdfrwt>
<totfact> 0.21496611E+01</totfact>
</mgrwt>
</event>
<event>
 4    1  0.4964158E-009  0.1611156E+04  0.7818608E-02  0.8813724E-01
         -1   -1    0    0    0  501 -0.00000000000E+00  0.00000000000E+00  0.16264031189E+04  0.16264031189E+04  0.50400000000E-02 0.  1.
          1   -1    0    0  501    0  0.00000000000E+00 -0.00000000000E+00 -0.18888458318E+04  0.18888458318E+04  0.50400000000E-02 0. -1.
    8880022    1    1    2    0    0 -0.11285045699E+04  0.11396966670E+04 -0.82322656443E+03  0.18092884476E+04  0.15294330000E+03 0.  0.
    8880022    1    1    2    0    0  0.11285045699E+04 -0.11396966670E+04  0.56078385157E+03  0.17059605032E+04  0.15294330000E+03 0.  0.
<mgrwt>
<rscale>  0 0.16111557E+04</rscale>
<asrwt>0</asrwt>
<pdfrwt beam="1">  1        1 0.29059167E+00 0.16111557E+04</pdfrwt>
<pdfrwt beam="2">  1       -1 0.25021587E+00 0.16111557E+04</pdfrwt>
<totfact> 0.22960053E-01</totfact>
</mgrwt>
</event>
<event>
 4    1  0.4964158E-009  0.3741643E+03  0.7818608E-02  0.1053112E+00
          1   -1    0    0  501    0  0.00000000000E+00  0.00000000000E+00  0.19453613611E+03  0.19453613617E+03  0.50400000000E-02 0. -1.
         -1   -1    0    0    0  501 -0.00000000000E+00 -0.00000000000E+00 -0.75362605275E+03  0.75362605277E+03  0.50400000000E-02 0.  1.
    8880022    1    1    2    0    0 -0.32712386967E+03 -0.97965500207E+02 -0.17889150364E+03  0.41473013928E+03  0.15294330000E+03 0.  0.
    8880022    1    1    2    0    0  0.32712386967E+03  0.97965500207E+02 -0.38019841301E+03  0.53343204966E+03  0.15294330000E+03 0.  0.
<mgrwt>
<rscale>  0 0.37416429E+03</rscale>
<asrwt>0</asrwt>
<pdfrwt beam="1">  1        1 0.29928637E-01 0.37416429E+03</pdfrwt>
<pdfrwt beam="2">  1       -1 0.11594247E+00 0.37416429E+03</pdfrwt>
<totfact> 0.10847441E+02</totfact>
</mgrwt>
</event>
<event>
 4    1  0.4964158E-009  0.1861105E+04  0.7818608E-02  0.8674463E-01
         -1   -1    0    0    0  501 -0.00000000000E+00  0.00000000000E+00  0.19927804600E+04  0.19927804600E+04  0.50400000000E-02 0.  1.
          1   -1    0    0  501    0  0.00000000000E+00 -0.00000000000E+00 -0.20307352789E+04  0.20307352790E+04  0.50400000000E-02 0. -1.
    8880022    1    1    2    0    0  0.18274086946E+04  0.31764361899E+03  0.74466505707E+03  0.20045542412E+04  0.15294330000E+03 0.  0.
    8880022    1    1    2    0    0 -0.18274086946E+04 -0.31764361899E+03 -0.78261987607E+03  0.20189614977E+04  0.15294330000E+03 0.  0.
<mgrwt>
<rscale>  0 0.18611050E+04</rscale>
<asrwt>0</asrwt>
<pdfrwt beam="1">  1        1 0.31242081E+00 0.18611050E+04</pdfrwt>
<pdfrwt beam="2">  1       -1 0.30658161E+00 0.18611050E+04</pdfrwt>
<totfact> 0.76852729E-02</totfact>
</mgrwt>
</event>
<event>
 4    1  0.4964158E-009  0.9986688E+03  0.7818608E-02  0.9310006E-01
         -1   -1    0    0    0  501 -0.00000000000E+00  0.00000000000E+00  0.66410257860E+03  0.66410257862E+03  0.50400000000E-02 0.  1.
          1   -1    0    0  501    0  0.00000000000E+00 -0.00000000000E+00 -0.25218083302E+04  0.25218083302E+04  0.50400000000E-02 0. -1.
    8880022    1    1    2    0    0  0.25295849816E+03 -0.95391805830E+03  0.84247877195E+02  0.10022160553E+04  0.15294330000E+03 0.  0.
    8880022    1    1    2    0    0 -0.25295849816E+03  0.95391805830E+03 -0.19419536288E+04  0.21836948535E+04  0.15294330000E+03 0.  0.
<mgrwt>
<rscale>  0 0.99866877E+03</rscale>
<asrwt>0</asrwt>
<pdfrwt beam="1">  1        1 0.38797051E+00 0.99866877E+03</pdfrwt>
<pdfrwt beam="2">  1       -1 0.10216963E+00 0.99866877E+03</pdfrwt>
<totfact> 0.12095653E+00</totfact>
</mgrwt>
</event>
<event>
 4    1  0.4964158E-009  0.5891574E+03  0.7818608E-02  0.9928160E-01
          1   -1    0    0  501    0  0.00000000000E+00  0.00000000000E+00  0.60583852189E+03  0.60583852191E+03  0.50400000000E-02 0. -1.
         -1   -1    0    0    0  501 -0.00000000000E+00 -0.00000000000E+00 -0.89475770337E+03  0.89475770339E+03  0.50400000000E-02 0.  1.
    8880022    1    1    2    0    0  0.37456874704E+03  0.42826751790E+03 -0.59443528458E+03  0.83693474878E+03  0.15294330000E+03 0.  0.
    8880022    1    1    2    0    0 -0.37456874704E+03 -0.42826751790E+03  0.30551610310E+03  0.66366147652E+03  0.15294330000E+03 0.  0.
<mgrwt>
<rscale>  0 0.58915742E+03</rscale>
<asrwt>0</asrwt>
<pdfrwt beam="1">  1        1 0.93205927E-01 0.58915742E+03</pdfrwt>
<pdfrwt beam="2">  1       -1 0.13765503E+00 0.58915742E+03</pdfrwt>
<totfact> 0.15532519E+01</totfact>
</mgrwt>
</event>
<event>
 4    1  0.4964158E-009  0.2038876E+03  0.7818608E-02  0.1146500E+00
          1   -1    0    0  501    0  0.00000000000E+00  0.00000000000E+00  0.18104201596E+04  0.18104201596E+04  0.50400000000E-02 0. -1.
         -1   -1    0    0    0  501 -0.00000000000E+00 -0.00000000000E+00 -0.15623560385E+03  0.15623560393E+03  0.50400000000E-02 0.  1.
    8880022    1    1    2    0    0  0.13278148567E+03 -0.23400469343E+02 -0.81106802916E+02  0.21942759944E+03  0.15294330000E+03 0.  0.
    8880022    1    1    2    0    0 -0.13278148567E+03  0.23400469343E+02  0.17352913587E+04  0.17472281641E+04  0.15294330000E+03 0.  0.
<mgrwt>
<rscale>  0 0.20388761E+03</rscale>
<asrwt>0</asrwt>
<pdfrwt beam="1">  1        1 0.27852620E+00 0.20388761E+03</pdfrwt>
<pdfrwt beam="2">  1       -1 0.24036245E-01 0.20388761E+03</pdfrwt>
<totfact> 0.68870174E+01</totfact>
</mgrwt>
</event>
<event>
 4    1  0.4964158E-009  0.3606220E+03  0.7818608E-02  0.1058338E+00
          1   -1    0    0  501    0  0.00000000000E+00  0.00000000000E+00  0.38923242185E+03  0.38923242188E+03  0.50400000000E-02 0. -1.
         -1   -1    0    0    0  501 -0.00000000000E+00 -0.00000000000E+00 -0.82298239098E+03  0.82298239099E+03  0.50400000000E-02 0.  1.
    8880022    1    1    2    0    0  0.31695807536E+03  0.78703080526E+02  0.25026819819E+03  0.43895605756E+03  0.15294330000E+03 0. -1.
    8880022    1    1    2    0    0 -0.31695807536E+03 -0.78703080526E+02 -0.68401816733E+03  0.77325875531E+03  0.15294330000E+03 0.  0.
<mgrwt>
<rscale>  0 0.36062203E+03</rscale>
<asrwt>0</asrwt>
<pdfrwt beam="1">  1        1 0.59881911E-01 0.36062203E+03</pdfrwt>
<pdfrwt beam="2">  1       -1 0.12661268E+00 0.36062203E+03</pdfrwt>
<totfact> 0.36235077E+01</totfact>
</mgrwt>
</event>
<event>
 4    1  0.4964158E-009  0.7467173E+03  0.7818608E-02  0.9640515E-01
          1   -1    0    0  501    0  0.00000000000E+00  0.00000000000E+00  0.16826262785E+04  0.16826262785E+04  0.50400000000E-02 0. -1.
         -1   -1    0    0    0  501 -0.00000000000E+00 -0.00000000000E+00 -0.81042956875E+03  0.81042956876E+03  0.50400000000E-02 0.  1.
    8880022    1    1    2    0    0  0.71162153962E+03 -0.16670272349E+03  0.13944726264E+04  0.15818155937E+04  0.15294330000E+03 0.  0.
    8880022    1    1    2    0    0 -0.71162153962E+03  0.16670272349E+03 -0.52227591663E+03  0.91124025359E+03  0.15294330000E+03 0.  0.
<mgrwt>
<rscale>  0 0.74671726E+03</rscale>
<asrwt>0</asrwt>
<pdfrwt beam="1">  1        1 0.25886558E+00 0.74671726E+03</pdfrwt>
<pdfrwt beam="2">  1       -1 0.12468147E+00 0.74671726E+03</pdfrwt>
<totfact> 0.28911981E+00</totfact>
</mgrwt>
</event>
<event>
 4    1  0.4964158E-009  0.1073522E+04  0.7818608E-02  0.9231391E-01
          1   -1    0    0  501    0  0.00000000000E+00  0.00000000000E+00  0.22373419183E+04  0.22373419183E+04  0.50400000000E-02 0. -1.
         -1   -1    0    0    0  501 -0.00000000000E+00 -0.00000000000E+00 -0.65784503851E+03  0.65784503853E+03  0.50400000000E-02 0.  1.
    8880022    1    1    2    0    0 -0.10575139207E+04 -0.10354623058E+03  0.14640733015E+04  0.18154778433E+04  0.15294330000E+03 0.  0.
    8880022    1    1    2    0    0  0.10575139207E+04  0.10354623058E+03  0.11542357835E+03  0.10797091136E+04  0.15294330000E+03 0.  0.
<mgrwt>
<rscale>  0 0.10735219E+04</rscale>
<asrwt>0</asrwt>
<pdfrwt beam="1">  1        1 0.34420645E+00 0.10735219E+04</pdfrwt>
<pdfrwt beam="2">  1       -1 0.10120693E+00 0.10735219E+04</pdfrwt>
<totfact> 0.19121731E+00</totfact>
</mgrwt>
</event>
<event>
 4    1  0.4964158E-009  0.6096927E+03  0.7818608E-02  0.9885498E-01
          1   -1    0    0  501    0  0.00000000000E+00  0.00000000000E+00  0.34608543739E+04  0.34608543739E+04  0.50400000000E-02 0. -1.
         -1   -1    0    0    0  501 -0.00000000000E+00 -0.00000000000E+00 -0.29398646472E+03  0.29398646476E+03  0.50400000000E-02 0.  1.
    8880022    1    1    2    0    0  0.53150874271E+03  0.25657743840E+03  0.30790773046E+04  0.31388600202E+04  0.15294330000E+03 0.  0.
    8880022    1    1    2    0    0 -0.53150874271E+03 -0.25657743840E+03  0.87790604563E+02  0.61598081848E+03  0.15294330000E+03 0.  0.
<mgrwt>
<rscale>  0 0.60969269E+03</rscale>
<asrwt>0</asrwt>
<pdfrwt beam="1">  1        1 0.53243917E+00 0.60969269E+03</pdfrwt>
<pdfrwt beam="2">  1       -1 0.45228684E-01 0.60969269E+03</pdfrwt>
<totfact> 0.14649500E+00</totfact>
</mgrwt>
</event>
<event>
 4    1  0.4964158E-009  0.9796262E+03  0.7818608E-02  0.9331177E-01
         -1   -1    0    0    0  501 -0.00000000000E+00  0.00000000000E+00  0.72203936448E+03  0.72203936450E+03  0.50400000000E-02 0.  1.
          1   -1    0    0  501    0  0.00000000000E+00 -0.00000000000E+00 -0.16410797482E+04  0.16410797482E+04  0.50400000000E-02 0. -1.
    8880022    1    1    2    0    0 -0.97336631055E+02  0.96270528127E+03 -0.97468850670E+03  0.13819136067E+04  0.15294330000E+03 0.  0.
    8880022    1    1    2    0    0  0.97336631055E+02 -0.96270528127E+03  0.55648123009E+02  0.98120550596E+03  0.15294330000E+03 0.  0.
<mgrwt>
<rscale>  0 0.97962622E+03</rscale>
<asrwt>0</asrwt>
<pdfrwt beam="1">  1        1 0.25247381E+00 0.97962622E+03</pdfrwt>
<pdfrwt beam="2">  1       -1 0.11108298E+00 0.97962622E+03</pdfrwt>
<totfact> 0.39364888E+00</totfact>
</mgrwt>
</event>
<event>
 4    1  0.4964158E-009  0.1262474E+04  0.7818608E-02  0.9059864E-01
         -1   -1    0    0    0  501 -0.00000000000E+00  0.00000000000E+00  0.12942794898E+04  0.12942794898E+04  0.50400000000E-02 0.  1.
          1   -1    0    0  501    0  0.00000000000E+00 -0.00000000000E+00 -0.21294869488E+04  0.21294869488E+04  0.50400000000E-02 0. -1.
    8880022    1    1    2    0    0  0.30428217860E+03 -0.12156734947E+04  0.69408597743E+03  0.14406931273E+04  0.15294330000E+03 0.  0.
    8880022    1    1    2    0    0 -0.30428217860E+03  0.12156734947E+04 -0.15292934365E+04  0.19830733113E+04  0.15294330000E+03 0.  0.
<mgrwt>
<rscale>  0 0.12624743E+04</rscale>
<asrwt>0</asrwt>
<pdfrwt beam="1">  1        1 0.32761338E+00 0.12624743E+04</pdfrwt>
<pdfrwt beam="2">  1       -1 0.19911992E+00 0.12624743E+04</pdfrwt>
<totfact> 0.36167602E-01</totfact>
</mgrwt>
</event>
<event>
 4    1  0.4964158E-009  0.2193986E+03  0.7818608E-02  0.1134332E+00
         -1   -1    0    0    0  501 -0.00000000000E+00  0.00000000000E+00  0.97337439347E+02  0.97337439477E+02  0.50400000000E-02 0.  1.
          1   -1    0    0  501    0  0.00000000000E+00 -0.00000000000E+00 -0.63626089204E+03  0.63626089206E+03  0.50400000000E-02 0. -1.
    8880022    1    1    2    0    0 -0.93749075760E+02  0.12631392957E+03 -0.96340080486E+02  0.23961878502E+03  0.15294330000E+03 0.  0.
    8880022    1    1    2    0    0  0.93749075760E+02 -0.12631392957E+03 -0.44258337220E+03  0.49397954652E+03  0.15294330000E+03 0. -1.
<mgrwt>
<rscale>  0 0.21939861E+03</rscale>
<asrwt>0</asrwt>
<pdfrwt beam="1">  1        1 0.97886288E-01 0.21939861E+03</pdfrwt>
<pdfrwt beam="2">  1       -1 0.14974991E-01 0.21939861E+03</pdfrwt>
<totfact> 0.10446021E+03</totfact>
</mgrwt>
</event>
<event>
 4    1  0.4964158E-009  0.9102451E+03  0.7818608E-02  0.9412864E-01
          1   -1    0    0  501    0  0.00000000000E+00  0.00000000000E+00  0.20969934038E+04  0.20969934039E+04  0.50400000000E-02 0. -1.
         -1   -1    0    0    0  501 -0.00000000000E+00 -0.00000000000E+00 -0.45256343334E+03  0.45256343337E+03  0.50400000000E-02 0.  1.
    8880022    1    1    2    0    0  0.73740947301E+03  0.51125506656E+03  0.12764153144E+04  0.15677315401E+04  0.15294330000E+03 0. -1.
    8880022    1    1    2    0    0 -0.73740947301E+03 -0.51125506656E+03  0.36801465615E+03  0.98182529716E+03  0.15294330000E+03 0.  0.
<mgrwt>
<rscale>  0 0.91024509E+03</rscale>
<asrwt>0</asrwt>
<pdfrwt beam="1">  1        1 0.32261437E+00 0.91024509E+03</pdfrwt>
<pdfrwt beam="2">  1       -1 0.69625145E-01 0.91024509E+03</pdfrwt>
<totfact> 0.54748836E+00</totfact>
</mgrwt>
</event>
<event>
 4    1  0.4964158E-009  0.5749730E+03  0.7818608E-02  0.9958734E-01
          1   -1    0    0  501    0  0.00000000000E+00  0.00000000000E+00  0.10733822872E+04  0.10733822873E+04  0.50400000000E-02 0. -1.
         -1   -1    0    0    0  501 -0.00000000000E+00 -0.00000000000E+00 -0.64613351142E+03  0.64613351144E+03  0.50400000000E-02 0.  1.
    8880022    1    1    2    0    0  0.16269245657E+03 -0.52984283329E+03  0.83558636063E+03  0.10142970386E+04  0.15294330000E+03 0.  0.
    8880022    1    1    2    0    0 -0.16269245657E+03  0.52984283329E+03 -0.40833758481E+03  0.70521876010E+03  0.15294330000E+03 0.  0.
<mgrwt>
<rscale>  0 0.57497297E+03</rscale>
<asrwt>0</asrwt>
<pdfrwt beam="1">  1        1 0.16513574E+00 0.57497297E+03</pdfrwt>
<pdfrwt beam="2">  1       -1 0.99405156E-01 0.57497297E+03</pdfrwt>
<totfact> 0.13599339E+01</totfact>
</mgrwt>
</event>
<event>
 4    1  0.4964158E-009  0.3519511E+03  0.7818608E-02  0.1061817E+00
         -1   -1    0    0    0  501 -0.00000000000E+00  0.00000000000E+00  0.36448538631E+03  0.36448538634E+03  0.50400000000E-02 0.  1.
          1   -1    0    0  501    0  0.00000000000E+00 -0.00000000000E+00 -0.81968161400E+03  0.81968161402E+03  0.50400000000E-02 0. -1.
    8880022    1    1    2    0    0 -0.78629355049E+02 -0.30707546357E+03 -0.68060600939E+03  0.76622066589E+03  0.15294330000E+03 0.  0.
    8880022    1    1    2    0    0  0.78629355049E+02  0.30707546357E+03  0.22540978170E+03  0.41794633447E+03  0.15294330000E+03 0.  0.
<mgrwt>
<rscale>  0 0.35195109E+03</rscale>
<asrwt>0</asrwt>
<pdfrwt beam="1">  1        1 0.12610486E+00 0.35195109E+03</pdfrwt>
<pdfrwt beam="2">  1       -1 0.56074675E-01 0.35195109E+03</pdfrwt>
<totfact> 0.73276586E+01</totfact>
</mgrwt>
</event>
<event>
 4    1  0.4964158E-009  0.6473630E+03  0.7818608E-02  0.9811740E-01
          1   -1    0    0  501    0  0.00000000000E+00  0.00000000000E+00  0.40542450937E+04  0.40542450937E+04  0.50400000000E-02 0. -1.
         -1   -1    0    0    0  501 -0.00000000000E+00 -0.00000000000E+00 -0.55257331201E+03  0.55257331203E+03  0.50400000000E-02 0.  1.
    8880022    1    1    2    0    0 -0.20713284704E+03  0.59395558269E+03  0.38276547679E+04  0.38820123552E+04  0.15294330000E+03 0.  0.
    8880022    1    1    2    0    0  0.20713284704E+03 -0.59395558269E+03 -0.32598298624E+03  0.72480605052E+03  0.15294330000E+03 0.  0.
<mgrwt>
<rscale>  0 0.64736304E+03</rscale>
<asrwt>0</asrwt>
<pdfrwt beam="1">  1        1 0.62373000E+00 0.64736304E+03</pdfrwt>
<pdfrwt beam="2">  1       -1 0.85011280E-01 0.64736304E+03</pdfrwt>
<totfact> 0.13605223E-01</totfact>
</mgrwt>
</event>
<event>
 4    1  0.4964158E-009  0.7057712E+03  0.7818608E-02  0.9707413E-01
          1   -1    0    0  501    0  0.00000000000E+00  0.00000000000E+00  0.38354839640E+03  0.38354839644E+03  0.50400000000E-02 0. -1.
         -1   -1    0    0    0  501 -0.00000000000E+00 -0.00000000000E+00 -0.29719326945E+04  0.29719326945E+04  0.50400000000E-02 0.  1.
    8880022    1    1    2    0    0  0.68335547661E+03  0.88015243271E+02 -0.25530709268E+04  0.26488269480E+04  0.15294330000E+03 0.  0.
    8880022    1    1    2    0    0 -0.68335547661E+03 -0.88015243271E+02 -0.35313371313E+02  0.70665414290E+03  0.15294330000E+03 0.  0.
<mgrwt>
<rscale>  0 0.70577124E+03</rscale>
<asrwt>0</asrwt>
<pdfrwt beam="1">  1        1 0.59007448E-01 0.70577124E+03</pdfrwt>
<pdfrwt beam="2">  1       -1 0.45722040E+00 0.70577124E+03</pdfrwt>
<totfact> 0.19851908E-01</totfact>
</mgrwt>
</event>
<event>
 4    1  0.4964158E-009  0.7317647E+03  0.7818608E-02  0.9664401E-01
         -1   -1    0    0    0  501 -0.00000000000E+00  0.00000000000E+00  0.73537011995E+03  0.73537011997E+03  0.50400000000E-02 0.  1.
          1   -1    0    0  501    0  0.00000000000E+00 -0.00000000000E+00 -0.18146375238E+04  0.18146375238E+04  0.50400000000E-02 0. -1.
    8880022    1    1    2    0    0  0.14502305658E+03 -0.70075402449E+03  0.44692637337E+03  0.85745129658E+03  0.15294330000E+03 0.  0.
    8880022    1    1    2    0    0 -0.14502305658E+03  0.70075402449E+03 -0.15261937772E+04  0.16925563472E+04  0.15294330000E+03 0.  0.
<mgrwt>
<rscale>  0 0.73176468E+03</rscale>
<asrwt>0</asrwt>
<pdfrwt beam="1">  1        1 0.27917500E+00 0.73176468E+03</pdfrwt>
<pdfrwt beam="2">  1       -1 0.11313387E+00 0.73176468E+03</pdfrwt>
<totfact> 0.29927728E+00</totfact>
</mgrwt>
</event>
<event>
 4    1  0.4964158E-009  0.4220463E+03  0.7818608E-02  0.1036402E+00
          1   -1    0    0  501    0  0.00000000000E+00  0.00000000000E+00  0.15830984301E+04  0.15830984301E+04  0.50400000000E-02 0. -1.
         -1   -1    0    0    0  501 -0.00000000000E+00 -0.00000000000E+00 -0.80655254406E+03  0.80655254407E+03  0.50400000000E-02 0.  1.
    8880022    1    1    2    0    0 -0.30518024495E+03 -0.24818633016E+03  0.14966294504E+04  0.15549992930E+04  0.15294330000E+03 0.  0.
    8880022    1    1    2    0    0  0.30518024495E+03  0.24818633016E+03 -0.72008356431E+03  0.83465168123E+03  0.15294330000E+03 0.  0.
<mgrwt>
<rscale>  0 0.42204631E+03</rscale>
<asrwt>0</asrwt>
<pdfrwt beam="1">  1        1 0.24355360E+00 0.42204631E+03</pdfrwt>
<pdfrwt beam="2">  1       -1 0.12408501E+00 0.42204631E+03</pdfrwt>
<totfact> 0.36910894E+00</totfact>
</mgrwt>
</event>
<event>
 4    1  0.4964158E-009  0.2357323E+04  0.7818608E-02  0.8455656E-01
          1   -1    0    0  501    0  0.00000000000E+00  0.00000000000E+00  0.20302019477E+04  0.20302019477E+04  0.50400000000E-02 0. -1.
         -1   -1    0    0    0  501 -0.00000000000E+00 -0.00000000000E+00 -0.33556136032E+04  0.33556136032E+04  0.50400000000E-02 0.  1.
    8880022    1    1    2    0    0  0.22022382399E+04  0.82687825443E+03  0.49338422088E+03  0.24084020751E+04  0.15294330000E+03 0.  0.
    8880022    1    1    2    0    0 -0.22022382399E+04 -0.82687825443E+03 -0.18187958764E+04  0.29774134758E+04  0.15294330000E+03 0.  0.
<mgrwt>
<rscale>  0 0.23573232E+04</rscale>
<asrwt>0</asrwt>
<pdfrwt beam="1">  1        1 0.31233876E+00 0.23573232E+04</pdfrwt>
<pdfrwt beam="2">  1       -1 0.51624825E+00 0.23573232E+04</pdfrwt>
<totfact> 0.28223647E-03</totfact>
</mgrwt>
</event>
<event>
 4    1  0.4964158E-009  0.1024983E+04  0.7818608E-02  0.9281561E-01
          1   -1    0    0  501    0  0.00000000000E+00  0.00000000000E+00  0.27250949840E+04  0.27250949840E+04  0.50400000000E-02 0. -1.
         -1   -1    0    0    0  501 -0.00000000000E+00 -0.00000000000E+00 -0.38561238591E+03  0.38561238594E+03  0.50400000000E-02 0.  1.
    8880022    1    1    2    0    0 -0.95766307164E+03 -0.33178192302E+03  0.11932918703E+04  0.15730654608E+04  0.15294330000E+03 0.  1.
    8880022    1    1    2    0    0  0.95766307164E+03  0.33178192302E+03  0.11461907277E+04  0.15376419091E+04  0.15294330000E+03 0. -1.
<mgrwt>
<rscale>  0 0.10249827E+04</rscale>
<asrwt>0</asrwt>
<pdfrwt beam="1">  1        1 0.41924537E+00 0.10249827E+04</pdfrwt>
<pdfrwt beam="2">  1       -1 0.59324984E-01 0.10249827E+04</pdfrwt>
<totfact> 0.27652583E+00</totfact>
</mgrwt>
</event>
<event>
 4    1  0.4964158E-009  0.6940081E+03  0.7818608E-02  0.9727534E-01
          1   -1    0    0  501    0  0.00000000000E+00  0.00000000000E+00  0.19944260857E+04  0.19944260857E+04  0.50400000000E-02 0. -1.
         -1   -1    0    0    0  501 -0.00000000000E+00 -0.00000000000E+00 -0.34650388682E+03  0.34650388685E+03  0.50400000000E-02 0.  1.
    8880022    1    1    2    0    0  0.73919727340E+02 -0.67289781289E+03  0.14682994162E+04  0.16240537003E+04  0.15294330000E+03 0.  0.
    8880022    1    1    2    0    0 -0.73919727340E+02  0.67289781289E+03  0.17962278265E+03  0.71687627227E+03  0.15294330000E+03 0.  0.
<mgrwt>
<rscale>  0 0.69400810E+03</rscale>
<asrwt>0</asrwt>
<pdfrwt beam="1">  1        1 0.30683479E+00 0.69400810E+03</pdfrwt>
<pdfrwt beam="2">  1       -1 0.53308290E-01 0.69400810E+03</pdfrwt>
<totfact> 0.11252168E+01</totfact>
</mgrwt>
</event>
<event>
 4    1  0.4964158E-009  0.7920751E+03  0.7818608E-02  0.9571559E-01
          1   -1    0    0  501    0  0.00000000000E+00  0.00000000000E+00  0.19894063418E+04  0.19894063418E+04  0.50400000000E-02 0. -1.
         -1   -1    0    0    0  501 -0.00000000000E+00 -0.00000000000E+00 -0.66127336831E+03  0.66127336832E+03  0.50400000000E-02 0.  1.
    8880022    1    1    2    0    0  0.58872778705E+02  0.77493567153E+03  0.16226263182E+04  0.18056298404E+04  0.15294330000E+03 0.  0.
    8880022    1    1    2    0    0 -0.58872778705E+02 -0.77493567153E+03 -0.29449334476E+03  0.84504986966E+03  0.15294330000E+03 0.  0.
<mgrwt>
<rscale>  0 0.79207509E+03</rscale>
<asrwt>0</asrwt>
<pdfrwt beam="1">  1        1 0.30606251E+00 0.79207509E+03</pdfrwt>
<pdfrwt beam="2">  1       -1 0.10173436E+00 0.79207509E+03</pdfrwt>
<totfact> 0.28989195E+00</totfact>
</mgrwt>
</event>
<event>
 4    1  0.4964158E-009  0.9499546E+03  0.7818608E-02  0.9365204E-01
          1   -1    0    0  501    0  0.00000000000E+00  0.00000000000E+00  0.11081705554E+04  0.11081705554E+04  0.50400000000E-02 0. -1.
         -1   -1    0    0    0  501 -0.00000000000E+00 -0.00000000000E+00 -0.19251688448E+04  0.19251688448E+04  0.50400000000E-02 0.  1.
    8880022    1    1    2    0    0 -0.45893549281E+03  0.81755755331E+03  0.74358078219E+03  0.12063690033E+04  0.15294330000E+03 0.  0.
    8880022    1    1    2    0    0  0.45893549281E+03 -0.81755755331E+03 -0.15605790715E+04  0.18269703969E+04  0.15294330000E+03 0.  0.
<mgrwt>
<rscale>  0 0.94995463E+03</rscale>
<asrwt>0</asrwt>
<pdfrwt beam="1">  1        1 0.17048778E+00 0.94995463E+03</pdfrwt>
<pdfrwt beam="2">  1       -1 0.29617982E+00 0.94995463E+03</pdfrwt>
<totfact> 0.44692189E-01</totfact>
</mgrwt>
</event>
<event>
 4    1  0.4964158E-009  0.3552434E+03  0.7818608E-02  0.1060483E+00
          1   -1    0    0  501    0  0.00000000000E+00  0.00000000000E+00  0.16498299480E+04  0.16498299480E+04  0.50400000000E-02 0. -1.
         -1   -1    0    0    0  501 -0.00000000000E+00 -0.00000000000E+00 -0.14411763167E+03  0.14411763176E+03  0.50400000000E-02 0.  1.
    8880022    1    1    2    0    0  0.16239571435E+03  0.27646667413E+03  0.13672950679E+04  0.14126902157E+04  0.15294330000E+03 0.  0.
    8880022    1    1    2    0    0 -0.16239571435E+03 -0.27646667413E+03  0.13841724842E+03  0.38125736402E+03  0.15294330000E+03 0.  0.
<mgrwt>
<rscale>  0 0.35524336E+03</rscale>
<asrwt>0</asrwt>
<pdfrwt beam="1">  1        1 0.25381997E+00 0.35524336E+03</pdfrwt>
<pdfrwt beam="2">  1       -1 0.22171945E-01 0.35524336E+03</pdfrwt>
<totfact> 0.95931305E+01</totfact>
</mgrwt>
</event>
<event>
 4    1  0.4964158E-009  0.1499261E+04  0.7818608E-02  0.8884945E-01
         -1   -1    0    0    0  501 -0.00000000000E+00  0.00000000000E+00  0.14574415629E+04  0.14574415629E+04  0.50400000000E-02 0.  1.
          1   -1    0    0  501    0  0.00000000000E+00 -0.00000000000E+00 -0.15722810281E+04  0.15722810281E+04  0.50400000000E-02 0. -1.
    8880022    1    1    2    0    0  0.45811273129E+02 -0.14907354685E+04 -0.26667571923E+03  0.15227929939E+04  0.15294330000E+03 0.  0.
    8880022    1    1    2    0    0 -0.45811273129E+02  0.14907354685E+04  0.15183625399E+03  0.15069295972E+04  0.15294330000E+03 0.  0.
<mgrwt>
<rscale>  0 0.14992607E+04</rscale>
<asrwt>0</asrwt>
<pdfrwt beam="1">  1        1 0.24188939E+00 0.14992607E+04</pdfrwt>
<pdfrwt beam="2">  1       -1 0.22422178E+00 0.14992607E+04</pdfrwt>
<totfact> 0.56886904E-01</totfact>
</mgrwt>
</event>
<event>
 4    1  0.4964158E-009  0.9285837E+03  0.7818608E-02  0.9390539E-01
         -1   -1    0    0    0  501 -0.00000000000E+00  0.00000000000E+00  0.96879400956E+03  0.96879400958E+03  0.50400000000E-02 0.  1.
          1   -1    0    0  501    0  0.00000000000E+00 -0.00000000000E+00 -0.21333604934E+04  0.21333604934E+04  0.50400000000E-02 0. -1.
    8880022    1    1    2    0    0  0.30234487080E+03  0.86455981896E+03 -0.17663942798E+04  0.19955992849E+04  0.15294330000E+03 0.  0.
    8880022    1    1    2    0    0 -0.30234487080E+03 -0.86455981896E+03  0.60182779597E+03  0.11065552180E+04  0.15294330000E+03 0.  0.
<mgrwt>
<rscale>  0 0.92858374E+03</rscale>
<asrwt>0</asrwt>
<pdfrwt beam="1">  1        1 0.32820931E+00 0.92858374E+03</pdfrwt>
<pdfrwt beam="2">  1       -1 0.14904523E+00 0.92858374E+03</pdfrwt>
<totfact> 0.88005702E-01</totfact>
</mgrwt>
</event>
<event>
 4    1  0.4964158E-009  0.6521557E+03  0.7818608E-02  0.9802743E-01
         -1   -1    0    0    0  501 -0.00000000000E+00  0.00000000000E+00  0.50136793826E+03  0.50136793829E+03  0.50400000000E-02 0.  1.
          1   -1    0    0  501    0  0.00000000000E+00 -0.00000000000E+00 -0.12588407921E+04  0.12588407921E+04  0.50400000000E-02 0. -1.
    8880022    1    1    2    0    0  0.53746766360E+03 -0.33622000480E+03 -0.88134570744E+03  0.10963928539E+04  0.15294330000E+03 0.  0.
    8880022    1    1    2    0    0 -0.53746766360E+03  0.33622000480E+03  0.12387285359E+03  0.66381587651E+03  0.15294330000E+03 0. -1.
<mgrwt>
<rscale>  0 0.65215568E+03</rscale>
<asrwt>0</asrwt>
<pdfrwt beam="1">  1        1 0.19366781E+00 0.65215568E+03</pdfrwt>
<pdfrwt beam="2">  1       -1 0.77133529E-01 0.65215568E+03</pdfrwt>
<totfact> 0.17088909E+01</totfact>
</mgrwt>
</event>
<event>
 4    1  0.4964158E-009  0.5641538E+03  0.7818608E-02  0.9982700E-01
         -1   -1    0    0    0  501 -0.00000000000E+00  0.00000000000E+00  0.32026124024E+03  0.32026124028E+03  0.50400000000E-02 0.  1.
          1   -1    0    0  501    0  0.00000000000E+00 -0.00000000000E+00 -0.17592849786E+04  0.17592849786E+04  0.50400000000E-02 0. -1.
    8880022    1    1    2    0    0  0.53240980402E+03 -0.10685341710E+03 -0.33638031311E+02  0.56515575050E+03  0.15294330000E+03 0.  0.
    8880022    1    1    2    0    0 -0.53240980402E+03  0.10685341710E+03 -0.14053857071E+04  0.15143904684E+04  0.15294330000E+03 0.  0.
<mgrwt>
<rscale>  0 0.56415380E+03</rscale>
<asrwt>0</asrwt>
<pdfrwt beam="1">  1        1 0.27065922E+00 0.56415380E+03</pdfrwt>
<pdfrwt beam="2">  1       -1 0.49270961E-01 0.56415380E+03</pdfrwt>
<totfact> 0.19173039E+01</totfact>
</mgrwt>
</event>
<event>
 4    1  0.4964158E-009  0.9538248E+03  0.7818608E-02  0.9360691E-01
         -1   -1    0    0    0  501 -0.00000000000E+00  0.00000000000E+00  0.14965076629E+04  0.14965076629E+04  0.50400000000E-02 0.  1.
          1   -1    0    0  501    0  0.00000000000E+00 -0.00000000000E+00 -0.16760282105E+04  0.16760282105E+04  0.50400000000E-02 0. -1.
    8880022    1    1    2    0    0 -0.43477302184E+03 -0.83508236239E+03 -0.13560705610E+04  0.16579231442E+04  0.15294330000E+03 0.  0.
    8880022    1    1    2    0    0  0.43477302184E+03  0.83508236239E+03  0.11765500134E+04  0.15146127292E+04  0.15294330000E+03 0.  0.
<mgrwt>
<rscale>  0 0.95382482E+03</rscale>
<asrwt>0</asrwt>
<pdfrwt beam="1">  1        1 0.25785050E+00 0.95382482E+03</pdfrwt>
<pdfrwt beam="2">  1       -1 0.23023195E+00 0.95382482E+03</pdfrwt>
<totfact> 0.47444707E-01</totfact>
</mgrwt>
</event>
<event>
 4    1  0.4964158E-009  0.1191801E+04  0.7818608E-02  0.9120064E-01
          1   -1    0    0  501    0  0.00000000000E+00  0.00000000000E+00  0.16858340804E+04  0.16858340804E+04  0.50400000000E-02 0. -1.
         -1   -1    0    0    0  501 -0.00000000000E+00 -0.00000000000E+00 -0.12200662047E+04  0.12200662047E+04  0.50400000000E-02 0.  1.
    8880022    1    1    2    0    0 -0.93502384578E+03  0.72299888313E+03 -0.57533779155E+03  0.13234055329E+04  0.15294330000E+03 0.  0.
    8880022    1    1    2    0    0  0.93502384578E+03 -0.72299888313E+03  0.10411056672E+04  0.15824947521E+04  0.15294330000E+03 0.  0.
<mgrwt>
<rscale>  0 0.11918006E+04</rscale>
<asrwt>0</asrwt>
<pdfrwt beam="1">  1        1 0.25935909E+00 0.11918006E+04</pdfrwt>
<pdfrwt beam="2">  1       -1 0.18770249E+00 0.11918006E+04</pdfrwt>
<totfact> 0.87715841E-01</totfact>
</mgrwt>
</event>
<event>
 4    1  0.4964158E-009  0.7919621E+03  0.7818608E-02  0.9571725E-01
          1   -1    0    0  501    0  0.00000000000E+00  0.00000000000E+00  0.11020934360E+04  0.11020934360E+04  0.50400000000E-02 0. -1.
         -1   -1    0    0    0  501 -0.00000000000E+00 -0.00000000000E+00 -0.95510604873E+03  0.95510604874E+03  0.50400000000E-02 0.  1.
    8880022    1    1    2    0    0  0.65723743496E+03  0.41454947485E+03  0.72740123451E+03  0.10753215900E+04  0.15294330000E+03 0.  0.
    8880022    1    1    2    0    0 -0.65723743496E+03 -0.41454947485E+03 -0.58041384725E+03  0.98187789470E+03  0.15294330000E+03 0.  0.
<mgrwt>
<rscale>  0 0.79196210E+03</rscale>
<asrwt>0</asrwt>
<pdfrwt beam="1">  1        1 0.16955284E+00 0.79196210E+03</pdfrwt>
<pdfrwt beam="2">  1       -1 0.14693939E+00 0.79196210E+03</pdfrwt>
<totfact> 0.48026105E+00</totfact>
</mgrwt>
</event>
<event>
 4    1  0.5049310E-009  0.8741737E+03  0.7818608E-02  0.9458454E-01
         -1   -1    0    0    0  501 -0.00000000000E+00  0.00000000000E+00  0.16960060186E+04  0.16960060187E+04  0.50400000000E-02 0.  1.
          1   -1    0    0  501    0  0.00000000000E+00 -0.00000000000E+00 -0.14715327663E+04  0.14715327663E+04  0.50400000000E-02 0. -1.
    8880022    1    1    2    0    0  0.64565157915E+03 -0.56914153720E+03 -0.12069633688E+04  0.14902819457E+04  0.15294330000E+03 0.  0.
    8880022    1    1    2    0    0 -0.64565157915E+03  0.56914153720E+03  0.14314366212E+04  0.16772568392E+04  0.15294330000E+03 0.  0.
<mgrwt>
<rscale>  0 0.87417373E+03</rscale>
<asrwt>0</asrwt>
<pdfrwt beam="1">  1        1 0.22638966E+00 0.87417373E+03</pdfrwt>
<pdfrwt beam="2">  1       -1 0.26092400E+00 0.87417373E+03</pdfrwt>
<totfact> 0.41953670E-01</totfact>
</mgrwt>
</event>
<event>
 4    1  0.4964158E-009  0.5696506E+03  0.7818608E-02  0.9970452E-01
          1   -1    0    0  501    0  0.00000000000E+00  0.00000000000E+00  0.16798238730E+04  0.16798238730E+04  0.50400000000E-02 0. -1.
         -1   -1    0    0    0  501 -0.00000000000E+00 -0.00000000000E+00 -0.27326830615E+03  0.27326830620E+03  0.50400000000E-02 0.  1.
    8880022    1    1    2    0    0  0.38968501101E+03  0.38633636095E+03  0.17459738488E+03  0.59580709245E+03  0.15294330000E+03 0.  0.
    8880022    1    1    2    0    0 -0.38968501101E+03 -0.38633636095E+03  0.12319581820E+04  0.13572850868E+04  0.15294330000E+03 0.  0.
<mgrwt>
<rscale>  0 0.56965063E+03</rscale>
<asrwt>0</asrwt>
<pdfrwt beam="1">  1        1 0.25843444E+00 0.56965063E+03</pdfrwt>
<pdfrwt beam="2">  1       -1 0.42041278E-01 0.56965063E+03</pdfrwt>
<totfact> 0.29031017E+01</totfact>
</mgrwt>
</event>
<event>
 4    1  0.4964158E-009  0.3380378E+03  0.7818608E-02  0.1067635E+00
          1   -1    0    0  501    0  0.00000000000E+00  0.00000000000E+00  0.11415014539E+04  0.11415014539E+04  0.50400000000E-02 0. -1.
         -1   -1    0    0    0  501 -0.00000000000E+00 -0.00000000000E+00 -0.11674595930E+04  0.11674595930E+04  0.50400000000E-02 0.  1.
    8880022    1    1    2    0    0 -0.17393795548E+03 -0.24621834264E+03 -0.11168546499E+04  0.11668906747E+04  0.15294330000E+03 0.  1.
    8880022    1    1    2    0    0  0.17393795548E+03  0.24621834264E+03  0.10908965108E+04  0.11420703721E+04  0.15294330000E+03 0.  0.
<mgrwt>
<rscale>  0 0.33803778E+03</rscale>
<asrwt>0</asrwt>
<pdfrwt beam="1">  1        1 0.17561561E+00 0.33803778E+03</pdfrwt>
<pdfrwt beam="2">  1       -1 0.17960917E+00 0.33803778E+03</pdfrwt>
<totfact> 0.28703125E+00</totfact>
</mgrwt>
</event>
<event>
 4    1  0.4964158E-009  0.8059181E+03  0.7818608E-02  0.9551490E-01
         -1   -1    0    0    0  501 -0.00000000000E+00  0.00000000000E+00  0.93102415574E+03  0.93102415575E+03  0.50400000000E-02 0.  1.
          1   -1    0    0  501    0  0.00000000000E+00 -0.00000000000E+00 -0.74618234547E+03  0.74618234549E+03  0.50400000000E-02 0. -1.
    8880022    1    1    2    0    0 -0.78978275407E+03 -0.48534603474E+02  0.30634984226E+03  0.86217996105E+03  0.15294330000E+03 0.  0.
    8880022    1    1    2    0    0  0.78978275407E+03  0.48534603474E+02 -0.12150803199E+03  0.81502654019E+03  0.15294330000E+03 0.  0.
<mgrwt>
<rscale>  0 0.80591815E+03</rscale>
<asrwt>0</asrwt>
<pdfrwt beam="1">  1        1 0.11479728E+00 0.80591815E+03</pdfrwt>
<pdfrwt beam="2">  1       -1 0.14323449E+00 0.80591815E+03</pdfrwt>
<totfact> 0.99749677E+00</totfact>
</mgrwt>
</event>
<event>
 4    1  0.4964158E-009  0.9144679E+03  0.7818608E-02  0.9407674E-01
         -1   -1    0    0    0  501 -0.00000000000E+00  0.00000000000E+00  0.82576657659E+03  0.82576657661E+03  0.50400000000E-02 0.  1.
          1   -1    0    0  501    0  0.00000000000E+00 -0.00000000000E+00 -0.21273171741E+04  0.21273171741E+04  0.50400000000E-02 0. -1.
    8880022    1    1    2    0    0  0.54755946099E+03  0.71626712683E+03  0.41801629441E+03  0.10054796048E+04  0.15294330000E+03 0.  0.
    8880022    1    1    2    0    0 -0.54755946099E+03 -0.71626712683E+03 -0.17195668919E+04  0.19476041459E+04  0.15294330000E+03 0.  0.
<mgrwt>
<rscale>  0 0.91446794E+03</rscale>
<asrwt>0</asrwt>
<pdfrwt beam="1">  1        1 0.32727956E+00 0.91446794E+03</pdfrwt>
<pdfrwt beam="2">  1       -1 0.12704101E+00 0.91446794E+03</pdfrwt>
<totfact> 0.13472391E+00</totfact>
</mgrwt>
</event>
<event>
 4    1  0.4964158E-009  0.6941753E+03  0.7818608E-02  0.9727245E-01
          1   -1    0    0  501    0  0.00000000000E+00  0.00000000000E+00  0.16198814634E+04  0.16198814635E+04  0.50400000000E-02 0. -1.
         -1   -1    0    0    0  501 -0.00000000000E+00 -0.00000000000E+00 -0.45406163161E+03  0.45406163164E+03  0.50400000000E-02 0.  1.
    8880022    1    1    2    0    0  0.66822627394E+03 -0.10936774615E+03  0.11918610404E+04  0.13792795401E+04  0.15294330000E+03 0.  0.
    8880022    1    1    2    0    0 -0.66822627394E+03  0.10936774615E+03 -0.26041208570E+02  0.69466355499E+03  0.15294330000E+03 0.  0.
<mgrwt>
<rscale>  0 0.69417527E+03</rscale>
<asrwt>0</asrwt>
<pdfrwt beam="1">  1        1 0.24921253E+00 0.69417527E+03</pdfrwt>
<pdfrwt beam="2">  1       -1 0.69855636E-01 0.69417527E+03</pdfrwt>
<totfact> 0.11745132E+01</totfact>
</mgrwt>
</event>
<event>
 4    1  0.4964158E-009  0.1137470E+04  0.7818608E-02  0.9169422E-01
          1   -1    0    0  501    0  0.00000000000E+00  0.00000000000E+00  0.16218881769E+04  0.16218881769E+04  0.50400000000E-02 0. -1.
         -1   -1    0    0    0  501 -0.00000000000E+00 -0.00000000000E+00 -0.10092482013E+04  0.10092482013E+04  0.50400000000E-02 0.  1.
    8880022    1    1    2    0    0 -0.90456207759E+02 -0.11235048824E+04  0.90857852124E+03  0.14557994809E+04  0.15294330000E+03 0.  0.
    8880022    1    1    2    0    0  0.90456207759E+02  0.11235048824E+04 -0.29593854570E+03  0.11753368973E+04  0.15294330000E+03 0.  0.
<mgrwt>
<rscale>  0 0.11374696E+04</rscale>
<asrwt>0</asrwt>
<pdfrwt beam="1">  1        1 0.24952125E+00 0.11374696E+04</pdfrwt>
<pdfrwt beam="2">  1       -1 0.15526896E+00 0.11374696E+04</pdfrwt>
<totfact> 0.16922935E+00</totfact>
</mgrwt>
</event>
<event>
 4    1  0.4964158E-009  0.1364764E+04  0.7818608E-02  0.8979727E-01
          1   -1    0    0  501    0  0.00000000000E+00  0.00000000000E+00  0.24000489280E+04  0.24000489280E+04  0.50400000000E-02 0. -1.
         -1   -1    0    0    0  501 -0.00000000000E+00 -0.00000000000E+00 -0.94707486957E+03  0.94707486958E+03  0.50400000000E-02 0.  1.
    8880022    1    1    2    0    0 -0.80612254806E+03  0.10905752684E+04  0.15326248608E+02  0.13648496347E+04  0.15294330000E+03 0.  0.
    8880022    1    1    2    0    0  0.80612254806E+03 -0.10905752684E+04  0.14376478098E+04  0.19822741628E+04  0.15294330000E+03 0.  0.
<mgrwt>
<rscale>  0 0.13647636E+04</rscale>
<asrwt>0</asrwt>
<pdfrwt beam="1">  1        1 0.36923829E+00 0.13647636E+04</pdfrwt>
<pdfrwt beam="2">  1       -1 0.14570383E+00 0.13647636E+04</pdfrwt>
<totfact> 0.57836569E-01</totfact>
</mgrwt>
</event>
<event>
 4    1  0.4964158E-009  0.1072468E+04  0.7818608E-02  0.9232449E-01
         -1   -1    0    0    0  501 -0.00000000000E+00  0.00000000000E+00  0.98456133788E+03  0.98456133789E+03  0.50400000000E-02 0.  1.
          1   -1    0    0  501    0  0.00000000000E+00 -0.00000000000E+00 -0.32700979318E+04  0.32700979318E+04  0.50400000000E-02 0. -1.
    8880022    1    1    2    0    0  0.29396341733E+03 -0.10199913880E+04 -0.28482917724E+04  0.30435102425E+04  0.15294330000E+03 0.  0.
    8880022    1    1    2    0    0 -0.29396341733E+03  0.10199913880E+04  0.56275517849E+03  0.12111490272E+04  0.15294330000E+03 0.  0.
<mgrwt>
<rscale>  0 0.10724684E+04</rscale>
<asrwt>0</asrwt>
<pdfrwt beam="1">  1        1 0.50309198E+00 0.10724684E+04</pdfrwt>
<pdfrwt beam="2">  1       -1 0.15147098E+00 0.10724684E+04</pdfrwt>
<totfact> 0.13035613E-01</totfact>
</mgrwt>
</event>
<event>
 4    1  0.4964158E-009  0.5872536E+03  0.7818608E-02  0.9932209E-01
          1   -1    0    0  501    0  0.00000000000E+00  0.00000000000E+00  0.28988084371E+04  0.28988084371E+04  0.50400000000E-02 0. -1.
         -1   -1    0    0    0  501 -0.00000000000E+00 -0.00000000000E+00 -0.26089887933E+03  0.26089887938E+03  0.50400000000E-02 0.  1.
    8880022    1    1    2    0    0 -0.34804823644E+03 -0.44759086841E+03  0.24842030745E+04  0.25526714886E+04  0.15294330000E+03 0.  0.
    8880022    1    1    2    0    0  0.34804823644E+03  0.44759086841E+03  0.15370648334E+03  0.60703582795E+03  0.15294330000E+03 0.  0.
<mgrwt>
<rscale>  0 0.58725362E+03</rscale>
<asrwt>0</asrwt>
<pdfrwt beam="1">  1        1 0.44597054E+00 0.58725362E+03</pdfrwt>
<pdfrwt beam="2">  1       -1 0.40138288E-01 0.58725362E+03</pdfrwt>
<totfact> 0.47297659E+00</totfact>
</mgrwt>
</event>
<event>
 4    1  0.4964158E-009  0.2310236E+03  0.7818608E-02  0.1125921E+00
         -1   -1    0    0    0  501 -0.00000000000E+00  0.00000000000E+00  0.54181228157E+02  0.54181228391E+02  0.50400000000E-02 0.  1.
          1   -1    0    0  501    0  0.00000000000E+00 -0.00000000000E+00 -0.17683267884E+04  0.17683267884E+04  0.50400000000E-02 0. -1.
    8880022    1    1    2    0    0 -0.17253184300E+03  0.14594462642E+02 -0.14635470670E+04  0.14816686221E+04  0.15294330000E+03 0.  0.
    8880022    1    1    2    0    0  0.17253184300E+03 -0.14594462642E+02 -0.25059849323E+03  0.34083939475E+03  0.15294330000E+03 0.  1.
<mgrwt>
<rscale>  0 0.23102357E+03</rscale>
<asrwt>0</asrwt>
<pdfrwt beam="1">  1        1 0.27205023E+00 0.23102357E+03</pdfrwt>
<pdfrwt beam="2">  1       -1 0.83355750E-02 0.23102357E+03</pdfrwt>
<totfact> 0.38884100E+02</totfact>
</mgrwt>
</event>
<event>
 4    1  0.4964158E-009  0.1143845E+04  0.7818608E-02  0.9163481E-01
         -1   -1    0    0    0  501 -0.00000000000E+00  0.00000000000E+00  0.67329261733E+03  0.67329261735E+03  0.50400000000E-02 0.  1.
          1   -1    0    0  501    0  0.00000000000E+00 -0.00000000000E+00 -0.27449649986E+04  0.27449649986E+04  0.50400000000E-02 0. -1.
    8880022    1    1    2    0    0 -0.86414792364E+03 -0.73364689195E+03 -0.19595008201E+04  0.22689258501E+04  0.15294330000E+03 0.  0.
    8880022    1    1    2    0    0  0.86414792364E+03  0.73364689195E+03 -0.11217156117E+03  0.11493317659E+04  0.15294330000E+03 0.  0.
<mgrwt>
<rscale>  0 0.11438449E+04</rscale>
<asrwt>0</asrwt>
<pdfrwt beam="1">  1        1 0.42230230E+00 0.11438449E+04</pdfrwt>
<pdfrwt beam="2">  1       -1 0.10358348E+00 0.11438449E+04</pdfrwt>
<totfact> 0.80176039E-01</totfact>
</mgrwt>
</event>
<event>
 4    1  0.4964158E-009  0.4544749E+03  0.7818608E-02  0.1026396E+00
         -1   -1    0    0    0  501 -0.00000000000E+00  0.00000000000E+00  0.87851947260E+03  0.87851947262E+03  0.50400000000E-02 0.  1.
          1   -1    0    0  501    0  0.00000000000E+00 -0.00000000000E+00 -0.11665102622E+04  0.11665102622E+04  0.50400000000E-02 0. -1.
    8880022    1    1    2    0    0  0.35266877363E+03 -0.24244684515E+03  0.76968410059E+03  0.89384618606E+03  0.15294330000E+03 0.  0.
    8880022    1    1    2    0    0 -0.35266877363E+03  0.24244684515E+03 -0.10576748902E+04  0.11511835488E+04  0.15294330000E+03 0.  0.
<mgrwt>
<rscale>  0 0.45447485E+03</rscale>
<asrwt>0</asrwt>
<pdfrwt beam="1">  1        1 0.17946312E+00 0.45447485E+03</pdfrwt>
<pdfrwt beam="2">  1       -1 0.13515684E+00 0.45447485E+03</pdfrwt>
<totfact> 0.57224449E+00</totfact>
</mgrwt>
</event>
<event>
 4    1  0.4964158E-009  0.3860711E+03  0.7818608E-02  0.1048712E+00
          1   -1    0    0  501    0  0.00000000000E+00  0.00000000000E+00  0.29366561653E+04  0.29366561653E+04  0.50400000000E-02 0. -1.
         -1   -1    0    0    0  501 -0.00000000000E+00 -0.00000000000E+00 -0.95725427169E+02  0.95725427302E+02  0.50400000000E-02 0.  1.
    8880022    1    1    2    0    0 -0.29416196439E+03 -0.19780793695E+03  0.38125802093E+03  0.54259429849E+03  0.15294330000E+03 0.  0.
    8880022    1    1    2    0    0  0.29416196439E+03  0.19780793695E+03  0.24596727172E+04  0.24897872941E+04  0.15294330000E+03 0.  0.
<mgrwt>
<rscale>  0 0.38607110E+03</rscale>
<asrwt>0</asrwt>
<pdfrwt beam="1">  1        1 0.45179327E+00 0.38607110E+03</pdfrwt>
<pdfrwt beam="2">  1       -1 0.14726988E-01 0.38607110E+03</pdfrwt>
<totfact> 0.25608484E+01</totfact>
</mgrwt>
</event>
<event>
 4    1  0.4964158E-009  0.1334182E+04  0.7818608E-02  0.9002889E-01
         -1   -1    0    0    0  501 -0.00000000000E+00  0.00000000000E+00  0.13655543786E+04  0.13655543786E+04  0.50400000000E-02 0.  1.
          1   -1    0    0  501    0  0.00000000000E+00 -0.00000000000E+00 -0.16526569410E+04  0.16526569410E+04  0.50400000000E-02 0. -1.
    8880022    1    1    2    0    0 -0.92792121064E+03 -0.94636846868E+03  0.55006494181E+03  0.14431265173E+04  0.15294330000E+03 0.  0.
    8880022    1    1    2    0    0  0.92792121064E+03  0.94636846868E+03 -0.83716750421E+03  0.15750848024E+04  0.15294330000E+03 0.  0.
<mgrwt>
<rscale>  0 0.13341824E+04</rscale>
<asrwt>0</asrwt>
<pdfrwt beam="1">  1        1 0.25425492E+00 0.13341824E+04</pdfrwt>
<pdfrwt beam="2">  1       -1 0.21008529E+00 0.13341824E+04</pdfrwt>
<totfact> 0.63541353E-01</totfact>
</mgrwt>
</event>
<event>
 4    1  0.4964158E-009  0.9549133E+03  0.7818608E-02  0.9359426E-01
         -1   -1    0    0    0  501 -0.00000000000E+00  0.00000000000E+00  0.50434499705E+03  0.50434499707E+03  0.50400000000E-02 0.  1.
          1   -1    0    0  501    0  0.00000000000E+00 -0.00000000000E+00 -0.23631496392E+04  0.23631496392E+04  0.50400000000E-02 0. -1.
    8880022    1    1    2    0    0  0.66462444557E+03 -0.66838765042E+03 -0.16243134126E+04  0.18842116177E+04  0.15294330000E+03 0.  0.
    8880022    1    1    2    0    0 -0.66462444557E+03  0.66838765042E+03 -0.23449122956E+03  0.98328301859E+03  0.15294330000E+03 0.  0.
<mgrwt>
<rscale>  0 0.95491327E+03</rscale>
<asrwt>0</asrwt>
<pdfrwt beam="1">  1        1 0.36356148E+00 0.95491327E+03</pdfrwt>
<pdfrwt beam="2">  1       -1 0.77591539E-01 0.95491327E+03</pdfrwt>
<totfact> 0.28689501E+00</totfact>
</mgrwt>
</event>
<event>
 4    1  0.4964158E-009  0.2166408E+03  0.7818608E-02  0.1136413E+00
          1   -1    0    0  501    0  0.00000000000E+00  0.00000000000E+00  0.94474640463E+03  0.94474640465E+03  0.50400000000E-02 0. -1.
         -1   -1    0    0    0  501 -0.00000000000E+00 -0.00000000000E+00 -0.13101430719E+03  0.13101430729E+03  0.50400000000E-02 0.  1.
    8880022    1    1    2    0    0 -0.57067623770E+02 -0.14242490361E+03  0.83067316190E+03  0.85845857313E+03  0.15294330000E+03 0.  0.
    8880022    1    1    2    0    0  0.57067623770E+02  0.14242490361E+03 -0.16941064464E+02  0.21730213881E+03  0.15294330000E+03 0.  1.
<mgrwt>
<rscale>  0 0.21664076E+03</rscale>
<asrwt>0</asrwt>
<pdfrwt beam="1">  1        1 0.14534560E+00 0.21664076E+03</pdfrwt>
<pdfrwt beam="2">  1       -1 0.20156047E-01 0.21664076E+03</pdfrwt>
<totfact> 0.35560649E+02</totfact>
</mgrwt>
</event>
<event>
 4    1  0.4964158E-009  0.6524136E+03  0.7818608E-02  0.9802261E-01
          1   -1    0    0  501    0  0.00000000000E+00  0.00000000000E+00  0.38634039501E+03  0.38634039505E+03  0.50400000000E-02 0. -1.
         -1   -1    0    0    0  501 -0.00000000000E+00 -0.00000000000E+00 -0.18431193377E+04  0.18431193377E+04  0.50400000000E-02 0.  1.
    8880022    1    1    2    0    0 -0.98831776436E+02 -0.62648558380E+03 -0.14353831062E+04  0.15766953483E+04  0.15294330000E+03 0.  0.
    8880022    1    1    2    0    0  0.98831776436E+02  0.62648558380E+03 -0.21395836451E+02  0.65276438443E+03  0.15294330000E+03 0.  0.
<mgrwt>
<rscale>  0 0.65241364E+03</rscale>
<asrwt>0</asrwt>
<pdfrwt beam="1">  1        1 0.59436985E-01 0.65241364E+03</pdfrwt>
<pdfrwt beam="2">  1       -1 0.28355681E+00 0.65241364E+03</pdfrwt>
<totfact> 0.28240284E+00</totfact>
</mgrwt>
</event>
<event>
 4    1  0.4964158E-009  0.3406293E+03  0.7818608E-02  0.1066528E+00
         -1   -1    0    0    0  501 -0.00000000000E+00  0.00000000000E+00  0.99330982298E+03  0.99330982299E+03  0.50400000000E-02 0.  1.
          1   -1    0    0  501    0  0.00000000000E+00 -0.00000000000E+00 -0.47468627627E+03  0.47468627630E+03  0.50400000000E-02 0. -1.
    8880022    1    1    2    0    0  0.16909691099E+03  0.25306702296E+03  0.89663263593E+03  0.95915505537E+03  0.15294330000E+03 0.  0.
    8880022    1    1    2    0    0 -0.16909691099E+03 -0.25306702296E+03 -0.37800908923E+03  0.50884104391E+03  0.15294330000E+03 0.  0.
<mgrwt>
<rscale>  0 0.34062932E+03</rscale>
<asrwt>0</asrwt>
<pdfrwt beam="1">  1        1 0.73028659E-01 0.34062932E+03</pdfrwt>
<pdfrwt beam="2">  1       -1 0.15281689E+00 0.34062932E+03</pdfrwt>
<totfact> 0.17343417E+01</totfact>
</mgrwt>
</event>
<event>
 4    1  0.4964158E-009  0.6777869E+03  0.7818608E-02  0.9755992E-01
         -1   -1    0    0    0  501 -0.00000000000E+00  0.00000000000E+00  0.43887262931E+03  0.43887262934E+03  0.50400000000E-02 0.  1.
          1   -1    0    0  501    0  0.00000000000E+00 -0.00000000000E+00 -0.14430384084E+04  0.14430384084E+04  0.50400000000E-02 0. -1.
    8880022    1    1    2    0    0 -0.32644340229E+03  0.57396699166E+03 -0.99517655935E+03  0.12040645496E+04  0.15294330000E+03 0.  0.
    8880022    1    1    2    0    0  0.32644340229E+03 -0.57396699166E+03 -0.89892197749E+01  0.67784648815E+03  0.15294330000E+03 0.  0.
<mgrwt>
<rscale>  0 0.67778688E+03</rscale>
<asrwt>0</asrwt>
<pdfrwt beam="1">  1        1 0.22200591E+00 0.67778688E+03</pdfrwt>
<pdfrwt beam="2">  1       -1 0.67518867E-01 0.67778688E+03</pdfrwt>
<totfact> 0.16650844E+01</totfact>
</mgrwt>
</event>
<event>
 4    1  0.4964158E-009  0.6512963E+03  0.7818608E-02  0.9804350E-01
         -1   -1    0    0    0  501 -0.00000000000E+00  0.00000000000E+00  0.12360091982E+04  0.12360091982E+04  0.50400000000E-02 0.  1.
          1   -1    0    0  501    0  0.00000000000E+00 -0.00000000000E+00 -0.36341471109E+03  0.36341471112E+03  0.50400000000E-02 0. -1.
    8880022    1    1    2    0    0 -0.33413891148E+03 -0.53772330717E+03  0.62495138614E+03  0.90263561602E+03  0.15294330000E+03 0.  0.
    8880022    1    1    2    0    0  0.33413891148E+03  0.53772330717E+03  0.24764310097E+03  0.69678829333E+03  0.15294330000E+03 0.  0.
<mgrwt>
<rscale>  0 0.65129626E+03</rscale>
<asrwt>0</asrwt>
<pdfrwt beam="1">  1        1 0.55909955E-01 0.65129626E+03</pdfrwt>
<pdfrwt beam="2">  1       -1 0.19015526E+00 0.65129626E+03</pdfrwt>
<totfact> 0.12519490E+01</totfact>
</mgrwt>
</event>
<event>
 4    1  0.4964158E-009  0.1307736E+04  0.7818608E-02  0.9023453E-01
         -1   -1    0    0    0  501 -0.00000000000E+00  0.00000000000E+00  0.15729505283E+04  0.15729505283E+04  0.50400000000E-02 0.  1.
          1   -1    0    0  501    0  0.00000000000E+00 -0.00000000000E+00 -0.12872494085E+04  0.12872494085E+04  0.50400000000E-02 0. -1.
    8880022    1    1    2    0    0  0.12578759482E+04 -0.32331128236E+03 -0.42086619705E+03  0.13737911396E+04  0.15294330000E+03 0.  0.
    8880022    1    1    2    0    0 -0.12578759482E+04  0.32331128236E+03  0.70656731685E+03  0.14864087973E+04  0.15294330000E+03 0.  0.
<mgrwt>
<rscale>  0 0.13077361E+04</rscale>
<asrwt>0</asrwt>
<pdfrwt beam="1">  1        1 0.19803837E+00 0.13077361E+04</pdfrwt>
<pdfrwt beam="2">  1       -1 0.24199239E+00 0.13077361E+04</pdfrwt>
<totfact> 0.70341674E-01</totfact>
</mgrwt>
</event>
<event>
 4    1  0.4964158E-009  0.5100619E+03  0.7818608E-02  0.1011185E+00
          1   -1    0    0  501    0  0.00000000000E+00  0.00000000000E+00  0.41442212058E+04  0.41442212058E+04  0.50400000000E-02 0. -1.
         -1   -1    0    0    0  501 -0.00000000000E+00 -0.00000000000E+00 -0.40289764433E+03  0.40289764436E+03  0.50400000000E-02 0.  1.
    8880022    1    1    2    0    0 -0.21542952882E+03  0.43630450349E+03  0.39595982400E+04  0.39923152903E+04  0.15294330000E+03 0.  0.
    8880022    1    1    2    0    0  0.21542952882E+03 -0.43630450349E+03 -0.21827467860E+03  0.55480355982E+03  0.15294330000E+03 0.  0.
<mgrwt>
<rscale>  0 0.51006191E+03</rscale>
<asrwt>0</asrwt>
<pdfrwt beam="1">  1        1 0.63757251E+00 0.51006191E+03</pdfrwt>
<pdfrwt beam="2">  1       -1 0.61984251E-01 0.51006191E+03</pdfrwt>
<totfact> 0.22841560E-01</totfact>
</mgrwt>
</event>
<event>
 4    1  0.4964158E-009  0.3808547E+03  0.7818608E-02  0.1050618E+00
         -1   -1    0    0    0  501 -0.00000000000E+00  0.00000000000E+00  0.12371133467E+04  0.12371133467E+04  0.50400000000E-02 0.  1.
          1   -1    0    0  501    0  0.00000000000E+00 -0.00000000000E+00 -0.63607367635E+03  0.63607367637E+03  0.50400000000E-02 0. -1.
    8880022    1    1    2    0    0 -0.14265706847E+03  0.31828854940E+03 -0.54535820155E+03  0.66518107376E+03  0.15294330000E+03 0.  0.
    8880022    1    1    2    0    0  0.14265706847E+03 -0.31828854940E+03  0.11463978719E+04  0.12080059493E+04  0.15294330000E+03 0.  0.
<mgrwt>
<rscale>  0 0.38085469E+03</rscale>
<asrwt>0</asrwt>
<pdfrwt beam="1">  1        1 0.97857489E-01 0.38085469E+03</pdfrwt>
<pdfrwt beam="2">  1       -1 0.19032513E+00 0.38085469E+03</pdfrwt>
<totfact> 0.61593547E+00</totfact>
</mgrwt>
</event>
<event>
 4    1  0.4964158E-009  0.3157944E+03  0.7818608E-02  0.1077601E+00
          1   -1    0    0  501    0  0.00000000000E+00  0.00000000000E+00  0.22053259594E+04  0.22053259594E+04  0.50400000000E-02 0. -1.
         -1   -1    0    0    0  501 -0.00000000000E+00 -0.00000000000E+00 -0.74137527343E+03  0.74137527345E+03  0.50400000000E-02 0.  1.
    8880022    1    1    2    0    0  0.27008087285E+03  0.58230391792E+02  0.21596851398E+04  0.21826511431E+04  0.15294330000E+03 0. -1.
    8880022    1    1    2    0    0 -0.27008087285E+03 -0.58230391792E+02 -0.69573445382E+03  0.76405008976E+03  0.15294330000E+03 0.  0.
<mgrwt>
<rscale>  0 0.31579441E+03</rscale>
<asrwt>0</asrwt>
<pdfrwt beam="1">  1        1 0.33928092E+00 0.31579441E+03</pdfrwt>
<pdfrwt beam="2">  1       -1 0.11405773E+00 0.31579441E+03</pdfrwt>
<totfact> 0.18394961E+00</totfact>
</mgrwt>
</event>
<event>
 4    1  0.4964158E-009  0.9513529E+03  0.7818608E-02  0.9363571E-01
          1   -1    0    0  501    0  0.00000000000E+00  0.00000000000E+00  0.15858377678E+04  0.15858377678E+04  0.50400000000E-02 0. -1.
         -1   -1    0    0    0  501 -0.00000000000E+00 -0.00000000000E+00 -0.10780723262E+04  0.10780723262E+04  0.50400000000E-02 0.  1.
    8880022    1    1    2    0    0 -0.35493844344E+03  0.86930967479E+03  0.11676164480E+04  0.15061209885E+04  0.15294330000E+03 0.  0.
    8880022    1    1    2    0    0  0.35493844344E+03 -0.86930967479E+03 -0.65985100640E+03  0.11577891056E+04  0.15294330000E+03 0.  0.
<mgrwt>
<rscale>  0 0.95135286E+03</rscale>
<asrwt>0</asrwt>
<pdfrwt beam="1">  1        1 0.24397504E+00 0.95135286E+03</pdfrwt>
<pdfrwt beam="2">  1       -1 0.16585728E+00 0.95135286E+03</pdfrwt>
<totfact> 0.15280199E+00</totfact>
</mgrwt>
</event>
<event>
 4    1  0.4964158E-009  0.8573168E+03  0.7818608E-02  0.9480569E-01
         -1   -1    0    0    0  501 -0.00000000000E+00  0.00000000000E+00  0.66576257682E+03  0.66576257684E+03  0.50400000000E-02 0.  1.
          1   -1    0    0  501    0  0.00000000000E+00 -0.00000000000E+00 -0.20659383946E+04  0.20659383946E+04  0.50400000000E-02 0. -1.
    8880022    1    1    2    0    0  0.61596309752E+03  0.57635915851E+03 -0.16320997618E+04  0.18435676561E+04  0.15294330000E+03 0.  0.
    8880022    1    1    2    0    0 -0.61596309752E+03 -0.57635915851E+03  0.23192394398E+03  0.88813331539E+03  0.15294330000E+03 0.  0.
<mgrwt>
<rscale>  0 0.85731679E+03</rscale>
<asrwt>0</asrwt>
<pdfrwt beam="1">  1        1 0.31783667E+00 0.85731679E+03</pdfrwt>
<pdfrwt beam="2">  1       -1 0.10242501E+00 0.85731679E+03</pdfrwt>
<totfact> 0.25076787E+00</totfact>
</mgrwt>
</event>
<event>
 4    1  0.4964158E-009  0.6199835E+03  0.7818608E-02  0.9864793E-01
         -1   -1    0    0    0  501 -0.00000000000E+00  0.00000000000E+00  0.48619435712E+03  0.48619435714E+03  0.50400000000E-02 0.  1.
          1   -1    0    0  501    0  0.00000000000E+00 -0.00000000000E+00 -0.30750531239E+04  0.30750531239E+04  0.50400000000E-02 0. -1.
    8880022    1    1    2    0    0  0.37627000872E+03  0.46841091558E+03 -0.28291809588E+04  0.28963156693E+04  0.15294330000E+03 0.  0.
    8880022    1    1    2    0    0 -0.37627000872E+03 -0.46841091558E+03  0.24032219205E+03  0.66493181177E+03  0.15294330000E+03 0.  0.
<mgrwt>
<rscale>  0 0.61998351E+03</rscale>
<asrwt>0</asrwt>
<pdfrwt beam="1">  1        1 0.47308508E+00 0.61998351E+03</pdfrwt>
<pdfrwt beam="2">  1       -1 0.74799134E-01 0.61998351E+03</pdfrwt>
<totfact> 0.10565044E+00</totfact>
</mgrwt>
</event>
<event>
 4    1  0.4964158E-009  0.4712544E+03  0.7818608E-02  0.1021567E+00
          1   -1    0    0  501    0  0.00000000000E+00  0.00000000000E+00  0.11484811386E+04  0.11484811386E+04  0.50400000000E-02 0. -1.
         -1   -1    0    0    0  501 -0.00000000000E+00 -0.00000000000E+00 -0.31806221331E+03  0.31806221335E+03  0.50400000000E-02 0.  1.
    8880022    1    1    2    0    0  0.44270108847E+03  0.52008080407E+02 -0.43914681168E+02  0.47329615084E+03  0.15294330000E+03 0.  1.
    8880022    1    1    2    0    0 -0.44270108847E+03 -0.52008080407E+02  0.87433360647E+03  0.99324720114E+03  0.15294330000E+03 0.  0.
<mgrwt>
<rscale>  0 0.47125444E+03</rscale>
<asrwt>0</asrwt>
<pdfrwt beam="1">  1        1 0.17668941E+00 0.47125444E+03</pdfrwt>
<pdfrwt beam="2">  1       -1 0.48932647E-01 0.47125444E+03</pdfrwt>
<totfact> 0.51809778E+01</totfact>
</mgrwt>
</event>
<event>
 4    1  0.4964158E-009  0.2523807E+03  0.7818608E-02  0.1111809E+00
         -1   -1    0    0    0  501 -0.00000000000E+00  0.00000000000E+00  0.31242608383E+03  0.31242608387E+03  0.50400000000E-02 0.  1.
          1   -1    0    0  501    0  0.00000000000E+00 -0.00000000000E+00 -0.56323468738E+03  0.56323468740E+03  0.50400000000E-02 0. -1.
    8880022    1    1    2    0    0  0.11791317930E+02  0.20041284038E+03  0.22431985740E+03  0.33766165493E+03  0.15294330000E+03 0.  0.
    8880022    1    1    2    0    0 -0.11791317930E+02 -0.20041284038E+03 -0.47512846095E+03  0.53799911634E+03  0.15294330000E+03 0. -1.
<mgrwt>
<rscale>  0 0.25238065E+03</rscale>
<asrwt>0</asrwt>
<pdfrwt beam="1">  1        1 0.86651490E-01 0.25238065E+03</pdfrwt>
<pdfrwt beam="2">  1       -1 0.48065551E-01 0.25238065E+03</pdfrwt>
<totfact> 0.17206273E+02</totfact>
</mgrwt>
</event>
<event>
 4    1  0.4964158E-009  0.9560735E+03  0.7818608E-02  0.9358080E-01
          1   -1    0    0  501    0  0.00000000000E+00  0.00000000000E+00  0.47616024227E+03  0.47616024230E+03  0.50400000000E-02 0. -1.
         -1   -1    0    0    0  501 -0.00000000000E+00 -0.00000000000E+00 -0.25140820323E+04  0.25140820323E+04  0.50400000000E-02 0.  1.
    8880022    1    1    2    0    0  0.93856993933E+03  0.98849966047E+02 -0.17459466095E+04  0.19905793285E+04  0.15294330000E+03 0.  0.
    8880022    1    1    2    0    0 -0.93856993933E+03 -0.98849966047E+02 -0.29197518058E+03  0.99966294615E+03  0.15294330000E+03 0.  0.
<mgrwt>
<rscale>  0 0.95607348E+03</rscale>
<asrwt>0</asrwt>
<pdfrwt beam="1">  1        1 0.73255424E-01 0.95607348E+03</pdfrwt>
<pdfrwt beam="2">  1       -1 0.38678184E+00 0.95607348E+03</pdfrwt>
<totfact> 0.43064023E-01</totfact>
</mgrwt>
</event>
<event>
 4    1  0.4964158E-009  0.7052224E+03  0.7818608E-02  0.9708343E-01
         -1   -1    0    0    0  501 -0.00000000000E+00  0.00000000000E+00  0.10473833435E+04  0.10473833435E+04  0.50400000000E-02 0.  1.
          1   -1    0    0  501    0  0.00000000000E+00 -0.00000000000E+00 -0.14948858900E+04  0.14948858900E+04  0.50400000000E-02 0. -1.
    8880022    1    1    2    0    0  0.68376876922E+03 -0.80045731955E+02 -0.12737712059E+04  0.14559642121E+04  0.15294330000E+03 0.  0.
    8880022    1    1    2    0    0 -0.68376876922E+03  0.80045731955E+02  0.82626865942E+03  0.10863050214E+04  0.15294330000E+03 0.  0.
<mgrwt>
<rscale>  0 0.70522245E+03</rscale>
<asrwt>0</asrwt>
<pdfrwt beam="1">  1        1 0.22998245E+00 0.70522245E+03</pdfrwt>
<pdfrwt beam="2">  1       -1 0.16113590E+00 0.70522245E+03</pdfrwt>
<totfact> 0.19964180E+00</totfact>
</mgrwt>
</event>
<event>
 4    1  0.4964158E-009  0.5603502E+03  0.7818608E-02  0.9991263E-01
          1   -1    0    0  501    0  0.00000000000E+00  0.00000000000E+00  0.92813209923E+03  0.92813209925E+03  0.50400000000E-02 0. -1.
         -1   -1    0    0    0  501 -0.00000000000E+00 -0.00000000000E+00 -0.99894893289E+03  0.99894893291E+03  0.50400000000E-02 0.  1.
    8880022    1    1    2    0    0 -0.12919821213E+03 -0.52336270001E+03 -0.81898571377E+03  0.99233560158E+03  0.15294330000E+03 0.  0.
    8880022    1    1    2    0    0  0.12919821213E+03  0.52336270001E+03  0.74816888011E+03  0.93474543057E+03  0.15294330000E+03 0.  0.
<mgrwt>
<rscale>  0 0.56035020E+03</rscale>
<asrwt>0</asrwt>
<pdfrwt beam="1">  1        1 0.14278955E+00 0.56035020E+03</pdfrwt>
<pdfrwt beam="2">  1       -1 0.15368445E+00 0.56035020E+03</pdfrwt>
<totfact> 0.60324257E+00</totfact>
</mgrwt>
</event>
<event>
 4    1  0.4964158E-009  0.8292845E+03  0.7818608E-02  0.9518570E-01
         -1   -1    0    0    0  501 -0.00000000000E+00  0.00000000000E+00  0.50612512544E+03  0.50612512547E+03  0.50400000000E-02 0.  1.
          1   -1    0    0  501    0  0.00000000000E+00 -0.00000000000E+00 -0.18615494385E+04  0.18615494385E+04  0.50400000000E-02 0. -1.
    8880022    1    1    2    0    0  0.51487257347E+03  0.63184435692E+03 -0.12929444869E+04  0.15360397643E+04  0.15294330000E+03 0.  0.
    8880022    1    1    2    0    0 -0.51487257347E+03 -0.63184435692E+03 -0.62479826113E+02  0.83163479964E+03  0.15294330000E+03 0.  0.
<mgrwt>
<rscale>  0 0.82928446E+03</rscale>
<asrwt>0</asrwt>
<pdfrwt beam="1">  1        1 0.28639222E+00 0.82928446E+03</pdfrwt>
<pdfrwt beam="2">  1       -1 0.77865405E-01 0.82928446E+03</pdfrwt>
<totfact> 0.63161610E+00</totfact>
</mgrwt>
</event>
<event>
 4    1  0.4964158E-009  0.1100509E+04  0.7818608E-02  0.9204696E-01
         -1   -1    0    0    0  501 -0.00000000000E+00  0.00000000000E+00  0.11988831658E+04  0.11988831658E+04  0.50400000000E-02 0.  1.
          1   -1    0    0  501    0  0.00000000000E+00 -0.00000000000E+00 -0.13908388979E+04  0.13908388979E+04  0.50400000000E-02 0. -1.
    8880022    1    1    2    0    0  0.10828367674E+04 -0.12325823533E+03  0.58141022049E+03  0.12446515797E+04  0.15294330000E+03 0.  0.
    8880022    1    1    2    0    0 -0.10828367674E+04  0.12325823533E+03 -0.77336595259E+03  0.13450704840E+04  0.15294330000E+03 0.  0.
<mgrwt>
<rscale>  0 0.11005088E+04</rscale>
<asrwt>0</asrwt>
<pdfrwt beam="1">  1        1 0.21397521E+00 0.11005088E+04</pdfrwt>
<pdfrwt beam="2">  1       -1 0.18444356E+00 0.11005088E+04</pdfrwt>
<totfact> 0.14962164E+00</totfact>
</mgrwt>
</event>
<event>
 4    1  0.6430482E-009  0.6254734E+03  0.7818608E-02  0.9853922E-01
          1   -1    0    0  501    0  0.00000000000E+00  0.00000000000E+00  0.15711648845E+04  0.15711648845E+04  0.50400000000E-02 0. -1.
         -1   -1    0    0    0  501 -0.00000000000E+00 -0.00000000000E+00 -0.17727181674E+04  0.17727181674E+04  0.50400000000E-02 0.  1.
    8880022    1    1    2    0    0 -0.23269037153E+02 -0.60603950366E+03 -0.16508556624E+04  0.17653728782E+04  0.15294330000E+03 0.  0.
    8880022    1    1    2    0    0  0.23269037153E+02  0.60603950366E+03  0.14493023795E+04  0.15785101737E+04  0.15294330000E+03 0. -1.
<mgrwt>
<rscale>  0 0.62547341E+03</rscale>
<asrwt>0</asrwt>
<pdfrwt beam="1">  1        1 0.24171768E+00 0.62547341E+03</pdfrwt>
<pdfrwt beam="2">  1       -1 0.27272587E+00 0.62547341E+03</pdfrwt>
<totfact> 0.31987798E-01</totfact>
</mgrwt>
</event>
<event>
 4    1  0.4964158E-009  0.3708190E+03  0.7818608E-02  0.1054380E+00
         -1   -1    0    0    0  501 -0.00000000000E+00  0.00000000000E+00  0.34103486503E+03  0.34103486506E+03  0.50400000000E-02 0.  1.
          1   -1    0    0  501    0  0.00000000000E+00 -0.00000000000E+00 -0.95500649440E+03  0.95500649442E+03  0.50400000000E-02 0. -1.
    8880022    1    1    2    0    0  0.30718707008E+03 -0.14053892693E+03  0.18559489172E+03  0.41467119849E+03  0.15294330000E+03 0.  1.
    8880022    1    1    2    0    0 -0.30718707008E+03  0.14053892693E+03 -0.79956652110E+03  0.88137016099E+03  0.15294330000E+03 0.  0.
<mgrwt>
<rscale>  0 0.37081901E+03</rscale>
<asrwt>0</asrwt>
<pdfrwt beam="1">  1        1 0.14692408E+00 0.37081901E+03</pdfrwt>
<pdfrwt beam="2">  1       -1 0.52466902E-01 0.37081901E+03</pdfrwt>
<totfact> 0.64519483E+01</totfact>
</mgrwt>
</event>
<event>
 4    1  0.4964158E-009  0.1865899E+03  0.7818608E-02  0.1161573E+00
          1   -1    0    0  501    0  0.00000000000E+00  0.00000000000E+00  0.83365980313E+03  0.83365980314E+03  0.50400000000E-02 0. -1.
         -1   -1    0    0    0  501 -0.00000000000E+00 -0.00000000000E+00 -0.20715975826E+03  0.20715975833E+03  0.50400000000E-02 0.  1.
    8880022    1    1    2    0    0  0.35411061359E+02  0.10084744748E+03 -0.15175406396E+03  0.24051008268E+03  0.15294330000E+03 0.  0.
    8880022    1    1    2    0    0 -0.35411061359E+02 -0.10084744748E+03  0.77825410882E+03  0.80030947879E+03  0.15294330000E+03 0. -1.
<mgrwt>
<rscale>  0 0.18658994E+03</rscale>
<asrwt>0</asrwt>
<pdfrwt beam="1">  1        1 0.12825535E+00 0.18658994E+03</pdfrwt>
<pdfrwt beam="2">  1       -1 0.31870733E-01 0.18658994E+03</pdfrwt>
<totfact> 0.20397377E+02</totfact>
</mgrwt>
</event>
<event>
 4    1  0.4964158E-009  0.1460700E+04  0.7818608E-02  0.8911016E-01
          1   -1    0    0  501    0  0.00000000000E+00  0.00000000000E+00  0.30213492698E+04  0.30213492698E+04  0.50400000000E-02 0. -1.
         -1   -1    0    0    0  501 -0.00000000000E+00 -0.00000000000E+00 -0.15701027384E+04  0.15701027384E+04  0.50400000000E-02 0.  1.
    8880022    1    1    2    0    0 -0.12073067151E+04 -0.80787626629E+03 -0.97728430100E+03  0.17574782570E+04  0.15294330000E+03 0.  0.
    8880022    1    1    2    0    0  0.12073067151E+04  0.80787626629E+03  0.24285308324E+04  0.28339737513E+04  0.15294330000E+03 0.  0.
<mgrwt>
<rscale>  0 0.14607002E+04</rscale>
<asrwt>0</asrwt>
<pdfrwt beam="1">  1        1 0.46482296E+00 0.14607002E+04</pdfrwt>
<pdfrwt beam="2">  1       -1 0.24155427E+00 0.14607002E+04</pdfrwt>
<totfact> 0.43442749E-02</totfact>
</mgrwt>
</event>
<event>
 4    1  0.4964158E-009  0.8104928E+03  0.7818608E-02  0.9544952E-01
          1   -1    0    0  501    0  0.00000000000E+00  0.00000000000E+00  0.28966060954E+04  0.28966060954E+04  0.50400000000E-02 0. -1.
         -1   -1    0    0    0  501 -0.00000000000E+00 -0.00000000000E+00 -0.38077567800E+03  0.38077567804E+03  0.50400000000E-02 0.  1.
    8880022    1    1    2    0    0  0.53419726101E+03 -0.59003413182E+03  0.21580504573E+03  0.83873145950E+03  0.15294330000E+03 0.  0.
    8880022    1    1    2    0    0 -0.53419726101E+03  0.59003413182E+03  0.23000253717E+04  0.24386503140E+04  0.15294330000E+03 0.  0.
<mgrwt>
<rscale>  0 0.81049284E+03</rscale>
<asrwt>0</asrwt>
<pdfrwt beam="1">  1        1 0.44563173E+00 0.81049284E+03</pdfrwt>
<pdfrwt beam="2">  1       -1 0.58580871E-01 0.81049284E+03</pdfrwt>
<totfact> 0.22221005E+00</totfact>
</mgrwt>
</event>
<event>
 4    1  0.4964158E-009  0.4160555E+03  0.7818608E-02  0.1038358E+00
          1   -1    0    0  501    0  0.00000000000E+00  0.00000000000E+00  0.11699435265E+04  0.11699435265E+04  0.50400000000E-02 0. -1.
         -1   -1    0    0    0  501 -0.00000000000E+00 -0.00000000000E+00 -0.77561409578E+03  0.77561409580E+03  0.50400000000E-02 0.  1.
    8880022    1    1    2    0    0 -0.18792530918E+03 -0.33822270674E+03 -0.67792429295E+03  0.79541405644E+03  0.15294330000E+03 0.  0.
    8880022    1    1    2    0    0  0.18792530918E+03  0.33822270674E+03  0.10722537237E+04  0.11501435659E+04  0.15294330000E+03 0. -1.
<mgrwt>
<rscale>  0 0.41605549E+03</rscale>
<asrwt>0</asrwt>
<pdfrwt beam="1">  1        1 0.17999131E+00 0.41605549E+03</pdfrwt>
<pdfrwt beam="2">  1       -1 0.11932525E+00 0.41605549E+03</pdfrwt>
<totfact> 0.78199956E+00</totfact>
</mgrwt>
</event>
<event>
 4    1  0.4964158E-009  0.8214291E+03  0.7818608E-02  0.9529507E-01
          1   -1    0    0  501    0  0.00000000000E+00  0.00000000000E+00  0.28985669446E+04  0.28985669446E+04  0.50400000000E-02 0. -1.
         -1   -1    0    0    0  501 -0.00000000000E+00 -0.00000000000E+00 -0.32436269955E+03  0.32436269959E+03  0.50400000000E-02 0.  1.
    8880022    1    1    2    0    0  0.73353475338E+03  0.33657224409E+03  0.43085740686E+03  0.92756879420E+03  0.15294330000E+03 0.  0.
    8880022    1    1    2    0    0 -0.73353475338E+03 -0.33657224409E+03  0.21433468381E+04  0.22953608499E+04  0.15294330000E+03 0.  0.
<mgrwt>
<rscale>  0 0.82142910E+03</rscale>
<asrwt>0</asrwt>
<pdfrwt beam="1">  1        1 0.44593338E+00 0.82142910E+03</pdfrwt>
<pdfrwt beam="2">  1       -1 0.49901953E-01 0.82142910E+03</pdfrwt>
<totfact> 0.30115080E+00</totfact>
</mgrwt>
</event>
<event>
 4    1  0.4964158E-009  0.9284588E+03  0.7818608E-02  0.9390689E-01
         -1   -1    0    0    0  501 -0.00000000000E+00  0.00000000000E+00  0.12254411132E+04  0.12254411132E+04  0.50400000000E-02 0.  1.
          1   -1    0    0  501    0  0.00000000000E+00 -0.00000000000E+00 -0.79840662134E+03  0.79840662135E+03  0.50400000000E-02 0. -1.
    8880022    1    1    2    0    0 -0.64345557595E+03  0.65162034454E+03 -0.13546215603E+03  0.93828876172E+03  0.15294330000E+03 0.  0.
    8880022    1    1    2    0    0  0.64345557595E+03 -0.65162034454E+03  0.56249664793E+03  0.10855589729E+04  0.15294330000E+03 0.  0.
<mgrwt>
<rscale>  0 0.92845883E+03</rscale>
<asrwt>0</asrwt>
<pdfrwt beam="1">  1        1 0.12283179E+00 0.92845883E+03</pdfrwt>
<pdfrwt beam="2">  1       -1 0.18852940E+00 0.92845883E+03</pdfrwt>
<totfact> 0.40621681E+00</totfact>
</mgrwt>
</event>
<event>
 4    1  0.4964158E-009  0.2942391E+03  0.7818608E-02  0.1088156E+00
          1   -1    0    0  501    0  0.00000000000E+00  0.00000000000E+00  0.48909327731E+03  0.48909327733E+03  0.50400000000E-02 0. -1.
         -1   -1    0    0    0  501 -0.00000000000E+00 -0.00000000000E+00 -0.74109807396E+03  0.74109807398E+03  0.50400000000E-02 0.  1.
    8880022    1    1    2    0    0  0.17845323780E+03 -0.17702947924E+03 -0.66263434347E+03  0.72502477251E+03  0.15294330000E+03 0.  0.
    8880022    1    1    2    0    0 -0.17845323780E+03  0.17702947924E+03  0.41062954682E+03  0.50516657880E+03  0.15294330000E+03 0.  0.
<mgrwt>
<rscale>  0 0.29423910E+03</rscale>
<asrwt>0</asrwt>
<pdfrwt beam="1">  1        1 0.75245120E-01 0.29423910E+03</pdfrwt>
<pdfrwt beam="2">  1       -1 0.11401509E+00 0.29423910E+03</pdfrwt>
<totfact> 0.35018397E+01</totfact>
</mgrwt>
</event>
<event>
 4    1  0.4964158E-009  0.9882581E+03  0.7818608E-02  0.9321518E-01
         -1   -1    0    0    0  501 -0.00000000000E+00  0.00000000000E+00  0.18864061921E+04  0.18864061921E+04  0.50400000000E-02 0.  1.
          1   -1    0    0  501    0  0.00000000000E+00 -0.00000000000E+00 -0.75870612378E+03  0.75870612379E+03  0.50400000000E-02 0. -1.
    8880022    1    1    2    0    0 -0.85872581322E+03 -0.46459919397E+03 -0.18150285953E+03  0.10047872284E+04  0.15294330000E+03 0.  0.
    8880022    1    1    2    0    0  0.85872581322E+03  0.46459919397E+03  0.13092029278E+04  0.16403250875E+04  0.15294330000E+03 0.  0.
<mgrwt>
<rscale>  0 0.98825811E+03</rscale>
<asrwt>0</asrwt>
<pdfrwt beam="1">  1        1 0.11672402E+00 0.98825811E+03</pdfrwt>
<pdfrwt beam="2">  1       -1 0.29021634E+00 0.98825811E+03</pdfrwt>
<totfact> 0.93243306E-01</totfact>
</mgrwt>
</event>
<event>
 4    1  0.4964158E-009  0.1361426E+04  0.7818608E-02  0.8982224E-01
          1   -1    0    0  501    0  0.00000000000E+00  0.00000000000E+00  0.16707047674E+04  0.16707047675E+04  0.50400000000E-02 0. -1.
         -1   -1    0    0    0  501 -0.00000000000E+00 -0.00000000000E+00 -0.11685566926E+04  0.11685566926E+04  0.50400000000E-02 0.  1.
    8880022    1    1    2    0    0  0.13289787076E+04 -0.25279167898E+03 -0.68339141495E+02  0.13631397322E+04  0.15294330000E+03 0.  0.
    8880022    1    1    2    0    0 -0.13289787076E+04  0.25279167898E+03  0.57048721637E+03  0.14761217278E+04  0.15294330000E+03 0.  0.
<mgrwt>
<rscale>  0 0.13614256E+04</rscale>
<asrwt>0</asrwt>
<pdfrwt beam="1">  1        1 0.25703150E+00 0.13614256E+04</pdfrwt>
<pdfrwt beam="2">  1       -1 0.17977795E+00 0.13614256E+04</pdfrwt>
<totfact> 0.10028617E+00</totfact>
</mgrwt>
</event>
<event>
 4    1  0.4964158E-009  0.3250556E+03  0.7818608E-02  0.1073346E+00
          1   -1    0    0  501    0  0.00000000000E+00  0.00000000000E+00  0.56906425647E+03  0.56906425649E+03  0.50400000000E-02 0. -1.
         -1   -1    0    0    0  501 -0.00000000000E+00 -0.00000000000E+00 -0.97974146714E+03  0.97974146715E+03  0.50400000000E-02 0.  1.
    8880022    1    1    2    0    0 -0.23575499790E+03 -0.16336797001E+03  0.49183278343E+03  0.58954274869E+03  0.15294330000E+03 0.  0.
    8880022    1    1    2    0    0  0.23575499790E+03  0.16336797001E+03 -0.90250999409E+03  0.95926297495E+03  0.15294330000E+03 0.  1.
<mgrwt>
<rscale>  0 0.32505563E+03</rscale>
<asrwt>0</asrwt>
<pdfrwt beam="1">  1        1 0.87548347E-01 0.32505563E+03</pdfrwt>
<pdfrwt beam="2">  1       -1 0.15072946E+00 0.32505563E+03</pdfrwt>
<totfact> 0.14127606E+01</totfact>
</mgrwt>
</event>
<event>
 4    1  0.4964158E-009  0.6803488E+03  0.7818608E-02  0.9751441E-01
         -1   -1    0    0    0  501 -0.00000000000E+00  0.00000000000E+00  0.52203438230E+03  0.52203438233E+03  0.50400000000E-02 0.  1.
          1   -1    0    0  501    0  0.00000000000E+00 -0.00000000000E+00 -0.32155459131E+04  0.32155459131E+04  0.50400000000E-02 0. -1.
    8880022    1    1    2    0    0  0.66162969500E+03  0.41580587525E+02  0.24364272684E+03  0.72265913813E+03  0.15294330000E+03 0.  0.
    8880022    1    1    2    0    0 -0.66162969500E+03 -0.41580587525E+02 -0.29371542576E+04  0.30149211573E+04  0.15294330000E+03 0.  0.
<mgrwt>
<rscale>  0 0.68034877E+03</rscale>
<asrwt>0</asrwt>
<pdfrwt beam="1">  1        1 0.49469936E+00 0.68034877E+03</pdfrwt>
<pdfrwt beam="2">  1       -1 0.80312984E-01 0.68034877E+03</pdfrwt>
<totfact> 0.70737776E-01</totfact>
</mgrwt>
</event>
<event>
 4    1  0.4964158E-009  0.3540827E+03  0.7818608E-02  0.1060952E+00
         -1   -1    0    0    0  501 -0.00000000000E+00  0.00000000000E+00  0.10354209478E+04  0.10354209478E+04  0.50400000000E-02 0.  1.
          1   -1    0    0  501    0  0.00000000000E+00 -0.00000000000E+00 -0.28775294199E+03  0.28775294204E+03  0.50400000000E-02 0. -1.
    8880022    1    1    2    0    0 -0.58150886222E+02 -0.31400851803E+03 -0.12966932326E+03  0.37707911819E+03  0.15294330000E+03 0.  0.
    8880022    1    1    2    0    0  0.58150886222E+02  0.31400851803E+03  0.87733732905E+03  0.94609477164E+03  0.15294330000E+03 0.  0.
<mgrwt>
<rscale>  0 0.35408266E+03</rscale>
<asrwt>0</asrwt>
<pdfrwt beam="1">  1        1 0.44269683E-01 0.35408266E+03</pdfrwt>
<pdfrwt beam="2">  1       -1 0.15929553E+00 0.35408266E+03</pdfrwt>
<totfact> 0.29531229E+01</totfact>
</mgrwt>
</event>
<event>
 4    1  0.4964158E-009  0.2883004E+03  0.7818608E-02  0.1091240E+00
         -1   -1    0    0    0  501 -0.00000000000E+00  0.00000000000E+00  0.11501228222E+03  0.11501228234E+03  0.50400000000E-02 0.  1.
          1   -1    0    0  501    0  0.00000000000E+00 -0.00000000000E+00 -0.26450139716E+04  0.26450139716E+04  0.50400000000E-02 0. -1.
    8880022    1    1    2    0    0  0.17618742751E+03  0.16936184224E+03 -0.24414783644E+04  0.24584413152E+04  0.15294330000E+03 0. -1.
    8880022    1    1    2    0    0 -0.17618742751E+03 -0.16936184224E+03 -0.88523324963E+02  0.30158493877E+03  0.15294330000E+03 0.  0.
<mgrwt>
<rscale>  0 0.28830036E+03</rscale>
<asrwt>0</asrwt>
<pdfrwt beam="1">  1        1 0.40692518E+00 0.28830036E+03</pdfrwt>
<pdfrwt beam="2">  1       -1 0.17694199E-01 0.28830036E+03</pdfrwt>
<totfact> 0.31222537E+01</totfact>
</mgrwt>
</event>
<event>
 4    1  0.4964158E-009  0.4588745E+03  0.7818608E-02  0.1025108E+00
          1   -1    0    0  501    0  0.00000000000E+00  0.00000000000E+00  0.70403438426E+03  0.70403438428E+03  0.50400000000E-02 0. -1.
         -1   -1    0    0    0  501 -0.00000000000E+00 -0.00000000000E+00 -0.99636779153E+03  0.99636779154E+03  0.50400000000E-02 0.  1.
    8880022    1    1    2    0    0 -0.40584580743E+03  0.14987787440E+03 -0.85740709323E+03  0.97247764662E+03  0.15294330000E+03 0.  0.
    8880022    1    1    2    0    0  0.40584580743E+03 -0.14987787440E+03  0.56507368596E+03  0.72792452921E+03  0.15294330000E+03 0.  0.
<mgrwt>
<rscale>  0 0.45887455E+03</rscale>
<asrwt>0</asrwt>
<pdfrwt beam="1">  1        1 0.10831298E+00 0.45887455E+03</pdfrwt>
<pdfrwt beam="2">  1       -1 0.15328735E+00 0.45887455E+03</pdfrwt>
<totfact> 0.96261165E+00</totfact>
</mgrwt>
</event>
<event>
 4    1  0.4964158E-009  0.8028575E+03  0.7818608E-02  0.9555890E-01
          1   -1    0    0  501    0  0.00000000000E+00  0.00000000000E+00  0.24509057395E+04  0.24509057395E+04  0.50400000000E-02 0. -1.
         -1   -1    0    0    0  501 -0.00000000000E+00 -0.00000000000E+00 -0.72349159624E+03  0.72349159626E+03  0.50400000000E-02 0.  1.
    8880022    1    1    2    0    0  0.42194017890E+02  0.78702484623E+03 -0.40256480130E+03  0.89813056734E+03  0.15294330000E+03 0.  0.
    8880022    1    1    2    0    0 -0.42194017890E+02 -0.78702484623E+03  0.21299789445E+04  0.22762667684E+04  0.15294330000E+03 0.  0.
<mgrwt>
<rscale>  0 0.80285746E+03</rscale>
<asrwt>0</asrwt>
<pdfrwt beam="1">  1        1 0.37706243E+00 0.80285746E+03</pdfrwt>
<pdfrwt beam="2">  1       -1 0.11130640E+00 0.80285746E+03</pdfrwt>
<totfact> 0.11462257E+00</totfact>
</mgrwt>
</event>
<event>
 4    1  0.4964158E-009  0.8636934E+03  0.7818608E-02  0.9472140E-01
         -1   -1    0    0    0  501 -0.00000000000E+00  0.00000000000E+00  0.50461425870E+03  0.50461425873E+03  0.50400000000E-02 0.  1.
          1   -1    0    0  501    0  0.00000000000E+00 -0.00000000000E+00 -0.25551242382E+04  0.25551242382E+04  0.50400000000E-02 0. -1.
    8880022    1    1    2    0    0 -0.38860018900E+03  0.75601890981E+03 -0.32087085323E+02  0.86428926463E+03  0.15294330000E+03 0.  0.
    8880022    1    1    2    0    0  0.38860018900E+03 -0.75601890981E+03 -0.20184228942E+04  0.21954492323E+04  0.15294330000E+03 0.  0.
<mgrwt>
<rscale>  0 0.86369344E+03</rscale>
<asrwt>0</asrwt>
<pdfrwt beam="1">  1        1 0.39309603E+00 0.86369344E+03</pdfrwt>
<pdfrwt beam="2">  1       -1 0.77632964E-01 0.86369344E+03</pdfrwt>
<totfact> 0.21491407E+00</totfact>
</mgrwt>
</event>
<event>
 4    1  0.4964158E-009  0.1271909E+04  0.7818608E-02  0.9052143E-01
          1   -1    0    0  501    0  0.00000000000E+00  0.00000000000E+00  0.11588501977E+04  0.11588501977E+04  0.50400000000E-02 0. -1.
         -1   -1    0    0    0  501 -0.00000000000E+00 -0.00000000000E+00 -0.16604226865E+04  0.16604226865E+04  0.50400000000E-02 0.  1.
    8880022    1    1    2    0    0  0.10068026982E+04 -0.76204280293E+03  0.31174776964E+03  0.13095568836E+04  0.15294330000E+03 0.  0.
    8880022    1    1    2    0    0 -0.10068026982E+04  0.76204280293E+03 -0.81332025845E+03  0.15097160006E+04  0.15294330000E+03 0.  0.
<mgrwt>
<rscale>  0 0.12719090E+04</rscale>
<asrwt>0</asrwt>
<pdfrwt beam="1">  1        1 0.17828464E+00 0.12719090E+04</pdfrwt>
<pdfrwt beam="2">  1       -1 0.25544965E+00 0.12719090E+04</pdfrwt>
<totfact> 0.71616693E-01</totfact>
</mgrwt>
</event>
<event>
 4    1  0.4964158E-009  0.1064426E+04  0.7818608E-02  0.9240576E-01
         -1   -1    0    0    0  501 -0.00000000000E+00  0.00000000000E+00  0.15492292441E+04  0.15492292441E+04  0.50400000000E-02 0.  1.
          1   -1    0    0  501    0  0.00000000000E+00 -0.00000000000E+00 -0.12010398945E+04  0.12010398945E+04  0.50400000000E-02 0. -1.
    8880022    1    1    2    0    0 -0.84024553407E+03 -0.63529409166E+03  0.10340578496E+04  0.14840075572E+04  0.15294330000E+03 0.  0.
    8880022    1    1    2    0    0  0.84024553407E+03  0.63529409166E+03 -0.68586850003E+03  0.12662615815E+04  0.15294330000E+03 0.  0.
<mgrwt>
<rscale>  0 0.10644260E+04</rscale>
<asrwt>0</asrwt>
<pdfrwt beam="1">  1        1 0.18477537E+00 0.10644260E+04</pdfrwt>
<pdfrwt beam="2">  1       -1 0.23834296E+00 0.10644260E+04</pdfrwt>
<totfact> 0.88547366E-01</totfact>
</mgrwt>
</event>
<event>
 4    1  0.4964158E-009  0.7231478E+03  0.7818608E-02  0.9678445E-01
         -1   -1    0    0    0  501 -0.00000000000E+00  0.00000000000E+00  0.96680074814E+03  0.96680074816E+03  0.50400000000E-02 0.  1.
          1   -1    0    0  501    0  0.00000000000E+00 -0.00000000000E+00 -0.10581745279E+04  0.10581745279E+04  0.50400000000E-02 0. -1.
    8880022    1    1    2    0    0 -0.10591621711E+02 -0.70670988549E+03  0.66221251826E+03  0.98054480625E+03  0.15294330000E+03 0.  0.
    8880022    1    1    2    0    0  0.10591621711E+02  0.70670988549E+03 -0.75358629798E+03  0.10444304698E+04  0.15294330000E+03 0.  0.
<mgrwt>
<rscale>  0 0.72314777E+03</rscale>
<asrwt>0</asrwt>
<pdfrwt beam="1">  1        1 0.16279608E+00 0.72314777E+03</pdfrwt>
<pdfrwt beam="2">  1       -1 0.14873858E+00 0.72314777E+03</pdfrwt>
<totfact> 0.50703517E+00</totfact>
</mgrwt>
</event>
<event>
 4    1  0.4964158E-009  0.1346628E+04  0.7818608E-02  0.8993385E-01
          1   -1    0    0  501    0  0.00000000000E+00  0.00000000000E+00  0.20770702151E+04  0.20770702152E+04  0.50400000000E-02 0. -1.
         -1   -1    0    0    0  501 -0.00000000000E+00 -0.00000000000E+00 -0.21378318902E+04  0.21378318902E+04  0.50400000000E-02 0.  1.
    8880022    1    1    2    0    0 -0.12813745805E+04 -0.38482966038E+03  0.15905962337E+04  0.20840831832E+04  0.15294330000E+03 0.  0.
    8880022    1    1    2    0    0  0.12813745805E+04  0.38482966038E+03 -0.16513579087E+04  0.21308189221E+04  0.15294330000E+03 0.  0.
<mgrwt>
<rscale>  0 0.13466278E+04</rscale>
<asrwt>0</asrwt>
<pdfrwt beam="1">  1        1 0.31954926E+00 0.13466278E+04</pdfrwt>
<pdfrwt beam="2">  1       -1 0.32889721E+00 0.13466278E+04</pdfrwt>
<totfact> 0.54568248E-02</totfact>
</mgrwt>
</event>
<event>
 4    1  0.4964158E-009  0.2645399E+04  0.7818608E-02  0.8352942E-01
          1   -1    0    0  501    0  0.00000000000E+00  0.00000000000E+00  0.27096024374E+04  0.27096024374E+04  0.50400000000E-02 0. -1.
         -1   -1    0    0    0  501 -0.00000000000E+00 -0.00000000000E+00 -0.30758234957E+04  0.30758234957E+04  0.50400000000E-02 0.  1.
    8880022    1    1    2    0    0 -0.19057763343E+04  0.18283224091E+04 -0.13413403222E+04  0.29660296325E+04  0.15294330000E+03 0.  0.
    8880022    1    1    2    0    0  0.19057763343E+04 -0.18283224091E+04  0.97511926396E+03  0.28193963006E+04  0.15294330000E+03 0.  0.
<mgrwt>
<rscale>  0 0.26453994E+04</rscale>
<asrwt>0</asrwt>
<pdfrwt beam="1">  1        1 0.41686191E+00 0.26453994E+04</pdfrwt>
<pdfrwt beam="2">  1       -1 0.47320361E+00 0.26453994E+04</pdfrwt>
<totfact> 0.17757615E-03</totfact>
</mgrwt>
</event>
<event>
 4    1  0.4964158E-009  0.1062517E+04  0.7818608E-02  0.9242516E-01
         -1   -1    0    0    0  501 -0.00000000000E+00  0.00000000000E+00  0.84415406632E+03  0.84415406634E+03  0.50400000000E-02 0.  1.
          1   -1    0    0  501    0  0.00000000000E+00 -0.00000000000E+00 -0.14447391271E+04  0.14447391271E+04  0.50400000000E-02 0. -1.
    8880022    1    1    2    0    0 -0.19770429132E+03  0.10326969939E+04 -0.61229034529E+03  0.12263120272E+04  0.15294330000E+03 0.  0.
    8880022    1    1    2    0    0  0.19770429132E+03 -0.10326969939E+04  0.11705284525E+02  0.10625811662E+04  0.15294330000E+03 0.  0.
<mgrwt>
<rscale>  0 0.10625167E+04</rscale>
<asrwt>0</asrwt>
<pdfrwt beam="1">  1        1 0.22226756E+00 0.10625167E+04</pdfrwt>
<pdfrwt beam="2">  1       -1 0.12986986E+00 0.10625167E+04</pdfrwt>
<totfact> 0.36240431E+00</totfact>
</mgrwt>
</event>
<event>
 4    1  0.4964158E-009  0.1488017E+04  0.7818608E-02  0.8892461E-01
         -1   -1    0    0    0  501 -0.00000000000E+00  0.00000000000E+00  0.16262068965E+04  0.16262068965E+04  0.50400000000E-02 0.  1.
          1   -1    0    0  501    0  0.00000000000E+00 -0.00000000000E+00 -0.16864747073E+04  0.16864747073E+04  0.50400000000E-02 0. -1.
    8880022    1    1    2    0    0  0.11168925063E+04  0.97126430452E+03  0.69687150451E+03  0.16431143498E+04  0.15294330000E+03 0.  0.
    8880022    1    1    2    0    0 -0.11168925063E+04 -0.97126430452E+03 -0.75713931534E+03  0.16695672540E+04  0.15294330000E+03 0.  0.
<mgrwt>
<rscale>  0 0.14880171E+04</rscale>
<asrwt>0</asrwt>
<pdfrwt beam="1">  1        1 0.25945765E+00 0.14880171E+04</pdfrwt>
<pdfrwt beam="2">  1       -1 0.25018568E+00 0.14880171E+04</pdfrwt>
<totfact> 0.32015458E-01</totfact>
</mgrwt>
</event>
<event>
 4    1  0.4964158E-009  0.6831404E+03  0.7818608E-02  0.9746507E-01
         -1   -1    0    0    0  501 -0.00000000000E+00  0.00000000000E+00  0.12226188050E+04  0.12226188050E+04  0.50400000000E-02 0.  1.
          1   -1    0    0  501    0  0.00000000000E+00 -0.00000000000E+00 -0.15706695759E+04  0.15706695759E+04  0.50400000000E-02 0. -1.
    8880022    1    1    2    0    0  0.65537704983E+03 -0.11734608334E+03  0.10411183533E+04  0.12452342187E+04  0.15294330000E+03 0.  0.
    8880022    1    1    2    0    0 -0.65537704983E+03  0.11734608334E+03 -0.13891691242E+04  0.15480541623E+04  0.15294330000E+03 0.  0.
<mgrwt>
<rscale>  0 0.68314042E+03</rscale>
<asrwt>0</asrwt>
<pdfrwt beam="1">  1        1 0.24164147E+00 0.68314042E+03</pdfrwt>
<pdfrwt beam="2">  1       -1 0.18809520E+00 0.68314042E+03</pdfrwt>
<totfact> 0.11376408E+00</totfact>
</mgrwt>
</event>
<event>
 4    1  0.4964158E-009  0.5176669E+03  0.7818608E-02  0.1009268E+00
         -1   -1    0    0    0  501 -0.00000000000E+00  0.00000000000E+00  0.57556958747E+03  0.57556958750E+03  0.50400000000E-02 0.  1.
          1   -1    0    0  501    0  0.00000000000E+00 -0.00000000000E+00 -0.75089880099E+03  0.75089880101E+03  0.50400000000E-02 0. -1.
    8880022    1    1    2    0    0  0.44475362685E+03 -0.21629056635E+03  0.32115744008E+03  0.60919713724E+03  0.15294330000E+03 0.  0.
    8880022    1    1    2    0    0 -0.44475362685E+03  0.21629056635E+03 -0.49648665359E+03  0.71727125127E+03  0.15294330000E+03 0.  0.
<mgrwt>
<rscale>  0 0.51766693E+03</rscale>
<asrwt>0</asrwt>
<pdfrwt beam="1">  1        1 0.11552289E+00 0.51766693E+03</pdfrwt>
<pdfrwt beam="2">  1       -1 0.88549167E-01 0.51766693E+03</pdfrwt>
<totfact> 0.32287347E+01</totfact>
</mgrwt>
</event>
<event>
 4    1  0.4964158E-009  0.5440353E+03  0.7818608E-02  0.1002884E+00
          1   -1    0    0  501    0  0.00000000000E+00  0.00000000000E+00  0.19350982335E+04  0.19350982335E+04  0.50400000000E-02 0. -1.
         -1   -1    0    0    0  501 -0.00000000000E+00 -0.00000000000E+00 -0.10967558183E+04  0.10967558183E+04  0.50400000000E-02 0.  1.
    8880022    1    1    2    0    0 -0.27815413681E+03  0.44182922201E+03  0.18254275978E+04  0.19047730450E+04  0.15294330000E+03 0.  0.
    8880022    1    1    2    0    0  0.27815413681E+03 -0.44182922201E+03 -0.98708518259E+03  0.11270810068E+04  0.15294330000E+03 0.  1.
<mgrwt>
<rscale>  0 0.54403533E+03</rscale>
<asrwt>0</asrwt>
<pdfrwt beam="1">  1        1 0.29770742E+00 0.54403533E+03</pdfrwt>
<pdfrwt beam="2">  1       -1 0.16873166E+00 0.54403533E+03</pdfrwt>
<totfact> 0.92573532E-01</totfact>
</mgrwt>
</event>
<event>
 4    1  0.4964158E-009  0.6260326E+03  0.7818608E-02  0.9852822E-01
         -1   -1    0    0    0  501 -0.00000000000E+00  0.00000000000E+00  0.11960473022E+04  0.11960473022E+04  0.50400000000E-02 0.  1.
          1   -1    0    0  501    0  0.00000000000E+00 -0.00000000000E+00 -0.14943558432E+04  0.14943558432E+04  0.50400000000E-02 0. -1.
    8880022    1    1    2    0    0 -0.58497552731E+03  0.16226159690E+03  0.10394466664E+04  0.12134109851E+04  0.15294330000E+03 0.  0.
    8880022    1    1    2    0    0  0.58497552731E+03 -0.16226159690E+03 -0.13377552074E+04  0.14769921603E+04  0.15294330000E+03 0.  0.
<mgrwt>
<rscale>  0 0.62603262E+03</rscale>
<asrwt>0</asrwt>
<pdfrwt beam="1">  1        1 0.22990090E+00 0.62603262E+03</pdfrwt>
<pdfrwt beam="2">  1       -1 0.18400728E+00 0.62603262E+03</pdfrwt>
<totfact> 0.13878961E+00</totfact>
</mgrwt>
</event>
<event>
 4    1  0.4964158E-009  0.4511423E+03  0.7818608E-02  0.1027382E+00
         -1   -1    0    0    0  501 -0.00000000000E+00  0.00000000000E+00  0.36659524163E+03  0.36659524166E+03  0.50400000000E-02 0.  1.
          1   -1    0    0  501    0  0.00000000000E+00 -0.00000000000E+00 -0.10037584059E+04  0.10037584059E+04  0.50400000000E-02 0. -1.
    8880022    1    1    2    0    0 -0.13350408416E+03  0.40288255335E+03 -0.77662145799E+03  0.89814822513E+03  0.15294330000E+03 0.  0.
    8880022    1    1    2    0    0  0.13350408416E+03 -0.40288255335E+03  0.13945829372E+03  0.47220542244E+03  0.15294330000E+03 0.  0.
<mgrwt>
<rscale>  0 0.45114227E+03</rscale>
<asrwt>0</asrwt>
<pdfrwt beam="1">  1        1 0.15442437E+00 0.45114227E+03</pdfrwt>
<pdfrwt beam="2">  1       -1 0.56399268E-01 0.45114227E+03</pdfrwt>
<totfact> 0.50857116E+01</totfact>
</mgrwt>
</event>
<event>
 4    1  0.4964158E-009  0.1143763E+04  0.7818608E-02  0.9163557E-01
          1   -1    0    0  501    0  0.00000000000E+00  0.00000000000E+00  0.27771122821E+04  0.27771122821E+04  0.50400000000E-02 0. -1.
         -1   -1    0    0    0  501 -0.00000000000E+00 -0.00000000000E+00 -0.11017435859E+04  0.11017435859E+04  0.50400000000E-02 0.  1.
    8880022    1    1    2    0    0 -0.10300961786E+04  0.47297365425E+03  0.23050496093E+04  0.25732173575E+04  0.15294330000E+03 0.  0.
    8880022    1    1    2    0    0  0.10300961786E+04 -0.47297365425E+03 -0.62968091304E+03  0.13056385104E+04  0.15294330000E+03 0.  0.
<mgrwt>
<rscale>  0 0.11437630E+04</rscale>
<asrwt>0</asrwt>
<pdfrwt beam="1">  1        1 0.42724804E+00 0.11437630E+04</pdfrwt>
<pdfrwt beam="2">  1       -1 0.16949901E+00 0.11437630E+04</pdfrwt>
<totfact> 0.21433985E-01</totfact>
</mgrwt>
</event>
<event>
 4    1  0.4964158E-009  0.9199805E+03  0.7818608E-02  0.9400944E-01
         -1   -1    0    0    0  501 -0.00000000000E+00  0.00000000000E+00  0.59541748388E+03  0.59541748390E+03  0.50400000000E-02 0.  1.
          1   -1    0    0  501    0  0.00000000000E+00 -0.00000000000E+00 -0.17802137369E+04  0.17802137369E+04  0.50400000000E-02 0. -1.
    8880022    1    1    2    0    0  0.34945896649E+03 -0.83716840200E+03 -0.59174825748E+02  0.92188167114E+03  0.15294330000E+03 0.  0.
    8880022    1    1    2    0    0 -0.34945896649E+03  0.83716840200E+03 -0.11256214272E+04  0.14537495496E+04  0.15294330000E+03 0.  0.
<mgrwt>
<rscale>  0 0.91998052E+03</rscale>
<asrwt>0</asrwt>
<pdfrwt beam="1">  1        1 0.27387903E+00 0.91998052E+03</pdfrwt>
<pdfrwt beam="2">  1       -1 0.91602691E-01 0.91998052E+03</pdfrwt>
<totfact> 0.49751993E+00</totfact>
</mgrwt>
</event>
<event>
 4    1  0.4964158E-009  0.5771990E+03  0.7818608E-02  0.9953874E-01
         -1   -1    0    0    0  501 -0.00000000000E+00  0.00000000000E+00  0.45366571406E+03  0.45366571409E+03  0.50400000000E-02 0.  1.
          1   -1    0    0  501    0  0.00000000000E+00 -0.00000000000E+00 -0.15644410956E+04  0.15644410956E+04  0.50400000000E-02 0. -1.
    8880022    1    1    2    0    0  0.40245103884E+01  0.55655265526E+03  0.17962030682E+03  0.60450158180E+03  0.15294330000E+03 0.  0.
    8880022    1    1    2    0    0 -0.40245103884E+01 -0.55655265526E+03 -0.12903956884E+04  0.14136052279E+04  0.15294330000E+03 0.  0.
<mgrwt>
<rscale>  0 0.57719902E+03</rscale>
<asrwt>0</asrwt>
<pdfrwt beam="1">  1        1 0.24068324E+00 0.57719902E+03</pdfrwt>
<pdfrwt beam="2">  1       -1 0.69794726E-01 0.57719902E+03</pdfrwt>
<totfact> 0.13089358E+01</totfact>
</mgrwt>
</event>
<event>
 4    1  0.4964158E-009  0.1743335E+04  0.7818608E-02  0.8737028E-01
         -1   -1    0    0    0  501 -0.00000000000E+00  0.00000000000E+00  0.86796124781E+03  0.86796124782E+03  0.50400000000E-02 0.  1.
          1   -1    0    0  501    0  0.00000000000E+00 -0.00000000000E+00 -0.37843168767E+04  0.37843168767E+04  0.50400000000E-02 0. -1.
    8880022    1    1    2    0    0  0.16588475828E+04 -0.51385684247E+03 -0.82233349672E+03  0.19275497893E+04  0.15294330000E+03 0.  0.
    8880022    1    1    2    0    0 -0.16588475828E+04  0.51385684247E+03 -0.20940221322E+04  0.27247283352E+04  0.15294330000E+03 0.  0.
<mgrwt>
<rscale>  0 0.17433347E+04</rscale>
<asrwt>0</asrwt>
<pdfrwt beam="1">  1        1 0.58220259E+00 0.17433347E+04</pdfrwt>
<pdfrwt beam="2">  1       -1 0.13353250E+00 0.17433347E+04</pdfrwt>
<totfact> 0.64867345E-02</totfact>
</mgrwt>
</event>
<event>
 4    1  0.4964158E-009  0.8216599E+03  0.7818608E-02  0.9529184E-01
         -1   -1    0    0    0  501 -0.00000000000E+00  0.00000000000E+00  0.78072911897E+03  0.78072911899E+03  0.50400000000E-02 0.  1.
          1   -1    0    0  501    0  0.00000000000E+00 -0.00000000000E+00 -0.16117503428E+04  0.16117503428E+04  0.50400000000E-02 0. -1.
    8880022    1    1    2    0    0 -0.31117100616E+03 -0.74492012895E+03  0.39888163738E+03  0.91336280154E+03  0.15294330000E+03 0.  0.
    8880022    1    1    2    0    0  0.31117100616E+03  0.74492012895E+03 -0.12299028612E+04  0.14791166602E+04  0.15294330000E+03 0.  0.
<mgrwt>
<rscale>  0 0.82165993E+03</rscale>
<asrwt>0</asrwt>
<pdfrwt beam="1">  1        1 0.24796159E+00 0.82165993E+03</pdfrwt>
<pdfrwt beam="2">  1       -1 0.12011217E+00 0.82165993E+03</pdfrwt>
<totfact> 0.34940198E+00</totfact>
</mgrwt>
</event>
<event>
 4    1  0.4964158E-009  0.5976333E+03  0.7818608E-02  0.9910328E-01
          1   -1    0    0  501    0  0.00000000000E+00  0.00000000000E+00  0.21913699084E+04  0.21913699084E+04  0.50400000000E-02 0. -1.
         -1   -1    0    0    0  501 -0.00000000000E+00 -0.00000000000E+00 -0.27325862245E+03  0.27325862250E+03  0.50400000000E-02 0.  1.
    8880022    1    1    2    0    0 -0.12582422097E+03  0.56386358376E+03  0.17418826004E+04  0.18415538337E+04  0.15294330000E+03 0.  0.
    8880022    1    1    2    0    0  0.12582422097E+03 -0.56386358376E+03  0.17622868549E+03  0.62307469719E+03  0.15294330000E+03 0.  1.
<mgrwt>
<rscale>  0 0.59763327E+03</rscale>
<asrwt>0</asrwt>
<pdfrwt beam="1">  1        1 0.33713385E+00 0.59763327E+03</pdfrwt>
<pdfrwt beam="2">  1       -1 0.42039786E-01 0.59763327E+03</pdfrwt>
<totfact> 0.13191832E+01</totfact>
</mgrwt>
</event>
<event>
 4    1  0.9846950E-009  0.1662632E+04  0.7818608E-02  0.8782968E-01
          1   -1    0    0  501    0  0.00000000000E+00  0.00000000000E+00  0.29473042823E+04  0.29473042823E+04  0.50400000000E-02 0. -1.
         -1   -1    0    0    0  501 -0.00000000000E+00 -0.00000000000E+00 -0.19167829798E+04  0.19167829798E+04  0.50400000000E-02 0.  1.
    8880022    1    1    2    0    0  0.53125976710E+03 -0.15680297698E+04  0.22532418140E+04  0.28002579568E+04  0.15294330000E+03 0.  0.
    8880022    1    1    2    0    0 -0.53125976710E+03  0.15680297698E+04 -0.12227205116E+04  0.20638293053E+04  0.15294330000E+03 0.  0.
<mgrwt>
<rscale>  0 0.16626322E+04</rscale>
<asrwt>0</asrwt>
<pdfrwt beam="1">  1        1 0.45343143E+00 0.16626322E+04</pdfrwt>
<pdfrwt beam="2">  1       -1 0.29488969E+00 0.16626322E+04</pdfrwt>
<totfact> 0.21492375E-02</totfact>
</mgrwt>
</event>
<event>
 4    1  0.4964158E-009  0.1307340E+04  0.7818608E-02  0.9023764E-01
         -1   -1    0    0    0  501 -0.00000000000E+00  0.00000000000E+00  0.13030526139E+04  0.13030526139E+04  0.50400000000E-02 0.  1.
          1   -1    0    0  501    0  0.00000000000E+00 -0.00000000000E+00 -0.26834961158E+04  0.26834961158E+04  0.50400000000E-02 0. -1.
    8880022    1    1    2    0    0 -0.12636907375E+04 -0.29804899649E+03 -0.21154042748E+04  0.24867799225E+04  0.15294330000E+03 0. -1.
    8880022    1    1    2    0    0  0.12636907375E+04  0.29804899649E+03  0.73496077285E+03  0.14997688072E+04  0.15294330000E+03 0.  0.
<mgrwt>
<rscale>  0 0.13073405E+04</rscale>
<asrwt>0</asrwt>
<pdfrwt beam="1">  1        1 0.41284556E+00 0.13073405E+04</pdfrwt>
<pdfrwt beam="2">  1       -1 0.20046963E+00 0.13073405E+04</pdfrwt>
<totfact> 0.14627463E-01</totfact>
</mgrwt>
</event>
<event>
 4    1  0.4964158E-009  0.2563093E+03  0.7818608E-02  0.1109381E+00
         -1   -1    0    0    0  501 -0.00000000000E+00  0.00000000000E+00  0.21149077405E+03  0.21149077411E+03  0.50400000000E-02 0.  1.
          1   -1    0    0  501    0  0.00000000000E+00 -0.00000000000E+00 -0.17209291810E+04  0.17209291810E+04  0.50400000000E-02 0. -1.
    8880022    1    1    2    0    0 -0.20510485861E+03 -0.15323665547E+02  0.11995497689E+03  0.28299057802E+03  0.15294330000E+03 0.  1.
    8880022    1    1    2    0    0  0.20510485861E+03  0.15323665547E+02 -0.16293933839E+04  0.16494293771E+04  0.15294330000E+03 0.  0.
<mgrwt>
<rscale>  0 0.25630933E+03</rscale>
<asrwt>0</asrwt>
<pdfrwt beam="1">  1        1 0.26475833E+00 0.25630933E+03</pdfrwt>
<pdfrwt beam="2">  1       -1 0.32537043E-01 0.25630933E+03</pdfrwt>
<totfact> 0.46294224E+01</totfact>
</mgrwt>
</event>
<event>
 4    1  0.4964158E-009  0.1408746E+04  0.7818608E-02  0.8947512E-01
         -1   -1    0    0    0  501 -0.00000000000E+00  0.00000000000E+00  0.17462895026E+04  0.17462895026E+04  0.50400000000E-02 0.  1.
          1   -1    0    0  501    0  0.00000000000E+00 -0.00000000000E+00 -0.14741661770E+04  0.14741661770E+04  0.50400000000E-02 0. -1.
    8880022    1    1    2    0    0 -0.13928026846E+04 -0.14585743604E+03  0.90677346387E+03  0.16753517475E+04  0.15294330000E+03 0.  0.
    8880022    1    1    2    0    0  0.13928026846E+04  0.14585743604E+03 -0.63465013827E+03  0.15451039321E+04  0.15294330000E+03 0.  0.
<mgrwt>
<rscale>  0 0.14087460E+04</rscale>
<asrwt>0</asrwt>
<pdfrwt beam="1">  1        1 0.22679480E+00 0.14087460E+04</pdfrwt>
<pdfrwt beam="2">  1       -1 0.26865992E+00 0.14087460E+04</pdfrwt>
<totfact> 0.34350907E-01</totfact>
</mgrwt>
</event>
<event>
 4    1  0.4964158E-009  0.1142948E+04  0.7818608E-02  0.9164314E-01
          1   -1    0    0  501    0  0.00000000000E+00  0.00000000000E+00  0.46438578006E+03  0.46438578009E+03  0.50400000000E-02 0. -1.
         -1   -1    0    0    0  501 -0.00000000000E+00 -0.00000000000E+00 -0.30964188992E+04  0.30964188992E+04  0.50400000000E-02 0.  1.
    8880022    1    1    2    0    0 -0.44747828310E+03 -0.10405299498E+04 -0.77739979937E+03  0.13822740290E+04  0.15294330000E+03 0.  0.
    8880022    1    1    2    0    0  0.44747828310E+03  0.10405299498E+04 -0.18546333197E+04  0.21785306502E+04  0.15294330000E+03 0.  0.
<mgrwt>
<rscale>  0 0.11429484E+04</rscale>
<asrwt>0</asrwt>
<pdfrwt beam="1">  1        1 0.71443968E-01 0.11429484E+04</pdfrwt>
<pdfrwt beam="2">  1       -1 0.47637213E+00 0.11429484E+04</pdfrwt>
<totfact> 0.10509123E-01</totfact>
</mgrwt>
</event>
<event>
 4    1  0.4964158E-009  0.5663031E+03  0.7818608E-02  0.9977893E-01
         -1   -1    0    0    0  501 -0.00000000000E+00  0.00000000000E+00  0.89176973133E+03  0.89176973135E+03  0.50400000000E-02 0.  1.
          1   -1    0    0  501    0  0.00000000000E+00 -0.00000000000E+00 -0.52431243744E+03  0.52431243747E+03  0.50400000000E-02 0. -1.
    8880022    1    1    2    0    0  0.54005061253E+03  0.75185338698E+02  0.58055348232E+03  0.81101263745E+03  0.15294330000E+03 0.  0.
    8880022    1    1    2    0    0 -0.54005061253E+03 -0.75185338698E+02 -0.21309618843E+03  0.60506953137E+03  0.15294330000E+03 0.  0.
<mgrwt>
<rscale>  0 0.56630306E+03</rscale>
<asrwt>0</asrwt>
<pdfrwt beam="1">  1        1 0.80663453E-01 0.56630306E+03</pdfrwt>
<pdfrwt beam="2">  1       -1 0.13719534E+00 0.56630306E+03</pdfrwt>
<totfact> 0.19257536E+01</totfact>
</mgrwt>
</event>
<event>
 4    1  0.6095357E-009  0.1301179E+04  0.7818608E-02  0.9028630E-01
          1   -1    0    0  501    0  0.00000000000E+00  0.00000000000E+00  0.29270207386E+04  0.29270207386E+04  0.50400000000E-02 0. -1.
         -1   -1    0    0    0  501 -0.00000000000E+00 -0.00000000000E+00 -0.24886889705E+04  0.24886889705E+04  0.50400000000E-02 0.  1.
    8880022    1    1    2    0    0  0.12144903312E+04  0.44123590798E+03 -0.21532266358E+04  0.25158403147E+04  0.15294330000E+03 0.  0.
    8880022    1    1    2    0    0 -0.12144903312E+04 -0.44123590798E+03  0.25915584038E+04  0.28998693944E+04  0.15294330000E+03 0.  0.
<mgrwt>
<rscale>  0 0.13011793E+04</rscale>
<asrwt>0</asrwt>
<pdfrwt beam="1">  1        1 0.45031088E+00 0.13011793E+04</pdfrwt>
<pdfrwt beam="2">  1       -1 0.38287523E+00 0.13011793E+04</pdfrwt>
<totfact> 0.61960097E-03</totfact>
</mgrwt>
</event>
<event>
 4    1  0.4964158E-009  0.1401503E+04  0.7818608E-02  0.8952731E-01
          1   -1    0    0  501    0  0.00000000000E+00  0.00000000000E+00  0.27415205482E+04  0.27415205482E+04  0.50400000000E-02 0. -1.
         -1   -1    0    0    0  501 -0.00000000000E+00 -0.00000000000E+00 -0.84168408773E+03  0.84168408774E+03  0.50400000000E-02 0.  1.
    8880022    1    1    2    0    0 -0.10206432492E+04  0.94821269357E+03  0.16409487187E+04  0.21579908028E+04  0.15294330000E+03 0.  0.
    8880022    1    1    2    0    0  0.10206432492E+04 -0.94821269357E+03  0.25888774179E+03  0.14252138332E+04  0.15294330000E+03 0.  0.
<mgrwt>
<rscale>  0 0.14015033E+04</rscale>
<asrwt>0</asrwt>
<pdfrwt beam="1">  1        1 0.42177239E+00 0.14015033E+04</pdfrwt>
<pdfrwt beam="2">  1       -1 0.12948986E+00 0.14015033E+04</pdfrwt>
<totfact> 0.45308891E-01</totfact>
</mgrwt>
</event>
<event>
 4    1  0.4964158E-009  0.8297369E+03  0.7818608E-02  0.9517944E-01
         -1   -1    0    0    0  501 -0.00000000000E+00  0.00000000000E+00  0.13901087909E+04  0.13901087909E+04  0.50400000000E-02 0.  1.
          1   -1    0    0  501    0  0.00000000000E+00 -0.00000000000E+00 -0.10813654982E+04  0.10813654982E+04  0.50400000000E-02 0. -1.
    8880022    1    1    2    0    0  0.77592289868E+03 -0.25102865686E+03  0.10641346034E+04  0.13493872085E+04  0.15294330000E+03 0.  0.
    8880022    1    1    2    0    0 -0.77592289868E+03  0.25102865686E+03 -0.75539131073E+03  0.11220870807E+04  0.15294330000E+03 0.  0.
<mgrwt>
<rscale>  0 0.82973694E+03</rscale>
<asrwt>0</asrwt>
<pdfrwt beam="1">  1        1 0.16636392E+00 0.82973694E+03</pdfrwt>
<pdfrwt beam="2">  1       -1 0.21386289E+00 0.82973694E+03</pdfrwt>
<totfact> 0.16354306E+00</totfact>
</mgrwt>
</event>
<event>
 4    1  0.4964158E-009  0.1308427E+04  0.7818608E-02  0.9022909E-01
         -1   -1    0    0    0  501 -0.00000000000E+00  0.00000000000E+00  0.11392725159E+04  0.11392725159E+04  0.50400000000E-02 0.  1.
          1   -1    0    0  501    0  0.00000000000E+00 -0.00000000000E+00 -0.18823327554E+04  0.18823327554E+04  0.50400000000E-02 0. -1.
    8880022    1    1    2    0    0 -0.11419307666E+04  0.62014785100E+03  0.30695971055E+03  0.13439513197E+04  0.15294330000E+03 0.  0.
    8880022    1    1    2    0    0  0.11419307666E+04 -0.62014785100E+03 -0.10500199501E+04  0.16776539516E+04  0.15294330000E+03 0.  0.
<mgrwt>
<rscale>  0 0.13084269E+04</rscale>
<asrwt>0</asrwt>
<pdfrwt beam="1">  1        1 0.28958965E+00 0.13084269E+04</pdfrwt>
<pdfrwt beam="2">  1       -1 0.17527270E+00 0.13084269E+04</pdfrwt>
<totfact> 0.78067555E-01</totfact>
</mgrwt>
</event>
<event>
 4    1  0.4964158E-009  0.5664819E+03  0.7818608E-02  0.9977494E-01
         -1   -1    0    0    0  501 -0.00000000000E+00  0.00000000000E+00  0.10483999090E+04  0.10483999090E+04  0.50400000000E-02 0.  1.
          1   -1    0    0  501    0  0.00000000000E+00 -0.00000000000E+00 -0.14222376648E+04  0.14222376648E+04  0.50400000000E-02 0. -1.
    8880022    1    1    2    0    0  0.22192167919E+03 -0.49825786623E+03  0.90742630825E+03  0.10697309432E+04  0.15294330000E+03 0.  0.
    8880022    1    1    2    0    0 -0.22192167919E+03  0.49825786623E+03 -0.12812640640E+04  0.14009066306E+04  0.15294330000E+03 0.  0.
<mgrwt>
<rscale>  0 0.56648194E+03</rscale>
<asrwt>0</asrwt>
<pdfrwt beam="1">  1        1 0.21880580E+00 0.56648194E+03</pdfrwt>
<pdfrwt beam="2">  1       -1 0.16129229E+00 0.56648194E+03</pdfrwt>
<totfact> 0.23036410E+00</totfact>
</mgrwt>
</event>
<event>
 4    1  0.4964158E-009  0.4313333E+03  0.7818608E-02  0.1033440E+00
         -1   -1    0    0    0  501 -0.00000000000E+00  0.00000000000E+00  0.29991285304E+03  0.29991285308E+03  0.50400000000E-02 0.  1.
          1   -1    0    0  501    0  0.00000000000E+00 -0.00000000000E+00 -0.76444254628E+03  0.76444254630E+03  0.50400000000E-02 0. -1.
    8880022    1    1    2    0    0  0.37978608269E+03  0.13571781591E+03 -0.46332099113E+03  0.63302036934E+03  0.15294330000E+03 0.  0.
    8880022    1    1    2    0    0 -0.37978608269E+03 -0.13571781591E+03 -0.12087021064E+01  0.43133503004E+03  0.15294330000E+03 0.  0.
<mgrwt>
<rscale>  0 0.43133334E+03</rscale>
<asrwt>0</asrwt>
<pdfrwt beam="1">  1        1 0.11760654E+00 0.43133334E+03</pdfrwt>
<pdfrwt beam="2">  1       -1 0.46140439E-01 0.43133334E+03</pdfrwt>
<totfact> 0.11639977E+02</totfact>
</mgrwt>
</event>
<event>
 4    1  0.4964158E-009  0.5067690E+03  0.7818608E-02  0.1012027E+00
         -1   -1    0    0    0  501 -0.00000000000E+00  0.00000000000E+00  0.67543680141E+03  0.67543680143E+03  0.50400000000E-02 0.  1.
          1   -1    0    0  501    0  0.00000000000E+00 -0.00000000000E+00 -0.19908249020E+04  0.19908249020E+04  0.50400000000E-02 0. -1.
    8880022    1    1    2    0    0  0.11478029415E+03 -0.46930655348E+03  0.54139299063E+03  0.74156670663E+03  0.15294330000E+03 0.  0.
    8880022    1    1    2    0    0 -0.11478029415E+03  0.46930655348E+03 -0.18567810912E+04  0.19246949968E+04  0.15294330000E+03 0.  0.
<mgrwt>
<rscale>  0 0.50676899E+03</rscale>
<asrwt>0</asrwt>
<pdfrwt beam="1">  1        1 0.30628075E+00 0.50676899E+03</pdfrwt>
<pdfrwt beam="2">  1       -1 0.10391336E+00 0.50676899E+03</pdfrwt>
<totfact> 0.29369632E+00</totfact>
</mgrwt>
</event>
<event>
 4    1  0.4964158E-009  0.3334572E+03  0.7818608E-02  0.1069617E+00
         -1   -1    0    0    0  501 -0.00000000000E+00  0.00000000000E+00  0.43362736170E+03  0.43362736173E+03  0.50400000000E-02 0.  1.
          1   -1    0    0  501    0  0.00000000000E+00 -0.00000000000E+00 -0.15808690742E+04  0.15808690742E+04  0.50400000000E-02 0. -1.
    8880022    1    1    2    0    0  0.29631166894E+03  0.11989596764E+01 -0.14955659678E+04  0.15322895483E+04  0.15294330000E+03 0.  0.
    8880022    1    1    2    0    0 -0.29631166894E+03 -0.11989596764E+01  0.34832425532E+03  0.48220688766E+03  0.15294330000E+03 0.  0.
<mgrwt>
<rscale>  0 0.33345719E+03</rscale>
<asrwt>0</asrwt>
<pdfrwt beam="1">  1        1 0.24321062E+00 0.33345719E+03</pdfrwt>
<pdfrwt beam="2">  1       -1 0.66711903E-01 0.33345719E+03</pdfrwt>
<totfact> 0.14853687E+01</totfact>
</mgrwt>
</event>
<event>
 4    1  0.4964158E-009  0.7061323E+03  0.7818608E-02  0.9706802E-01
         -1   -1    0    0    0  501 -0.00000000000E+00  0.00000000000E+00  0.75782229803E+03  0.75782229805E+03  0.50400000000E-02 0.  1.
          1   -1    0    0  501    0  0.00000000000E+00 -0.00000000000E+00 -0.22902010801E+04  0.22902010801E+04  0.50400000000E-02 0. -1.
    8880022    1    1    2    0    0 -0.62884925190E+03 -0.28245310725E+03  0.52040775377E+03  0.87718129404E+03  0.15294330000E+03 0.  0.
    8880022    1    1    2    0    0  0.62884925190E+03  0.28245310725E+03 -0.20527865359E+04  0.21708420841E+04  0.15294330000E+03 0.  0.
<mgrwt>
<rscale>  0 0.70613228E+03</rscale>
<asrwt>0</asrwt>
<pdfrwt beam="1">  1        1 0.35233862E+00 0.70613228E+03</pdfrwt>
<pdfrwt beam="2">  1       -1 0.11658805E+00 0.70613228E+03</pdfrwt>
<totfact> 0.13458247E+00</totfact>
</mgrwt>
</event>
<event>
 4    1  0.4964158E-009  0.7558775E+03  0.7818608E-02  0.9626174E-01
          1   -1    0    0  501    0  0.00000000000E+00  0.00000000000E+00  0.14816591362E+04  0.14816591362E+04  0.50400000000E-02 0. -1.
         -1   -1    0    0    0  501 -0.00000000000E+00 -0.00000000000E+00 -0.72907241244E+03  0.72907241246E+03  0.50400000000E-02 0.  1.
    8880022    1    1    2    0    0  0.65919785903E+03 -0.33677499641E+03  0.11349700710E+04  0.13636377564E+04  0.15294330000E+03 0.  0.
    8880022    1    1    2    0    0 -0.65919785903E+03  0.33677499641E+03 -0.38238334729E+03  0.84709379225E+03  0.15294330000E+03 0.  0.
<mgrwt>
<rscale>  0 0.75587755E+03</rscale>
<asrwt>0</asrwt>
<pdfrwt beam="1">  1        1 0.22794756E+00 0.75587755E+03</pdfrwt>
<pdfrwt beam="2">  1       -1 0.11216499E+00 0.75587755E+03</pdfrwt>
<totfact> 0.51076567E+00</totfact>
</mgrwt>
</event>
<event>
 4    1  0.4964158E-009  0.8865878E+03  0.7818608E-02  0.9442504E-01
          1   -1    0    0  501    0  0.00000000000E+00  0.00000000000E+00  0.30236336676E+04  0.30236336676E+04  0.50400000000E-02 0. -1.
         -1   -1    0    0    0  501 -0.00000000000E+00 -0.00000000000E+00 -0.48443020777E+03  0.48443020780E+03  0.50400000000E-02 0.  1.
    8880022    1    1    2    0    0 -0.67444066526E+03 -0.55477568598E+03  0.75622626659E+02  0.88980711808E+03  0.15294330000E+03 0.  0.
    8880022    1    1    2    0    0  0.67444066526E+03  0.55477568598E+03  0.24635808332E+04  0.26182567574E+04  0.15294330000E+03 0.  0.
<mgrwt>
<rscale>  0 0.88658780E+03</rscale>
<asrwt>0</asrwt>
<pdfrwt beam="1">  1        1 0.46517441E+00 0.88658780E+03</pdfrwt>
<pdfrwt beam="2">  1       -1 0.74527725E-01 0.88658780E+03</pdfrwt>
<totfact> 0.10918422E+00</totfact>
</mgrwt>
</event>
<event>
 4    1  0.4964158E-009  0.2422740E+03  0.7818608E-02  0.1118287E+00
         -1   -1    0    0    0  501 -0.00000000000E+00  0.00000000000E+00  0.30517260787E+03  0.30517260791E+03  0.50400000000E-02 0.  1.
          1   -1    0    0  501    0  0.00000000000E+00 -0.00000000000E+00 -0.13034398816E+04  0.13034398816E+04  0.50400000000E-02 0. -1.
    8880022    1    1    2    0    0 -0.18966737639E+02  0.18693662006E+03 -0.12417296664E+04  0.12651439659E+04  0.15294330000E+03 0. -1.
    8880022    1    1    2    0    0  0.18966737639E+02 -0.18693662006E+03  0.24346239266E+03  0.34346852361E+03  0.15294330000E+03 0.  0.
<mgrwt>
<rscale>  0 0.24227400E+03</rscale>
<asrwt>0</asrwt>
<pdfrwt beam="1">  1        1 0.20052921E+00 0.24227400E+03</pdfrwt>
<pdfrwt beam="2">  1       -1 0.46949633E-01 0.24227400E+03</pdfrwt>
<totfact> 0.45933385E+01</totfact>
</mgrwt>
</event>
<event>
 4    1  0.4964158E-009  0.6378789E+03  0.7818608E-02  0.9829793E-01
          1   -1    0    0  501    0  0.00000000000E+00  0.00000000000E+00  0.15961308219E+04  0.15961308219E+04  0.50400000000E-02 0. -1.
         -1   -1    0    0    0  501 -0.00000000000E+00 -0.00000000000E+00 -0.39669479316E+03  0.39669479319E+03  0.50400000000E-02 0.  1.
    8880022    1    1    2    0    0  0.32550790714E+03  0.52682293414E+03  0.40463661320E+01  0.63789170526E+03  0.15294330000E+03 0.  0.
    8880022    1    1    2    0    0 -0.32550790714E+03 -0.52682293414E+03  0.11953896626E+04  0.13549339098E+04  0.15294330000E+03 0.  0.
<mgrwt>
<rscale>  0 0.63787887E+03</rscale>
<asrwt>0</asrwt>
<pdfrwt beam="1">  1        1 0.24555859E+00 0.63787887E+03</pdfrwt>
<pdfrwt beam="2">  1       -1 0.61029968E-01 0.63787887E+03</pdfrwt>
<totfact> 0.16128591E+01</totfact>
</mgrwt>
</event>
<event>
 4    1  0.4964158E-009  0.4219903E+03  0.7818608E-02  0.1036420E+00
         -1   -1    0    0    0  501 -0.00000000000E+00  0.00000000000E+00  0.10807355556E+04  0.10807355556E+04  0.50400000000E-02 0.  1.
          1   -1    0    0  501    0  0.00000000000E+00 -0.00000000000E+00 -0.17352537246E+04  0.17352537246E+04  0.50400000000E-02 0. -1.
    8880022    1    1    2    0    0  0.38909480731E+03  0.57353250879E+02  0.10122197098E+04  0.10966606396E+04  0.15294330000E+03 0.  0.
    8880022    1    1    2    0    0 -0.38909480731E+03 -0.57353250879E+02 -0.16667378789E+04  0.17193286406E+04  0.15294330000E+03 0.  0.
<mgrwt>
<rscale>  0 0.42199030E+03</rscale>
<asrwt>0</asrwt>
<pdfrwt beam="1">  1        1 0.26696211E+00 0.42199030E+03</pdfrwt>
<pdfrwt beam="2">  1       -1 0.16626701E+00 0.42199030E+03</pdfrwt>
<totfact> 0.13637841E+00</totfact>
</mgrwt>
</event>
<event>
 4    1  0.4964158E-009  0.1598514E+04  0.7818608E-02  0.8821461E-01
          1   -1    0    0  501    0  0.00000000000E+00  0.00000000000E+00  0.24415763842E+04  0.24415763842E+04  0.50400000000E-02 0. -1.
         -1   -1    0    0    0  501 -0.00000000000E+00 -0.00000000000E+00 -0.35678360689E+04  0.35678360689E+04  0.50400000000E-02 0.  1.
    8880022    1    1    2    0    0 -0.12025988319E+04  0.10419271595E+04  0.19627347631E+04  0.25313189368E+04  0.15294330000E+03 0.  0.
    8880022    1    1    2    0    0  0.12025988319E+04 -0.10419271595E+04 -0.30889944478E+04  0.34780935163E+04  0.15294330000E+03 0.  0.
<mgrwt>
<rscale>  0 0.15985143E+04</rscale>
<asrwt>0</asrwt>
<pdfrwt beam="1">  1        1 0.37562714E+00 0.15985143E+04</pdfrwt>
<pdfrwt beam="2">  1       -1 0.54889785E+00 0.15985143E+04</pdfrwt>
<totfact> 0.10301457E-03</totfact>
</mgrwt>
</event>
<event>
 4    1  0.4964158E-009  0.8574577E+03  0.7818608E-02  0.9480382E-01
          1   -1    0    0  501    0  0.00000000000E+00  0.00000000000E+00  0.13098936856E+04  0.13098936856E+04  0.50400000000E-02 0. -1.
         -1   -1    0    0    0  501 -0.00000000000E+00 -0.00000000000E+00 -0.17487890776E+04  0.17487890776E+04  0.50400000000E-02 0.  1.
    8880022    1    1    2    0    0 -0.74243329304E+01 -0.84367461357E+03  0.10407883277E+04  0.13485080535E+04  0.15294330000E+03 0.  0.
    8880022    1    1    2    0    0  0.74243329304E+01  0.84367461357E+03 -0.14796837197E+04  0.17101747097E+04  0.15294330000E+03 0.  0.
<mgrwt>
<rscale>  0 0.85745765E+03</rscale>
<asrwt>0</asrwt>
<pdfrwt beam="1">  1        1 0.20152210E+00 0.85745765E+03</pdfrwt>
<pdfrwt beam="2">  1       -1 0.26904448E+00 0.85745765E+03</pdfrwt>
<totfact> 0.48408617E-01</totfact>
</mgrwt>
</event>
<event>
 4    1  0.4964158E-009  0.7199080E+03  0.7818608E-02  0.9683780E-01
          1   -1    0    0  501    0  0.00000000000E+00  0.00000000000E+00  0.17525927698E+04  0.17525927698E+04  0.50400000000E-02 0. -1.
         -1   -1    0    0    0  501 -0.00000000000E+00 -0.00000000000E+00 -0.35262235872E+03  0.35262235876E+03  0.50400000000E-02 0.  1.
    8880022    1    1    2    0    0  0.66327855320E+03  0.23438730882E+03  0.27712501849E+03  0.77140506776E+03  0.15294330000E+03 0.  0.
    8880022    1    1    2    0    0 -0.66327855320E+03 -0.23438730882E+03  0.11228453926E+04  0.13338100608E+04  0.15294330000E+03 0.  0.
<mgrwt>
<rscale>  0 0.71990798E+03</rscale>
<asrwt>0</asrwt>
<pdfrwt beam="1">  1        1 0.26962965E+00 0.71990798E+03</pdfrwt>
<pdfrwt beam="2">  1       -1 0.54249595E-01 0.71990798E+03</pdfrwt>
<totfact> 0.15718753E+01</totfact>
</mgrwt>
</event>
<event>
 4    1  0.4964158E-009  0.1199813E+04  0.7818608E-02  0.9113021E-01
         -1   -1    0    0    0  501 -0.00000000000E+00  0.00000000000E+00  0.61050770324E+03  0.61050770326E+03  0.50400000000E-02 0.  1.
          1   -1    0    0  501    0  0.00000000000E+00 -0.00000000000E+00 -0.34216364431E+04  0.34216364431E+04  0.50400000000E-02 0. -1.
    8880022    1    1    2    0    0 -0.10674438658E+04  0.52604378113E+03 -0.28149071167E+03  0.12323908228E+04  0.15294330000E+03 0.  0.
    8880022    1    1    2    0    0  0.10674438658E+04 -0.52604378113E+03 -0.25296380282E+04  0.27997533236E+04  0.15294330000E+03 0.  0.
<mgrwt>
<rscale>  0 0.11998125E+04</rscale>
<asrwt>0</asrwt>
<pdfrwt beam="1">  1        1 0.52640559E+00 0.11998125E+04</pdfrwt>
<pdfrwt beam="2">  1       -1 0.93924264E-01 0.11998125E+04</pdfrwt>
<totfact> 0.31726341E-01</totfact>
</mgrwt>
</event>
<event>
 4    1  0.4964158E-009  0.1966339E+03  0.7818608E-02  0.1152610E+00
         -1   -1    0    0    0  501 -0.00000000000E+00  0.00000000000E+00  0.78581842953E+03  0.78581842955E+03  0.50400000000E-02 0.  1.
          1   -1    0    0  501    0  0.00000000000E+00 -0.00000000000E+00 -0.15754144391E+04  0.15754144391E+04  0.50400000000E-02 0. -1.
    8880022    1    1    2    0    0 -0.12348580176E+03  0.49476378422E+01 -0.15568316970E+04  0.15692003722E+04  0.15294330000E+03 0.  0.
    8880022    1    1    2    0    0  0.12348580176E+03 -0.49476378422E+01  0.76723568742E+03  0.79203249645E+03  0.15294330000E+03 0.  1.
<mgrwt>
<rscale>  0 0.19663386E+03</rscale>
<asrwt>0</asrwt>
<pdfrwt beam="1">  1        1 0.24237145E+00 0.19663386E+03</pdfrwt>
<pdfrwt beam="2">  1       -1 0.12089514E+00 0.19663386E+03</pdfrwt>
<totfact> 0.44293120E+00</totfact>
</mgrwt>
</event>
<event>
 4    1  0.4964158E-009  0.4154101E+03  0.7818608E-02  0.1038571E+00
          1   -1    0    0  501    0  0.00000000000E+00  0.00000000000E+00  0.69588276168E+03  0.69588276169E+03  0.50400000000E-02 0. -1.
         -1   -1    0    0    0  501 -0.00000000000E+00 -0.00000000000E+00 -0.13447647106E+04  0.13447647107E+04  0.50400000000E-02 0.  1.
    8880022    1    1    2    0    0  0.35171881325E+03  0.15958624479E+03 -0.12458986215E+04  0.13133274235E+04  0.15294330000E+03 0.  0.
    8880022    1    1    2    0    0 -0.35171881325E+03 -0.15958624479E+03  0.59701667258E+03  0.72732004886E+03  0.15294330000E+03 0.  0.
<mgrwt>
<rscale>  0 0.41541009E+03</rscale>
<asrwt>0</asrwt>
<pdfrwt beam="1">  1        1 0.10705889E+00 0.41541009E+03</pdfrwt>
<pdfrwt beam="2">  1       -1 0.20688688E+00 0.41541009E+03</pdfrwt>
<totfact> 0.41317827E+00</totfact>
</mgrwt>
</event>
<event>
 4    1  0.4964158E-009  0.4832292E+03  0.7818608E-02  0.1018251E+00
          1   -1    0    0  501    0  0.00000000000E+00  0.00000000000E+00  0.37230218396E+04  0.37230218396E+04  0.50400000000E-02 0. -1.
         -1   -1    0    0    0  501 -0.00000000000E+00 -0.00000000000E+00 -0.92735777390E+02  0.92735777527E+02  0.50400000000E-02 0.  1.
    8880022    1    1    2    0    0  0.59721418400E+02 -0.45448010588E+03  0.72972509771E+03  0.87521950715E+03  0.15294330000E+03 0.  1.
    8880022    1    1    2    0    0 -0.59721418400E+02  0.45448010588E+03  0.29005609645E+04  0.29405381100E+04  0.15294330000E+03 0.  0.
<mgrwt>
<rscale>  0 0.48322921E+03</rscale>
<asrwt>0</asrwt>
<pdfrwt beam="1">  1        1 0.57277253E+00 0.48322921E+03</pdfrwt>
<pdfrwt beam="2">  1       -1 0.14267044E-01 0.48322921E+03</pdfrwt>
<totfact> 0.67954292E+00</totfact>
</mgrwt>
</event>
<event>
 4    1  0.4964158E-009  0.1345784E+04  0.7818608E-02  0.8994025E-01
          1   -1    0    0  501    0  0.00000000000E+00  0.00000000000E+00  0.16828369410E+04  0.16828369410E+04  0.50400000000E-02 0. -1.
         -1   -1    0    0    0  501 -0.00000000000E+00 -0.00000000000E+00 -0.12662364723E+04  0.12662364723E+04  0.50400000000E-02 0.  1.
    8880022    1    1    2    0    0 -0.48329966055E+03  0.12466616965E+04 -0.36287781724E+03  0.13938493142E+04  0.15294330000E+03 0.  0.
    8880022    1    1    2    0    0  0.48329966055E+03 -0.12466616965E+04  0.77947828589E+03  0.15552240991E+04  0.15294330000E+03 0.  0.
<mgrwt>
<rscale>  0 0.13457844E+04</rscale>
<asrwt>0</asrwt>
<pdfrwt beam="1">  1        1 0.25889799E+00 0.13457844E+04</pdfrwt>
<pdfrwt beam="2">  1       -1 0.19480561E+00 0.13457844E+04</pdfrwt>
<totfact> 0.77103836E-01</totfact>
</mgrwt>
</event>
<event>
 4    1  0.4964158E-009  0.7401460E+03  0.7818608E-02  0.9650938E-01
          1   -1    0    0  501    0  0.00000000000E+00  0.00000000000E+00  0.16722981477E+04  0.16722981477E+04  0.50400000000E-02 0. -1.
         -1   -1    0    0    0  501 -0.00000000000E+00 -0.00000000000E+00 -0.43224327493E+03  0.43224327496E+03  0.50400000000E-02 0.  1.
    8880022    1    1    2    0    0 -0.13907135495E+03 -0.71069237574E+03  0.10223623853E+03  0.74717360512E+03  0.15294330000E+03 0.  1.
    8880022    1    1    2    0    0  0.13907135495E+03  0.71069237574E+03  0.11378186343E+04  0.13573678176E+04  0.15294330000E+03 0.  0.
<mgrwt>
<rscale>  0 0.74014603E+03</rscale>
<asrwt>0</asrwt>
<pdfrwt beam="1">  1        1 0.25727664E+00 0.74014603E+03</pdfrwt>
<pdfrwt beam="2">  1       -1 0.66498966E-01 0.74014603E+03</pdfrwt>
<totfact> 0.11880451E+01</totfact>
</mgrwt>
</event>
<event>
 4    1  0.4964158E-009  0.2360605E+04  0.7818608E-02  0.8454402E-01
         -1   -1    0    0    0  501 -0.00000000000E+00  0.00000000000E+00  0.24251674214E+04  0.24251674214E+04  0.50400000000E-02 0.  1.
          1   -1    0    0  501    0  0.00000000000E+00 -0.00000000000E+00 -0.30982988841E+04  0.30982988841E+04  0.50400000000E-02 0. -1.
    8880022    1    1    2    0    0  0.21281418579E+03 -0.23460120308E+04 -0.17403847767E+04  0.29328131802E+04  0.15294330000E+03 0.  0.
    8880022    1    1    2    0    0 -0.21281418579E+03  0.23460120308E+04  0.10672533139E+04  0.25906531253E+04  0.15294330000E+03 0.  0.
<mgrwt>
<rscale>  0 0.23606046E+04</rscale>
<asrwt>0</asrwt>
<pdfrwt beam="1">  1        1 0.47666137E+00 0.23606046E+04</pdfrwt>
<pdfrwt beam="2">  1       -1 0.37310268E+00 0.23606046E+04</pdfrwt>
<totfact> 0.46679335E-03</totfact>
</mgrwt>
</event>
<event>
 4    1  0.4964158E-009  0.5931961E+03  0.7818608E-02  0.9919623E-01
         -1   -1    0    0    0  501 -0.00000000000E+00  0.00000000000E+00  0.86694782430E+03  0.86694782432E+03  0.50400000000E-02 0.  1.
          1   -1    0    0  501    0  0.00000000000E+00 -0.00000000000E+00 -0.44773292852E+03  0.44773292855E+03  0.50400000000E-02 0. -1.
    8880022    1    1    2    0    0  0.71206130642E+02 -0.56870000462E+03  0.41056971440E+03  0.72142161853E+03  0.15294330000E+03 0.  0.
    8880022    1    1    2    0    0 -0.71206130642E+02  0.56870000462E+03  0.86451813853E+01  0.59325913433E+03  0.15294330000E+03 0.  0.
<mgrwt>
<rscale>  0 0.59319614E+03</rscale>
<asrwt>0</asrwt>
<pdfrwt beam="1">  1        1 0.68881989E-01 0.59319614E+03</pdfrwt>
<pdfrwt beam="2">  1       -1 0.13337659E+00 0.59319614E+03</pdfrwt>
<totfact> 0.25543256E+01</totfact>
</mgrwt>
</event>
<event>
 4    1  0.4964158E-009  0.5164609E+03  0.7818608E-02  0.1009569E+00
          1   -1    0    0  501    0  0.00000000000E+00  0.00000000000E+00  0.58442567833E+03  0.58442567835E+03  0.50400000000E-02 0. -1.
         -1   -1    0    0    0  501 -0.00000000000E+00 -0.00000000000E+00 -0.10341417441E+04  0.10341417442E+04  0.50400000000E-02 0.  1.
    8880022    1    1    2    0    0  0.45689661074E+03  0.18597241793E+03  0.38003366194E+03  0.64121563483E+03  0.15294330000E+03 0.  0.
    8880022    1    1    2    0    0 -0.45689661074E+03 -0.18597241793E+03 -0.82974972776E+03  0.97735178767E+03  0.15294330000E+03 0.  0.
<mgrwt>
<rscale>  0 0.51646094E+03</rscale>
<asrwt>0</asrwt>
<pdfrwt beam="1">  1        1 0.89911643E-01 0.51646094E+03</pdfrwt>
<pdfrwt beam="2">  1       -1 0.15909873E+00 0.51646094E+03</pdfrwt>
<totfact> 0.11267135E+01</totfact>
</mgrwt>
</event>
<event>
 4    1  0.4964158E-009  0.1184189E+04  0.7818608E-02  0.9126809E-01
          1   -1    0    0  501    0  0.00000000000E+00  0.00000000000E+00  0.88707780336E+03  0.88707780337E+03  0.50400000000E-02 0. -1.
         -1   -1    0    0    0  501 -0.00000000000E+00 -0.00000000000E+00 -0.20368807925E+04  0.20368807925E+04  0.50400000000E-02 0.  1.
    8880022    1    1    2    0    0 -0.84033403398E+03 -0.82021412570E+03 -0.12666896184E+04  0.17340146318E+04  0.15294330000E+03 0.  0.
    8880022    1    1    2    0    0  0.84033403398E+03  0.82021412570E+03  0.11688662928E+03  0.11899439641E+04  0.15294330000E+03 0.  0.
<mgrwt>
<rscale>  0 0.11841892E+04</rscale>
<asrwt>0</asrwt>
<pdfrwt beam="1">  1        1 0.13647351E+00 0.11841892E+04</pdfrwt>
<pdfrwt beam="2">  1       -1 0.31336627E+00 0.11841892E+04</pdfrwt>
<totfact> 0.49875955E-01</totfact>
</mgrwt>
</event>
<event>
 4    1  0.4964158E-009  0.6627437E+03  0.7818608E-02  0.9783156E-01
          1   -1    0    0  501    0  0.00000000000E+00  0.00000000000E+00  0.12479469349E+04  0.12479469349E+04  0.50400000000E-02 0. -1.
         -1   -1    0    0    0  501 -0.00000000000E+00 -0.00000000000E+00 -0.85159049629E+03  0.85159049631E+03  0.50400000000E-02 0.  1.
    8880022    1    1    2    0    0  0.64280542536E+03  0.51368580784E+02  0.10022634166E+04  0.12015661260E+04  0.15294330000E+03 0.  0.
    8880022    1    1    2    0    0 -0.64280542536E+03 -0.51368580784E+02 -0.60590697798E+03  0.89797130519E+03  0.15294330000E+03 0.  0.
<mgrwt>
<rscale>  0 0.66274369E+03</rscale>
<asrwt>0</asrwt>
<pdfrwt beam="1">  1        1 0.19199183E+00 0.66274369E+03</pdfrwt>
<pdfrwt beam="2">  1       -1 0.13101392E+00 0.66274369E+03</pdfrwt>
<totfact> 0.51697425E+00</totfact>
</mgrwt>
</event>
<event>
 4    1  0.4964158E-009  0.1099716E+04  0.7818608E-02  0.9205469E-01
         -1   -1    0    0    0  501 -0.00000000000E+00  0.00000000000E+00  0.42247931196E+03  0.42247931199E+03  0.50400000000E-02 0.  1.
          1   -1    0    0  501    0  0.00000000000E+00 -0.00000000000E+00 -0.32553038016E+04  0.32553038016E+04  0.50400000000E-02 0. -1.
    8880022    1    1    2    0    0  0.43174598270E+03  0.99978939456E+03 -0.77769080932E+03  0.13469142790E+04  0.15294330000E+03 0.  0.
    8880022    1    1    2    0    0 -0.43174598270E+03 -0.99978939456E+03 -0.20551336803E+04  0.23308688346E+04  0.15294330000E+03 0.  0.
<mgrwt>
<rscale>  0 0.10997159E+04</rscale>
<asrwt>0</asrwt>
<pdfrwt beam="1">  1        1 0.50081595E+00 0.10997159E+04</pdfrwt>
<pdfrwt beam="2">  1       -1 0.64996819E-01 0.10997159E+04</pdfrwt>
<totfact> 0.94319100E-01</totfact>
</mgrwt>
</event>
<event>
 4    1  0.4964158E-009  0.9942098E+03  0.7818608E-02  0.9314918E-01
          1   -1    0    0  501    0  0.00000000000E+00  0.00000000000E+00  0.26087952122E+04  0.26087952122E+04  0.50400000000E-02 0. -1.
         -1   -1    0    0    0  501 -0.00000000000E+00 -0.00000000000E+00 -0.43000940690E+03  0.43000940693E+03  0.50400000000E-02 0.  1.
    8880022    1    1    2    0    0 -0.95915351650E+03  0.21233453433E+03  0.16132536599E+04  0.18950040757E+04  0.15294330000E+03 0.  0.
    8880022    1    1    2    0    0  0.95915351650E+03 -0.21233453433E+03  0.56553214538E+03  0.11438005434E+04  0.15294330000E+03 0.  0.
<mgrwt>
<rscale>  0 0.99420977E+03</rscale>
<asrwt>0</asrwt>
<pdfrwt beam="1">  1        1 0.40135310E+00 0.99420977E+03</pdfrwt>
<pdfrwt beam="2">  1       -1 0.66155295E-01 0.99420977E+03</pdfrwt>
<totfact> 0.26911200E+00</totfact>
</mgrwt>
</event>
<event>
 4    1  0.4964158E-009  0.7665837E+03  0.7818608E-02  0.9609686E-01
         -1   -1    0    0    0  501 -0.00000000000E+00  0.00000000000E+00  0.80529383449E+03  0.80529383451E+03  0.50400000000E-02 0.  1.
          1   -1    0    0  501    0  0.00000000000E+00 -0.00000000000E+00 -0.12459114134E+04  0.12459114134E+04  0.50400000000E-02 0. -1.
    8880022    1    1    2    0    0 -0.53963892438E+03  0.52254070183E+03  0.43982942585E+03  0.88379891979E+03  0.15294330000E+03 0.  0.
    8880022    1    1    2    0    0  0.53963892438E+03 -0.52254070183E+03 -0.88044700478E+03  0.11674063282E+04  0.15294330000E+03 0.  0.
<mgrwt>
<rscale>  0 0.76658372E+03</rscale>
<asrwt>0</asrwt>
<pdfrwt beam="1">  1        1 0.19167868E+00 0.76658372E+03</pdfrwt>
<pdfrwt beam="2">  1       -1 0.12389136E+00 0.76658372E+03</pdfrwt>
<totfact> 0.58604128E+00</totfact>
</mgrwt>
</event>
<event>
 4    1  0.4964158E-009  0.4984579E+03  0.7818608E-02  0.1014182E+00
         -1   -1    0    0    0  501 -0.00000000000E+00  0.00000000000E+00  0.39815708067E+03  0.39815708070E+03  0.50400000000E-02 0.  1.
          1   -1    0    0  501    0  0.00000000000E+00 -0.00000000000E+00 -0.99999526073E+03  0.99999526074E+03  0.50400000000E-02 0. -1.
    8880022    1    1    2    0    0  0.47439062092E+03 -0.47078781684E+01 -0.72956810553E+03  0.88358921392E+03  0.15294330000E+03 0.  0.
    8880022    1    1    2    0    0 -0.47439062092E+03  0.47078781684E+01  0.12772992547E+03  0.51456312753E+03  0.15294330000E+03 0.  1.
<mgrwt>
<rscale>  0 0.49845790E+03</rscale>
<asrwt>0</asrwt>
<pdfrwt beam="1">  1        1 0.15384542E+00 0.49845790E+03</pdfrwt>
<pdfrwt beam="2">  1       -1 0.61254936E-01 0.49845790E+03</pdfrwt>
<totfact> 0.43270268E+01</totfact>
</mgrwt>
</event>
<event>
 4    1  0.4964158E-009  0.1368525E+04  0.7818608E-02  0.8976923E-01
         -1   -1    0    0    0  501 -0.00000000000E+00  0.00000000000E+00  0.17167550828E+04  0.17167550828E+04  0.50400000000E-02 0.  1.
          1   -1    0    0  501    0  0.00000000000E+00 -0.00000000000E+00 -0.23292432993E+04  0.23292432993E+04  0.50400000000E-02 0. -1.
    8880022    1    1    2    0    0 -0.49298803977E+03  0.12674504509E+04 -0.17812833087E+04  0.22462924413E+04  0.15294330000E+03 0.  0.
    8880022    1    1    2    0    0  0.49298803977E+03 -0.12674504509E+04  0.11687950922E+04  0.17997059408E+04  0.15294330000E+03 0.  0.
<mgrwt>
<rscale>  0 0.13685246E+04</rscale>
<asrwt>0</asrwt>
<pdfrwt beam="1">  1        1 0.35834512E+00 0.13685246E+04</pdfrwt>
<pdfrwt beam="2">  1       -1 0.26411617E+00 0.13685246E+04</pdfrwt>
<totfact> 0.96297922E-02</totfact>
</mgrwt>
</event>
<event>
 4    1  0.4964158E-009  0.4092478E+03  0.7818608E-02  0.1040624E+00
         -1   -1    0    0    0  501 -0.00000000000E+00  0.00000000000E+00  0.26600951038E+03  0.26600951043E+03  0.50400000000E-02 0.  1.
          1   -1    0    0  501    0  0.00000000000E+00 -0.00000000000E+00 -0.16610125462E+04  0.16610125462E+04  0.50400000000E-02 0. -1.
    8880022    1    1    2    0    0 -0.34302405981E+03 -0.16256258839E+03 -0.14567486170E+04  0.15131425203E+04  0.15294330000E+03 0.  0.
    8880022    1    1    2    0    0  0.34302405981E+03  0.16256258839E+03  0.61745581170E+02  0.41387953629E+03  0.15294330000E+03 0.  0.
<mgrwt>
<rscale>  0 0.40924779E+03</rscale>
<asrwt>0</asrwt>
<pdfrwt beam="1">  1        1 0.25554038E+00 0.40924779E+03</pdfrwt>
<pdfrwt beam="2">  1       -1 0.40924541E-01 0.40924779E+03</pdfrwt>
<totfact> 0.32384896E+01</totfact>
</mgrwt>
</event>
<event>
 4    1  0.4964158E-009  0.6342692E+03  0.7818608E-02  0.9836753E-01
          1   -1    0    0  501    0  0.00000000000E+00  0.00000000000E+00  0.72500492797E+03  0.72500492798E+03  0.50400000000E-02 0. -1.
         -1   -1    0    0    0  501 -0.00000000000E+00 -0.00000000000E+00 -0.15989949603E+04  0.15989949603E+04  0.50400000000E-02 0.  1.
    8880022    1    1    2    0    0 -0.15768669872E+03  0.59501312618E+03 -0.13759717167E+04  0.15151222833E+04  0.15294330000E+03 0.  0.
    8880022    1    1    2    0    0  0.15768669872E+03 -0.59501312618E+03  0.50198168439E+03  0.80887760493E+03  0.15294330000E+03 0.  0.
<mgrwt>
<rscale>  0 0.63426916E+03</rscale>
<asrwt>0</asrwt>
<pdfrwt beam="1">  1        1 0.11153922E+00 0.63426916E+03</pdfrwt>
<pdfrwt beam="2">  1       -1 0.24599923E+00 0.63426916E+03</pdfrwt>
<totfact> 0.20437470E+00</totfact>
</mgrwt>
</event>
<event>
 4    1  0.4964158E-009  0.7033640E+03  0.7818608E-02  0.9711497E-01
          1   -1    0    0  501    0  0.00000000000E+00  0.00000000000E+00  0.18196225155E+04  0.18196225155E+04  0.50400000000E-02 0. -1.
         -1   -1    0    0    0  501 -0.00000000000E+00 -0.00000000000E+00 -0.79726580763E+03  0.79726580764E+03  0.50400000000E-02 0.  1.
    8880022    1    1    2    0    0  0.57504206311E+03 -0.37504116872E+03  0.15733442498E+04  0.17234073906E+04  0.15294330000E+03 0.  0.
    8880022    1    1    2    0    0 -0.57504206311E+03  0.37504116872E+03 -0.55098754188E+03  0.89348093259E+03  0.15294330000E+03 0.  1.
<mgrwt>
<rscale>  0 0.70336399E+03</rscale>
<asrwt>0</asrwt>
<pdfrwt beam="1">  1        1 0.27994192E+00 0.70336399E+03</pdfrwt>
<pdfrwt beam="2">  1       -1 0.12265628E+00 0.70336399E+03</pdfrwt>
<totfact> 0.24567768E+00</totfact>
</mgrwt>
</event>
<event>
 4    1  0.4964158E-009  0.7640375E+03  0.7818608E-02  0.9613581E-01
         -1   -1    0    0    0  501 -0.00000000000E+00  0.00000000000E+00  0.54974696455E+03  0.54974696458E+03  0.50400000000E-02 0.  1.
          1   -1    0    0  501    0  0.00000000000E+00 -0.00000000000E+00 -0.26201598235E+04  0.26201598235E+04  0.50400000000E-02 0. -1.
    8880022    1    1    2    0    0  0.58668625810E+03 -0.46493109005E+03  0.18709512060E+03  0.78661167110E+03  0.15294330000E+03 0.  0.
    8880022    1    1    2    0    0 -0.58668625810E+03  0.46493109005E+03 -0.22575079796E+04  0.23832951170E+04  0.15294330000E+03 0.  0.
<mgrwt>
<rscale>  0 0.76403752E+03</rscale>
<asrwt>0</asrwt>
<pdfrwt beam="1">  1        1 0.40310150E+00 0.76403752E+03</pdfrwt>
<pdfrwt beam="2">  1       -1 0.84576458E-01 0.76403752E+03</pdfrwt>
<totfact> 0.16455089E+00</totfact>
</mgrwt>
</event>
<event>
 4    1  0.4964158E-009  0.1150119E+04  0.7818608E-02  0.9157674E-01
          1   -1    0    0  501    0  0.00000000000E+00  0.00000000000E+00  0.19112872852E+04  0.19112872852E+04  0.50400000000E-02 0. -1.
         -1   -1    0    0    0  501 -0.00000000000E+00 -0.00000000000E+00 -0.12325823748E+04  0.12325823748E+04  0.50400000000E-02 0.  1.
    8880022    1    1    2    0    0 -0.86846612152E+03 -0.73834135733E+03  0.13802869629E+04  0.17966538668E+04  0.15294330000E+03 0. -1.
    8880022    1    1    2    0    0  0.86846612152E+03  0.73834135733E+03 -0.70158205244E+03  0.13472157932E+04  0.15294330000E+03 0.  0.
<mgrwt>
<rscale>  0 0.11501187E+04</rscale>
<asrwt>0</asrwt>
<pdfrwt beam="1">  1        1 0.29404420E+00 0.11501187E+04</pdfrwt>
<pdfrwt beam="2">  1       -1 0.18962806E+00 0.11501187E+04</pdfrwt>
<totfact> 0.60128422E-01</totfact>
</mgrwt>
</event>
<event>
 4    1  0.4964158E-009  0.1305872E+04  0.7818608E-02  0.9024922E-01
          1   -1    0    0  501    0  0.00000000000E+00  0.00000000000E+00  0.18327020149E+04  0.18327020149E+04  0.50400000000E-02 0. -1.
         -1   -1    0    0    0  501 -0.00000000000E+00 -0.00000000000E+00 -0.14634962924E+04  0.14634962924E+04  0.50400000000E-02 0.  1.
    8880022    1    1    2    0    0 -0.30269413104E+03 -0.12610651037E+04 -0.81001438038E+03  0.15366925139E+04  0.15294330000E+03 0.  0.
    8880022    1    1    2    0    0  0.30269413104E+03  0.12610651037E+04  0.11792201029E+04  0.17595057934E+04  0.15294330000E+03 0.  0.
<mgrwt>
<rscale>  0 0.13058716E+04</rscale>
<asrwt>0</asrwt>
<pdfrwt beam="1">  1        1 0.28195416E+00 0.13058716E+04</pdfrwt>
<pdfrwt beam="2">  1       -1 0.22515327E+00 0.13058716E+04</pdfrwt>
<totfact> 0.38053429E-01</totfact>
</mgrwt>
</event>
<event>
 4    1  0.4964158E-009  0.6255147E+03  0.7818608E-02  0.9853841E-01
         -1   -1    0    0    0  501 -0.00000000000E+00  0.00000000000E+00  0.57749894936E+03  0.57749894938E+03  0.50400000000E-02 0.  1.
          1   -1    0    0  501    0  0.00000000000E+00 -0.00000000000E+00 -0.19633812933E+04  0.19633812933E+04  0.50400000000E-02 0. -1.
    8880022    1    1    2    0    0  0.48014401178E+03  0.37059239314E+03 -0.17210722383E+04  0.18312177087E+04  0.15294330000E+03 0.  0.
    8880022    1    1    2    0    0 -0.48014401178E+03 -0.37059239314E+03  0.33518989439E+03  0.70966253404E+03  0.15294330000E+03 0.  0.
<mgrwt>
<rscale>  0 0.62551471E+03</rscale>
<asrwt>0</asrwt>
<pdfrwt beam="1">  1        1 0.30205866E+00 0.62551471E+03</pdfrwt>
<pdfrwt beam="2">  1       -1 0.88845993E-01 0.62551471E+03</pdfrwt>
<totfact> 0.42211092E+00</totfact>
</mgrwt>
</event>
<event>
 4    1  0.4964158E-009  0.7672217E+03  0.7818608E-02  0.9608713E-01
          1   -1    0    0  501    0  0.00000000000E+00  0.00000000000E+00  0.11496122374E+04  0.11496122375E+04  0.50400000000E-02 0. -1.
         -1   -1    0    0    0  501 -0.00000000000E+00 -0.00000000000E+00 -0.17670905568E+04  0.17670905568E+04  0.50400000000E-02 0.  1.
    8880022    1    1    2    0    0  0.62536226648E+03  0.41732432565E+03 -0.15377794907E+04  0.17185444341E+04  0.15294330000E+03 0.  0.
    8880022    1    1    2    0    0 -0.62536226648E+03 -0.41732432565E+03  0.92030117130E+03  0.11981583602E+04  0.15294330000E+03 0. -1.
<mgrwt>
<rscale>  0 0.76722175E+03</rscale>
<asrwt>0</asrwt>
<pdfrwt beam="1">  1        1 0.17686342E+00 0.76722175E+03</pdfrwt>
<pdfrwt beam="2">  1       -1 0.27186009E+00 0.76722175E+03</pdfrwt>
<totfact> 0.61707247E-01</totfact>
</mgrwt>
</event>
<event>
 4    1  0.4964158E-009  0.5210087E+03  0.7818608E-02  0.1008436E+00
          1   -1    0    0  501    0  0.00000000000E+00  0.00000000000E+00  0.18695848326E+04  0.18695848326E+04  0.50400000000E-02 0. -1.
         -1   -1    0    0    0  501 -0.00000000000E+00 -0.00000000000E+00 -0.26524757981E+03  0.26524757986E+03  0.50400000000E-02 0.  1.
    8880022    1    1    2    0    0 -0.33330773924E+03  0.37008701694E+03  0.84047084683E+02  0.52774427008E+03  0.15294330000E+03 0.  0.
    8880022    1    1    2    0    0  0.33330773924E+03 -0.37008701694E+03  0.15202901681E+04  0.16070881423E+04  0.15294330000E+03 0.  0.
<mgrwt>
<rscale>  0 0.52100874E+03</rscale>
<asrwt>0</asrwt>
<pdfrwt beam="1">  1        1 0.28762843E+00 0.52100874E+03</pdfrwt>
<pdfrwt beam="2">  1       -1 0.40807321E-01 0.52100874E+03</pdfrwt>
<totfact> 0.23123739E+01</totfact>
</mgrwt>
</event>
<event>
 4    1  0.4964158E-009  0.3085272E+03  0.7818608E-02  0.1081054E+00
          1   -1    0    0  501    0  0.00000000000E+00  0.00000000000E+00  0.61492777582E+03  0.61492777584E+03  0.50400000000E-02 0. -1.
         -1   -1    0    0    0  501 -0.00000000000E+00 -0.00000000000E+00 -0.47150659093E+03  0.47150659096E+03  0.50400000000E-02 0.  1.
    8880022    1    1    2    0    0  0.26778408901E+03 -0.94386475552E+01  0.51691569059E+03  0.60198911169E+03  0.15294330000E+03 0.  0.
    8880022    1    1    2    0    0 -0.26778408901E+03  0.94386475552E+01 -0.37349450570E+03  0.48444525511E+03  0.15294330000E+03 0.  0.
<mgrwt>
<rscale>  0 0.30852724E+03</rscale>
<asrwt>0</asrwt>
<pdfrwt beam="1">  1        1 0.94604273E-01 0.30852724E+03</pdfrwt>
<pdfrwt beam="2">  1       -1 0.72539476E-01 0.30852724E+03</pdfrwt>
<totfact> 0.68220654E+01</totfact>
</mgrwt>
</event>
<event>
 4    1  0.4964158E-009  0.4729581E+03  0.7818608E-02  0.1021089E+00
         -1   -1    0    0    0  501 -0.00000000000E+00  0.00000000000E+00  0.18878072537E+03  0.18878072544E+03  0.50400000000E-02 0.  1.
          1   -1    0    0  501    0  0.00000000000E+00 -0.00000000000E+00 -0.32127547821E+04  0.32127547821E+04  0.50400000000E-02 0. -1.
    8880022    1    1    2    0    0 -0.43411334622E+03  0.10882700392E+03 -0.28631971791E+04  0.29019971492E+04  0.15294330000E+03 0.  0.
    8880022    1    1    2    0    0  0.43411334622E+03 -0.10882700392E+03 -0.16077687765E+03  0.49953835844E+03  0.15294330000E+03 0.  0.
<mgrwt>
<rscale>  0 0.47295810E+03</rscale>
<asrwt>0</asrwt>
<pdfrwt beam="1">  1        1 0.49426993E+00 0.47295810E+03</pdfrwt>
<pdfrwt beam="2">  1       -1 0.29043191E-01 0.47295810E+03</pdfrwt>
<totfact> 0.51415021E+00</totfact>
</mgrwt>
</event>
<event>
 4    1  0.4964158E-009  0.5931782E+03  0.7818608E-02  0.9919661E-01
         -1   -1    0    0    0  501 -0.00000000000E+00  0.00000000000E+00  0.51454193716E+03  0.51454193719E+03  0.50400000000E-02 0.  1.
          1   -1    0    0  501    0  0.00000000000E+00 -0.00000000000E+00 -0.27445359480E+04  0.27445359480E+04  0.50400000000E-02 0. -1.
    8880022    1    1    2    0    0 -0.20672442904E+03  0.53454072403E+03 -0.25270078925E+04  0.25956943805E+04  0.15294330000E+03 0.  0.
    8880022    1    1    2    0    0  0.20672442904E+03 -0.53454072403E+03  0.29701388175E+03  0.66338350460E+03  0.15294330000E+03 0.  0.
<mgrwt>
<rscale>  0 0.59317824E+03</rscale>
<asrwt>0</asrwt>
<pdfrwt beam="1">  1        1 0.42223629E+00 0.59317824E+03</pdfrwt>
<pdfrwt beam="2">  1       -1 0.79160299E-01 0.59317824E+03</pdfrwt>
<totfact> 0.16183795E+00</totfact>
</mgrwt>
</event>
<event>
 4    1  0.4964158E-009  0.6417144E+03  0.7818608E-02  0.9822452E-01
         -1   -1    0    0    0  501 -0.00000000000E+00  0.00000000000E+00  0.29517132352E+03  0.29517132356E+03  0.50400000000E-02 0.  1.
          1   -1    0    0  501    0  0.00000000000E+00 -0.00000000000E+00 -0.39830526765E+04  0.39830526765E+04  0.50400000000E-02 0. -1.
    8880022    1    1    2    0    0  0.61105366484E+03 -0.12255281861E+03 -0.11968147768E+03  0.65277950625E+03  0.15294330000E+03 0.  0.
    8880022    1    1    2    0    0 -0.61105366484E+03  0.12255281861E+03 -0.35681998753E+04  0.36254444938E+04  0.15294330000E+03 0.  0.
<mgrwt>
<rscale>  0 0.64171444E+03</rscale>
<asrwt>0</asrwt>
<pdfrwt beam="1">  1        1 0.61277729E+00 0.64171444E+03</pdfrwt>
<pdfrwt beam="2">  1       -1 0.45410976E-01 0.64171444E+03</pdfrwt>
<totfact> 0.54639189E-01</totfact>
</mgrwt>
</event>
<event>
 4    1  0.4964158E-009  0.2467891E+03  0.7818608E-02  0.1115351E+00
         -1   -1    0    0    0  501 -0.00000000000E+00  0.00000000000E+00  0.86275913089E+03  0.86275913090E+03  0.50400000000E-02 0.  1.
          1   -1    0    0  501    0  0.00000000000E+00 -0.00000000000E+00 -0.58612680042E+03  0.58612680044E+03  0.50400000000E-02 0. -1.
    8880022    1    1    2    0    0  0.67378037133E+02  0.18158583972E+03  0.81773397376E+03  0.85416258519E+03  0.15294330000E+03 0.  0.
    8880022    1    1    2    0    0 -0.67378037133E+02 -0.18158583972E+03 -0.54110164330E+03  0.59472334616E+03  0.15294330000E+03 0. -1.
<mgrwt>
<rscale>  0 0.24678912E+03</rscale>
<asrwt>0</asrwt>
<pdfrwt beam="1">  1        1 0.90173354E-01 0.24678912E+03</pdfrwt>
<pdfrwt beam="2">  1       -1 0.13273217E+00 0.24678912E+03</pdfrwt>
<totfact> 0.19257794E+01</totfact>
</mgrwt>
</event>
<event>
 4    1  0.4964158E-009  0.2936809E+03  0.7818608E-02  0.1088443E+00
         -1   -1    0    0    0  501 -0.00000000000E+00  0.00000000000E+00  0.14368722052E+03  0.14368722061E+03  0.50400000000E-02 0.  1.
          1   -1    0    0  501    0  0.00000000000E+00 -0.00000000000E+00 -0.11425133897E+04  0.11425133897E+04  0.50400000000E-02 0. -1.
    8880022    1    1    2    0    0 -0.34242455432E+02  0.24836316272E+03 -0.56363190812E+02  0.29904058026E+03  0.15294330000E+03 0.  0.
    8880022    1    1    2    0    0  0.34242455432E+02 -0.24836316272E+03 -0.94246297837E+03  0.98716003007E+03  0.15294330000E+03 0.  0.
<mgrwt>
<rscale>  0 0.29368088E+03</rscale>
<asrwt>0</asrwt>
<pdfrwt beam="1">  1        1 0.17577128E+00 0.29368088E+03</pdfrwt>
<pdfrwt beam="2">  1       -1 0.22105727E-01 0.29368088E+03</pdfrwt>
<totfact> 0.21599338E+02</totfact>
</mgrwt>
</event>
<event>
 4    1  0.4964158E-009  0.3440780E+03  0.7818608E-02  0.1065072E+00
          1   -1    0    0  501    0  0.00000000000E+00  0.00000000000E+00  0.65290409355E+03  0.65290409357E+03  0.50400000000E-02 0. -1.
         -1   -1    0    0    0  501 -0.00000000000E+00 -0.00000000000E+00 -0.40258981272E+03  0.40258981275E+03  0.50400000000E-02 0.  1.
    8880022    1    1    2    0    0 -0.10692798796E+03  0.28907510906E+03 -0.26608692978E+03  0.43496197593E+03  0.15294330000E+03 0.  0.
    8880022    1    1    2    0    0  0.10692798796E+03 -0.28907510906E+03  0.51640121062E+03  0.62053193039E+03  0.15294330000E+03 0. -1.
<mgrwt>
<rscale>  0 0.34407799E+03</rscale>
<asrwt>0</asrwt>
<pdfrwt beam="1">  1        1 0.10044678E+00 0.34407799E+03</pdfrwt>
<pdfrwt beam="2">  1       -1 0.61936895E-01 0.34407799E+03</pdfrwt>
<totfact> 0.85247979E+01</totfact>
</mgrwt>
</event>
<event>
 4    1  0.4964158E-009  0.4706209E+03  0.7818608E-02  0.1021745E+00
          1   -1    0    0  501    0  0.00000000000E+00  0.00000000000E+00  0.19949805683E+04  0.19949805683E+04  0.50400000000E-02 0. -1.
         -1   -1    0    0    0  501 -0.00000000000E+00 -0.00000000000E+00 -0.63515821184E+03  0.63515821186E+03  0.50400000000E-02 0.  1.
    8880022    1    1    2    0    0  0.10695207357E+03  0.43203432109E+03 -0.51471038484E+03  0.69743159803E+03  0.15294330000E+03 0.  1.
    8880022    1    1    2    0    0 -0.10695207357E+03 -0.43203432109E+03  0.18745327413E+04  0.19327071821E+04  0.15294330000E+03 0.  0.
<mgrwt>
<rscale>  0 0.47062092E+03</rscale>
<asrwt>0</asrwt>
<pdfrwt beam="1">  1        1 0.30692008E+00 0.47062092E+03</pdfrwt>
<pdfrwt beam="2">  1       -1 0.97716650E-01 0.47062092E+03</pdfrwt>
<totfact> 0.33916447E+00</totfact>
</mgrwt>
</event>
<event>
 4    1  0.4964158E-009  0.6249967E+03  0.7818608E-02  0.9854861E-01
         -1   -1    0    0    0  501 -0.00000000000E+00  0.00000000000E+00  0.37647079183E+03  0.37647079187E+03  0.50400000000E-02 0.  1.
          1   -1    0    0  501    0  0.00000000000E+00 -0.00000000000E+00 -0.12002166026E+04  0.12002166026E+04  0.50400000000E-02 0. -1.
    8880022    1    1    2    0    0 -0.14337177908E+03 -0.58879003507E+03 -0.70206589176E+03  0.93995603185E+03  0.15294330000E+03 0.  0.
    8880022    1    1    2    0    0  0.14337177908E+03  0.58879003507E+03 -0.12167991901E+03  0.63673136262E+03  0.15294330000E+03 0.  0.
<mgrwt>
<rscale>  0 0.62499666E+03</rscale>
<asrwt>0</asrwt>
<pdfrwt beam="1">  1        1 0.18464871E+00 0.62499666E+03</pdfrwt>
<pdfrwt beam="2">  1       -1 0.57918584E-01 0.62499666E+03</pdfrwt>
<totfact> 0.33686975E+01</totfact>
</mgrwt>
</event>
<event>
 4    1  0.4964158E-009  0.4096695E+03  0.7818608E-02  0.1040482E+00
          1   -1    0    0  501    0  0.00000000000E+00  0.00000000000E+00  0.37593375942E+04  0.37593375942E+04  0.50400000000E-02 0. -1.
         -1   -1    0    0    0  501 -0.00000000000E+00 -0.00000000000E+00 -0.25672657638E+03  0.25672657643E+03  0.50400000000E-02 0.  1.
    8880022    1    1    2    0    0 -0.43751818726E+02  0.37752251430E+03 -0.73802101075E+02  0.41626418724E+03  0.15294330000E+03 0.  0.
    8880022    1    1    2    0    0  0.43751818726E+02 -0.37752251430E+03  0.35764131189E+04  0.35997999834E+04  0.15294330000E+03 0. -1.
<mgrwt>
<rscale>  0 0.40966953E+03</rscale>
<asrwt>0</asrwt>
<pdfrwt beam="1">  1        1 0.57835953E+00 0.40966953E+03</pdfrwt>
<pdfrwt beam="2">  1       -1 0.39496403E-01 0.40966953E+03</pdfrwt>
<totfact> 0.11723860E+00</totfact>
</mgrwt>
</event>
<event>
 4    1  0.4964158E-009  0.5558148E+03  0.7818608E-02  0.1000157E+00
         -1   -1    0    0    0  501 -0.00000000000E+00  0.00000000000E+00  0.15859533253E+03  0.15859533261E+03  0.50400000000E-02 0.  1.
          1   -1    0    0  501    0  0.00000000000E+00 -0.00000000000E+00 -0.30213233345E+04  0.30213233345E+04  0.50400000000E-02 0. -1.
    8880022    1    1    2    0    0 -0.51552443510E+03  0.14061664272E+03 -0.48366589767E+03  0.73679226175E+03  0.15294330000E+03 0.  0.
    8880022    1    1    2    0    0  0.51552443510E+03 -0.14061664272E+03 -0.23790621043E+04  0.24431264054E+04  0.15294330000E+03 0.  0.
<mgrwt>
<rscale>  0 0.55581484E+03</rscale>
<asrwt>0</asrwt>
<pdfrwt beam="1">  1        1 0.46481893E+00 0.55581484E+03</pdfrwt>
<pdfrwt beam="2">  1       -1 0.24399284E-01 0.55581484E+03</pdfrwt>
<totfact> 0.93060643E+00</totfact>
</mgrwt>
</event>
<event>
 4    1  0.4964158E-009  0.8302411E+03  0.7818608E-02  0.9517247E-01
          1   -1    0    0  501    0  0.00000000000E+00  0.00000000000E+00  0.22387525225E+04  0.22387525225E+04  0.50400000000E-02 0. -1.
         -1   -1    0    0    0  501 -0.00000000000E+00 -0.00000000000E+00 -0.11142511354E+04  0.11142511355E+04  0.50400000000E-02 0.  1.
    8880022    1    1    2    0    0 -0.75008179185E+03 -0.32138127199E+03 -0.86393471572E+03  0.11982000928E+04  0.15294330000E+03 0.  0.
    8880022    1    1    2    0    0  0.75008179185E+03  0.32138127199E+03  0.19884361027E+04  0.21548035651E+04  0.15294330000E+03 0.  0.
<mgrwt>
<rscale>  0 0.83024109E+03</rscale>
<asrwt>0</asrwt>
<pdfrwt beam="1">  1        1 0.34442346E+00 0.83024109E+03</pdfrwt>
<pdfrwt beam="2">  1       -1 0.17142325E+00 0.83024109E+03</pdfrwt>
<totfact> 0.51606825E-01</totfact>
</mgrwt>
</event>
<event>
 4    1  0.4964158E-009  0.9787838E+03  0.7818608E-02  0.9332125E-01
         -1   -1    0    0    0  501 -0.00000000000E+00  0.00000000000E+00  0.68970944182E+03  0.68970944184E+03  0.50400000000E-02 0.  1.
          1   -1    0    0  501    0  0.00000000000E+00 -0.00000000000E+00 -0.20127599990E+04  0.20127599990E+04  0.50400000000E-02 0. -1.
    8880022    1    1    2    0    0 -0.79839002808E+03 -0.54515992932E+03 -0.14137331863E+04  0.17194938676E+04  0.15294330000E+03 0.  0.
    8880022    1    1    2    0    0  0.79839002808E+03  0.54515992932E+03  0.90682629133E+02  0.98297557330E+03  0.15294330000E+03 0.  0.
<mgrwt>
<rscale>  0 0.97878375E+03</rscale>
<asrwt>0</asrwt>
<pdfrwt beam="1">  1        1 0.30965538E+00 0.97878375E+03</pdfrwt>
<pdfrwt beam="2">  1       -1 0.10610915E+00 0.97878375E+03</pdfrwt>
<totfact> 0.24614310E+00</totfact>
</mgrwt>
</event>
<event>
 4    1  0.4964158E-009  0.8610501E+03  0.7818608E-02  0.9475625E-01
         -1   -1    0    0    0  501 -0.00000000000E+00  0.00000000000E+00  0.89914014701E+03  0.89914014702E+03  0.50400000000E-02 0.  1.
          1   -1    0    0  501    0  0.00000000000E+00 -0.00000000000E+00 -0.23127139439E+04  0.23127139439E+04  0.50400000000E-02 0. -1.
    8880022    1    1    2    0    0  0.35242589736E+03 -0.77059170535E+03  0.58142348582E+03  0.10389708910E+04  0.15294330000E+03 0.  0.
    8880022    1    1    2    0    0 -0.35242589736E+03  0.77059170535E+03 -0.19949972827E+04  0.21728831999E+04  0.15294330000E+03 0.  0.
<mgrwt>
<rscale>  0 0.86105008E+03</rscale>
<asrwt>0</asrwt>
<pdfrwt beam="1">  1        1 0.35580214E+00 0.86105008E+03</pdfrwt>
<pdfrwt beam="2">  1       -1 0.13832925E+00 0.86105008E+03</pdfrwt>
<totfact> 0.82107627E-01</totfact>
</mgrwt>
</event>
<event>
 4    1  0.4964158E-009  0.8046218E+03  0.7818608E-02  0.9553351E-01
          1   -1    0    0  501    0  0.00000000000E+00  0.00000000000E+00  0.13297491925E+04  0.13297491925E+04  0.50400000000E-02 0. -1.
         -1   -1    0    0    0  501 -0.00000000000E+00 -0.00000000000E+00 -0.93769582827E+03  0.93769582828E+03  0.50400000000E-02 0.  1.
    8880022    1    1    2    0    0  0.78917637393E+03  0.35002933206E+02 -0.59007682025E+03  0.99780101288E+03  0.15294330000E+03 0.  0.
    8880022    1    1    2    0    0 -0.78917637393E+03 -0.35002933206E+02  0.98213018444E+03  0.12696440079E+04  0.15294330000E+03 0.  0.
<mgrwt>
<rscale>  0 0.80462178E+03</rscale>
<asrwt>0</asrwt>
<pdfrwt beam="1">  1        1 0.20457680E+00 0.80462178E+03</pdfrwt>
<pdfrwt beam="2">  1       -1 0.14426090E+00 0.80462178E+03</pdfrwt>
<totfact> 0.34444228E+00</totfact>
</mgrwt>
</event>
<event>
 4    1  0.4964158E-009  0.3712436E+03  0.7818608E-02  0.1054218E+00
          1   -1    0    0  501    0  0.00000000000E+00  0.00000000000E+00  0.16652794054E+04  0.16652794054E+04  0.50400000000E-02 0. -1.
         -1   -1    0    0    0  501 -0.00000000000E+00 -0.00000000000E+00 -0.47382094953E+03  0.47382094956E+03  0.50400000000E-02 0.  1.
    8880022    1    1    2    0    0  0.45025561110E+02  0.33526531489E+03  0.15673911245E+04  0.16107565684E+04  0.15294330000E+03 0. -1.
    8880022    1    1    2    0    0 -0.45025561110E+02 -0.33526531489E+03 -0.37593266858E+03  0.52834378660E+03  0.15294330000E+03 0.  0.
<mgrwt>
<rscale>  0 0.37124357E+03</rscale>
<asrwt>0</asrwt>
<pdfrwt beam="1">  1        1 0.25619683E+00 0.37124357E+03</pdfrwt>
<pdfrwt beam="2">  1       -1 0.72895531E-01 0.37124357E+03</pdfrwt>
<totfact> 0.10790678E+01</totfact>
</mgrwt>
</event>
<event>
 4    1  0.4964158E-009  0.7280320E+03  0.7818608E-02  0.9670459E-01
          1   -1    0    0  501    0  0.00000000000E+00  0.00000000000E+00  0.12420794825E+04  0.12420794825E+04  0.50400000000E-02 0. -1.
         -1   -1    0    0    0  501 -0.00000000000E+00 -0.00000000000E+00 -0.74547028199E+03  0.74547028201E+03  0.50400000000E-02 0.  1.
    8880022    1    1    2    0    0 -0.29670618280E+02 -0.71116704651E+03 -0.40151443255E+03  0.83141109338E+03  0.15294330000E+03 0.  0.
    8880022    1    1    2    0    0  0.29670618280E+02  0.71116704651E+03  0.89812363309E+03  0.11561386712E+04  0.15294330000E+03 0.  0.
<mgrwt>
<rscale>  0 0.72803198E+03</rscale>
<asrwt>0</asrwt>
<pdfrwt beam="1">  1        1 0.19108915E+00 0.72803198E+03</pdfrwt>
<pdfrwt beam="2">  1       -1 0.11468774E+00 0.72803198E+03</pdfrwt>
<totfact> 0.71569801E+00</totfact>
</mgrwt>
</event>
<event>
 4    1  0.4964158E-009  0.1101988E+04  0.7818608E-02  0.9203256E-01
         -1   -1    0    0    0  501 -0.00000000000E+00  0.00000000000E+00  0.14077670945E+04  0.14077670945E+04  0.50400000000E-02 0.  1.
          1   -1    0    0  501    0  0.00000000000E+00 -0.00000000000E+00 -0.94475620995E+03  0.94475620997E+03  0.50400000000E-02 0. -1.
    8880022    1    1    2    0    0  0.10862980401E+04 -0.10461050762E+03 -0.11530476686E+03  0.11080043468E+04  0.15294330000E+03 0.  0.
    8880022    1    1    2    0    0 -0.10862980401E+04  0.10461050762E+03  0.57831565138E+03  0.12445189576E+04  0.15294330000E+03 0.  0.
<mgrwt>
<rscale>  0 0.11019884E+04</rscale>
<asrwt>0</asrwt>
<pdfrwt beam="1">  1        1 0.14534711E+00 0.11019884E+04</pdfrwt>
<pdfrwt beam="2">  1       -1 0.21657955E+00 0.11019884E+04</pdfrwt>
<totfact> 0.19274155E+00</totfact>
</mgrwt>
</event>
<event>
 4    1  0.4964158E-009  0.1845192E+04  0.7818608E-02  0.8682629E-01
         -1   -1    0    0    0  501 -0.00000000000E+00  0.00000000000E+00  0.21130727101E+04  0.21130727101E+04  0.50400000000E-02 0.  1.
          1   -1    0    0  501    0  0.00000000000E+00 -0.00000000000E+00 -0.17940906784E+04  0.17940906784E+04  0.50400000000E-02 0. -1.
    8880022    1    1    2    0    0  0.11472301573E+04  0.14370826376E+04  0.78311024023E+03  0.20044941612E+04  0.15294330000E+03 0.  0.
    8880022    1    1    2    0    0 -0.11472301573E+04 -0.14370826376E+04 -0.46412820852E+03  0.19026692272E+04  0.15294330000E+03 0.  0.
<mgrwt>
<rscale>  0 0.18451925E+04</rscale>
<asrwt>0</asrwt>
<pdfrwt beam="1">  1        1 0.27601395E+00 0.18451925E+04</pdfrwt>
<pdfrwt beam="2">  1       -1 0.32508811E+00 0.18451925E+04</pdfrwt>
<totfact> 0.84569078E-02</totfact>
</mgrwt>
</event>
<event>
 4    1  0.4964158E-009  0.1216814E+04  0.7818608E-02  0.9098265E-01
          1   -1    0    0  501    0  0.00000000000E+00  0.00000000000E+00  0.16177533708E+04  0.16177533708E+04  0.50400000000E-02 0. -1.
         -1   -1    0    0    0  501 -0.00000000000E+00 -0.00000000000E+00 -0.12524167555E+04  0.12524167555E+04  0.50400000000E-02 0.  1.
    8880022    1    1    2    0    0 -0.10390999278E+04 -0.61442344793E+03 -0.56194445222E+03  0.13403052092E+04  0.15294330000E+03 0.  0.
    8880022    1    1    2    0    0  0.10390999278E+04  0.61442344793E+03  0.92728106758E+03  0.15298649171E+04  0.15294330000E+03 0.  0.
<mgrwt>
<rscale>  0 0.12168141E+04</rscale>
<asrwt>0</asrwt>
<pdfrwt beam="1">  1        1 0.24888513E+00 0.12168141E+04</pdfrwt>
<pdfrwt beam="2">  1       -1 0.19267950E+00 0.12168141E+04</pdfrwt>
<totfact> 0.89791408E-01</totfact>
</mgrwt>
</event>
<event>
 4    1  0.4964158E-009  0.5500439E+03  0.7818608E-02  0.1001484E+00
         -1   -1    0    0    0  501 -0.00000000000E+00  0.00000000000E+00  0.25479141080E+04  0.25479141080E+04  0.50400000000E-02 0.  1.
          1   -1    0    0  501    0  0.00000000000E+00 -0.00000000000E+00 -0.18732060256E+03  0.18732060262E+03  0.50400000000E-02 0. -1.
    8880022    1    1    2    0    0 -0.52818300832E+03  0.13392822227E+02  0.20077839950E+04  0.20817648478E+04  0.15294330000E+03 0.  0.
    8880022    1    1    2    0    0  0.52818300832E+03 -0.13392822227E+02  0.35280951049E+03  0.65346986287E+03  0.15294330000E+03 0.  0.
<mgrwt>
<rscale>  0 0.55004392E+03</rscale>
<asrwt>0</asrwt>
<pdfrwt beam="1">  1        1 0.28818557E-01 0.55004392E+03</pdfrwt>
<pdfrwt beam="2">  1       -1 0.39198674E+00 0.55004392E+03</pdfrwt>
<totfact> 0.14544015E+00</totfact>
</mgrwt>
</event>
<event>
 4    1  0.4964158E-009  0.1037256E+04  0.7818608E-02  0.9268601E-01
         -1   -1    0    0    0  501 -0.00000000000E+00  0.00000000000E+00  0.11182718078E+04  0.11182718079E+04  0.50400000000E-02 0.  1.
          1   -1    0    0  501    0  0.00000000000E+00 -0.00000000000E+00 -0.13222493743E+04  0.13222493743E+04  0.50400000000E-02 0. -1.
    8880022    1    1    2    0    0 -0.87625334709E+02  0.10221691514E+04  0.53485317429E+03  0.11670336518E+04  0.15294330000E+03 0.  0.
    8880022    1    1    2    0    0  0.87625334709E+02 -0.10221691514E+04 -0.73883074077E+03  0.12734875304E+04  0.15294330000E+03 0.  0.
<mgrwt>
<rscale>  0 0.10372558E+04</rscale>
<asrwt>0</asrwt>
<pdfrwt beam="1">  1        1 0.20342298E+00 0.10372558E+04</pdfrwt>
<pdfrwt beam="2">  1       -1 0.17204182E+00 0.10372558E+04</pdfrwt>
<totfact> 0.20722979E+00</totfact>
</mgrwt>
</event>
<event>
 4    1  0.4964158E-009  0.1106584E+04  0.7818608E-02  0.9198799E-01
          1   -1    0    0  501    0  0.00000000000E+00  0.00000000000E+00  0.87099074623E+03  0.87099074625E+03  0.50400000000E-02 0. -1.
         -1   -1    0    0    0  501 -0.00000000000E+00 -0.00000000000E+00 -0.16118957422E+04  0.16118957422E+04  0.50400000000E-02 0.  1.
    8880022    1    1    2    0    0 -0.25194312771E+03  0.10666115330E+04 -0.81425115787E+03  0.13738748499E+04  0.15294330000E+03 0.  0.
    8880022    1    1    2    0    0  0.25194312771E+03 -0.10666115330E+04  0.73346161931E+02  0.11090116386E+04  0.15294330000E+03 0.  0.
<mgrwt>
<rscale>  0 0.11065836E+04</rscale>
<asrwt>0</asrwt>
<pdfrwt beam="1">  1        1 0.13399858E+00 0.11065836E+04</pdfrwt>
<pdfrwt beam="2">  1       -1 0.24798396E+00 0.11065836E+04</pdfrwt>
<totfact> 0.13738097E+00</totfact>
</mgrwt>
</event>
<event>
 4    1  0.4964158E-009  0.1151732E+04  0.7818608E-02  0.9156187E-01
         -1   -1    0    0    0  501 -0.00000000000E+00  0.00000000000E+00  0.10745506302E+04  0.10745506302E+04  0.50400000000E-02 0.  1.
          1   -1    0    0  501    0  0.00000000000E+00 -0.00000000000E+00 -0.12638065698E+04  0.12638065698E+04  0.50400000000E-02 0. -1.
    8880022    1    1    2    0    0  0.22944212903E+03  0.11182358548E+04  0.83544207247E+02  0.11547581587E+04  0.15294330000E+03 0.  0.
    8880022    1    1    2    0    0 -0.22944212903E+03 -0.11182358548E+04 -0.27280014680E+03  0.11835990413E+04  0.15294330000E+03 0.  0.
<mgrwt>
<rscale>  0 0.11517321E+04</rscale>
<asrwt>0</asrwt>
<pdfrwt beam="1">  1        1 0.19443178E+00 0.11517321E+04</pdfrwt>
<pdfrwt beam="2">  1       -1 0.16531548E+00 0.11517321E+04</pdfrwt>
<totfact> 0.25234180E+00</totfact>
</mgrwt>
</event>
<event>
 4    1  0.4964158E-009  0.8794088E+03  0.7818608E-02  0.9451694E-01
          1   -1    0    0  501    0  0.00000000000E+00  0.00000000000E+00  0.60062410464E+03  0.60062410466E+03  0.50400000000E-02 0. -1.
         -1   -1    0    0    0  501 -0.00000000000E+00 -0.00000000000E+00 -0.13648120611E+04  0.13648120611E+04  0.50400000000E-02 0.  1.
    8880022    1    1    2    0    0  0.35772433340E+02 -0.86526791561E+03 -0.61584443702E+03  0.10736033981E+04  0.15294330000E+03 0.  0.
    8880022    1    1    2    0    0 -0.35772433340E+02  0.86526791561E+03 -0.14834351945E+03  0.89183276770E+03  0.15294330000E+03 0.  0.
<mgrwt>
<rscale>  0 0.87940883E+03</rscale>
<asrwt>0</asrwt>
<pdfrwt beam="1">  1        1 0.92403709E-01 0.87940883E+03</pdfrwt>
<pdfrwt beam="2">  1       -1 0.20997108E+00 0.87940883E+03</pdfrwt>
<totfact> 0.44825685E+00</totfact>
</mgrwt>
</event>
<event>
 4    1  0.4964158E-009  0.7300099E+03  0.7818608E-02  0.9667244E-01
         -1   -1    0    0    0  501 -0.00000000000E+00  0.00000000000E+00  0.39039494530E+03  0.39039494533E+03  0.50400000000E-02 0.  1.
          1   -1    0    0  501    0  0.00000000000E+00 -0.00000000000E+00 -0.21439094185E+04  0.21439094185E+04  0.50400000000E-02 0. -1.
    8880022    1    1    2    0    0 -0.54284679728E+03 -0.46350857519E+03 -0.16405066684E+04  0.17955992389E+04  0.15294330000E+03 0.  0.
    8880022    1    1    2    0    0  0.54284679728E+03  0.46350857519E+03 -0.11300780473E+03  0.73870512489E+03  0.15294330000E+03 0.  0.
<mgrwt>
<rscale>  0 0.73000993E+03</rscale>
<asrwt>0</asrwt>
<pdfrwt beam="1">  1        1 0.32983221E+00 0.73000993E+03</pdfrwt>
<pdfrwt beam="2">  1       -1 0.60060762E-01 0.73000993E+03</pdfrwt>
<totfact> 0.70478658E+00</totfact>
</mgrwt>
</event>
<event>
 4    1  0.4964158E-009  0.5050094E+03  0.7818608E-02  0.1012480E+00
         -1   -1    0    0    0  501 -0.00000000000E+00  0.00000000000E+00  0.28086540934E+03  0.28086540939E+03  0.50400000000E-02 0.  1.
          1   -1    0    0  501    0  0.00000000000E+00 -0.00000000000E+00 -0.13144591112E+04  0.13144591112E+04  0.50400000000E-02 0. -1.
    8880022    1    1    2    0    0  0.39468234490E+03 -0.27544266815E+03 -0.96034158584E+03  0.10850301523E+04  0.15294330000E+03 0.  0.
    8880022    1    1    2    0    0 -0.39468234490E+03  0.27544266815E+03 -0.73252115990E+02  0.51029436831E+03  0.15294330000E+03 0.  0.
<mgrwt>
<rscale>  0 0.50500938E+03</rscale>
<asrwt>0</asrwt>
<pdfrwt beam="1">  1        1 0.20222447E+00 0.50500938E+03</pdfrwt>
<pdfrwt beam="2">  1       -1 0.43210064E-01 0.50500938E+03</pdfrwt>
<totfact> 0.49446298E+01</totfact>
</mgrwt>
</event>
<event>
 4    1  0.4964158E-009  0.9382550E+03  0.7818608E-02  0.9378985E-01
         -1   -1    0    0    0  501 -0.00000000000E+00  0.00000000000E+00  0.24659161432E+04  0.24659161432E+04  0.50400000000E-02 0.  1.
          1   -1    0    0  501    0  0.00000000000E+00 -0.00000000000E+00 -0.10184431021E+04  0.10184431021E+04  0.50400000000E-02 0. -1.
    8880022    1    1    2    0    0 -0.39996260049E+03  0.83484173042E+03 -0.68027952130E+03  0.11589230677E+04  0.15294330000E+03 0.  0.
    8880022    1    1    2    0    0  0.39996260049E+03 -0.83484173042E+03  0.21277525624E+04  0.23254361777E+04  0.15294330000E+03 0.  0.
<mgrwt>
<rscale>  0 0.93825500E+03</rscale>
<asrwt>0</asrwt>
<pdfrwt beam="1">  1        1 0.15668355E+00 0.93825500E+03</pdfrwt>
<pdfrwt beam="2">  1       -1 0.37937172E+00 0.93825500E+03</pdfrwt>
<totfact> 0.14983324E-01</totfact>
</mgrwt>
</event>
<event>
 4    1  0.4964158E-009  0.9412520E+03  0.7818608E-02  0.9375435E-01
          1   -1    0    0  501    0  0.00000000000E+00  0.00000000000E+00  0.12060348236E+04  0.12060348236E+04  0.50400000000E-02 0. -1.
         -1   -1    0    0    0  501 -0.00000000000E+00 -0.00000000000E+00 -0.94259760974E+03  0.94259760975E+03  0.50400000000E-02 0.  1.
    8880022    1    1    2    0    0 -0.84440345326E+03  0.38671229992E+03 -0.37293844657E+03  0.10124417676E+04  0.15294330000E+03 0.  0.
    8880022    1    1    2    0    0  0.84440345326E+03 -0.38671229992E+03  0.63637566039E+03  0.11361906657E+04  0.15294330000E+03 0. -1.
<mgrwt>
<rscale>  0 0.94125196E+03</rscale>
<asrwt>0</asrwt>
<pdfrwt beam="1">  1        1 0.18554382E+00 0.94125196E+03</pdfrwt>
<pdfrwt beam="2">  1       -1 0.14501502E+00 0.94125196E+03</pdfrwt>
<totfact> 0.40841111E+00</totfact>
</mgrwt>
</event>
<event>
 4    1  0.4964158E-009  0.1045503E+04  0.7818608E-02  0.9259999E-01
          1   -1    0    0  501    0  0.00000000000E+00  0.00000000000E+00  0.25589778041E+04  0.25589778041E+04  0.50400000000E-02 0. -1.
         -1   -1    0    0    0  501 -0.00000000000E+00 -0.00000000000E+00 -0.90513690428E+03  0.90513690430E+03  0.50400000000E-02 0.  1.
    8880022    1    1    2    0    0  0.44382751837E+03  0.93418544713E+03  0.20855891355E+04  0.23329721410E+04  0.15294330000E+03 0.  0.
    8880022    1    1    2    0    0 -0.44382751837E+03 -0.93418544713E+03 -0.43174823568E+03  0.11311425674E+04  0.15294330000E+03 0.  0.
<mgrwt>
<rscale>  0 0.10455032E+04</rscale>
<asrwt>0</asrwt>
<pdfrwt beam="1">  1        1 0.39368889E+00 0.10455032E+04</pdfrwt>
<pdfrwt beam="2">  1       -1 0.13925183E+00 0.10455032E+04</pdfrwt>
<totfact> 0.52997975E-01</totfact>
</mgrwt>
</event>
<event>
 4    1  0.4964158E-009  0.3158454E+03  0.7818608E-02  0.1077577E+00
          1   -1    0    0  501    0  0.00000000000E+00  0.00000000000E+00  0.65581288734E+03  0.65581288736E+03  0.50400000000E-02 0. -1.
         -1   -1    0    0    0  501 -0.00000000000E+00 -0.00000000000E+00 -0.34930030613E+03  0.34930030616E+03  0.50400000000E-02 0.  1.
    8880022    1    1    2    0    0 -0.25141848310E+03  0.11469698130E+03 -0.22433667926E+03  0.38740837606E+03  0.15294330000E+03 0.  0.
    8880022    1    1    2    0    0  0.25141848310E+03 -0.11469698130E+03  0.53084926047E+03  0.61770481747E+03  0.15294330000E+03 0.  0.
<mgrwt>
<rscale>  0 0.31584538E+03</rscale>
<asrwt>0</asrwt>
<pdfrwt beam="1">  1        1 0.10089429E+00 0.31584538E+03</pdfrwt>
<pdfrwt beam="2">  1       -1 0.53738510E-01 0.31584538E+03</pdfrwt>
<totfact> 0.11178222E+02</totfact>
</mgrwt>
</event>
<event>
 4    1  0.4964158E-009  0.1219749E+04  0.7818608E-02  0.9095744E-01
         -1   -1    0    0    0  501 -0.00000000000E+00  0.00000000000E+00  0.12616400214E+04  0.12616400214E+04  0.50400000000E-02 0.  1.
          1   -1    0    0  501    0  0.00000000000E+00 -0.00000000000E+00 -0.20541354949E+04  0.20541354949E+04  0.50400000000E-02 0. -1.
    8880022    1    1    2    0    0 -0.10224487126E+04 -0.64729852918E+03 -0.14782204411E+04  0.19164874331E+04  0.15294330000E+03 0.  0.
    8880022    1    1    2    0    0  0.10224487126E+04  0.64729852918E+03  0.68572496755E+03  0.13992880832E+04  0.15294330000E+03 0.  0.
<mgrwt>
<rscale>  0 0.12197493E+04</rscale>
<asrwt>0</asrwt>
<pdfrwt beam="1">  1        1 0.31602085E+00 0.12197493E+04</pdfrwt>
<pdfrwt beam="2">  1       -1 0.19409846E+00 0.12197493E+04</pdfrwt>
<totfact> 0.44350107E-01</totfact>
</mgrwt>
</event>
<event>
 4    1  0.4964158E-009  0.1514152E+04  0.7818608E-02  0.8875096E-01
          1   -1    0    0  501    0  0.00000000000E+00  0.00000000000E+00  0.30344520084E+04  0.30344520085E+04  0.50400000000E-02 0. -1.
         -1   -1    0    0    0  501 -0.00000000000E+00 -0.00000000000E+00 -0.11373406394E+04  0.11373406394E+04  0.50400000000E-02 0.  1.
    8880022    1    1    2    0    0 -0.11701053357E+04  0.94874631216E+03  0.21571047737E+04  0.26354807378E+04  0.15294330000E+03 0.  0.
    8880022    1    1    2    0    0  0.11701053357E+04 -0.94874631216E+03 -0.25999340467E+03  0.15363119101E+04  0.15294330000E+03 0.  0.
<mgrwt>
<rscale>  0 0.15141525E+04</rscale>
<asrwt>0</asrwt>
<pdfrwt beam="1">  1        1 0.46683877E+00 0.15141525E+04</pdfrwt>
<pdfrwt beam="2">  1       -1 0.17497548E+00 0.15141525E+04</pdfrwt>
<totfact> 0.12098445E-01</totfact>
</mgrwt>
</event>
<event>
 4    1  0.4964158E-009  0.2582768E+03  0.7818608E-02  0.1108183E+00
         -1   -1    0    0    0  501 -0.00000000000E+00  0.00000000000E+00  0.37718859552E+03  0.37718859556E+03  0.50400000000E-02 0.  1.
          1   -1    0    0  501    0  0.00000000000E+00 -0.00000000000E+00 -0.87924875994E+03  0.87924875995E+03  0.50400000000E-02 0. -1.
    8880022    1    1    2    0    0 -0.79427337577E+02 -0.19237089093E+03  0.31046495128E+03  0.40385071576E+03  0.15294330000E+03 0.  0.
    8880022    1    1    2    0    0  0.79427337577E+02  0.19237089093E+03 -0.81252511569E+03  0.85258663975E+03  0.15294330000E+03 0.  0.
<mgrwt>
<rscale>  0 0.25827682E+03</rscale>
<asrwt>0</asrwt>
<pdfrwt beam="1">  1        1 0.13526904E+00 0.25827682E+03</pdfrwt>
<pdfrwt beam="2">  1       -1 0.58029015E-01 0.25827682E+03</pdfrwt>
<totfact> 0.62642100E+01</totfact>
</mgrwt>
</event>
<event>
 4    1  0.4964158E-009  0.3330614E+03  0.7818608E-02  0.1069790E+00
         -1   -1    0    0    0  501 -0.00000000000E+00  0.00000000000E+00  0.13083035218E+04  0.13083035218E+04  0.50400000000E-02 0.  1.
          1   -1    0    0  501    0  0.00000000000E+00 -0.00000000000E+00 -0.87217572645E+03  0.87217572646E+03  0.50400000000E-02 0. -1.
    8880022    1    1    2    0    0 -0.21825802159E+03  0.19975404450E+03 -0.81782690658E+03  0.88304628669E+03  0.15294330000E+03 0.  0.
    8880022    1    1    2    0    0  0.21825802159E+03 -0.19975404450E+03  0.12539547019E+04  0.12974329616E+04  0.15294330000E+03 0.  0.
<mgrwt>
<rscale>  0 0.33306140E+03</rscale>
<asrwt>0</asrwt>
<pdfrwt beam="1">  1        1 0.13418088E+00 0.33306140E+03</pdfrwt>
<pdfrwt beam="2">  1       -1 0.20127746E+00 0.33306140E+03</pdfrwt>
<totfact> 0.32664634E+00</totfact>
</mgrwt>
</event>
<event>
 4    1  0.4964158E-009  0.1197438E+04  0.7818608E-02  0.9115102E-01
         -1   -1    0    0    0  501 -0.00000000000E+00  0.00000000000E+00  0.10301412336E+04  0.10301412336E+04  0.50400000000E-02 0.  1.
          1   -1    0    0  501    0  0.00000000000E+00 -0.00000000000E+00 -0.20982771614E+04  0.20982771614E+04  0.50400000000E-02 0. -1.
    8880022    1    1    2    0    0  0.11750793054E+04 -0.17220674736E+03 -0.14416384368E+04  0.18740809943E+04  0.15294330000E+03 0.  0.
    8880022    1    1    2    0    0 -0.11750793054E+04  0.17220674736E+03  0.37350250901E+03  0.12543374008E+04  0.15294330000E+03 0.  0.
<mgrwt>
<rscale>  0 0.11974382E+04</rscale>
<asrwt>0</asrwt>
<pdfrwt beam="1">  1        1 0.32281187E+00 0.11974382E+04</pdfrwt>
<pdfrwt beam="2">  1       -1 0.15848327E+00 0.11974382E+04</pdfrwt>
<totfact> 0.75419466E-01</totfact>
</mgrwt>
</event>
<event>
 4    1  0.4964158E-009  0.3699835E+03  0.7818608E-02  0.1054699E+00
          1   -1    0    0  501    0  0.00000000000E+00  0.00000000000E+00  0.11626553208E+04  0.11626553208E+04  0.50400000000E-02 0. -1.
         -1   -1    0    0    0  501 -0.00000000000E+00 -0.00000000000E+00 -0.70824878479E+03  0.70824878480E+03  0.50400000000E-02 0.  1.
    8880022    1    1    2    0    0  0.28779129372E+03  0.17513504022E+03  0.10813703492E+04  0.11429127684E+04  0.15294330000E+03 0.  0.
    8880022    1    1    2    0    0 -0.28779129372E+03 -0.17513504022E+03 -0.62696381316E+03  0.72799133723E+03  0.15294330000E+03 0.  0.
<mgrwt>
<rscale>  0 0.36998346E+03</rscale>
<asrwt>0</asrwt>
<pdfrwt beam="1">  1        1 0.17887005E+00 0.36998346E+03</pdfrwt>
<pdfrwt beam="2">  1       -1 0.10896135E+00 0.36998346E+03</pdfrwt>
<totfact> 0.99371057E+00</totfact>
</mgrwt>
</event>
<event>
 4    1  0.4964158E-009  0.6272387E+03  0.7818608E-02  0.9850452E-01
          1   -1    0    0  501    0  0.00000000000E+00  0.00000000000E+00  0.85242748272E+03  0.85242748273E+03  0.50400000000E-02 0. -1.
         -1   -1    0    0    0  501 -0.00000000000E+00 -0.00000000000E+00 -0.10375005352E+04  0.10375005353E+04  0.50400000000E-02 0.  1.
    8880022    1    1    2    0    0  0.50394087752E+03  0.34070568479E+03 -0.79660984868E+03  0.10139110788E+04  0.15294330000E+03 0.  0.
    8880022    1    1    2    0    0 -0.50394087752E+03 -0.34070568479E+03  0.61153679615E+03  0.87601693919E+03  0.15294330000E+03 0. -1.
<mgrwt>
<rscale>  0 0.62723873E+03</rscale>
<asrwt>0</asrwt>
<pdfrwt beam="1">  1        1 0.13114269E+00 0.62723873E+03</pdfrwt>
<pdfrwt beam="2">  1       -1 0.15961547E+00 0.62723873E+03</pdfrwt>
<totfact> 0.61885543E+00</totfact>
</mgrwt>
</event>
<event>
 4    1  0.4964158E-009  0.1176627E+04  0.7818608E-02  0.9133564E-01
         -1   -1    0    0    0  501 -0.00000000000E+00  0.00000000000E+00  0.26645273996E+04  0.26645273997E+04  0.50400000000E-02 0.  1.
          1   -1    0    0  501    0  0.00000000000E+00 -0.00000000000E+00 -0.99744301255E+03  0.99744301256E+03  0.50400000000E-02 0. -1.
    8880022    1    1    2    0    0  0.18956500864E+03  0.11511408370E+04 -0.43378765051E+03  0.12540428613E+04  0.15294330000E+03 0.  0.
    8880022    1    1    2    0    0 -0.18956500864E+03 -0.11511408370E+04  0.21008720376E+04  0.24079275509E+04  0.15294330000E+03 0.  0.
<mgrwt>
<rscale>  0 0.11766273E+04</rscale>
<asrwt>0</asrwt>
<pdfrwt beam="1">  1        1 0.15345277E+00 0.11766273E+04</pdfrwt>
<pdfrwt beam="2">  1       -1 0.40992729E+00 0.11766273E+04</pdfrwt>
<totfact> 0.92594597E-02</totfact>
</mgrwt>
</event>
<event>
 4    1  0.4964158E-009  0.1906202E+04  0.7818608E-02  0.8651775E-01
         -1   -1    0    0    0  501 -0.00000000000E+00  0.00000000000E+00  0.17418799244E+04  0.17418799244E+04  0.50400000000E-02 0.  1.
          1   -1    0    0  501    0  0.00000000000E+00 -0.00000000000E+00 -0.26007210084E+04  0.26007210084E+04  0.50400000000E-02 0. -1.
    8880022    1    1    2    0    0 -0.14670048288E+02  0.18999997358E+04  0.53651523363E+03  0.19802662587E+04  0.15294330000E+03 0.  0.
    8880022    1    1    2    0    0  0.14670048288E+02 -0.18999997358E+04 -0.13953563176E+04  0.23623346741E+04  0.15294330000E+03 0.  0.
<mgrwt>
<rscale>  0 0.19062019E+04</rscale>
<asrwt>0</asrwt>
<pdfrwt beam="1">  1        1 0.40011093E+00 0.19062019E+04</pdfrwt>
<pdfrwt beam="2">  1       -1 0.26798152E+00 0.19062019E+04</pdfrwt>
<totfact> 0.55124719E-02</totfact>
</mgrwt>
</event>
<event>
 4    1  0.4964158E-009  0.6748057E+03  0.7818608E-02  0.9761315E-01
         -1   -1    0    0    0  501 -0.00000000000E+00  0.00000000000E+00  0.45856454707E+03  0.45856454710E+03  0.50400000000E-02 0.  1.
          1   -1    0    0  501    0  0.00000000000E+00 -0.00000000000E+00 -0.33278545015E+04  0.33278545015E+04  0.50400000000E-02 0. -1.
    8880022    1    1    2    0    0 -0.55678031950E+03 -0.34923742163E+03  0.15114172638E+03  0.69152481902E+03  0.15294330000E+03 0.  0.
    8880022    1    1    2    0    0  0.55678031950E+03  0.34923742163E+03 -0.30204316808E+04  0.30948942296E+04  0.15294330000E+03 0.  0.
<mgrwt>
<rscale>  0 0.67480572E+03</rscale>
<asrwt>0</asrwt>
<pdfrwt beam="1">  1        1 0.51197760E+00 0.67480572E+03</pdfrwt>
<pdfrwt beam="2">  1       -1 0.70548394E-01 0.67480572E+03</pdfrwt>
<totfact> 0.76577286E-01</totfact>
</mgrwt>
</event>
<event>
 4    1  0.4964158E-009  0.5472070E+03  0.7818608E-02  0.1002142E+00
         -1   -1    0    0    0  501 -0.00000000000E+00  0.00000000000E+00  0.36091578376E+03  0.36091578379E+03  0.50400000000E-02 0.  1.
          1   -1    0    0  501    0  0.00000000000E+00 -0.00000000000E+00 -0.12070899388E+04  0.12070899388E+04  0.50400000000E-02 0. -1.
    8880022    1    1    2    0    0  0.37838558935E+03 -0.36451086658E+03 -0.86148556875E+03  0.10205845699E+04  0.15294330000E+03 0.  0.
    8880022    1    1    2    0    0 -0.37838558935E+03  0.36451086658E+03  0.15311413670E+02  0.54742115276E+03  0.15294330000E+03 0.  0.
<mgrwt>
<rscale>  0 0.54720698E+03</rscale>
<asrwt>0</asrwt>
<pdfrwt beam="1">  1        1 0.18570614E+00 0.54720698E+03</pdfrwt>
<pdfrwt beam="2">  1       -1 0.55525506E-01 0.54720698E+03</pdfrwt>
<totfact> 0.36550857E+01</totfact>
</mgrwt>
</event>
<event>
 4    1  0.4964158E-009  0.5756901E+03  0.7818608E-02  0.9957166E-01
          1   -1    0    0  501    0  0.00000000000E+00  0.00000000000E+00  0.10354926900E+04  0.10354926900E+04  0.50400000000E-02 0. -1.
         -1   -1    0    0    0  501 -0.00000000000E+00 -0.00000000000E+00 -0.15374981326E+04  0.15374981327E+04  0.50400000000E-02 0.  1.
    8880022    1    1    2    0    0  0.51669234719E+03  0.20262383872E+03  0.89378383326E+03  0.10631409104E+04  0.15294330000E+03 0.  0.
    8880022    1    1    2    0    0 -0.51669234719E+03 -0.20262383872E+03 -0.13957892760E+04  0.15098499123E+04  0.15294330000E+03 0.  0.
<mgrwt>
<rscale>  0 0.57569007E+03</rscale>
<asrwt>0</asrwt>
<pdfrwt beam="1">  1        1 0.15930657E+00 0.57569007E+03</pdfrwt>
<pdfrwt beam="2">  1       -1 0.23653817E+00 0.57569007E+03</pdfrwt>
<totfact> 0.13233946E+00</totfact>
</mgrwt>
</event>
<event>
 4    1  0.4964158E-009  0.1195764E+04  0.7818608E-02  0.9116573E-01
         -1   -1    0    0    0  501 -0.00000000000E+00  0.00000000000E+00  0.24908732801E+04  0.24908732801E+04  0.50400000000E-02 0.  1.
          1   -1    0    0  501    0  0.00000000000E+00 -0.00000000000E+00 -0.82622765083E+03  0.82622765084E+03  0.50400000000E-02 0. -1.
    8880022    1    1    2    0    0 -0.34496995680E+03  0.11346605059E+04  0.17486369141E+04  0.21183912398E+04  0.15294330000E+03 0.  0.
    8880022    1    1    2    0    0  0.34496995680E+03 -0.11346605059E+04 -0.83991284791E+02  0.11987096911E+04  0.15294330000E+03 0.  0.
<mgrwt>
<rscale>  0 0.11957635E+04</rscale>
<asrwt>0</asrwt>
<pdfrwt beam="1">  1        1 0.12711195E+00 0.11957635E+04</pdfrwt>
<pdfrwt beam="2">  1       -1 0.38321127E+00 0.11957635E+04</pdfrwt>
<totfact> 0.19396745E-01</totfact>
</mgrwt>
</event>
<event>
 4    1  0.4964158E-009  0.3412521E+03  0.7818608E-02  0.1066264E+00
          1   -1    0    0  501    0  0.00000000000E+00  0.00000000000E+00  0.53651750599E+03  0.53651750602E+03  0.50400000000E-02 0. -1.
         -1   -1    0    0    0  501 -0.00000000000E+00 -0.00000000000E+00 -0.65357927604E+03  0.65357927606E+03  0.50400000000E-02 0.  1.
    8880022    1    1    2    0    0  0.23160886773E+03 -0.19854141034E+03  0.42777338873E+03  0.54721392923E+03  0.15294330000E+03 0.  0.
    8880022    1    1    2    0    0 -0.23160886773E+03  0.19854141034E+03 -0.54483515878E+03  0.64288285285E+03  0.15294330000E+03 0.  0.
<mgrwt>
<rscale>  0 0.34125212E+03</rscale>
<asrwt>0</asrwt>
<pdfrwt beam="1">  1        1 0.82541155E-01 0.34125212E+03</pdfrwt>
<pdfrwt beam="2">  1       -1 0.10055066E+00 0.34125212E+03</pdfrwt>
<totfact> 0.40825670E+01</totfact>
</mgrwt>
</event>
<event>
 4    1  0.4964158E-009  0.1885900E+03  0.7818608E-02  0.1159739E+00
          1   -1    0    0  501    0  0.00000000000E+00  0.00000000000E+00  0.10028723044E+04  0.10028723044E+04  0.50400000000E-02 0. -1.
         -1   -1    0    0    0  501 -0.00000000000E+00 -0.00000000000E+00 -0.10511978857E+03  0.10511978869E+03  0.50400000000E-02 0.  1.
    8880022    1    1    2    0    0  0.48458487526E+02  0.99127731798E+02 -0.20879065922E+01  0.18860154982E+03  0.15294330000E+03 0.  1.
    8880022    1    1    2    0    0 -0.48458487526E+02 -0.99127731798E+02  0.89984042238E+03  0.91939054324E+03  0.15294330000E+03 0.  0.
<mgrwt>
<rscale>  0 0.18858999E+03</rscale>
<asrwt>0</asrwt>
<pdfrwt beam="1">  1        1 0.15428805E+00 0.18858999E+03</pdfrwt>
<pdfrwt beam="2">  1       -1 0.16172275E-01 0.18858999E+03</pdfrwt>
<totfact> 0.45979325E+02</totfact>
</mgrwt>
</event>
<event>
 4    1  0.4964158E-009  0.3507347E+03  0.7818608E-02  0.1062314E+00
          1   -1    0    0  501    0  0.00000000000E+00  0.00000000000E+00  0.32806160997E+03  0.32806161001E+03  0.50400000000E-02 0. -1.
         -1   -1    0    0    0  501 -0.00000000000E+00 -0.00000000000E+00 -0.73228838495E+03  0.73228838497E+03  0.50400000000E-02 0.  1.
    8880022    1    1    2    0    0  0.26430307515E+03  0.17253129965E+03 -0.57245538859E+03  0.67135682750E+03  0.15294330000E+03 0.  0.
    8880022    1    1    2    0    0 -0.26430307515E+03 -0.17253129965E+03  0.16822861361E+03  0.38899316748E+03  0.15294330000E+03 0.  0.
<mgrwt>
<rscale>  0 0.35073468E+03</rscale>
<asrwt>0</asrwt>
<pdfrwt beam="1">  1        1 0.50471017E-01 0.35073468E+03</pdfrwt>
<pdfrwt beam="2">  1       -1 0.11265975E+00 0.35073468E+03</pdfrwt>
<totfact> 0.59835760E+01</totfact>
</mgrwt>
</event>
<event>
 4    1  0.4964158E-009  0.9941742E+03  0.7818608E-02  0.9314958E-01
         -1   -1    0    0    0  501 -0.00000000000E+00  0.00000000000E+00  0.25710387460E+04  0.25710387460E+04  0.50400000000E-02 0.  1.
          1   -1    0    0  501    0  0.00000000000E+00 -0.00000000000E+00 -0.12046446493E+04  0.12046446493E+04  0.50400000000E-02 0. -1.
    8880022    1    1    2    0    0  0.69365171413E+03  0.69558466649E+03 -0.87456122894E+03  0.13240995903E+04  0.15294330000E+03 0.  0.
    8880022    1    1    2    0    0 -0.69365171413E+03 -0.69558466649E+03  0.22409553256E+04  0.24515838050E+04  0.15294330000E+03 0.  0.
<mgrwt>
<rscale>  0 0.99417422E+03</rscale>
<asrwt>0</asrwt>
<pdfrwt beam="1">  1        1 0.18532995E+00 0.99417422E+03</pdfrwt>
<pdfrwt beam="2">  1       -1 0.39554442E+00 0.99417422E+03</pdfrwt>
<totfact> 0.83584971E-02</totfact>
</mgrwt>
</event>
<event>
 4    1  0.4964158E-009  0.7063952E+03  0.7818608E-02  0.9706358E-01
         -1   -1    0    0    0  501 -0.00000000000E+00  0.00000000000E+00  0.12788064608E+04  0.12788064608E+04  0.50400000000E-02 0.  1.
          1   -1    0    0  501    0  0.00000000000E+00 -0.00000000000E+00 -0.75218647484E+03  0.75218647486E+03  0.50400000000E-02 0. -1.
    8880022    1    1    2    0    0 -0.63043143443E+03 -0.27956888230E+03  0.96777591241E+03  0.11981587637E+04  0.15294330000E+03 0.  0.
    8880022    1    1    2    0    0  0.63043143443E+03  0.27956888230E+03 -0.44115592646E+03  0.83283417193E+03  0.15294330000E+03 0.  0.
<mgrwt>
<rscale>  0 0.70639522E+03</rscale>
<asrwt>0</asrwt>
<pdfrwt beam="1">  1        1 0.11572100E+00 0.70639522E+03</pdfrwt>
<pdfrwt beam="2">  1       -1 0.19673945E+00 0.70639522E+03</pdfrwt>
<totfact> 0.40394644E+00</totfact>
</mgrwt>
</event>
<event>
 4    1  0.4964158E-009  0.2977060E+03  0.7818608E-02  0.1086393E+00
          1   -1    0    0  501    0  0.00000000000E+00  0.00000000000E+00  0.19148584428E+04  0.19148584428E+04  0.50400000000E-02 0. -1.
         -1   -1    0    0    0  501 -0.00000000000E+00 -0.00000000000E+00 -0.89593873844E+02  0.89593873986E+02  0.50400000000E-02 0.  1.
    8880022    1    1    2    0    0 -0.66678686481E+02  0.24655866642E+03  0.21581978893E+03  0.36770512306E+03  0.15294330000E+03 0.  1.
    8880022    1    1    2    0    0  0.66678686481E+02 -0.24655866642E+03  0.16094447801E+04  0.16367471938E+04  0.15294330000E+03 0.  0.
<mgrwt>
<rscale>  0 0.29770602E+03</rscale>
<asrwt>0</asrwt>
<pdfrwt beam="1">  1        1 0.29459356E+00 0.29770602E+03</pdfrwt>
<pdfrwt beam="2">  1       -1 0.13783675E-01 0.29770602E+03</pdfrwt>
<totfact> 0.14068589E+02</totfact>
</mgrwt>
</event>
<event>
 4    1  0.4964158E-009  0.1121850E+04  0.7818608E-02  0.9184154E-01
         -1   -1    0    0    0  501 -0.00000000000E+00  0.00000000000E+00  0.10975183168E+04  0.10975183168E+04  0.50400000000E-02 0.  1.
          1   -1    0    0  501    0  0.00000000000E+00 -0.00000000000E+00 -0.26561375220E+04  0.26561375220E+04  0.50400000000E-02 0. -1.
    8880022    1    1    2    0    0 -0.90199714266E+03 -0.64927356270E+03 -0.21941381398E+04  0.24643029104E+04  0.15294330000E+03 0.  0.
    8880022    1    1    2    0    0  0.90199714266E+03  0.64927356270E+03  0.63551893464E+03  0.12893529284E+04  0.15294330000E+03 0.  0.
<mgrwt>
<rscale>  0 0.11218497E+04</rscale>
<asrwt>0</asrwt>
<pdfrwt beam="1">  1        1 0.40863654E+00 0.11218497E+04</pdfrwt>
<pdfrwt beam="2">  1       -1 0.16884897E+00 0.11218497E+04</pdfrwt>
<totfact> 0.26444783E-01</totfact>
</mgrwt>
</event>
<event>
 4    1  0.4964158E-009  0.7311447E+03  0.7818608E-02  0.9665405E-01
         -1   -1    0    0    0  501 -0.00000000000E+00  0.00000000000E+00  0.10484398874E+04  0.10484398874E+04  0.50400000000E-02 0.  1.
          1   -1    0    0  501    0  0.00000000000E+00 -0.00000000000E+00 -0.16223886971E+04  0.16223886971E+04  0.50400000000E-02 0. -1.
    8880022    1    1    2    0    0 -0.28212707942E+03 -0.65695144691E+03 -0.13928120887E+04  0.15730537372E+04  0.15294330000E+03 0.  0.
    8880022    1    1    2    0    0  0.28212707942E+03  0.65695144691E+03  0.81886327901E+03  0.10977748473E+04  0.15294330000E+03 0.  0.
<mgrwt>
<rscale>  0 0.73114468E+03</rscale>
<asrwt>0</asrwt>
<pdfrwt beam="1">  1        1 0.24959826E+00 0.73114468E+03</pdfrwt>
<pdfrwt beam="2">  1       -1 0.16129844E+00 0.73114468E+03</pdfrwt>
<totfact> 0.16220862E+00</totfact>
</mgrwt>
</event>
<event>
 4    1  0.4964158E-009  0.8339958E+03  0.7818608E-02  0.9512073E-01
          1   -1    0    0  501    0  0.00000000000E+00  0.00000000000E+00  0.12860263680E+04  0.12860263680E+04  0.50400000000E-02 0. -1.
         -1   -1    0    0    0  501 -0.00000000000E+00 -0.00000000000E+00 -0.13760066547E+04  0.13760066547E+04  0.50400000000E-02 0.  1.
    8880022    1    1    2    0    0  0.47977310171E+03 -0.66481210518E+03 -0.10819377511E+04  0.13660667314E+04  0.15294330000E+03 0.  0.
    8880022    1    1    2    0    0 -0.47977310171E+03  0.66481210518E+03  0.99195746439E+03  0.12959662914E+04  0.15294330000E+03 0.  0.
<mgrwt>
<rscale>  0 0.83399581E+03</rscale>
<asrwt>0</asrwt>
<pdfrwt beam="1">  1        1 0.19785021E+00 0.83399581E+03</pdfrwt>
<pdfrwt beam="2">  1       -1 0.21169333E+00 0.83399581E+03</pdfrwt>
<totfact> 0.11978368E+00</totfact>
</mgrwt>
</event>
<event>
 4    1  0.4964158E-009  0.1003845E+04  0.7818608E-02  0.9304338E-01
          1   -1    0    0  501    0  0.00000000000E+00  0.00000000000E+00  0.27380305398E+04  0.27380305398E+04  0.50400000000E-02 0. -1.
         -1   -1    0    0    0  501 -0.00000000000E+00 -0.00000000000E+00 -0.73167847021E+03  0.73167847023E+03  0.50400000000E-02 0.  1.
    8880022    1    1    2    0    0  0.97931920892E+03 -0.15889008621E+03  0.22262086395E+04  0.24420705829E+04  0.15294330000E+03 0.  0.
    8880022    1    1    2    0    0 -0.97931920892E+03  0.15889008621E+03 -0.21985656993E+03  0.10276384271E+04  0.15294330000E+03 0.  0.
<mgrwt>
<rscale>  0 0.10038445E+04</rscale>
<asrwt>0</asrwt>
<pdfrwt beam="1">  1        1 0.42123547E+00 0.10038445E+04</pdfrwt>
<pdfrwt beam="2">  1       -1 0.11256592E+00 0.10038445E+04</pdfrwt>
<totfact> 0.68110707E-01</totfact>
</mgrwt>
</event>
<event>
 4    1  0.4964158E-009  0.7751080E+03  0.7818608E-02  0.9596763E-01
          1   -1    0    0  501    0  0.00000000000E+00  0.00000000000E+00  0.57183147582E+03  0.57183147584E+03  0.50400000000E-02 0. -1.
         -1   -1    0    0    0  501 -0.00000000000E+00 -0.00000000000E+00 -0.17776817964E+04  0.17776817964E+04  0.50400000000E-02 0.  1.
    8880022    1    1    2    0    0 -0.52802976386E+03 -0.54642955251E+03 -0.13542000099E+04  0.15603365045E+04  0.15294330000E+03 0.  0.
    8880022    1    1    2    0    0  0.52802976386E+03  0.54642955251E+03  0.14834968936E+03  0.78917676773E+03  0.15294330000E+03 0.  0.
<mgrwt>
<rscale>  0 0.77510795E+03</rscale>
<asrwt>0</asrwt>
<pdfrwt beam="1">  1        1 0.87974074E-01 0.77510795E+03</pdfrwt>
<pdfrwt beam="2">  1       -1 0.27348950E+00 0.77510795E+03</pdfrwt>
<totfact> 0.18799463E+00</totfact>
</mgrwt>
</event>
<event>
 4    1  0.4964158E-009  0.1408149E+04  0.7818608E-02  0.8947941E-01
          1   -1    0    0  501    0  0.00000000000E+00  0.00000000000E+00  0.16989341849E+04  0.16989341849E+04  0.50400000000E-02 0. -1.
         -1   -1    0    0    0  501 -0.00000000000E+00 -0.00000000000E+00 -0.18130642750E+04  0.18130642750E+04  0.50400000000E-02 0.  1.
    8880022    1    1    2    0    0  0.49256683617E+03  0.13102938776E+04  0.99105385849E+03  0.17219383082E+04  0.15294330000E+03 0.  0.
    8880022    1    1    2    0    0 -0.49256683617E+03 -0.13102938776E+04 -0.11051839486E+04  0.17900601518E+04  0.15294330000E+03 0.  0.
<mgrwt>
<rscale>  0 0.14081491E+04</rscale>
<asrwt>0</asrwt>
<pdfrwt beam="1">  1        1 0.26137449E+00 0.14081491E+04</pdfrwt>
<pdfrwt beam="2">  1       -1 0.27893297E+00 0.14081491E+04</pdfrwt>
<totfact> 0.20618512E-01</totfact>
</mgrwt>
</event>
<event>
 4    1  0.4964158E-009  0.2611562E+04  0.7818608E-02  0.8364285E-01
         -1   -1    0    0    0  501 -0.00000000000E+00  0.00000000000E+00  0.23844117868E+04  0.23844117868E+04  0.50400000000E-02 0.  1.
          1   -1    0    0  501    0  0.00000000000E+00 -0.00000000000E+00 -0.30513046759E+04  0.30513046759E+04  0.50400000000E-02 0. -1.
    8880022    1    1    2    0    0  0.26788568794E+03  0.25932797515E+04  0.34645850404E+03  0.26344425899E+04  0.15294330000E+03 0.  0.
    8880022    1    1    2    0    0 -0.26788568794E+03 -0.25932797515E+04 -0.10133513931E+04  0.28012738728E+04  0.15294330000E+03 0.  0.
<mgrwt>
<rscale>  0 0.26115617E+04</rscale>
<asrwt>0</asrwt>
<pdfrwt beam="1">  1        1 0.46943149E+00 0.26115617E+04</pdfrwt>
<pdfrwt beam="2">  1       -1 0.36683258E+00 0.26115617E+04</pdfrwt>
<totfact> 0.54423602E-03</totfact>
</mgrwt>
</event>
<event>
 4    1  0.4964158E-009  0.2772106E+03  0.7818608E-02  0.1097222E+00
          1   -1    0    0  501    0  0.00000000000E+00  0.00000000000E+00  0.41320764532E+03  0.41320764535E+03  0.50400000000E-02 0. -1.
         -1   -1    0    0    0  501 -0.00000000000E+00 -0.00000000000E+00 -0.19086223787E+04  0.19086223787E+04  0.50400000000E-02 0.  1.
    8880022    1    1    2    0    0  0.23092783232E+03  0.11243863253E+02  0.35519935399E+03  0.45056888740E+03  0.15294330000E+03 0. -1.
    8880022    1    1    2    0    0 -0.23092783232E+03 -0.11243863253E+02 -0.18506140874E+04  0.18712611367E+04  0.15294330000E+03 0.  0.
<mgrwt>
<rscale>  0 0.27721064E+03</rscale>
<asrwt>0</asrwt>
<pdfrwt beam="1">  1        1 0.63570408E-01 0.27721064E+03</pdfrwt>
<pdfrwt beam="2">  1       -1 0.29363421E+00 0.27721064E+03</pdfrwt>
<totfact> 0.24855563E+00</totfact>
</mgrwt>
</event>
<event>
 4    1  0.4964158E-009  0.1751123E+03  0.7818608E-02  0.1172619E+00
         -1   -1    0    0    0  501 -0.00000000000E+00  0.00000000000E+00  0.39090612801E+03  0.39090612805E+03  0.50400000000E-02 0.  1.
          1   -1    0    0  501    0  0.00000000000E+00 -0.00000000000E+00 -0.87955839761E+03  0.87955839763E+03  0.50400000000E-02 0. -1.
    8880022    1    1    2    0    0 -0.83398985330E+02 -0.17812426913E+02  0.36191781367E+03  0.40205575506E+03  0.15294330000E+03 0.  1.
    8880022    1    1    2    0    0  0.83398985330E+02  0.17812426913E+02 -0.85057008327E+03  0.86840877061E+03  0.15294330000E+03 0.  0.
<mgrwt>
<rscale>  0 0.17511232E+03</rscale>
<asrwt>0</asrwt>
<pdfrwt beam="1">  1        1 0.13531668E+00 0.17511232E+03</pdfrwt>
<pdfrwt beam="2">  1       -1 0.60139405E-01 0.17511232E+03</pdfrwt>
<totfact> 0.60069195E+01</totfact>
</mgrwt>
</event>
<event>
 4    1  0.4964158E-009  0.1632715E+04  0.7818608E-02  0.8800698E-01
          1   -1    0    0  501    0  0.00000000000E+00  0.00000000000E+00  0.31483803180E+04  0.31483803180E+04  0.50400000000E-02 0. -1.
         -1   -1    0    0    0  501 -0.00000000000E+00 -0.00000000000E+00 -0.11491947120E+04  0.11491947120E+04  0.50400000000E-02 0.  1.
    8880022    1    1    2    0    0 -0.14514492338E+04  0.73188828918E+03  0.21020207754E+04  0.26616251313E+04  0.15294330000E+03 0.  0.
    8880022    1    1    2    0    0  0.14514492338E+04 -0.73188828918E+03 -0.10283516936E+03  0.16359498988E+04  0.15294330000E+03 0.  0.
<mgrwt>
<rscale>  0 0.16327146E+04</rscale>
<asrwt>0</asrwt>
<pdfrwt beam="1">  1        1 0.48436620E+00 0.16327146E+04</pdfrwt>
<pdfrwt beam="2">  1       -1 0.17679919E+00 0.16327146E+04</pdfrwt>
<totfact> 0.95296927E-02</totfact>
</mgrwt>
</event>
<event>
 4    1  0.4964158E-009  0.4515081E+03  0.7818608E-02  0.1027273E+00
          1   -1    0    0  501    0  0.00000000000E+00  0.00000000000E+00  0.12450616881E+04  0.12450616881E+04  0.50400000000E-02 0. -1.
         -1   -1    0    0    0  501 -0.00000000000E+00 -0.00000000000E+00 -0.10927867374E+04  0.10927867374E+04  0.50400000000E-02 0.  1.
    8880022    1    1    2    0    0 -0.41743787639E+03  0.78826085846E+02  0.11539387863E+04  0.12391264294E+04  0.15294330000E+03 0.  0.
    8880022    1    1    2    0    0  0.41743787639E+03 -0.78826085846E+02 -0.10016638356E+04  0.10987219962E+04  0.15294330000E+03 0.  0.
<mgrwt>
<rscale>  0 0.45150812E+03</rscale>
<asrwt>0</asrwt>
<pdfrwt beam="1">  1        1 0.19154795E+00 0.45150812E+03</pdfrwt>
<pdfrwt beam="2">  1       -1 0.16812104E+00 0.45150812E+03</pdfrwt>
<totfact> 0.28118859E+00</totfact>
</mgrwt>
</event>
<event>
 4    1  0.4964158E-009  0.3207527E+03  0.7818608E-02  0.1075303E+00
         -1   -1    0    0    0  501 -0.00000000000E+00  0.00000000000E+00  0.60453538355E+03  0.60453538357E+03  0.50400000000E-02 0.  1.
          1   -1    0    0  501    0  0.00000000000E+00 -0.00000000000E+00 -0.79139586094E+03  0.79139586096E+03  0.50400000000E-02 0. -1.
    8880022    1    1    2    0    0  0.27376455310E+03  0.67406094372E+02  0.52495199797E+03  0.61518847947E+03  0.15294330000E+03 0.  0.
    8880022    1    1    2    0    0 -0.27376455310E+03 -0.67406094372E+02 -0.71181247536E+03  0.78074276505E+03  0.15294330000E+03 0.  0.
<mgrwt>
<rscale>  0 0.32075265E+03</rscale>
<asrwt>0</asrwt>
<pdfrwt beam="1">  1        1 0.12175321E+00 0.32075265E+03</pdfrwt>
<pdfrwt beam="2">  1       -1 0.93005444E-01 0.32075265E+03</pdfrwt>
<totfact> 0.27808467E+01</totfact>
</mgrwt>
</event>
<event>
 4    1  0.4964158E-009  0.6271670E+03  0.7818608E-02  0.9850593E-01
         -1   -1    0    0    0  501 -0.00000000000E+00  0.00000000000E+00  0.41323154108E+03  0.41323154111E+03  0.50400000000E-02 0.  1.
          1   -1    0    0  501    0  0.00000000000E+00 -0.00000000000E+00 -0.24229522928E+04  0.24229522928E+04  0.50400000000E-02 0. -1.
    8880022    1    1    2    0    0  0.42208643093E+03  0.43793823282E+03  0.10011330912E+03  0.63510721820E+03  0.15294330000E+03 0.  1.
    8880022    1    1    2    0    0 -0.42208643093E+03 -0.43793823282E+03 -0.21098340608E+04  0.22010766157E+04  0.15294330000E+03 0.  0.
<mgrwt>
<rscale>  0 0.62716705E+03</rscale>
<asrwt>0</asrwt>
<pdfrwt beam="1">  1        1 0.37276188E+00 0.62716705E+03</pdfrwt>
<pdfrwt beam="2">  1       -1 0.63574085E-01 0.62716705E+03</pdfrwt>
<totfact> 0.41721422E+00</totfact>
</mgrwt>
</event>
<event>
 4    1  0.4964158E-009  0.5223065E+03  0.7818608E-02  0.1008115E+00
         -1   -1    0    0    0  501 -0.00000000000E+00  0.00000000000E+00  0.73667208274E+03  0.73667208275E+03  0.50400000000E-02 0.  1.
          1   -1    0    0  501    0  0.00000000000E+00 -0.00000000000E+00 -0.91474330503E+03  0.91474330504E+03  0.50400000000E-02 0. -1.
    8880022    1    1    2    0    0 -0.32426609366E+03 -0.37982095728E+03 -0.72604410664E+03  0.89439597320E+03  0.15294330000E+03 0. -1.
    8880022    1    1    2    0    0  0.32426609366E+03  0.37982095728E+03  0.54797288434E+03  0.75701941459E+03  0.15294330000E+03 0.  0.
<mgrwt>
<rscale>  0 0.52230653E+03</rscale>
<asrwt>0</asrwt>
<pdfrwt beam="1">  1        1 0.14072974E+00 0.52230653E+03</pdfrwt>
<pdfrwt beam="2">  1       -1 0.11333417E+00 0.52230653E+03</pdfrwt>
<totfact> 0.13432075E+01</totfact>
</mgrwt>
</event>
<event>
 4    1  0.4964158E-009  0.2608811E+03  0.7818608E-02  0.1106615E+00
         -1   -1    0    0    0  501 -0.00000000000E+00  0.00000000000E+00  0.66017685713E+03  0.66017685715E+03  0.50400000000E-02 0.  1.
          1   -1    0    0  501    0  0.00000000000E+00 -0.00000000000E+00 -0.21599980141E+03  0.21599980147E+03  0.50400000000E-02 0. -1.
    8880022    1    1    2    0    0 -0.15642311149E+03  0.14212362106E+03 -0.94647118285E+02  0.27751944704E+03  0.15294330000E+03 0.  0.
    8880022    1    1    2    0    0  0.15642311149E+03 -0.14212362106E+03  0.53882417401E+03  0.59865721158E+03  0.15294330000E+03 0.  1.
<mgrwt>
<rscale>  0 0.26088113E+03</rscale>
<asrwt>0</asrwt>
<pdfrwt beam="1">  1        1 0.33230739E-01 0.26088113E+03</pdfrwt>
<pdfrwt beam="2">  1       -1 0.10156567E+00 0.26088113E+03</pdfrwt>
<totfact> 0.13063136E+02</totfact>
</mgrwt>
</event>
<event>
 4    1  0.4964158E-009  0.7730806E+03  0.7818608E-02  0.9599821E-01
          1   -1    0    0  501    0  0.00000000000E+00  0.00000000000E+00  0.12409528014E+04  0.12409528014E+04  0.50400000000E-02 0. -1.
         -1   -1    0    0    0  501 -0.00000000000E+00 -0.00000000000E+00 -0.71717130922E+03  0.71717130923E+03  0.50400000000E-02 0.  1.
    8880022    1    1    2    0    0 -0.44418222298E+02 -0.75649783455E+03 -0.29922439603E+03  0.82896854244E+03  0.15294330000E+03 0.  0.
    8880022    1    1    2    0    0  0.44418222298E+02  0.75649783455E+03  0.82300588819E+03  0.11291555682E+04  0.15294330000E+03 0.  0.
<mgrwt>
<rscale>  0 0.77308059E+03</rscale>
<asrwt>0</asrwt>
<pdfrwt beam="1">  1        1 0.19091582E+00 0.77308059E+03</pdfrwt>
<pdfrwt beam="2">  1       -1 0.11033405E+00 0.77308059E+03</pdfrwt>
<totfact> 0.78073504E+00</totfact>
</mgrwt>
</event>
<event>
 4    1  0.4964158E-009  0.6118109E+03  0.7818608E-02  0.9881201E-01
         -1   -1    0    0    0  501 -0.00000000000E+00  0.00000000000E+00  0.71925485683E+03  0.71925485685E+03  0.50400000000E-02 0.  1.
          1   -1    0    0  501    0  0.00000000000E+00 -0.00000000000E+00 -0.59436339609E+03  0.59436339611E+03  0.50400000000E-02 0. -1.
    8880022    1    1    2    0    0  0.65453076032E+02 -0.58875874813E+03  0.29411635854E+03  0.67883507131E+03  0.15294330000E+03 0.  0.
    8880022    1    1    2    0    0 -0.65453076032E+02  0.58875874813E+03 -0.16922489779E+03  0.63478318165E+03  0.15294330000E+03 0.  0.
<mgrwt>
<rscale>  0 0.61181094E+03</rscale>
<asrwt>0</asrwt>
<pdfrwt beam="1">  1        1 0.91440523E-01 0.61181094E+03</pdfrwt>
<pdfrwt beam="2">  1       -1 0.11065459E+00 0.61181094E+03</pdfrwt>
<totfact> 0.27200303E+01</totfact>
</mgrwt>
</event>
<event>
 4    1  0.4964158E-009  0.9415780E+03  0.7818608E-02  0.9375049E-01
         -1   -1    0    0    0  501 -0.00000000000E+00  0.00000000000E+00  0.74319397622E+03  0.74319397624E+03  0.50400000000E-02 0.  1.
          1   -1    0    0  501    0  0.00000000000E+00 -0.00000000000E+00 -0.18714444751E+04  0.18714444751E+04  0.50400000000E-02 0. -1.
    8880022    1    1    2    0    0  0.92661295013E+03  0.67570918142E+02  0.22305965853E+03  0.96763869942E+03  0.15294330000E+03 0.  0.
    8880022    1    1    2    0    0 -0.92661295013E+03 -0.67570918142E+02 -0.13513101574E+04  0.16469997519E+04  0.15294330000E+03 0.  0.
<mgrwt>
<rscale>  0 0.94157795E+03</rscale>
<asrwt>0</asrwt>
<pdfrwt beam="1">  1        1 0.28791453E+00 0.94157795E+03</pdfrwt>
<pdfrwt beam="2">  1       -1 0.11433754E+00 0.94157795E+03</pdfrwt>
<totfact> 0.25809565E+00</totfact>
</mgrwt>
</event>
<event>
 4    1  0.4964158E-009  0.7036955E+03  0.7818608E-02  0.9710933E-01
         -1   -1    0    0    0  501 -0.00000000000E+00  0.00000000000E+00  0.11519527747E+04  0.11519527747E+04  0.50400000000E-02 0.  1.
          1   -1    0    0  501    0  0.00000000000E+00 -0.00000000000E+00 -0.11952215951E+04  0.11952215951E+04  0.50400000000E-02 0. -1.
    8880022    1    1    2    0    0  0.61303195265E+03  0.30981854718E+03 -0.96075697123E+03  0.11908993736E+04  0.15294330000E+03 0.  0.
    8880022    1    1    2    0    0 -0.61303195265E+03 -0.30981854718E+03  0.91748815077E+03  0.11562749963E+04  0.15294330000E+03 0.  0.
<mgrwt>
<rscale>  0 0.70369550E+03</rscale>
<asrwt>0</asrwt>
<pdfrwt beam="1">  1        1 0.18388025E+00 0.70369550E+03</pdfrwt>
<pdfrwt beam="2">  1       -1 0.17722350E+00 0.70369550E+03</pdfrwt>
<totfact> 0.24696950E+00</totfact>
</mgrwt>
</event>
<event>
 4    1  0.4964158E-009  0.1958387E+03  0.7818608E-02  0.1153298E+00
         -1   -1    0    0    0  501 -0.00000000000E+00  0.00000000000E+00  0.11459564637E+04  0.11459564637E+04  0.50400000000E-02 0.  1.
          1   -1    0    0  501    0  0.00000000000E+00 -0.00000000000E+00 -0.87429616532E+03  0.87429616534E+03  0.50400000000E-02 0. -1.
    8880022    1    1    2    0    0  0.70402153056E+01 -0.12211298896E+03  0.11264340633E+04  0.11433313163E+04  0.15294330000E+03 0.  1.
    8880022    1    1    2    0    0 -0.70402153056E+01  0.12211298896E+03 -0.85477376491E+03  0.87692131283E+03  0.15294330000E+03 0.  0.
<mgrwt>
<rscale>  0 0.19583871E+03</rscale>
<asrwt>0</asrwt>
<pdfrwt beam="1">  1        1 0.13450710E+00 0.19583871E+03</pdfrwt>
<pdfrwt beam="2">  1       -1 0.17630099E+00 0.19583871E+03</pdfrwt>
<totfact> 0.51622030E+00</totfact>
</mgrwt>
</event>
<event>
 4    1  0.4964158E-009  0.7579784E+03  0.7818608E-02  0.9622916E-01
          1   -1    0    0  501    0  0.00000000000E+00  0.00000000000E+00  0.24695428469E+04  0.24695428469E+04  0.50400000000E-02 0. -1.
         -1   -1    0    0    0  501 -0.00000000000E+00 -0.00000000000E+00 -0.74824827643E+03  0.74824827645E+03  0.50400000000E-02 0.  1.
    8880022    1    1    2    0    0 -0.47091738744E+03 -0.57391323788E+03  0.21962031746E+04  0.23233251231E+04  0.15294330000E+03 0.  0.
    8880022    1    1    2    0    0  0.47091738744E+03  0.57391323788E+03 -0.47490860411E+03  0.89446600029E+03  0.15294330000E+03 0.  0.
<mgrwt>
<rscale>  0 0.75797839E+03</rscale>
<asrwt>0</asrwt>
<pdfrwt beam="1">  1        1 0.37992966E+00 0.75797839E+03</pdfrwt>
<pdfrwt beam="2">  1       -1 0.11511512E+00 0.75797839E+03</pdfrwt>
<totfact> 0.10371697E+00</totfact>
</mgrwt>
</event>
<event>
 4    1  0.4964158E-009  0.5573954E+03  0.7818608E-02  0.9997965E-01
          1   -1    0    0  501    0  0.00000000000E+00  0.00000000000E+00  0.14802195186E+04  0.14802195186E+04  0.50400000000E-02 0. -1.
         -1   -1    0    0    0  501 -0.00000000000E+00 -0.00000000000E+00 -0.75898725067E+03  0.75898725069E+03  0.50400000000E-02 0.  1.
    8880022    1    1    2    0    0 -0.44072332141E+03  0.30505893194E+03  0.13129076022E+04  0.14263295632E+04  0.15294330000E+03 0.  0.
    8880022    1    1    2    0    0  0.44072332141E+03 -0.30505893194E+03 -0.59167533426E+03  0.81287720609E+03  0.15294330000E+03 0.  0.
<mgrwt>
<rscale>  0 0.55739542E+03</rscale>
<asrwt>0</asrwt>
<pdfrwt beam="1">  1        1 0.22772608E+00 0.55739542E+03</pdfrwt>
<pdfrwt beam="2">  1       -1 0.11676727E+00 0.55739542E+03</pdfrwt>
<totfact> 0.48340856E+00</totfact>
</mgrwt>
</event>
<event>
 4    1  0.4964158E-009  0.1871626E+04  0.7818608E-02  0.8669110E-01
          1   -1    0    0  501    0  0.00000000000E+00  0.00000000000E+00  0.29241698048E+04  0.29241698048E+04  0.50400000000E-02 0. -1.
         -1   -1    0    0    0  501 -0.00000000000E+00 -0.00000000000E+00 -0.13890242004E+04  0.13890242004E+04  0.50400000000E-02 0.  1.
    8880022    1    1    2    0    0  0.24764173455E+03  0.18488554696E+04 -0.32306893027E+02  0.18719050094E+04  0.15294330000E+03 0.  0.
    8880022    1    1    2    0    0 -0.24764173455E+03 -0.18488554696E+04  0.15674524975E+04  0.24412889958E+04  0.15294330000E+03 0.  0.
<mgrwt>
<rscale>  0 0.18716262E+04</rscale>
<asrwt>0</asrwt>
<pdfrwt beam="1">  1        1 0.44987227E+00 0.18716262E+04</pdfrwt>
<pdfrwt beam="2">  1       -1 0.21369603E+00 0.18716262E+04</pdfrwt>
<totfact> 0.74546118E-02</totfact>
</mgrwt>
</event>
<event>
 4    1  0.4964158E-009  0.3853538E+03  0.7818608E-02  0.1048973E+00
         -1   -1    0    0    0  501 -0.00000000000E+00  0.00000000000E+00  0.29051093216E+03  0.29051093221E+03  0.50400000000E-02 0.  1.
          1   -1    0    0  501    0  0.00000000000E+00 -0.00000000000E+00 -0.13286000198E+04  0.13286000198E+04  0.50400000000E-02 0. -1.
    8880022    1    1    2    0    0 -0.19111769839E+03  0.29762379679E+03 -0.11540499900E+04  0.12166876886E+04  0.15294330000E+03 0. -1.
    8880022    1    1    2    0    0  0.19111769839E+03 -0.29762379679E+03  0.11596090239E+03  0.40242326343E+03  0.15294330000E+03 0.  0.
<mgrwt>
<rscale>  0 0.38535380E+03</rscale>
<asrwt>0</asrwt>
<pdfrwt beam="1">  1        1 0.20440000E+00 0.38535380E+03</pdfrwt>
<pdfrwt beam="2">  1       -1 0.44693990E-01 0.38535380E+03</pdfrwt>
<totfact> 0.46463081E+01</totfact>
</mgrwt>
</event>
<event>
 4    1  0.4964158E-009  0.4639584E+03  0.7818608E-02  0.1023639E+00
          1   -1    0    0  501    0  0.00000000000E+00  0.00000000000E+00  0.26849375077E+03  0.26849375081E+03  0.50400000000E-02 0. -1.
         -1   -1    0    0    0  501 -0.00000000000E+00 -0.00000000000E+00 -0.11885763814E+04  0.11885763814E+04  0.50400000000E-02 0.  1.
    8880022    1    1    2    0    0 -0.43454951311E+03  0.55067908864E+02 -0.44407813183E+02  0.46607881396E+03  0.15294330000E+03 0.  0.
    8880022    1    1    2    0    0  0.43454951311E+03 -0.55067908864E+02 -0.87567481741E+03  0.99099131822E+03  0.15294330000E+03 0.  1.
<mgrwt>
<rscale>  0 0.46395841E+03</rscale>
<asrwt>0</asrwt>
<pdfrwt beam="1">  1        1 0.41306731E-01 0.46395841E+03</pdfrwt>
<pdfrwt beam="2">  1       -1 0.18285790E+00 0.46395841E+03</pdfrwt>
<totfact> 0.21393192E+01</totfact>
</mgrwt>
</event>
<event>
 4    1  0.4964158E-009  0.1092002E+04  0.7818608E-02  0.9213022E-01
         -1   -1    0    0    0  501 -0.00000000000E+00  0.00000000000E+00  0.56203361150E+03  0.56203361153E+03  0.50400000000E-02 0.  1.
          1   -1    0    0  501    0  0.00000000000E+00 -0.00000000000E+00 -0.27762809086E+04  0.27762809086E+04  0.50400000000E-02 0. -1.
    8880022    1    1    2    0    0  0.55957707099E+03  0.92517602717E+03 -0.19176104913E+04  0.22067394112E+04  0.15294330000E+03 0.  0.
    8880022    1    1    2    0    0 -0.55957707099E+03 -0.92517602717E+03 -0.29663680583E+03  0.11315751090E+04  0.15294330000E+03 0.  0.
<mgrwt>
<rscale>  0 0.10920022E+04</rscale>
<asrwt>0</asrwt>
<pdfrwt beam="1">  1        1 0.42712013E+00 0.10920022E+04</pdfrwt>
<pdfrwt beam="2">  1       -1 0.86466712E-01 0.10920022E+04</pdfrwt>
<totfact> 0.11536479E+00</totfact>
</mgrwt>
</event>
<event>
 4    1  0.4964158E-009  0.7879501E+03  0.7818608E-02  0.9577625E-01
          1   -1    0    0  501    0  0.00000000000E+00  0.00000000000E+00  0.20451155882E+04  0.20451155882E+04  0.50400000000E-02 0. -1.
         -1   -1    0    0    0  501 -0.00000000000E+00 -0.00000000000E+00 -0.50247373959E+03  0.50247373961E+03  0.50400000000E-02 0.  1.
    8880022    1    1    2    0    0  0.75117742242E+03  0.18222544664E+03 -0.30077420755E+02  0.78852389794E+03  0.15294330000E+03 0.  0.
    8880022    1    1    2    0    0 -0.75117742242E+03 -0.18222544664E+03  0.15727192694E+04  0.17590654299E+04  0.15294330000E+03 0.  0.
<mgrwt>
<rscale>  0 0.78795005E+03</rscale>
<asrwt>0</asrwt>
<pdfrwt beam="1">  1        1 0.31463317E+00 0.78795005E+03</pdfrwt>
<pdfrwt beam="2">  1       -1 0.77303651E-01 0.78795005E+03</pdfrwt>
<totfact> 0.48638076E+00</totfact>
</mgrwt>
</event>
<event>
 4    1  0.4964158E-009  0.1845870E+03  0.7818608E-02  0.1163436E+00
          1   -1    0    0  501    0  0.00000000000E+00  0.00000000000E+00  0.13242187712E+04  0.13242187712E+04  0.50400000000E-02 0. -1.
         -1   -1    0    0    0  501 -0.00000000000E+00 -0.00000000000E+00 -0.81816346700E+03  0.81816346701E+03  0.50400000000E-02 0.  1.
    8880022    1    1    2    0    0 -0.77157048680E+02 -0.68756694391E+02  0.13072404531E+04  0.13202082973E+04  0.15294330000E+03 0. -1.
    8880022    1    1    2    0    0  0.77157048680E+02  0.68756694391E+02 -0.80118514890E+03  0.82217394086E+03  0.15294330000E+03 0.  0.
<mgrwt>
<rscale>  0 0.18458696E+03</rscale>
<asrwt>0</asrwt>
<pdfrwt beam="1">  1        1 0.20372596E+00 0.18458696E+03</pdfrwt>
<pdfrwt beam="2">  1       -1 0.12587130E+00 0.18458696E+03</pdfrwt>
<totfact> 0.59453111E+00</totfact>
</mgrwt>
</event>
<event>
 4    1  0.4964158E-009  0.8645192E+03  0.7818608E-02  0.9471054E-01
         -1   -1    0    0    0  501 -0.00000000000E+00  0.00000000000E+00  0.52574619655E+03  0.52574619658E+03  0.50400000000E-02 0.  1.
          1   -1    0    0  501    0  0.00000000000E+00 -0.00000000000E+00 -0.18739976115E+04  0.18739976115E+04  0.50400000000E-02 0. -1.
    8880022    1    1    2    0    0 -0.36409126336E+03  0.76905091363E+03 -0.12636711152E+04  0.15310970238E+04  0.15294330000E+03 0.  0.
    8880022    1    1    2    0    0  0.36409126336E+03 -0.76905091363E+03 -0.84580299760E+02  0.86864678433E+03  0.15294330000E+03 0.  0.
<mgrwt>
<rscale>  0 0.86451918E+03</rscale>
<asrwt>0</asrwt>
<pdfrwt beam="1">  1        1 0.28830732E+00 0.86451918E+03</pdfrwt>
<pdfrwt beam="2">  1       -1 0.80884031E-01 0.86451918E+03</pdfrwt>
<totfact> 0.56854050E+00</totfact>
</mgrwt>
</event>
<event>
 4    1  0.4964158E-009  0.2095699E+03  0.7818608E-02  0.1141907E+00
          1   -1    0    0  501    0  0.00000000000E+00  0.00000000000E+00  0.23713316361E+04  0.23713316361E+04  0.50400000000E-02 0. -1.
         -1   -1    0    0    0  501 -0.00000000000E+00 -0.00000000000E+00 -0.82110170288E+02  0.82110170443E+02  0.50400000000E-02 0.  1.
    8880022    1    1    2    0    0  0.28648509565E+02 -0.14038217958E+03  0.65070815752E+02  0.21943964437E+03  0.15294330000E+03 0.  0.
    8880022    1    1    2    0    0 -0.28648509565E+02  0.14038217958E+03  0.22241506500E+04  0.22340021621E+04  0.15294330000E+03 0.  0.
<mgrwt>
<rscale>  0 0.20956991E+03</rscale>
<asrwt>0</asrwt>
<pdfrwt beam="1">  1        1 0.36482026E+00 0.20956991E+03</pdfrwt>
<pdfrwt beam="2">  1       -1 0.12632334E-01 0.20956991E+03</pdfrwt>
<totfact> 0.83629045E+01</totfact>
</mgrwt>
</event>
<event>
 4    1  0.4964158E-009  0.2823176E+03  0.7818608E-02  0.1094430E+00
         -1   -1    0    0    0  501 -0.00000000000E+00  0.00000000000E+00  0.30379996698E+03  0.30379996702E+03  0.50400000000E-02 0.  1.
          1   -1    0    0  501    0  0.00000000000E+00 -0.00000000000E+00 -0.11074506183E+04  0.11074506183E+04  0.50400000000E-02 0. -1.
    8880022    1    1    2    0    0 -0.23482116265E+03 -0.34214356648E+02  0.21457809102E+03  0.35460824975E+03  0.15294330000E+03 0.  0.
    8880022    1    1    2    0    0  0.23482116265E+03  0.34214356648E+02 -0.10182287423E+04  0.10566423356E+04  0.15294330000E+03 0.  0.
<mgrwt>
<rscale>  0 0.28231765E+03</rscale>
<asrwt>0</asrwt>
<pdfrwt beam="1">  1        1 0.17037702E+00 0.28231765E+03</pdfrwt>
<pdfrwt beam="2">  1       -1 0.46738457E-01 0.28231765E+03</pdfrwt>
<totfact> 0.62762931E+01</totfact>
</mgrwt>
</event>
<event>
 4    1  0.4964158E-009  0.8838363E+03  0.7818608E-02  0.9446015E-01
          1   -1    0    0  501    0  0.00000000000E+00  0.00000000000E+00  0.19578345937E+04  0.19578345937E+04  0.50400000000E-02 0. -1.
         -1   -1    0    0    0  501 -0.00000000000E+00 -0.00000000000E+00 -0.54566875214E+03  0.54566875216E+03  0.50400000000E-02 0.  1.
    8880022    1    1    2    0    0  0.48208667403E+03  0.72482236390E+03  0.13550601988E+04  0.16178240992E+04  0.15294330000E+03 0.  0.
    8880022    1    1    2    0    0 -0.48208667403E+03 -0.72482236390E+03  0.57105642704E+02  0.88567924664E+03  0.15294330000E+03 0.  0.
<mgrwt>
<rscale>  0 0.88383634E+03</rscale>
<asrwt>0</asrwt>
<pdfrwt beam="1">  1        1 0.30120532E+00 0.88383634E+03</pdfrwt>
<pdfrwt beam="2">  1       -1 0.83949040E-01 0.88383634E+03</pdfrwt>
<totfact> 0.45982231E+00</totfact>
</mgrwt>
</event>
<event>
 4    1  0.4964158E-009  0.1642136E+03  0.7818608E-02  0.1184020E+00
          1   -1    0    0  501    0  0.00000000000E+00  0.00000000000E+00  0.39736647409E+03  0.39736647413E+03  0.50400000000E-02 0. -1.
         -1   -1    0    0    0  501 -0.00000000000E+00 -0.00000000000E+00 -0.11389688003E+03  0.11389688014E+03  0.50400000000E-02 0.  1.
    8880022    1    1    2    0    0  0.44603820878E+02  0.39811662993E+02 -0.20783328372E+02  0.16552362097E+03  0.15294330000E+03 0.  1.
    8880022    1    1    2    0    0 -0.44603820878E+02 -0.39811662993E+02  0.30425292244E+03  0.34573973329E+03  0.15294330000E+03 0.  0.
<mgrwt>
<rscale>  0 0.16421365E+03</rscale>
<asrwt>0</asrwt>
<pdfrwt beam="1">  1        1 0.61133304E-01 0.16421365E+03</pdfrwt>
<pdfrwt beam="2">  1       -1 0.17522597E-01 0.16421365E+03</pdfrwt>
<totfact> 0.15144246E+03</totfact>
</mgrwt>
</event>
<event>
 4    1  0.4964158E-009  0.8197976E+03  0.7818608E-02  0.9531795E-01
         -1   -1    0    0    0  501 -0.00000000000E+00  0.00000000000E+00  0.13816687324E+04  0.13816687324E+04  0.50400000000E-02 0.  1.
          1   -1    0    0  501    0  0.00000000000E+00 -0.00000000000E+00 -0.85696323823E+03  0.85696323824E+03  0.50400000000E-02 0. -1.
    8880022    1    1    2    0    0  0.44911246774E+03 -0.66856149565E+03  0.99837746705E+03  0.12918303689E+04  0.15294330000E+03 0.  0.
    8880022    1    1    2    0    0 -0.44911246774E+03  0.66856149565E+03 -0.47367197292E+03  0.94680160176E+03  0.15294330000E+03 0.  0.
<mgrwt>
<rscale>  0 0.81979762E+03</rscale>
<asrwt>0</asrwt>
<pdfrwt beam="1">  1        1 0.13184050E+00 0.81979762E+03</pdfrwt>
<pdfrwt beam="2">  1       -1 0.21256442E+00 0.81979762E+03</pdfrwt>
<totfact> 0.25144205E+00</totfact>
</mgrwt>
</event>
<event>
 4    1  0.4964158E-009  0.6035016E+03  0.7818608E-02  0.9898168E-01
          1   -1    0    0  501    0  0.00000000000E+00  0.00000000000E+00  0.97038455022E+03  0.97038455024E+03  0.50400000000E-02 0. -1.
         -1   -1    0    0    0  501 -0.00000000000E+00 -0.00000000000E+00 -0.55093526124E+03  0.55093526126E+03  0.50400000000E-02 0.  1.
    8880022    1    1    2    0    0  0.40278792651E+03  0.42259252647E+03  0.63917136113E+03  0.87906441122E+03  0.15294330000E+03 0.  0.
    8880022    1    1    2    0    0 -0.40278792651E+03 -0.42259252647E+03 -0.21972207214E+03  0.64225540027E+03  0.15294330000E+03 0.  1.
<mgrwt>
<rscale>  0 0.60350162E+03</rscale>
<asrwt>0</asrwt>
<pdfrwt beam="1">  1        1 0.14928993E+00 0.60350162E+03</pdfrwt>
<pdfrwt beam="2">  1       -1 0.84759272E-01 0.60350162E+03</pdfrwt>
<totfact> 0.23052467E+01</totfact>
</mgrwt>
</event>
<event>
 4    1  0.4964158E-009  0.1188170E+04  0.7818608E-02  0.9123274E-01
         -1   -1    0    0    0  501 -0.00000000000E+00  0.00000000000E+00  0.17227281418E+04  0.17227281418E+04  0.50400000000E-02 0.  1.
          1   -1    0    0  501    0  0.00000000000E+00 -0.00000000000E+00 -0.13075433897E+04  0.13075433897E+04  0.50400000000E-02 0. -1.
    8880022    1    1    2    0    0 -0.11700268143E+04 -0.13926490160E+03  0.11332696100E+04  0.16419650182E+04  0.15294330000E+03 0.  0.
    8880022    1    1    2    0    0  0.11700268143E+04  0.13926490160E+03 -0.71808485786E+03  0.13883065134E+04  0.15294330000E+03 0.  0.
<mgrwt>
<rscale>  0 0.11881705E+04</rscale>
<asrwt>0</asrwt>
<pdfrwt beam="1">  1        1 0.20116052E+00 0.11881705E+04</pdfrwt>
<pdfrwt beam="2">  1       -1 0.26503510E+00 0.11881705E+04</pdfrwt>
<totfact> 0.48891978E-01</totfact>
</mgrwt>
</event>
<event>
 4    1  0.4964158E-009  0.2686179E+03  0.7818608E-02  0.1102073E+00
          1   -1    0    0  501    0  0.00000000000E+00  0.00000000000E+00  0.12242359381E+04  0.12242359382E+04  0.50400000000E-02 0. -1.
         -1   -1    0    0    0  501 -0.00000000000E+00 -0.00000000000E+00 -0.49291263107E+03  0.49291263110E+03  0.50400000000E-02 0.  1.
    8880022    1    1    2    0    0  0.38760050992E+02  0.21739734201E+03  0.11712708738E+04  0.12016784340E+04  0.15294330000E+03 0.  0.
    8880022    1    1    2    0    0 -0.38760050992E+02 -0.21739734201E+03 -0.43994756673E+03  0.51547013527E+03  0.15294330000E+03 0.  0.
<mgrwt>
<rscale>  0 0.26861794E+03</rscale>
<asrwt>0</asrwt>
<pdfrwt beam="1">  1        1 0.18834399E+00 0.26861794E+03</pdfrwt>
<pdfrwt beam="2">  1       -1 0.75832714E-01 0.26861794E+03</pdfrwt>
<totfact> 0.20456424E+01</totfact>
</mgrwt>
</event>
<event>
 4    1  0.5275604E-009  0.7824394E+03  0.7818608E-02  0.9585789E-01
          1   -1    0    0  501    0  0.00000000000E+00  0.00000000000E+00  0.17915110281E+04  0.17915110281E+04  0.50400000000E-02 0. -1.
         -1   -1    0    0    0  501 -0.00000000000E+00 -0.00000000000E+00 -0.12539768573E+04  0.12539768573E+04  0.50400000000E-02 0.  1.
    8880022    1    1    2    0    0  0.62181894683E+03 -0.44962312454E+03  0.15675558636E+04  0.17519825328E+04  0.15294330000E+03 0. -1.
    8880022    1    1    2    0    0 -0.62181894683E+03  0.44962312454E+03 -0.10300216928E+04  0.12935053526E+04  0.15294330000E+03 0.  0.
<mgrwt>
<rscale>  0 0.78243940E+03</rscale>
<asrwt>0</asrwt>
<pdfrwt beam="1">  1        1 0.27561708E+00 0.78243940E+03</pdfrwt>
<pdfrwt beam="2">  1       -1 0.19291952E+00 0.78243940E+03</pdfrwt>
<totfact> 0.73149827E-01</totfact>
</mgrwt>
</event>
<event>
 4    1  0.4964158E-009  0.1097493E+04  0.7818608E-02  0.9207639E-01
         -1   -1    0    0    0  501 -0.00000000000E+00  0.00000000000E+00  0.13236370541E+04  0.13236370541E+04  0.50400000000E-02 0.  1.
          1   -1    0    0  501    0  0.00000000000E+00 -0.00000000000E+00 -0.12343649129E+04  0.12343649129E+04  0.50400000000E-02 0. -1.
    8880022    1    1    2    0    0  0.86909680907E+03 -0.65251101501E+03 -0.61101869584E+03  0.12561191774E+04  0.15294330000E+03 0.  0.
    8880022    1    1    2    0    0 -0.86909680907E+03  0.65251101501E+03  0.70029083701E+03  0.13018827895E+04  0.15294330000E+03 0.  0.
<mgrwt>
<rscale>  0 0.10974933E+04</rscale>
<asrwt>0</asrwt>
<pdfrwt beam="1">  1        1 0.18990229E+00 0.10974933E+04</pdfrwt>
<pdfrwt beam="2">  1       -1 0.20363647E+00 0.10974933E+04</pdfrwt>
<totfact> 0.14221824E+00</totfact>
</mgrwt>
</event>
<event>
 4    1  0.4964158E-009  0.6329307E+03  0.7818608E-02  0.9839346E-01
          1   -1    0    0  501    0  0.00000000000E+00  0.00000000000E+00  0.32269834326E+04  0.32269834326E+04  0.50400000000E-02 0. -1.
         -1   -1    0    0    0  501 -0.00000000000E+00 -0.00000000000E+00 -0.12919869957E+03  0.12919869967E+03  0.50400000000E-02 0.  1.
    8880022    1    1    2    0    0 -0.14808066473E+03  0.59605518874E+03  0.18809075880E+04  0.19845439474E+04  0.15294330000E+03 0.  0.
    8880022    1    1    2    0    0  0.14808066473E+03 -0.59605518874E+03  0.12168771450E+04  0.13716381849E+04  0.15294330000E+03 0.  0.
<mgrwt>
<rscale>  0 0.63293074E+03</rscale>
<asrwt>0</asrwt>
<pdfrwt beam="1">  1        1 0.49645894E+00 0.63293074E+03</pdfrwt>
<pdfrwt beam="2">  1       -1 0.19876725E-01 0.63293074E+03</pdfrwt>
<totfact> 0.91499241E+00</totfact>
</mgrwt>
</event>
<event>
 4    1  0.4964158E-009  0.9783420E+03  0.7818608E-02  0.9332623E-01
          1   -1    0    0  501    0  0.00000000000E+00  0.00000000000E+00  0.67602194631E+03  0.67602194632E+03  0.50400000000E-02 0. -1.
         -1   -1    0    0    0  501 -0.00000000000E+00 -0.00000000000E+00 -0.21716897147E+04  0.21716897147E+04  0.50400000000E-02 0.  1.
    8880022    1    1    2    0    0  0.94399970777E+03  0.20646078714E+03  0.92165182441E+02  0.98267368885E+03  0.15294330000E+03 0.  0.
    8880022    1    1    2    0    0 -0.94399970777E+03 -0.20646078714E+03 -0.15878329508E+04  0.18650379722E+04  0.15294330000E+03 0.  0.
<mgrwt>
<rscale>  0 0.97834205E+03</rscale>
<asrwt>0</asrwt>
<pdfrwt beam="1">  1        1 0.10400338E+00 0.97834205E+03</pdfrwt>
<pdfrwt beam="2">  1       -1 0.33410611E+00 0.97834205E+03</pdfrwt>
<totfact> 0.58063560E-01</totfact>
</mgrwt>
</event>
<event>
 4    1  0.4964158E-009  0.6734410E+03  0.7818608E-02  0.9763762E-01
          1   -1    0    0  501    0  0.00000000000E+00  0.00000000000E+00  0.20054567389E+04  0.20054567389E+04  0.50400000000E-02 0. -1.
         -1   -1    0    0    0  501 -0.00000000000E+00 -0.00000000000E+00 -0.18250346152E+04  0.18250346152E+04  0.50400000000E-02 0.  1.
    8880022    1    1    2    0    0 -0.49978542250E+03 -0.42467124197E+03  0.18828724395E+04  0.19996828270E+04  0.15294330000E+03 0.  0.
    8880022    1    1    2    0    0  0.49978542250E+03  0.42467124197E+03 -0.17024503157E+04  0.18308085271E+04  0.15294330000E+03 0.  0.
<mgrwt>
<rscale>  0 0.67344100E+03</rscale>
<asrwt>0</asrwt>
<pdfrwt beam="1">  1        1 0.30853181E+00 0.67344100E+03</pdfrwt>
<pdfrwt beam="2">  1       -1 0.28077456E+00 0.67344100E+03</pdfrwt>
<totfact> 0.14355059E-01</totfact>
</mgrwt>
</event>
<event>
 4    1  0.4964158E-009  0.2552443E+03  0.7818608E-02  0.1110035E+00
          1   -1    0    0  501    0  0.00000000000E+00  0.00000000000E+00  0.17972974270E+04  0.17972974270E+04  0.50400000000E-02 0. -1.
         -1   -1    0    0    0  501 -0.00000000000E+00 -0.00000000000E+00 -0.11049672802E+04  0.11049672802E+04  0.50400000000E-02 0.  1.
    8880022    1    1    2    0    0 -0.87589717140E+02 -0.18462405721E+03  0.17732966011E+04  0.17915720721E+04  0.15294330000E+03 0.  0.
    8880022    1    1    2    0    0  0.87589717140E+02  0.18462405721E+03 -0.10809664543E+04  0.11106926350E+04  0.15294330000E+03 0.  0.
<mgrwt>
<rscale>  0 0.25524430E+03</rscale>
<asrwt>0</asrwt>
<pdfrwt beam="1">  1        1 0.27650729E+00 0.25524430E+03</pdfrwt>
<pdfrwt beam="2">  1       -1 0.16999497E+00 0.25524430E+03</pdfrwt>
<totfact> 0.12690074E+00</totfact>
</mgrwt>
</event>
<event>
 4    1  0.4964158E-009  0.3723614E+03  0.7818608E-02  0.1053794E+00
          1   -1    0    0  501    0  0.00000000000E+00  0.00000000000E+00  0.51925729898E+03  0.51925729901E+03  0.50400000000E-02 0. -1.
         -1   -1    0    0    0  501 -0.00000000000E+00 -0.00000000000E+00 -0.35270835528E+03  0.35270835532E+03  0.50400000000E-02 0.  1.
    8880022    1    1    2    0    0  0.18705203514E+03 -0.28332471792E+03  0.29816530055E+03  0.47702783892E+03  0.15294330000E+03 0.  0.
    8880022    1    1    2    0    0 -0.18705203514E+03  0.28332471792E+03 -0.13161635685E+03  0.39493781541E+03  0.15294330000E+03 0.  0.
<mgrwt>
<rscale>  0 0.37236140E+03</rscale>
<asrwt>0</asrwt>
<pdfrwt beam="1">  1        1 0.79885739E-01 0.37236140E+03</pdfrwt>
<pdfrwt beam="2">  1       -1 0.54262824E-01 0.37236140E+03</pdfrwt>
<totfact> 0.15089464E+02</totfact>
</mgrwt>
</event>
<event>
 4    1  0.4964158E-009  0.7797568E+03  0.7818608E-02  0.9589789E-01
         -1   -1    0    0    0  501 -0.00000000000E+00  0.00000000000E+00  0.35528015671E+03  0.35528015675E+03  0.50400000000E-02 0.  1.
          1   -1    0    0  501    0  0.00000000000E+00 -0.00000000000E+00 -0.19817909511E+04  0.19817909511E+04  0.50400000000E-02 0. -1.
    8880022    1    1    2    0    0 -0.49474685011E+03 -0.58297048154E+03 -0.38161493390E+03  0.86813054251E+03  0.15294330000E+03 0.  0.
    8880022    1    1    2    0    0  0.49474685011E+03  0.58297048154E+03 -0.12448958605E+04  0.14689405654E+04  0.15294330000E+03 0.  0.
<mgrwt>
<rscale>  0 0.77975681E+03</rscale>
<asrwt>0</asrwt>
<pdfrwt beam="1">  1        1 0.30489091E+00 0.77975681E+03</pdfrwt>
<pdfrwt beam="2">  1       -1 0.54658486E-01 0.77975681E+03</pdfrwt>
<totfact> 0.10787207E+01</totfact>
</mgrwt>
</event>
<event>
 4    1  0.4964158E-009  0.1856607E+03  0.7818608E-02  0.1162434E+00
         -1   -1    0    0    0  501 -0.00000000000E+00  0.00000000000E+00  0.90568022693E+03  0.90568022695E+03  0.50400000000E-02 0.  1.
          1   -1    0    0  501    0  0.00000000000E+00 -0.00000000000E+00 -0.39864734480E+03  0.39864734484E+03  0.50400000000E-02 0. -1.
    8880022    1    1    2    0    0 -0.92037242772E+02  0.51062451859E+02  0.87376774591E+03  0.89327484844E+03  0.15294330000E+03 0.  0.
    8880022    1    1    2    0    0  0.92037242772E+02 -0.51062451859E+02 -0.36673486378E+03  0.41105272335E+03  0.15294330000E+03 0. -1.
<mgrwt>
<rscale>  0 0.18566066E+03</rscale>
<asrwt>0</asrwt>
<pdfrwt beam="1">  1        1 0.61330362E-01 0.18566066E+03</pdfrwt>
<pdfrwt beam="2">  1       -1 0.13933542E+00 0.18566066E+03</pdfrwt>
<totfact> 0.29023974E+01</totfact>
</mgrwt>
</event>
<event>
 4    1  0.4964158E-009  0.1433006E+04  0.7818608E-02  0.8930268E-01
          1   -1    0    0  501    0  0.00000000000E+00  0.00000000000E+00  0.12051331726E+04  0.12051331726E+04  0.50400000000E-02 0. -1.
         -1   -1    0    0    0  501 -0.00000000000E+00 -0.00000000000E+00 -0.18010019207E+04  0.18010019207E+04  0.50400000000E-02 0.  1.
    8880022    1    1    2    0    0  0.93841979939E+03  0.10721387011E+04  0.50956712728E+02  0.14339112085E+04  0.15294330000E+03 0.  0.
    8880022    1    1    2    0    0 -0.93841979939E+03 -0.10721387011E+04 -0.64682546079E+03  0.15722238848E+04  0.15294330000E+03 0.  0.
<mgrwt>
<rscale>  0 0.14330055E+04</rscale>
<asrwt>0</asrwt>
<pdfrwt beam="1">  1        1 0.18540510E+00 0.14330055E+04</pdfrwt>
<pdfrwt beam="2">  1       -1 0.27707722E+00 0.14330055E+04</pdfrwt>
<totfact> 0.47053402E-01</totfact>
</mgrwt>
</event>
<event>
 4    1  0.4964158E-009  0.2357743E+03  0.7818608E-02  0.1122640E+00
         -1   -1    0    0    0  501 -0.00000000000E+00  0.00000000000E+00  0.69033350548E+03  0.69033350550E+03  0.50400000000E-02 0.  1.
          1   -1    0    0  501    0  0.00000000000E+00 -0.00000000000E+00 -0.23150272229E+03  0.23150272235E+03  0.50400000000E-02 0. -1.
    8880022    1    1    2    0    0  0.12265160130E+03  0.13097506769E+03  0.60163672559E+03  0.64618595330E+03  0.15294330000E+03 0.  1.
    8880022    1    1    2    0    0 -0.12265160130E+03 -0.13097506769E+03 -0.14280594240E+03  0.27565027455E+03  0.15294330000E+03 0.  0.
<mgrwt>
<rscale>  0 0.23577433E+03</rscale>
<asrwt>0</asrwt>
<pdfrwt beam="1">  1        1 0.35615804E-01 0.23577433E+03</pdfrwt>
<pdfrwt beam="2">  1       -1 0.10620515E+00 0.23577433E+03</pdfrwt>
<totfact> 0.10860937E+02</totfact>
</mgrwt>
</event>
<event>
 4    1  0.4964158E-009  0.1063249E+04  0.7818608E-02  0.9241771E-01
          1   -1    0    0  501    0  0.00000000000E+00  0.00000000000E+00  0.21196864719E+04  0.21196864719E+04  0.50400000000E-02 0. -1.
         -1   -1    0    0    0  501 -0.00000000000E+00 -0.00000000000E+00 -0.99903366959E+03  0.99903366960E+03  0.50400000000E-02 0.  1.
    8880022    1    1    2    0    0 -0.32764696595E+03  0.99987698853E+03 -0.50433106112E+03  0.11767956487E+04  0.15294330000E+03 0.  0.
    8880022    1    1    2    0    0  0.32764696595E+03 -0.99987698853E+03  0.16249838634E+04  0.19419244928E+04  0.15294330000E+03 0.  0.
<mgrwt>
<rscale>  0 0.10632489E+04</rscale>
<asrwt>0</asrwt>
<pdfrwt beam="1">  1        1 0.32610561E+00 0.10632489E+04</pdfrwt>
<pdfrwt beam="2">  1       -1 0.15369749E+00 0.10632489E+04</pdfrwt>
<totfact> 0.80917978E-01</totfact>
</mgrwt>
</event>
<event>
 4    1  0.4964158E-009  0.9733669E+03  0.7818608E-02  0.9338248E-01
         -1   -1    0    0    0  501 -0.00000000000E+00  0.00000000000E+00  0.62550188595E+03  0.62550188597E+03  0.50400000000E-02 0.  1.
          1   -1    0    0  501    0  0.00000000000E+00 -0.00000000000E+00 -0.20952394139E+04  0.20952394139E+04  0.50400000000E-02 0. -1.
    8880022    1    1    2    0    0  0.92426206717E+03  0.26418002448E+03 -0.14509446209E+04  0.17471930060E+04  0.15294330000E+03 0.  0.
    8880022    1    1    2    0    0 -0.92426206717E+03 -0.26418002448E+03 -0.18792907006E+02  0.97354829388E+03  0.15294330000E+03 0.  0.
<mgrwt>
<rscale>  0 0.97336689E+03</rscale>
<asrwt>0</asrwt>
<pdfrwt beam="1">  1        1 0.32234452E+00 0.97336689E+03</pdfrwt>
<pdfrwt beam="2">  1       -1 0.96231061E-01 0.97336689E+03</pdfrwt>
<totfact> 0.27141752E+00</totfact>
</mgrwt>
</event>
<event>
 4    1  0.4964158E-009  0.9060050E+03  0.7818608E-02  0.9418106E-01
         -1   -1    0    0    0  501 -0.00000000000E+00  0.00000000000E+00  0.11664332106E+04  0.11664332107E+04  0.50400000000E-02 0.  1.
          1   -1    0    0  501    0  0.00000000000E+00 -0.00000000000E+00 -0.10624800050E+04  0.10624800050E+04  0.50400000000E-02 0. -1.
    8880022    1    1    2    0    0  0.75563119675E+03 -0.47589371826E+03 -0.59561832230E+03  0.10842537413E+04  0.15294330000E+03 0.  0.
    8880022    1    1    2    0    0 -0.75563119675E+03  0.47589371826E+03  0.69957152796E+03  0.11446594744E+04  0.15294330000E+03 0.  0.
<mgrwt>
<rscale>  0 0.90600496E+03</rscale>
<asrwt>0</asrwt>
<pdfrwt beam="1">  1        1 0.16345846E+00 0.90600496E+03</pdfrwt>
<pdfrwt beam="2">  1       -1 0.17945126E+00 0.90600496E+03</pdfrwt>
<totfact> 0.28888916E+00</totfact>
</mgrwt>
</event>
<event>
 4    1  0.4964158E-009  0.2074406E+04  0.7818608E-02  0.8572602E-01
          1   -1    0    0  501    0  0.00000000000E+00  0.00000000000E+00  0.31993723330E+04  0.31993723330E+04  0.50400000000E-02 0. -1.
         -1   -1    0    0    0  501 -0.00000000000E+00 -0.00000000000E+00 -0.14759576522E+04  0.14759576522E+04  0.50400000000E-02 0.  1.
    8880022    1    1    2    0    0  0.14062850068E+04  0.15172770530E+04  0.16538682827E+03  0.20809881384E+04  0.15294330000E+03 0.  0.
    8880022    1    1    2    0    0 -0.14062850068E+04 -0.15172770530E+04  0.15580278525E+04  0.25943418469E+04  0.15294330000E+03 0.  0.
<mgrwt>
<rscale>  0 0.20744057E+04</rscale>
<asrwt>0</asrwt>
<pdfrwt beam="1">  1        1 0.49221113E+00 0.20744057E+04</pdfrwt>
<pdfrwt beam="2">  1       -1 0.22707041E+00 0.20744057E+04</pdfrwt>
<totfact> 0.37153903E-02</totfact>
</mgrwt>
</event>
<event>
 4    1  0.4964158E-009  0.4261161E+03  0.7818608E-02  0.1035094E+00
          1   -1    0    0  501    0  0.00000000000E+00  0.00000000000E+00  0.21221708184E+04  0.21221708184E+04  0.50400000000E-02 0. -1.
         -1   -1    0    0    0  501 -0.00000000000E+00 -0.00000000000E+00 -0.24967246551E+03  0.24967246557E+03  0.50400000000E-02 0.  1.
    8880022    1    1    2    0    0  0.37861435026E+03  0.12179691940E+03 -0.25230672929E+02  0.42686245521E+03  0.15294330000E+03 0.  0.
    8880022    1    1    2    0    0 -0.37861435026E+03 -0.12179691940E+03  0.18977290258E+04  0.19449808288E+04  0.15294330000E+03 0. -1.
<mgrwt>
<rscale>  0 0.42611614E+03</rscale>
<asrwt>0</asrwt>
<pdfrwt beam="1">  1        1 0.32648782E+00 0.42611614E+03</pdfrwt>
<pdfrwt beam="2">  1       -1 0.38411149E-01 0.42611614E+03</pdfrwt>
<totfact> 0.17945591E+01</totfact>
</mgrwt>
</event>
<event>
 4    1  0.4964158E-009  0.8017980E+03  0.7818608E-02  0.9557418E-01
          1   -1    0    0  501    0  0.00000000000E+00  0.00000000000E+00  0.16374044059E+04  0.16374044059E+04  0.50400000000E-02 0. -1.
         -1   -1    0    0    0  501 -0.00000000000E+00 -0.00000000000E+00 -0.83717140764E+03  0.83717140765E+03  0.50400000000E-02 0.  1.
    8880022    1    1    2    0    0  0.70712738350E+03  0.34562867978E+03  0.13017372458E+04  0.15288557260E+04  0.15294330000E+03 0.  0.
    8880022    1    1    2    0    0 -0.70712738350E+03 -0.34562867978E+03 -0.50150424751E+03  0.94572008759E+03  0.15294330000E+03 0.  0.
<mgrwt>
<rscale>  0 0.80179796E+03</rscale>
<asrwt>0</asrwt>
<pdfrwt beam="1">  1        1 0.25190837E+00 0.80179796E+03</pdfrwt>
<pdfrwt beam="2">  1       -1 0.12879560E+00 0.80179796E+03</pdfrwt>
<totfact> 0.28329208E+00</totfact>
</mgrwt>
</event>
<event>
 4    1  0.4964158E-009  0.1293991E+04  0.7818608E-02  0.9034344E-01
          1   -1    0    0  501    0  0.00000000000E+00  0.00000000000E+00  0.17367639513E+04  0.17367639513E+04  0.50400000000E-02 0. -1.
         -1   -1    0    0    0  501 -0.00000000000E+00 -0.00000000000E+00 -0.11936952777E+04  0.11936952777E+04  0.50400000000E-02 0.  1.
    8880022    1    1    2    0    0  0.80791137350E+03 -0.99914951268E+03  0.91413545957E+03  0.15843155707E+04  0.15294330000E+03 0.  0.
    8880022    1    1    2    0    0 -0.80791137350E+03  0.99914951268E+03 -0.37106678600E+03  0.13461436583E+04  0.15294330000E+03 0.  0.
<mgrwt>
<rscale>  0 0.12939908E+04</rscale>
<asrwt>0</asrwt>
<pdfrwt beam="1">  1        1 0.26719445E+00 0.12939908E+04</pdfrwt>
<pdfrwt beam="2">  1       -1 0.18364543E+00 0.12939908E+04</pdfrwt>
<totfact> 0.85442149E-01</totfact>
</mgrwt>
</event>
<event>
 4    1  0.4964158E-009  0.5890923E+03  0.7818608E-02  0.9928298E-01
         -1   -1    0    0    0  501 -0.00000000000E+00  0.00000000000E+00  0.37530913612E+03  0.37530913616E+03  0.50400000000E-02 0.  1.
          1   -1    0    0  501    0  0.00000000000E+00 -0.00000000000E+00 -0.13869257933E+04  0.13869257933E+04  0.50400000000E-02 0. -1.
    8880022    1    1    2    0    0 -0.56502495513E+03  0.66218869483E+02 -0.10145033935E+04  0.11731355109E+04  0.15294330000E+03 0.  0.
    8880022    1    1    2    0    0  0.56502495513E+03 -0.66218869483E+02  0.28867363552E+01  0.58909941849E+03  0.15294330000E+03 0.  0.
<mgrwt>
<rscale>  0 0.58909235E+03</rscale>
<asrwt>0</asrwt>
<pdfrwt beam="1">  1        1 0.21337320E+00 0.58909235E+03</pdfrwt>
<pdfrwt beam="2">  1       -1 0.57739868E-01 0.58909235E+03</pdfrwt>
<totfact> 0.25168922E+01</totfact>
</mgrwt>
</event>
<event>
 4    1  0.4964158E-009  0.4087518E+03  0.7818608E-02  0.1040791E+00
          1   -1    0    0  501    0  0.00000000000E+00  0.00000000000E+00  0.11009391092E+04  0.11009391092E+04  0.50400000000E-02 0. -1.
         -1   -1    0    0    0  501 -0.00000000000E+00 -0.00000000000E+00 -0.23201154434E+03  0.23201154439E+03  0.50400000000E-02 0.  1.
    8880022    1    1    2    0    0  0.26411976206E+03 -0.27189537596E+03  0.42489782090E+02  0.41095422954E+03  0.15294330000E+03 0.  0.
    8880022    1    1    2    0    0 -0.26411976206E+03  0.27189537596E+03  0.82643778281E+03  0.92199642410E+03  0.15294330000E+03 0. -1.
<mgrwt>
<rscale>  0 0.40875175E+03</rscale>
<asrwt>0</asrwt>
<pdfrwt beam="1">  1        1 0.16937525E+00 0.40875175E+03</pdfrwt>
<pdfrwt beam="2">  1       -1 0.35694083E-01 0.40875175E+03</pdfrwt>
<totfact> 0.10045625E+02</totfact>
</mgrwt>
</event>
<event>
 4    1  0.4964158E-009  0.9602445E+03  0.7818608E-02  0.9353256E-01
          1   -1    0    0  501    0  0.00000000000E+00  0.00000000000E+00  0.31054484662E+04  0.31054484662E+04  0.50400000000E-02 0. -1.
         -1   -1    0    0    0  501 -0.00000000000E+00 -0.00000000000E+00 -0.56902103730E+03  0.56902103732E+03  0.50400000000E-02 0.  1.
    8880022    1    1    2    0    0  0.72377495519E+03  0.61223165358E+03 -0.22599633914E+01  0.96024712645E+03  0.15294330000E+03 0.  0.
    8880022    1    1    2    0    0 -0.72377495519E+03 -0.61223165358E+03  0.25386873923E+04  0.27142223770E+04  0.15294330000E+03 0.  0.
<mgrwt>
<rscale>  0 0.96024447E+03</rscale>
<asrwt>0</asrwt>
<pdfrwt beam="1">  1        1 0.47776129E+00 0.96024447E+03</pdfrwt>
<pdfrwt beam="2">  1       -1 0.87541700E-01 0.96024447E+03</pdfrwt>
<totfact> 0.66609074E-01</totfact>
</mgrwt>
</event>
<event>
 4    1  0.4964158E-009  0.7299347E+03  0.7818608E-02  0.9667366E-01
          1   -1    0    0  501    0  0.00000000000E+00  0.00000000000E+00  0.16796352612E+04  0.16796352612E+04  0.50400000000E-02 0. -1.
         -1   -1    0    0    0  501 -0.00000000000E+00 -0.00000000000E+00 -0.54622316779E+03  0.54622316781E+03  0.50400000000E-02 0.  1.
    8880022    1    1    2    0    0  0.70490294840E+03 -0.11191441960E+03  0.12873295890E+04  0.14798723350E+04  0.15294330000E+03 0.  0.
    8880022    1    1    2    0    0 -0.70490294840E+03  0.11191441960E+03 -0.15391749566E+03  0.74598609402E+03  0.15294330000E+03 0.  0.
<mgrwt>
<rscale>  0 0.72993469E+03</rscale>
<asrwt>0</asrwt>
<pdfrwt beam="1">  1        1 0.25840542E+00 0.72993469E+03</pdfrwt>
<pdfrwt beam="2">  1       -1 0.84034334E-01 0.72993469E+03</pdfrwt>
<totfact> 0.72251526E+00</totfact>
</mgrwt>
</event>
<event>
 4    1  0.4964158E-009  0.9256576E+03  0.7818608E-02  0.9394065E-01
         -1   -1    0    0    0  501 -0.00000000000E+00  0.00000000000E+00  0.12641298750E+04  0.12641298750E+04  0.50400000000E-02 0.  1.
          1   -1    0    0  501    0  0.00000000000E+00 -0.00000000000E+00 -0.91077123729E+03  0.91077123730E+03  0.50400000000E-02 0. -1.
    8880022    1    1    2    0    0  0.82026572928E+03  0.40076730592E+03  0.72665712308E+03  0.11768060705E+04  0.15294330000E+03 0.  0.
    8880022    1    1    2    0    0 -0.82026572928E+03 -0.40076730592E+03 -0.37329848540E+03  0.99809504174E+03  0.15294330000E+03 0.  0.
<mgrwt>
<rscale>  0 0.92565758E+03</rscale>
<asrwt>0</asrwt>
<pdfrwt beam="1">  1        1 0.14011865E+00 0.92565758E+03</pdfrwt>
<pdfrwt beam="2">  1       -1 0.19448152E+00 0.92565758E+03</pdfrwt>
<totfact> 0.29702775E+00</totfact>
</mgrwt>
</event>
<event>
 4    1  0.4964158E-009  0.5534435E+03  0.7818608E-02  0.1000700E+00
          1   -1    0    0  501    0  0.00000000000E+00  0.00000000000E+00  0.21180417477E+04  0.21180417477E+04  0.50400000000E-02 0. -1.
         -1   -1    0    0    0  501 -0.00000000000E+00 -0.00000000000E+00 -0.59029777014E+03  0.59029777016E+03  0.50400000000E-02 0.  1.
    8880022    1    1    2    0    0 -0.41667110756E+03 -0.33059529793E+03  0.19405311138E+04  0.20179099880E+04  0.15294330000E+03 0. -1.
    8880022    1    1    2    0    0  0.41667110756E+03  0.33059529793E+03 -0.41278713624E+03  0.69042952990E+03  0.15294330000E+03 0.  0.
<mgrwt>
<rscale>  0 0.55344351E+03</rscale>
<asrwt>0</asrwt>
<pdfrwt beam="1">  1        1 0.32585258E+00 0.55344351E+03</pdfrwt>
<pdfrwt beam="2">  1       -1 0.90815040E-01 0.55344351E+03</pdfrwt>
<totfact> 0.32304896E+00</totfact>
</mgrwt>
</event>
<event>
 4    1  0.4964158E-009  0.2721981E+03  0.7818608E-02  0.1100028E+00
         -1   -1    0    0    0  501 -0.00000000000E+00  0.00000000000E+00  0.99231288897E+03  0.99231288899E+03  0.50400000000E-02 0.  1.
          1   -1    0    0  501    0  0.00000000000E+00 -0.00000000000E+00 -0.43276750903E+04  0.43276750903E+04  0.50400000000E-02 0. -1.
    8880022    1    1    2    0    0  0.20384867500E+03 -0.95634068368E+02  0.96926649119E+03  0.10067618096E+04  0.15294330000E+03 0.  1.
    8880022    1    1    2    0    0 -0.20384867500E+03  0.95634068368E+02 -0.43046286925E+04  0.43132261697E+04  0.15294330000E+03 0.  0.
<mgrwt>
<rscale>  0 0.27219811E+03</rscale>
<asrwt>0</asrwt>
<pdfrwt beam="1">  1        1 0.66579616E+00 0.27219811E+03</pdfrwt>
<pdfrwt beam="2">  1       -1 0.15266352E+00 0.27219811E+03</pdfrwt>
<totfact> 0.23732956E-02</totfact>
</mgrwt>
</event>
<event>
 4    1  0.4964158E-009  0.8018521E+03  0.7818608E-02  0.9557340E-01
          1   -1    0    0  501    0  0.00000000000E+00  0.00000000000E+00  0.27550260541E+04  0.27550260541E+04  0.50400000000E-02 0. -1.
         -1   -1    0    0    0  501 -0.00000000000E+00 -0.00000000000E+00 -0.54941465108E+03  0.54941465110E+03  0.50400000000E-02 0.  1.
    8880022    1    1    2    0    0  0.73262892450E+03  0.28780203080E+03 -0.15029361890E+03  0.81581552746E+03  0.15294330000E+03 0.  0.
    8880022    1    1    2    0    0 -0.73262892450E+03 -0.28780203080E+03  0.23559050219E+04  0.24886251777E+04  0.15294330000E+03 0.  0.
<mgrwt>
<rscale>  0 0.80185211E+03</rscale>
<asrwt>0</asrwt>
<pdfrwt beam="1">  1        1 0.42385016E+00 0.80185211E+03</pdfrwt>
<pdfrwt beam="2">  1       -1 0.84525332E-01 0.80185211E+03</pdfrwt>
<totfact> 0.13180483E+00</totfact>
</mgrwt>
</event>
<event>
 4    1  0.4964158E-009  0.7831995E+03  0.7818608E-02  0.9584659E-01
         -1   -1    0    0    0  501 -0.00000000000E+00  0.00000000000E+00  0.13128463807E+04  0.13128463807E+04  0.50400000000E-02 0.  1.
          1   -1    0    0  501    0  0.00000000000E+00 -0.00000000000E+00 -0.30926234304E+04  0.30926234304E+04  0.50400000000E-02 0. -1.
    8880022    1    1    2    0    0  0.74658169571E+03  0.18062561820E+03 -0.29194204735E+04  0.30226507236E+04  0.15294330000E+03 0.  0.
    8880022    1    1    2    0    0 -0.74658169571E+03 -0.18062561820E+03  0.11396434239E+04  0.13828190876E+04  0.15294330000E+03 0.  0.
<mgrwt>
<rscale>  0 0.78319952E+03</rscale>
<asrwt>0</asrwt>
<pdfrwt beam="1">  1        1 0.47578822E+00 0.78319952E+03</pdfrwt>
<pdfrwt beam="2">  1       -1 0.20197637E+00 0.78319952E+03</pdfrwt>
<totfact> 0.81034493E-02</totfact>
</mgrwt>
</event>
<event>
 4    1  0.4964158E-009  0.9765955E+03  0.7818608E-02  0.9334594E-01
          1   -1    0    0  501    0  0.00000000000E+00  0.00000000000E+00  0.68462422517E+03  0.68462422519E+03  0.50400000000E-02 0. -1.
         -1   -1    0    0    0  501 -0.00000000000E+00 -0.00000000000E+00 -0.29822620916E+04  0.29822620916E+04  0.50400000000E-02 0.  1.
    8880022    1    1    2    0    0 -0.45182772155E+02 -0.96348617672E+03  0.18956554642E+03  0.99482352457E+03  0.15294330000E+03 0.  0.
    8880022    1    1    2    0    0  0.45182772155E+02  0.96348617672E+03 -0.24872034129E+04  0.26720627922E+04  0.15294330000E+03 0.  0.
<mgrwt>
<rscale>  0 0.97659549E+03</rscale>
<asrwt>0</asrwt>
<pdfrwt beam="1">  1        1 0.10532681E+00 0.97659549E+03</pdfrwt>
<pdfrwt beam="2">  1       -1 0.45880954E+00 0.97659549E+03</pdfrwt>
<totfact> 0.81697163E-02</totfact>
</mgrwt>
</event>
<event>
 4    1  0.4964158E-009  0.2422597E+03  0.7818608E-02  0.1118297E+00
          1   -1    0    0  501    0  0.00000000000E+00  0.00000000000E+00  0.10026866005E+04  0.10026866005E+04  0.50400000000E-02 0. -1.
         -1   -1    0    0    0  501 -0.00000000000E+00 -0.00000000000E+00 -0.28333327803E+03  0.28333327807E+03  0.50400000000E-02 0.  1.
    8880022    1    1    2    0    0  0.94379024211E+02  0.16245220221E+03  0.93243019955E+03  0.96338769364E+03  0.15294330000E+03 0.  0.
    8880022    1    1    2    0    0 -0.94379024211E+02 -0.16245220221E+03 -0.21307687706E+03  0.32263218495E+03  0.15294330000E+03 0.  0.
<mgrwt>
<rscale>  0 0.24225972E+03</rscale>
<asrwt>0</asrwt>
<pdfrwt beam="1">  1        1 0.15425948E+00 0.24225972E+03</pdfrwt>
<pdfrwt beam="2">  1       -1 0.43589735E-01 0.24225972E+03</pdfrwt>
<totfact> 0.85948106E+01</totfact>
</mgrwt>
</event>
<event>
 4    1  0.4964158E-009  0.7832986E+03  0.7818608E-02  0.9584511E-01
         -1   -1    0    0    0  501 -0.00000000000E+00  0.00000000000E+00  0.11104106571E+04  0.11104106571E+04  0.50400000000E-02 0.  1.
          1   -1    0    0  501    0  0.00000000000E+00 -0.00000000000E+00 -0.14468518969E+04  0.14468518969E+04  0.50400000000E-02 0. -1.
    8880022    1    1    2    0    0 -0.57837433966E+03 -0.50561664549E+03  0.83703268766E+03  0.11463770942E+04  0.15294330000E+03 0.  1.
    8880022    1    1    2    0    0  0.57837433966E+03  0.50561664549E+03 -0.11734739275E+04  0.14108854597E+04  0.15294330000E+03 0.  0.
<mgrwt>
<rscale>  0 0.78329862E+03</rscale>
<asrwt>0</asrwt>
<pdfrwt beam="1">  1        1 0.22259260E+00 0.78329862E+03</pdfrwt>
<pdfrwt beam="2">  1       -1 0.17083241E+00 0.78329862E+03</pdfrwt>
<totfact> 0.17991327E+00</totfact>
</mgrwt>
</event>
<event>
 4    1  0.4964158E-009  0.8179214E+03  0.7818608E-02  0.9534433E-01
         -1   -1    0    0    0  501 -0.00000000000E+00  0.00000000000E+00  0.89293986809E+03  0.89293986811E+03  0.50400000000E-02 0.  1.
          1   -1    0    0  501    0  0.00000000000E+00 -0.00000000000E+00 -0.89309617751E+03  0.89309617752E+03  0.50400000000E-02 0. -1.
    8880022    1    1    2    0    0 -0.73936200923E+03  0.31455942033E+03 -0.35852720455E+03  0.89304939338E+03  0.15294330000E+03 0.  0.
    8880022    1    1    2    0    0  0.73936200923E+03 -0.31455942033E+03  0.35837089513E+03  0.89298665225E+03  0.15294330000E+03 0.  0.
<mgrwt>
<rscale>  0 0.81792143E+03</rscale>
<asrwt>0</asrwt>
<pdfrwt beam="1">  1        1 0.13739941E+00 0.81792143E+03</pdfrwt>
<pdfrwt beam="2">  1       -1 0.13737536E+00 0.81792143E+03</pdfrwt>
<totfact> 0.83088426E+00</totfact>
</mgrwt>
</event>
<event>
 4    1  0.4964158E-009  0.5191409E+03  0.7818608E-02  0.1008900E+00
          1   -1    0    0  501    0  0.00000000000E+00  0.00000000000E+00  0.41377835009E+04  0.41377835009E+04  0.50400000000E-02 0. -1.
         -1   -1    0    0    0  501 -0.00000000000E+00 -0.00000000000E+00 -0.74205015457E+02  0.74205015628E+02  0.50400000000E-02 0.  1.
    8880022    1    1    2    0    0 -0.33896447276E+03  0.36224125739E+03  0.12954356430E+04  0.13955861853E+04  0.15294330000E+03 0.  0.
    8880022    1    1    2    0    0  0.33896447276E+03 -0.36224125739E+03  0.27681428424E+04  0.28164023312E+04  0.15294330000E+03 0.  0.
<mgrwt>
<rscale>  0 0.51914092E+03</rscale>
<asrwt>0</asrwt>
<pdfrwt beam="1">  1        1 0.63658210E+00 0.51914092E+03</pdfrwt>
<pdfrwt beam="2">  1       -1 0.11416156E-01 0.51914092E+03</pdfrwt>
<totfact> 0.42982783E+00</totfact>
</mgrwt>
</event>
<event>
 4    1  0.4964158E-009  0.5772203E+03  0.7818608E-02  0.9953827E-01
          1   -1    0    0  501    0  0.00000000000E+00  0.00000000000E+00  0.41517201241E+03  0.41517201244E+03  0.50400000000E-02 0. -1.
         -1   -1    0    0    0  501 -0.00000000000E+00 -0.00000000000E+00 -0.29771136421E+04  0.29771136421E+04  0.50400000000E-02 0.  1.
    8880022    1    1    2    0    0 -0.55373365335E+03 -0.56308337688E+02  0.16864832880E+03  0.60135305733E+03  0.15294330000E+03 0.  0.
    8880022    1    1    2    0    0  0.55373365335E+03  0.56308337688E+02 -0.27305899584E+04  0.27909325972E+04  0.15294330000E+03 0.  0.
<mgrwt>
<rscale>  0 0.57722027E+03</rscale>
<asrwt>0</asrwt>
<pdfrwt beam="1">  1        1 0.63872619E-01 0.57722027E+03</pdfrwt>
<pdfrwt beam="2">  1       -1 0.45801747E+00 0.57722027E+03</pdfrwt>
<totfact> 0.18238187E-01</totfact>
</mgrwt>
</event>
<event>
 4    1  0.4964158E-009  0.4440052E+03  0.7818608E-02  0.1029525E+00
          1   -1    0    0  501    0  0.00000000000E+00  0.00000000000E+00  0.10598853315E+04  0.10598853315E+04  0.50400000000E-02 0. -1.
         -1   -1    0    0    0  501 -0.00000000000E+00 -0.00000000000E+00 -0.52885020188E+03  0.52885020191E+03  0.50400000000E-02 0.  1.
    8880022    1    1    2    0    0 -0.38221499759E+03  0.16631504635E+03  0.90511438724E+03  0.10081531164E+04  0.15294330000E+03 0.  0.
    8880022    1    1    2    0    0  0.38221499759E+03 -0.16631504635E+03 -0.37407925761E+03  0.58058241707E+03  0.15294330000E+03 0.  1.
<mgrwt>
<rscale>  0 0.44400524E+03</rscale>
<asrwt>0</asrwt>
<pdfrwt beam="1">  1        1 0.16305928E+00 0.44400524E+03</pdfrwt>
<pdfrwt beam="2">  1       -1 0.81361570E-01 0.44400524E+03</pdfrwt>
<totfact> 0.22102639E+01</totfact>
</mgrwt>
</event>
<event>
 4    1  0.4964158E-009  0.1175105E+04  0.7818608E-02  0.9134930E-01
         -1   -1    0    0    0  501 -0.00000000000E+00  0.00000000000E+00  0.16246041292E+04  0.16246041292E+04  0.50400000000E-02 0.  1.
          1   -1    0    0  501    0  0.00000000000E+00 -0.00000000000E+00 -0.14781489863E+04  0.14781489863E+04  0.50400000000E-02 0. -1.
    8880022    1    1    2    0    0  0.93305629305E+03  0.69777241176E+03 -0.93811497005E+03  0.15036394962E+04  0.15294330000E+03 0.  0.
    8880022    1    1    2    0    0 -0.93305629305E+03 -0.69777241176E+03  0.10845701129E+04  0.15991136193E+04  0.15294330000E+03 0.  0.
<mgrwt>
<rscale>  0 0.11751051E+04</rscale>
<asrwt>0</asrwt>
<pdfrwt beam="1">  1        1 0.22740754E+00 0.11751051E+04</pdfrwt>
<pdfrwt beam="2">  1       -1 0.24993910E+00 0.11751051E+04</pdfrwt>
<totfact> 0.46536849E-01</totfact>
</mgrwt>
</event>
<event>
 4    1  0.4964158E-009  0.5907542E+03  0.7818608E-02  0.9924776E-01
         -1   -1    0    0    0  501 -0.00000000000E+00  0.00000000000E+00  0.89195469498E+03  0.89195469499E+03  0.50400000000E-02 0.  1.
          1   -1    0    0  501    0  0.00000000000E+00 -0.00000000000E+00 -0.31498994958E+04  0.31498994958E+04  0.50400000000E-02 0. -1.
    8880022    1    1    2    0    0 -0.57045420098E+03 -0.13449819710E+02  0.76227955057E+03  0.96439652596E+03  0.15294330000E+03 0.  0.
    8880022    1    1    2    0    0  0.57045420098E+03  0.13449819710E+02 -0.30202243514E+04  0.30774576648E+04  0.15294330000E+03 0.  0.
<mgrwt>
<rscale>  0 0.59075422E+03</rscale>
<asrwt>0</asrwt>
<pdfrwt beam="1">  1        1 0.48459991E+00 0.59075422E+03</pdfrwt>
<pdfrwt beam="2">  1       -1 0.13722380E+00 0.59075422E+03</pdfrwt>
<totfact> 0.23404425E-01</totfact>
</mgrwt>
</event>
<event>
 4    1  0.4964158E-009  0.9675705E+03  0.7818608E-02  0.9344846E-01
         -1   -1    0    0    0  501 -0.00000000000E+00  0.00000000000E+00  0.23483666734E+04  0.23483666734E+04  0.50400000000E-02 0.  1.
          1   -1    0    0  501    0  0.00000000000E+00 -0.00000000000E+00 -0.11705461798E+04  0.11705461798E+04  0.50400000000E-02 0. -1.
    8880022    1    1    2    0    0 -0.86405038094E+03 -0.40769846550E+03  0.20176782761E+04  0.22376814739E+04  0.15294330000E+03 0.  0.
    8880022    1    1    2    0    0  0.86405038094E+03  0.40769846550E+03 -0.83985778252E+03  0.12812313794E+04  0.15294330000E+03 0.  0.
<mgrwt>
<rscale>  0 0.96757054E+03</rscale>
<asrwt>0</asrwt>
<pdfrwt beam="1">  1        1 0.18008403E+00 0.96757054E+03</pdfrwt>
<pdfrwt beam="2">  1       -1 0.36128718E+00 0.96757054E+03</pdfrwt>
<totfact> 0.15104790E-01</totfact>
</mgrwt>
</event>
<event>
 4    1  0.4964158E-009  0.1452250E+04  0.7818608E-02  0.8916842E-01
         -1   -1    0    0    0  501 -0.00000000000E+00  0.00000000000E+00  0.22727697804E+04  0.22727697804E+04  0.50400000000E-02 0.  1.
          1   -1    0    0  501    0  0.00000000000E+00 -0.00000000000E+00 -0.13714283605E+04  0.13714283605E+04  0.50400000000E-02 0. -1.
    8880022    1    1    2    0    0 -0.84625221412E+03  0.11702550290E+04 -0.58546943210E+03  0.15658243042E+04  0.15294330000E+03 0.  0.
    8880022    1    1    2    0    0  0.84625221412E+03 -0.11702550290E+04  0.14868108520E+04  0.20783738367E+04  0.15294330000E+03 0.  0.
<mgrwt>
<rscale>  0 0.14522504E+04</rscale>
<asrwt>0</asrwt>
<pdfrwt beam="1">  1        1 0.21098898E+00 0.14522504E+04</pdfrwt>
<pdfrwt beam="2">  1       -1 0.34965689E+00 0.14522504E+04</pdfrwt>
<totfact> 0.11983326E-01</totfact>
</mgrwt>
</event>
<event>
 4    1  0.4964158E-009  0.5565880E+03  0.7818608E-02  0.9999805E-01
         -1   -1    0    0    0  501 -0.00000000000E+00  0.00000000000E+00  0.74687795994E+03  0.74687795996E+03  0.50400000000E-02 0.  1.
          1   -1    0    0  501    0  0.00000000000E+00 -0.00000000000E+00 -0.18558466265E+04  0.18558466265E+04  0.50400000000E-02 0. -1.
    8880022    1    1    2    0    0  0.24904639849E+03 -0.47368175204E+03 -0.17012354808E+04  0.17899699229E+04  0.15294330000E+03 0.  0.
    8880022    1    1    2    0    0 -0.24904639849E+03  0.47368175204E+03  0.59226681425E+03  0.81275466354E+03  0.15294330000E+03 0.  0.
<mgrwt>
<rscale>  0 0.55658797E+03</rscale>
<asrwt>0</asrwt>
<pdfrwt beam="1">  1        1 0.28551486E+00 0.55658797E+03</pdfrwt>
<pdfrwt beam="2">  1       -1 0.11490430E+00 0.55658797E+03</pdfrwt>
<totfact> 0.28145373E+00</totfact>
</mgrwt>
</event>
<event>
 4    1  0.4964158E-009  0.3378315E+03  0.7818608E-02  0.1067723E+00
         -1   -1    0    0    0  501 -0.00000000000E+00  0.00000000000E+00  0.19736407188E+03  0.19736407195E+03  0.50400000000E-02 0.  1.
          1   -1    0    0  501    0  0.00000000000E+00 -0.00000000000E+00 -0.74265418751E+03  0.74265418753E+03  0.50400000000E-02 0. -1.
    8880022    1    1    2    0    0 -0.26635556950E+03  0.14068833854E+03 -0.49377121790E+03  0.59828100976E+03  0.15294330000E+03 0.  0.
    8880022    1    1    2    0    0  0.26635556950E+03 -0.14068833854E+03 -0.51518897731E+02  0.34173724971E+03  0.15294330000E+03 0.  0.
<mgrwt>
<rscale>  0 0.33783154E+03</rscale>
<asrwt>0</asrwt>
<pdfrwt beam="1">  1        1 0.11425449E+00 0.33783154E+03</pdfrwt>
<pdfrwt beam="2">  1       -1 0.30363704E-01 0.33783154E+03</pdfrwt>
<totfact> 0.25870625E+02</totfact>
</mgrwt>
</event>
<event>
 4    1  0.4964158E-009  0.2057133E+04  0.7818608E-02  0.8580365E-01
          1   -1    0    0  501    0  0.00000000000E+00  0.00000000000E+00  0.17068809874E+04  0.17068809874E+04  0.50400000000E-02 0. -1.
         -1   -1    0    0    0  501 -0.00000000000E+00 -0.00000000000E+00 -0.30254646709E+04  0.30254646709E+04  0.50400000000E-02 0.  1.
    8880022    1    1    2    0    0  0.30576473208E+03 -0.20285243885E+04 -0.16646706287E+04  0.26463036903E+04  0.15294330000E+03 0.  0.
    8880022    1    1    2    0    0 -0.30576473208E+03  0.20285243885E+04  0.34608694524E+03  0.20860419681E+04  0.15294330000E+03 0.  0.
<mgrwt>
<rscale>  0 0.20571327E+04</rscale>
<asrwt>0</asrwt>
<pdfrwt beam="1">  1        1 0.26259708E+00 0.20571327E+04</pdfrwt>
<pdfrwt beam="2">  1       -1 0.46545610E+00 0.20571327E+04</pdfrwt>
<totfact> 0.10528081E-02</totfact>
</mgrwt>
</event>
<event>
 4    1  0.4964158E-009  0.1584067E+04  0.7818608E-02  0.8830397E-01
         -1   -1    0    0    0  501 -0.00000000000E+00  0.00000000000E+00  0.11005045274E+04  0.11005045274E+04  0.50400000000E-02 0.  1.
          1   -1    0    0  501    0  0.00000000000E+00 -0.00000000000E+00 -0.24740502052E+04  0.24740502052E+04  0.50400000000E-02 0. -1.
    8880022    1    1    2    0    0  0.13825635988E+04 -0.75788723099E+03 -0.18636250295E+03  0.15949914718E+04  0.15294330000E+03 0.  0.
    8880022    1    1    2    0    0 -0.13825635988E+04  0.75788723099E+03 -0.11871831749E+04  0.19795632607E+04  0.15294330000E+03 0.  0.
<mgrwt>
<rscale>  0 0.15840665E+04</rscale>
<asrwt>0</asrwt>
<pdfrwt beam="1">  1        1 0.38062311E+00 0.15840665E+04</pdfrwt>
<pdfrwt beam="2">  1       -1 0.16930839E+00 0.15840665E+04</pdfrwt>
<totfact> 0.33010138E-01</totfact>
</mgrwt>
</event>
<event>
 4    1  0.4964158E-009  0.1088219E+04  0.7818608E-02  0.9216751E-01
          1   -1    0    0  501    0  0.00000000000E+00  0.00000000000E+00  0.24891508144E+04  0.24891508144E+04  0.50400000000E-02 0. -1.
         -1   -1    0    0    0  501 -0.00000000000E+00 -0.00000000000E+00 -0.81205822160E+03  0.81205822162E+03  0.50400000000E-02 0.  1.
    8880022    1    1    2    0    0 -0.57619346262E+03  0.91040092598E+03  0.19007709982E+04  0.21902398940E+04  0.15294330000E+03 0.  0.
    8880022    1    1    2    0    0  0.57619346262E+03 -0.91040092598E+03 -0.22367840549E+03  0.11109691420E+04  0.15294330000E+03 0.  0.
<mgrwt>
<rscale>  0 0.10882189E+04</rscale>
<asrwt>0</asrwt>
<pdfrwt beam="1">  1        1 0.38294627E+00 0.10882189E+04</pdfrwt>
<pdfrwt beam="2">  1       -1 0.12493204E+00 0.10882189E+04</pdfrwt>
<totfact> 0.77564104E-01</totfact>
</mgrwt>
</event>
<event>
 4    1  0.4964158E-009  0.4945794E+03  0.7818608E-02  0.1015204E+00
         -1   -1    0    0    0  501 -0.00000000000E+00  0.00000000000E+00  0.42638912834E+03  0.42638912837E+03  0.50400000000E-02 0.  1.
          1   -1    0    0  501    0  0.00000000000E+00 -0.00000000000E+00 -0.21184301080E+04  0.21184301080E+04  0.50400000000E-02 0. -1.
    8880022    1    1    2    0    0  0.25912084576E+03 -0.39252203885E+03  0.24052942513E+03  0.54996656358E+03  0.15294330000E+03 0.  0.
    8880022    1    1    2    0    0 -0.25912084576E+03  0.39252203885E+03 -0.19325704048E+04  0.19948526728E+04  0.15294330000E+03 0.  0.
<mgrwt>
<rscale>  0 0.49457943E+03</rscale>
<asrwt>0</asrwt>
<pdfrwt beam="1">  1        1 0.32591232E+00 0.49457943E+03</pdfrwt>
<pdfrwt beam="2">  1       -1 0.65598329E-01 0.49457943E+03</pdfrwt>
<totfact> 0.64697648E+00</totfact>
</mgrwt>
</event>
<event>
 4    1  0.4964158E-009  0.8897745E+03  0.7818608E-02  0.9438455E-01
         -1   -1    0    0    0  501 -0.00000000000E+00  0.00000000000E+00  0.63597510515E+03  0.63597510517E+03  0.50400000000E-02 0.  1.
          1   -1    0    0  501    0  0.00000000000E+00 -0.00000000000E+00 -0.21990817463E+04  0.21990817463E+04  0.50400000000E-02 0. -1.
    8880022    1    1    2    0    0 -0.67452179955E+03 -0.55975653355E+03 -0.17153153357E+04  0.19323574692E+04  0.15294330000E+03 0.  0.
    8880022    1    1    2    0    0  0.67452179955E+03  0.55975653355E+03  0.15220869459E+03  0.90269938221E+03  0.15294330000E+03 0.  0.
<mgrwt>
<rscale>  0 0.88977452E+03</rscale>
<asrwt>0</asrwt>
<pdfrwt beam="1">  1        1 0.33832026E+00 0.88977452E+03</pdfrwt>
<pdfrwt beam="2">  1       -1 0.97842325E-01 0.88977452E+03</pdfrwt>
<totfact> 0.22537127E+00</totfact>
</mgrwt>
</event>
<event>
 4    1  0.4964158E-009  0.6896871E+03  0.7818608E-02  0.9735033E-01
          1   -1    0    0  501    0  0.00000000000E+00  0.00000000000E+00  0.11189735022E+04  0.11189735022E+04  0.50400000000E-02 0. -1.
         -1   -1    0    0    0  501 -0.00000000000E+00 -0.00000000000E+00 -0.72379845186E+03  0.72379845188E+03  0.50400000000E-02 0.  1.
    8880022    1    1    2    0    0  0.24057492761E+03 -0.62801306907E+03 -0.39432016665E+03  0.79445374791E+03  0.15294330000E+03 0.  0.
    8880022    1    1    2    0    0 -0.24057492761E+03  0.62801306907E+03  0.78949521697E+03  0.10483182062E+04  0.15294330000E+03 0.  0.
<mgrwt>
<rscale>  0 0.68968715E+03</rscale>
<asrwt>0</asrwt>
<pdfrwt beam="1">  1        1 0.17214977E+00 0.68968715E+03</pdfrwt>
<pdfrwt beam="2">  1       -1 0.11135361E+00 0.68968715E+03</pdfrwt>
<totfact> 0.94904341E+00</totfact>
</mgrwt>
</event>
<event>
 4    1  0.4964158E-009  0.8935088E+03  0.7818608E-02  0.9433732E-01
         -1   -1    0    0    0  501 -0.00000000000E+00  0.00000000000E+00  0.49116873488E+03  0.49116873491E+03  0.50400000000E-02 0.  1.
          1   -1    0    0  501    0  0.00000000000E+00 -0.00000000000E+00 -0.23690300747E+04  0.23690300747E+04  0.50400000000E-02 0. -1.
    8880022    1    1    2    0    0 -0.30324604276E+02  0.87979922099E+03 -0.13771002099E+03  0.90405860085E+03  0.15294330000E+03 0.  0.
    8880022    1    1    2    0    0  0.30324604276E+02 -0.87979922099E+03 -0.17401513188E+04  0.19561402087E+04  0.15294330000E+03 0.  0.
<mgrwt>
<rscale>  0 0.89350876E+03</rscale>
<asrwt>0</asrwt>
<pdfrwt beam="1">  1        1 0.36446616E+00 0.89350876E+03</pdfrwt>
<pdfrwt beam="2">  1       -1 0.75564422E-01 0.89350876E+03</pdfrwt>
<totfact> 0.30338073E+00</totfact>
</mgrwt>
</event>
<event>
 4    1  0.4964158E-009  0.4665446E+03  0.7818608E-02  0.1022900E+00
          1   -1    0    0  501    0  0.00000000000E+00  0.00000000000E+00  0.40062344144E+04  0.40062344144E+04  0.50400000000E-02 0. -1.
         -1   -1    0    0    0  501 -0.00000000000E+00 -0.00000000000E+00 -0.59688230639E+03  0.59688230641E+03  0.50400000000E-02 0.  1.
    8880022    1    1    2    0    0  0.44075044413E+03  0.33567859927E+01  0.38989857935E+04  0.39267994720E+04  0.15294330000E+03 0.  0.
    8880022    1    1    2    0    0 -0.44075044413E+03 -0.33567859927E+01 -0.48963368554E+03  0.67631724881E+03  0.15294330000E+03 0.  1.
<mgrwt>
<rscale>  0 0.46654461E+03</rscale>
<asrwt>0</asrwt>
<pdfrwt beam="1">  1        1 0.61634373E+00 0.46654461E+03</pdfrwt>
<pdfrwt beam="2">  1       -1 0.91828051E-01 0.46654461E+03</pdfrwt>
<totfact> 0.13589960E-01</totfact>
</mgrwt>
</event>
<event>
 4    1  0.4964158E-009  0.6002544E+03  0.7818608E-02  0.9904878E-01
         -1   -1    0    0    0  501 -0.00000000000E+00  0.00000000000E+00  0.94708970958E+03  0.94708970960E+03  0.50400000000E-02 0.  1.
          1   -1    0    0  501    0  0.00000000000E+00 -0.00000000000E+00 -0.76707803329E+03  0.76707803331E+03  0.50400000000E-02 0. -1.
    8880022    1    1    2    0    0 -0.21282122255E+03  0.54001927247E+03 -0.51849205526E+03  0.79318305062E+03  0.15294330000E+03 0.  0.
    8880022    1    1    2    0    0  0.21282122255E+03 -0.54001927247E+03  0.69850373155E+03  0.92098469228E+03  0.15294330000E+03 0.  0.
<mgrwt>
<rscale>  0 0.60025440E+03</rscale>
<asrwt>0</asrwt>
<pdfrwt beam="1">  1        1 0.11801200E+00 0.60025440E+03</pdfrwt>
<pdfrwt beam="2">  1       -1 0.14570611E+00 0.60025440E+03</pdfrwt>
<totfact> 0.94068992E+00</totfact>
</mgrwt>
</event>
<event>
 4    1  0.4964158E-009  0.5697675E+03  0.7818608E-02  0.9970193E-01
          1   -1    0    0  501    0  0.00000000000E+00  0.00000000000E+00  0.20187626185E+04  0.20187626185E+04  0.50400000000E-02 0. -1.
         -1   -1    0    0    0  501 -0.00000000000E+00 -0.00000000000E+00 -0.87436520382E+03  0.87436520384E+03  0.50400000000E-02 0.  1.
    8880022    1    1    2    0    0  0.48469711220E+03  0.25751117316E+03  0.18789872675E+04  0.19634734781E+04  0.15294330000E+03 0.  0.
    8880022    1    1    2    0    0 -0.48469711220E+03 -0.25751117316E+03 -0.73458985281E+03  0.92965434423E+03  0.15294330000E+03 0.  1.
<mgrwt>
<rscale>  0 0.56976745E+03</rscale>
<asrwt>0</asrwt>
<pdfrwt beam="1">  1        1 0.31057886E+00 0.56976745E+03</pdfrwt>
<pdfrwt beam="2">  1       -1 0.13451772E+00 0.56976745E+03</pdfrwt>
<totfact> 0.14841392E+00</totfact>
</mgrwt>
</event>
<event>
 4    1  0.4964158E-009  0.1567530E+04  0.7818608E-02  0.8840748E-01
          1   -1    0    0  501    0  0.00000000000E+00  0.00000000000E+00  0.89748185711E+03  0.89748185712E+03  0.50400000000E-02 0. -1.
         -1   -1    0    0    0  501 -0.00000000000E+00 -0.00000000000E+00 -0.36481916817E+04  0.36481916817E+04  0.50400000000E-02 0.  1.
    8880022    1    1    2    0    0  0.57911698268E+03  0.14485795532E+04 -0.23998622767E+03  0.15857945151E+04  0.15294330000E+03 0.  0.
    8880022    1    1    2    0    0 -0.57911698268E+03 -0.14485795532E+04 -0.25107235969E+04  0.29598790237E+04  0.15294330000E+03 0.  0.
<mgrwt>
<rscale>  0 0.15675302E+04</rscale>
<asrwt>0</asrwt>
<pdfrwt beam="1">  1        1 0.13807413E+00 0.15675302E+04</pdfrwt>
<pdfrwt beam="2">  1       -1 0.56126025E+00 0.15675302E+04</pdfrwt>
<totfact> 0.11084070E-02</totfact>
</mgrwt>
</event>
<event>
 4    1  0.4964158E-009  0.1469495E+04  0.7818608E-02  0.8904995E-01
         -1   -1    0    0    0  501 -0.00000000000E+00  0.00000000000E+00  0.17129686411E+04  0.17129686412E+04  0.50400000000E-02 0.  1.
          1   -1    0    0  501    0  0.00000000000E+00 -0.00000000000E+00 -0.19069321874E+04  0.19069321874E+04  0.50400000000E-02 0. -1.
    8880022    1    1    2    0    0 -0.87236433280E+03  0.11726061833E+04 -0.11506830246E+04  0.18664104228E+04  0.15294330000E+03 0.  0.
    8880022    1    1    2    0    0  0.87236433280E+03 -0.11726061833E+04  0.95671947827E+03  0.17534904058E+04  0.15294330000E+03 0.  0.
<mgrwt>
<rscale>  0 0.14694953E+04</rscale>
<asrwt>0</asrwt>
<pdfrwt beam="1">  1        1 0.29337418E+00 0.14694953E+04</pdfrwt>
<pdfrwt beam="2">  1       -1 0.26353364E+00 0.14694953E+04</pdfrwt>
<totfact> 0.18576583E-01</totfact>
</mgrwt>
</event>
<event>
 4    1  0.4964158E-009  0.6312381E+03  0.7818608E-02  0.9842636E-01
          1   -1    0    0  501    0  0.00000000000E+00  0.00000000000E+00  0.17087281550E+04  0.17087281550E+04  0.50400000000E-02 0. -1.
         -1   -1    0    0    0  501 -0.00000000000E+00 -0.00000000000E+00 -0.30704423962E+03  0.30704423966E+03  0.50400000000E-02 0.  1.
    8880022    1    1    2    0    0 -0.18860014430E+03  0.58266622753E+03  0.20653913620E+03  0.66416866452E+03  0.15294330000E+03 0.  1.
    8880022    1    1    2    0    0  0.18860014430E+03 -0.58266622753E+03  0.11951447792E+04  0.13516037301E+04  0.15294330000E+03 0.  0.
<mgrwt>
<rscale>  0 0.63123815E+03</rscale>
<asrwt>0</asrwt>
<pdfrwt beam="1">  1        1 0.26288125E+00 0.63123815E+03</pdfrwt>
<pdfrwt beam="2">  1       -1 0.47237576E-01 0.63123815E+03</pdfrwt>
<totfact> 0.22166628E+01</totfact>
</mgrwt>
</event>
<event>
 4    1  0.4964158E-009  0.7470447E+03  0.7818608E-02  0.9639998E-01
         -1   -1    0    0    0  501 -0.00000000000E+00  0.00000000000E+00  0.78111362482E+03  0.78111362483E+03  0.50400000000E-02 0.  1.
          1   -1    0    0  501    0  0.00000000000E+00 -0.00000000000E+00 -0.20649821646E+04  0.20649821646E+04  0.50400000000E-02 0. -1.
    8880022    1    1    2    0    0 -0.21606665980E+02  0.73090170249E+03 -0.17927663058E+04  0.19421860948E+04  0.15294330000E+03 0. -1.
    8880022    1    1    2    0    0  0.21606665980E+02 -0.73090170249E+03  0.50889776602E+03  0.90390969461E+03  0.15294330000E+03 0.  0.
<mgrwt>
<rscale>  0 0.74704471E+03</rscale>
<asrwt>0</asrwt>
<pdfrwt beam="1">  1        1 0.31768956E+00 0.74704471E+03</pdfrwt>
<pdfrwt beam="2">  1       -1 0.12017133E+00 0.74704471E+03</pdfrwt>
<totfact> 0.17554367E+00</totfact>
</mgrwt>
</event>
<event>
 4    1  0.4964158E-009  0.1581409E+04  0.7818608E-02  0.8832051E-01
          1   -1    0    0  501    0  0.00000000000E+00  0.00000000000E+00  0.34460946810E+04  0.34460946810E+04  0.50400000000E-02 0. -1.
         -1   -1    0    0    0  501 -0.00000000000E+00 -0.00000000000E+00 -0.82628513264E+03  0.82628513266E+03  0.50400000000E-02 0.  1.
    8880022    1    1    2    0    0 -0.70989250792E+03 -0.14048185471E+04  0.20551980624E+04  0.25932013519E+04  0.15294330000E+03 0.  0.
    8880022    1    1    2    0    0  0.70989250792E+03  0.14048185471E+04  0.56461148603E+03  0.16791784617E+04  0.15294330000E+03 0.  0.
<mgrwt>
<rscale>  0 0.15814089E+04</rscale>
<asrwt>0</asrwt>
<pdfrwt beam="1">  1        1 0.53016842E+00 0.15814089E+04</pdfrwt>
<pdfrwt beam="2">  1       -1 0.12712079E+00 0.15814089E+04</pdfrwt>
<totfact> 0.14023845E-01</totfact>
</mgrwt>
</event>
<event>
 4    1  0.4964158E-009  0.5947062E+03  0.7818608E-02  0.9916450E-01
         -1   -1    0    0    0  501 -0.00000000000E+00  0.00000000000E+00  0.12741522660E+04  0.12741522660E+04  0.50400000000E-02 0.  1.
          1   -1    0    0  501    0  0.00000000000E+00 -0.00000000000E+00 -0.91400104647E+03  0.91400104648E+03  0.50400000000E-02 0. -1.
    8880022    1    1    2    0    0 -0.19315464771E+03  0.54127176467E+03 -0.73287579375E+03  0.94381270560E+03  0.15294330000E+03 0.  0.
    8880022    1    1    2    0    0  0.19315464771E+03 -0.54127176467E+03  0.10930270133E+04  0.12443406069E+04  0.15294330000E+03 0.  0.
<mgrwt>
<rscale>  0 0.59470623E+03</rscale>
<asrwt>0</asrwt>
<pdfrwt beam="1">  1        1 0.14061555E+00 0.59470623E+03</pdfrwt>
<pdfrwt beam="2">  1       -1 0.19602343E+00 0.59470623E+03</pdfrwt>
<totfact> 0.30448952E+00</totfact>
</mgrwt>
</event>
<event>
 4    1  0.4964158E-009  0.6418790E+03  0.7818608E-02  0.9822138E-01
         -1   -1    0    0    0  501 -0.00000000000E+00  0.00000000000E+00  0.32010376082E+03  0.32010376086E+03  0.50400000000E-02 0.  1.
          1   -1    0    0  501    0  0.00000000000E+00 -0.00000000000E+00 -0.17636175343E+04  0.17636175343E+04  0.50400000000E-02 0. -1.
    8880022    1    1    2    0    0  0.40861234919E+03  0.47080038544E+03 -0.18020212514E+03  0.66669446807E+03  0.15294330000E+03 0.  0.
    8880022    1    1    2    0    0 -0.40861234919E+03 -0.47080038544E+03 -0.12633116483E+04  0.14170268270E+04  0.15294330000E+03 0.  0.
<mgrwt>
<rscale>  0 0.64187904E+03</rscale>
<asrwt>0</asrwt>
<pdfrwt beam="1">  1        1 0.27132577E+00 0.64187904E+03</pdfrwt>
<pdfrwt beam="2">  1       -1 0.49246733E-01 0.64187904E+03</pdfrwt>
<totfact> 0.18807112E+01</totfact>
</mgrwt>
</event>
<event>
 4    1  0.4964158E-009  0.4033428E+03  0.7818608E-02  0.1042628E+00
         -1   -1    0    0    0  501 -0.00000000000E+00  0.00000000000E+00  0.34747373968E+03  0.34747373972E+03  0.50400000000E-02 0.  1.
          1   -1    0    0  501    0  0.00000000000E+00 -0.00000000000E+00 -0.65172766095E+03  0.65172766097E+03  0.50400000000E-02 0. -1.
    8880022    1    1    2    0    0 -0.17625248657E+02 -0.37280440972E+03 -0.41724957218E+03  0.58032976470E+03  0.15294330000E+03 0.  0.
    8880022    1    1    2    0    0  0.17625248657E+02  0.37280440972E+03  0.11299565092E+03  0.41887163599E+03  0.15294330000E+03 0.  0.
<mgrwt>
<rscale>  0 0.40334282E+03</rscale>
<asrwt>0</asrwt>
<pdfrwt beam="1">  1        1 0.10026579E+00 0.40334282E+03</pdfrwt>
<pdfrwt beam="2">  1       -1 0.53457499E-01 0.40334282E+03</pdfrwt>
<totfact> 0.11251497E+02</totfact>
</mgrwt>
</event>
<event>
 4    1  0.4964158E-009  0.9914251E+03  0.7818608E-02  0.9318000E-01
          1   -1    0    0  501    0  0.00000000000E+00  0.00000000000E+00  0.18705646328E+04  0.18705646328E+04  0.50400000000E-02 0. -1.
         -1   -1    0    0    0  501 -0.00000000000E+00 -0.00000000000E+00 -0.61914975823E+03  0.61914975826E+03  0.50400000000E-02 0.  1.
    8880022    1    1    2    0    0 -0.61802619392E+03  0.75998399944E+03  0.14148277901E+03  0.10014694631E+04  0.15294330000E+03 0.  0.
    8880022    1    1    2    0    0  0.61802619392E+03 -0.75998399944E+03  0.11099320955E+04  0.14882449279E+04  0.15294330000E+03 0.  0.
<mgrwt>
<rscale>  0 0.99142509E+03</rscale>
<asrwt>0</asrwt>
<pdfrwt beam="1">  1        1 0.28777917E+00 0.99142509E+03</pdfrwt>
<pdfrwt beam="2">  1       -1 0.95253810E-01 0.99142509E+03</pdfrwt>
<totfact> 0.39245459E+00</totfact>
</mgrwt>
</event>
<event>
 4    1  0.4964158E-009  0.7887318E+03  0.7818608E-02  0.9576472E-01
         -1   -1    0    0    0  501 -0.00000000000E+00  0.00000000000E+00  0.26058754488E+03  0.26058754493E+03  0.50400000000E-02 0.  1.
          1   -1    0    0  501    0  0.00000000000E+00 -0.00000000000E+00 -0.37560447840E+04  0.37560447840E+04  0.50400000000E-02 0. -1.
    8880022    1    1    2    0    0 -0.72815063521E+03  0.26173052074E+03 -0.53537410530E+03  0.95326979323E+03  0.15294330000E+03 0.  0.
    8880022    1    1    2    0    0  0.72815063521E+03 -0.26173052074E+03 -0.29600831338E+04  0.30633625357E+04  0.15294330000E+03 0.  0.
<mgrwt>
<rscale>  0 0.78873181E+03</rscale>
<asrwt>0</asrwt>
<pdfrwt beam="1">  1        1 0.57785300E+00 0.78873181E+03</pdfrwt>
<pdfrwt beam="2">  1       -1 0.40090394E-01 0.78873181E+03</pdfrwt>
<totfact> 0.10241695E+00</totfact>
</mgrwt>
</event>
<event>
 4    1  0.4964158E-009  0.9594911E+03  0.7818608E-02  0.9354125E-01
          1   -1    0    0  501    0  0.00000000000E+00  0.00000000000E+00  0.88611362967E+03  0.88611362969E+03  0.50400000000E-02 0. -1.
         -1   -1    0    0    0  501 -0.00000000000E+00 -0.00000000000E+00 -0.10800382503E+04  0.10800382503E+04  0.50400000000E-02 0.  1.
    8880022    1    1    2    0    0  0.66768042841E+03  0.67188867494E+03 -0.28872031265E+03  0.10019893303E+04  0.15294330000E+03 0.  0.
    8880022    1    1    2    0    0 -0.66768042841E+03 -0.67188867494E+03  0.94795692063E+02  0.96416254970E+03  0.15294330000E+03 0.  0.
<mgrwt>
<rscale>  0 0.95949111E+03</rscale>
<asrwt>0</asrwt>
<pdfrwt beam="1">  1        1 0.13632517E+00 0.95949111E+03</pdfrwt>
<pdfrwt beam="2">  1       -1 0.16615973E+00 0.95949111E+03</pdfrwt>
<totfact> 0.49443234E+00</totfact>
</mgrwt>
</event>
<event>
 4    1  0.4964158E-009  0.1906135E+04  0.7818608E-02  0.8651809E-01
         -1   -1    0    0    0  501 -0.00000000000E+00  0.00000000000E+00  0.15402154330E+04  0.15402154330E+04  0.50400000000E-02 0.  1.
          1   -1    0    0  501    0  0.00000000000E+00 -0.00000000000E+00 -0.30605048324E+04  0.30605048324E+04  0.50400000000E-02 0. -1.
    8880022    1    1    2    0    0  0.17220876671E+04 -0.80272804325E+03  0.34118743328E+03  0.19364293848E+04  0.15294330000E+03 0.  0.
    8880022    1    1    2    0    0 -0.17220876671E+04  0.80272804325E+03 -0.18614768327E+04  0.26642908806E+04  0.15294330000E+03 0.  0.
<mgrwt>
<rscale>  0 0.19061348E+04</rscale>
<asrwt>0</asrwt>
<pdfrwt beam="1">  1        1 0.47084690E+00 0.19061348E+04</pdfrwt>
<pdfrwt beam="2">  1       -1 0.23695622E+00 0.19061348E+04</pdfrwt>
<totfact> 0.41214079E-02</totfact>
</mgrwt>
</event>
<event>
 4    1  0.4964158E-009  0.4545551E+03  0.7818608E-02  0.1026372E+00
         -1   -1    0    0    0  501 -0.00000000000E+00  0.00000000000E+00  0.62497250463E+03  0.62497250465E+03  0.50400000000E-02 0.  1.
          1   -1    0    0  501    0  0.00000000000E+00 -0.00000000000E+00 -0.24480278325E+04  0.24480278325E+04  0.50400000000E-02 0. -1.
    8880022    1    1    2    0    0  0.42404086805E+03  0.58463626571E+02 -0.23405138284E+04  0.23842452238E+04  0.15294330000E+03 0.  0.
    8880022    1    1    2    0    0 -0.42404086805E+03 -0.58463626571E+02  0.51745850051E+03  0.68875511335E+03  0.15294330000E+03 0.  0.
<mgrwt>
<rscale>  0 0.45455506E+03</rscale>
<asrwt>0</asrwt>
<pdfrwt beam="1">  1        1 0.37661966E+00 0.45455506E+03</pdfrwt>
<pdfrwt beam="2">  1       -1 0.96149617E-01 0.45455506E+03</pdfrwt>
<totfact> 0.17675213E+00</totfact>
</mgrwt>
</event>
<event>
 4    1  0.4964158E-009  0.1190318E+04  0.7818608E-02  0.9121373E-01
          1   -1    0    0  501    0  0.00000000000E+00  0.00000000000E+00  0.12749383514E+04  0.12749383514E+04  0.50400000000E-02 0. -1.
         -1   -1    0    0    0  501 -0.00000000000E+00 -0.00000000000E+00 -0.23677558584E+04  0.23677558584E+04  0.50400000000E-02 0.  1.
    8880022    1    1    2    0    0  0.43451960841E+03  0.10975694816E+04  0.78036032090E+03  0.14233130156E+04  0.15294330000E+03 0.  0.
    8880022    1    1    2    0    0 -0.43451960841E+03 -0.10975694816E+04 -0.18731778279E+04  0.22193811942E+04  0.15294330000E+03 0.  0.
<mgrwt>
<rscale>  0 0.11903183E+04</rscale>
<asrwt>0</asrwt>
<pdfrwt beam="1">  1        1 0.19614436E+00 0.11903183E+04</pdfrwt>
<pdfrwt beam="2">  1       -1 0.36427013E+00 0.11903183E+04</pdfrwt>
<totfact> 0.11657572E-01</totfact>
</mgrwt>
</event>
<event>
 4    1  0.4964158E-009  0.3469153E+03  0.7818608E-02  0.1063888E+00
         -1   -1    0    0    0  501 -0.00000000000E+00  0.00000000000E+00  0.42947841267E+03  0.42947841270E+03  0.50400000000E-02 0.  1.
          1   -1    0    0  501    0  0.00000000000E+00 -0.00000000000E+00 -0.38489545904E+03  0.38489545908E+03  0.50400000000E-02 0. -1.
    8880022    1    1    2    0    0 -0.14751906559E+03  0.27422014138E+03 -0.19005072468E+03  0.39556224746E+03  0.15294330000E+03 0.  0.
    8880022    1    1    2    0    0  0.14751906559E+03 -0.27422014138E+03  0.23463367831E+03  0.41881162432E+03  0.15294330000E+03 0.  0.
<mgrwt>
<rscale>  0 0.34691528E+03</rscale>
<asrwt>0</asrwt>
<pdfrwt beam="1">  1        1 0.59214686E-01 0.34691528E+03</pdfrwt>
<pdfrwt beam="2">  1       -1 0.66073602E-01 0.34691528E+03</pdfrwt>
<totfact> 0.15335417E+02</totfact>
</mgrwt>
</event>
<event>
 4    1  0.4964158E-009  0.5093620E+03  0.7818608E-02  0.1011364E+00
          1   -1    0    0  501    0  0.00000000000E+00  0.00000000000E+00  0.18229464469E+04  0.18229464469E+04  0.50400000000E-02 0. -1.
         -1   -1    0    0    0  501 -0.00000000000E+00 -0.00000000000E+00 -0.53630012335E+03  0.53630012337E+03  0.50400000000E-02 0.  1.
    8880022    1    1    2    0    0 -0.28013548721E+03  0.39696612003E+03  0.16543767009E+04  0.17310147062E+04  0.15294330000E+03 0.  0.
    8880022    1    1    2    0    0  0.28013548721E+03 -0.39696612003E+03 -0.36773037732E+03  0.62823186409E+03  0.15294330000E+03 0.  0.
<mgrwt>
<rscale>  0 0.50936200E+03</rscale>
<asrwt>0</asrwt>
<pdfrwt beam="1">  1        1 0.28045330E+00 0.50936200E+03</pdfrwt>
<pdfrwt beam="2">  1       -1 0.82507711E-01 0.50936200E+03</pdfrwt>
<totfact> 0.63051131E+00</totfact>
</mgrwt>
</event>
<event>
 4    1  0.4964158E-009  0.1298405E+04  0.7818608E-02  0.9030831E-01
          1   -1    0    0  501    0  0.00000000000E+00  0.00000000000E+00  0.31461602840E+04  0.31461602840E+04  0.50400000000E-02 0. -1.
         -1   -1    0    0    0  501 -0.00000000000E+00 -0.00000000000E+00 -0.66138172877E+03  0.66138172879E+03  0.50400000000E-02 0.  1.
    8880022    1    1    2    0    0  0.68053768471E+03 -0.10951407413E+04  0.20718060582E+04  0.24450433083E+04  0.15294330000E+03 0.  0.
    8880022    1    1    2    0    0 -0.68053768471E+03  0.10951407413E+04  0.41297249705E+03  0.13624987045E+04  0.15294330000E+03 0.  0.
<mgrwt>
<rscale>  0 0.12984053E+04</rscale>
<asrwt>0</asrwt>
<pdfrwt beam="1">  1        1 0.48402465E+00 0.12984053E+04</pdfrwt>
<pdfrwt beam="2">  1       -1 0.10175104E+00 0.12984053E+04</pdfrwt>
<totfact> 0.42038376E-01</totfact>
</mgrwt>
</event>
<event>
 4    1  0.4964158E-009  0.4281561E+03  0.7818608E-02  0.1034444E+00
         -1   -1    0    0    0  501 -0.00000000000E+00  0.00000000000E+00  0.32781237444E+03  0.32781237447E+03  0.50400000000E-02 0.  1.
          1   -1    0    0  501    0  0.00000000000E+00 -0.00000000000E+00 -0.84201662365E+03  0.84201662367E+03  0.50400000000E-02 0. -1.
    8880022    1    1    2    0    0  0.25719140985E+03  0.30623281583E+03 -0.59608126080E+03  0.73391449180E+03  0.15294330000E+03 0.  0.
    8880022    1    1    2    0    0 -0.25719140985E+03 -0.30623281583E+03  0.81877011581E+02  0.43591450634E+03  0.15294330000E+03 0.  0.
<mgrwt>
<rscale>  0 0.42815606E+03</rscale>
<asrwt>0</asrwt>
<pdfrwt beam="1">  1        1 0.12954102E+00 0.42815606E+03</pdfrwt>
<pdfrwt beam="2">  1       -1 0.50432673E-01 0.42815606E+03</pdfrwt>
<totfact> 0.84779833E+01</totfact>
</mgrwt>
</event>
<event>
 4    1  0.4964158E-009  0.3681217E+03  0.7818608E-02  0.1055413E+00
          1   -1    0    0  501    0  0.00000000000E+00  0.00000000000E+00  0.51581166357E+03  0.51581166359E+03  0.50400000000E-02 0. -1.
         -1   -1    0    0    0  501 -0.00000000000E+00 -0.00000000000E+00 -0.59247127519E+03  0.59247127521E+03  0.50400000000E-02 0.  1.
    8880022    1    1    2    0    0  0.24063865820E+03  0.23284115024E+03  0.37508000912E+03  0.52554603159E+03  0.15294330000E+03 0.  0.
    8880022    1    1    2    0    0 -0.24063865820E+03 -0.23284115024E+03 -0.45173962073E+03  0.58273690721E+03  0.15294330000E+03 0.  1.
<mgrwt>
<rscale>  0 0.36812174E+03</rscale>
<asrwt>0</asrwt>
<pdfrwt beam="1">  1        1 0.79355641E-01 0.36812174E+03</pdfrwt>
<pdfrwt beam="2">  1       -1 0.91149427E-01 0.36812174E+03</pdfrwt>
<totfact> 0.53251018E+01</totfact>
</mgrwt>
</event>
<event>
 4    1  0.4964158E-009  0.5878823E+03  0.7818608E-02  0.9930870E-01
          1   -1    0    0  501    0  0.00000000000E+00  0.00000000000E+00  0.32297042246E+04  0.32297042246E+04  0.50400000000E-02 0. -1.
         -1   -1    0    0    0  501 -0.00000000000E+00 -0.00000000000E+00 -0.29756676794E+03  0.29756676798E+03  0.50400000000E-02 0.  1.
    8880022    1    1    2    0    0  0.34777269174E+03 -0.44862908714E+03  0.28774053255E+04  0.29368464317E+04  0.15294330000E+03 0.  0.
    8880022    1    1    2    0    0 -0.34777269174E+03  0.44862908714E+03  0.54732131154E+02  0.59042456092E+03  0.15294330000E+03 0.  0.
<mgrwt>
<rscale>  0 0.58788226E+03</rscale>
<asrwt>0</asrwt>
<pdfrwt beam="1">  1        1 0.49687758E+00 0.58788226E+03</pdfrwt>
<pdfrwt beam="2">  1       -1 0.45779502E-01 0.58788226E+03</pdfrwt>
<totfact> 0.21478060E+00</totfact>
</mgrwt>
</event>
<event>
 4    1  0.4964158E-009  0.3507392E+03  0.7818608E-02  0.1062312E+00
         -1   -1    0    0    0  501 -0.00000000000E+00  0.00000000000E+00  0.46746300102E+03  0.46746300105E+03  0.50400000000E-02 0.  1.
          1   -1    0    0  501    0  0.00000000000E+00 -0.00000000000E+00 -0.20182823063E+04  0.20182823063E+04  0.50400000000E-02 0. -1.
    8880022    1    1    2    0    0 -0.24340972968E+03  0.20094284065E+03 -0.19344251957E+04  0.19659651097E+04  0.15294330000E+03 0.  0.
    8880022    1    1    2    0    0  0.24340972968E+03 -0.20094284065E+03  0.38360589043E+03  0.51978019768E+03  0.15294330000E+03 0.  0.
<mgrwt>
<rscale>  0 0.35073918E+03</rscale>
<asrwt>0</asrwt>
<pdfrwt beam="1">  1        1 0.31050496E+00 0.35073918E+03</pdfrwt>
<pdfrwt beam="2">  1       -1 0.71917386E-01 0.35073918E+03</pdfrwt>
<totfact> 0.65517903E+00</totfact>
</mgrwt>
</event>
<event>
 4    1  0.4964158E-009  0.1076746E+04  0.7818608E-02  0.9228158E-01
         -1   -1    0    0    0  501 -0.00000000000E+00  0.00000000000E+00  0.40290787816E+04  0.40290787816E+04  0.50400000000E-02 0.  1.
          1   -1    0    0  501    0  0.00000000000E+00 -0.00000000000E+00 -0.86918595710E+03  0.86918595711E+03  0.50400000000E-02 0. -1.
    8880022    1    1    2    0    0 -0.67526539692E+03 -0.82462564912E+03 -0.42316661559E+03  0.11569150596E+04  0.15294330000E+03 0.  0.
    8880022    1    1    2    0    0  0.67526539692E+03  0.82462564912E+03  0.35830594401E+04  0.37413496792E+04  0.15294330000E+03 0.  0.
<mgrwt>
<rscale>  0 0.10767462E+04</rscale>
<asrwt>0</asrwt>
<pdfrwt beam="1">  1        1 0.13372092E+00 0.10767462E+04</pdfrwt>
<pdfrwt beam="2">  1       -1 0.61985826E+00 0.10767462E+04</pdfrwt>
<totfact> 0.69704769E-03</totfact>
</mgrwt>
</event>
<event>
 4    1  0.4964158E-009  0.1033466E+04  0.7818608E-02  0.9272583E-01
         -1   -1    0    0    0  501 -0.00000000000E+00  0.00000000000E+00  0.94215756093E+03  0.94215756094E+03  0.50400000000E-02 0.  1.
          1   -1    0    0  501    0  0.00000000000E+00 -0.00000000000E+00 -0.12267140187E+04  0.12267140187E+04  0.50400000000E-02 0. -1.
    8880022    1    1    2    0    0 -0.72637292202E+03  0.71905693537E+03  0.15645560290E+03  0.10452418413E+04  0.15294330000E+03 0.  0.
    8880022    1    1    2    0    0  0.72637292202E+03 -0.71905693537E+03 -0.44101206063E+03  0.11236297383E+04  0.15294330000E+03 0.  0.
<mgrwt>
<rscale>  0 0.10334661E+04</rscale>
<asrwt>0</asrwt>
<pdfrwt beam="1">  1        1 0.18872523E+00 0.10334661E+04</pdfrwt>
<pdfrwt beam="2">  1       -1 0.14494732E+00 0.10334661E+04</pdfrwt>
<totfact> 0.39051777E+00</totfact>
</mgrwt>
</event>
<event>
 4    1  0.4964158E-009  0.1128326E+04  0.7818608E-02  0.9178015E-01
         -1   -1    0    0    0  501 -0.00000000000E+00  0.00000000000E+00  0.15102950658E+04  0.15102950658E+04  0.50400000000E-02 0.  1.
          1   -1    0    0  501    0  0.00000000000E+00 -0.00000000000E+00 -0.12603889754E+04  0.12603889754E+04  0.50400000000E-02 0. -1.
    8880022    1    1    2    0    0  0.22420046219E+03  0.10951990997E+04  0.92220560648E+03  0.14572514364E+04  0.15294330000E+03 0.  0.
    8880022    1    1    2    0    0 -0.22420046219E+03 -0.10951990997E+04 -0.67229951609E+03  0.13134326049E+04  0.15294330000E+03 0.  0.
<mgrwt>
<rscale>  0 0.11283256E+04</rscale>
<asrwt>0</asrwt>
<pdfrwt beam="1">  1        1 0.19390600E+00 0.11283256E+04</pdfrwt>
<pdfrwt beam="2">  1       -1 0.23235309E+00 0.11283256E+04</pdfrwt>
<totfact> 0.87036860E-01</totfact>
</mgrwt>
</event>
<event>
 4    1  0.4964158E-009  0.6299590E+03  0.7818608E-02  0.9845129E-01
         -1   -1    0    0    0  501 -0.00000000000E+00  0.00000000000E+00  0.21511485729E+03  0.21511485735E+03  0.50400000000E-02 0.  1.
          1   -1    0    0  501    0  0.00000000000E+00 -0.00000000000E+00 -0.30331877136E+04  0.30331877136E+04  0.50400000000E-02 0. -1.
    8880022    1    1    2    0    0 -0.51671774040E+03  0.32628118678E+03 -0.39243158375E+03  0.74219326123E+03  0.15294330000E+03 0.  1.
    8880022    1    1    2    0    0  0.51671774040E+03 -0.32628118678E+03 -0.24256412726E+04  0.25061093097E+04  0.15294330000E+03 0.  0.
<mgrwt>
<rscale>  0 0.62995896E+03</rscale>
<asrwt>0</asrwt>
<pdfrwt beam="1">  1        1 0.46664423E+00 0.62995896E+03</pdfrwt>
<pdfrwt beam="2">  1       -1 0.33094596E-01 0.62995896E+03</pdfrwt>
<totfact> 0.53045746E+00</totfact>
</mgrwt>
</event>
<event>
 4    1  0.4964158E-009  0.8851875E+03  0.7818608E-02  0.9444290E-01
         -1   -1    0    0    0  501 -0.00000000000E+00  0.00000000000E+00  0.48525213029E+03  0.48525213032E+03  0.50400000000E-02 0.  1.
          1   -1    0    0  501    0  0.00000000000E+00 -0.00000000000E+00 -0.24194426832E+04  0.24194426832E+04  0.50400000000E-02 0. -1.
    8880022    1    1    2    0    0 -0.74214571957E+03  0.45758605111E+03 -0.18046825570E+04  0.20100835922E+04  0.15294330000E+03 0.  0.
    8880022    1    1    2    0    0  0.74214571957E+03 -0.45758605111E+03 -0.12950799592E+03  0.89461122129E+03  0.15294330000E+03 0.  0.
<mgrwt>
<rscale>  0 0.88518750E+03</rscale>
<asrwt>0</asrwt>
<pdfrwt beam="1">  1        1 0.37222194E+00 0.88518750E+03</pdfrwt>
<pdfrwt beam="2">  1       -1 0.74654176E-01 0.88518750E+03</pdfrwt>
<totfact> 0.28791149E+00</totfact>
</mgrwt>
</event>
<event>
 4    1  0.4964158E-009  0.1678519E+04  0.7818608E-02  0.8773712E-01
          1   -1    0    0  501    0  0.00000000000E+00  0.00000000000E+00  0.38212691127E+04  0.38212691127E+04  0.50400000000E-02 0. -1.
         -1   -1    0    0    0  501 -0.00000000000E+00 -0.00000000000E+00 -0.20144866048E+04  0.20144866048E+04  0.50400000000E-02 0.  1.
    8880022    1    1    2    0    0  0.60392334740E+03 -0.15586245569E+04  0.32267267227E+04  0.36371954738E+04  0.15294330000E+03 0.  0.
    8880022    1    1    2    0    0 -0.60392334740E+03  0.15586245569E+04 -0.14199442148E+04  0.21985602437E+04  0.15294330000E+03 0.  0.
<mgrwt>
<rscale>  0 0.16785189E+04</rscale>
<asrwt>0</asrwt>
<pdfrwt beam="1">  1        1 0.58788755E+00 0.16785189E+04</pdfrwt>
<pdfrwt beam="2">  1       -1 0.30992102E+00 0.16785189E+04</pdfrwt>
<totfact> 0.36061890E-03</totfact>
</mgrwt>
</event>
<event>
 4    1  0.4964158E-009  0.8824529E+03  0.7818608E-02  0.9447786E-01
         -1   -1    0    0    0  501 -0.00000000000E+00  0.00000000000E+00  0.12611347245E+04  0.12611347245E+04  0.50400000000E-02 0.  1.
          1   -1    0    0  501    0  0.00000000000E+00 -0.00000000000E+00 -0.10891738529E+04  0.10891738529E+04  0.50400000000E-02 0. -1.
    8880022    1    1    2    0    0  0.79633737542E+03 -0.34810671148E+03 -0.68737161410E+03  0.11185718068E+04  0.15294330000E+03 0.  0.
    8880022    1    1    2    0    0 -0.79633737542E+03  0.34810671148E+03  0.85933248576E+03  0.12317367706E+04  0.15294330000E+03 0.  0.
<mgrwt>
<rscale>  0 0.88245292E+03</rscale>
<asrwt>0</asrwt>
<pdfrwt beam="1">  1        1 0.16756521E+00 0.88245292E+03</pdfrwt>
<pdfrwt beam="2">  1       -1 0.19402073E+00 0.88245292E+03</pdfrwt>
<totfact> 0.21843849E+00</totfact>
</mgrwt>
</event>
<event>
 4    1  0.4964158E-009  0.8453615E+03  0.7818608E-02  0.9496584E-01
         -1   -1    0    0    0  501 -0.00000000000E+00  0.00000000000E+00  0.12829933576E+04  0.12829933576E+04  0.50400000000E-02 0.  1.
          1   -1    0    0  501    0  0.00000000000E+00 -0.00000000000E+00 -0.10823308903E+04  0.10823308903E+04  0.50400000000E-02 0. -1.
    8880022    1    1    2    0    0  0.81954223227E+03 -0.13998171181E+03  0.92426884276E+03  0.12525609354E+04  0.15294330000E+03 0.  1.
    8880022    1    1    2    0    0 -0.81954223227E+03  0.13998171181E+03 -0.72360637544E+03  0.11127633125E+04  0.15294330000E+03 0.  0.
<mgrwt>
<rscale>  0 0.84536146E+03</rscale>
<asrwt>0</asrwt>
<pdfrwt beam="1">  1        1 0.16651244E+00 0.84536146E+03</pdfrwt>
<pdfrwt beam="2">  1       -1 0.19738359E+00 0.84536146E+03</pdfrwt>
<totfact> 0.21071950E+00</totfact>
</mgrwt>
</event>
<event>
 4    1  0.4964158E-009  0.6844265E+03  0.7818608E-02  0.9744242E-01
         -1   -1    0    0    0  501 -0.00000000000E+00  0.00000000000E+00  0.11569220845E+04  0.11569220845E+04  0.50400000000E-02 0.  1.
          1   -1    0    0  501    0  0.00000000000E+00 -0.00000000000E+00 -0.14703314036E+04  0.14703314036E+04  0.50400000000E-02 0. -1.
    8880022    1    1    2    0    0 -0.54422163664E+03 -0.38583777036E+03  0.96151411947E+03  0.11802326168E+04  0.15294330000E+03 0.  0.
    8880022    1    1    2    0    0  0.54422163664E+03  0.38583777036E+03 -0.12749234386E+04  0.14470208713E+04  0.15294330000E+03 0.  0.
<mgrwt>
<rscale>  0 0.68442650E+03</rscale>
<asrwt>0</asrwt>
<pdfrwt beam="1">  1        1 0.22620483E+00 0.68442650E+03</pdfrwt>
<pdfrwt beam="2">  1       -1 0.17798801E+00 0.68442650E+03</pdfrwt>
<totfact> 0.15692878E+00</totfact>
</mgrwt>
</event>
<event>
 4    1  0.4964158E-009  0.9963968E+03  0.7818608E-02  0.9312506E-01
         -1   -1    0    0    0  501 -0.00000000000E+00  0.00000000000E+00  0.15319442619E+04  0.15319442619E+04  0.50400000000E-02 0.  1.
          1   -1    0    0  501    0  0.00000000000E+00 -0.00000000000E+00 -0.82103047836E+03  0.82103047838E+03  0.50400000000E-02 0. -1.
    8880022    1    1    2    0    0  0.97803220436E+03  0.11343694153E+03  0.89544165413E+03  0.13396351524E+04  0.15294330000E+03 0.  0.
    8880022    1    1    2    0    0 -0.97803220436E+03 -0.11343694153E+03 -0.18452787058E+03  0.10133395879E+04  0.15294330000E+03 0.  0.
<mgrwt>
<rscale>  0 0.99639680E+03</rscale>
<asrwt>0</asrwt>
<pdfrwt beam="1">  1        1 0.12631238E+00 0.99639680E+03</pdfrwt>
<pdfrwt beam="2">  1       -1 0.23568373E+00 0.99639680E+03</pdfrwt>
<totfact> 0.18481441E+00</totfact>
</mgrwt>
</event>
<event>
 4    1  0.4964158E-009  0.1040946E+04  0.7818608E-02  0.9264742E-01
          1   -1    0    0  501    0  0.00000000000E+00  0.00000000000E+00  0.20851954182E+04  0.20851954182E+04  0.50400000000E-02 0. -1.
         -1   -1    0    0    0  501 -0.00000000000E+00 -0.00000000000E+00 -0.86623676499E+03  0.86623676500E+03  0.50400000000E-02 0.  1.
    8880022    1    1    2    0    0  0.96952530048E+03  0.34669402012E+03 -0.32397210100E+03  0.10901952243E+04  0.15294330000E+03 0.  0.
    8880022    1    1    2    0    0 -0.96952530048E+03 -0.34669402012E+03  0.15429307542E+04  0.18612369589E+04  0.15294330000E+03 0.  0.
<mgrwt>
<rscale>  0 0.10409456E+04</rscale>
<asrwt>0</asrwt>
<pdfrwt beam="1">  1        1 0.32079930E+00 0.10409456E+04</pdfrwt>
<pdfrwt beam="2">  1       -1 0.13326719E+00 0.10409456E+04</pdfrwt>
<totfact> 0.12490733E+00</totfact>
</mgrwt>
</event>
<event>
 4    1  0.4964158E-009  0.2899404E+03  0.7818608E-02  0.1090380E+00
          1   -1    0    0  501    0  0.00000000000E+00  0.00000000000E+00  0.95976485625E+03  0.95976485627E+03  0.50400000000E-02 0. -1.
         -1   -1    0    0    0  501 -0.00000000000E+00 -0.00000000000E+00 -0.27660775027E+03  0.27660775032E+03  0.50400000000E-02 0.  1.
    8880022    1    1    2    0    0 -0.24631843134E+03 -0.10059745818E+01 -0.16944267711E+03  0.33582176142E+03  0.15294330000E+03 0.  0.
    8880022    1    1    2    0    0  0.24631843134E+03  0.10059745818E+01  0.85259978309E+03  0.90055084517E+03  0.15294330000E+03 0. -1.
<mgrwt>
<rscale>  0 0.28994040E+03</rscale>
<asrwt>0</asrwt>
<pdfrwt beam="1">  1        1 0.14765613E+00 0.28994040E+03</pdfrwt>
<pdfrwt beam="2">  1       -1 0.42555039E-01 0.28994040E+03</pdfrwt>
<totfact> 0.95637167E+01</totfact>
</mgrwt>
</event>
<event>
 4    1  0.4964158E-009  0.7289373E+03  0.7818608E-02  0.9668986E-01
          1   -1    0    0  501    0  0.00000000000E+00  0.00000000000E+00  0.91394374328E+03  0.91394374329E+03  0.50400000000E-02 0. -1.
         -1   -1    0    0    0  501 -0.00000000000E+00 -0.00000000000E+00 -0.10872105607E+04  0.10872105607E+04  0.50400000000E-02 0.  1.
    8880022    1    1    2    0    0 -0.65919831489E+03  0.27095297032E+03  0.59585586012E+03  0.94148488546E+03  0.15294330000E+03 0.  0.
    8880022    1    1    2    0    0  0.65919831489E+03 -0.27095297032E+03 -0.76912267756E+03  0.10596694186E+04  0.15294330000E+03 0.  0.
<mgrwt>
<rscale>  0 0.72893730E+03</rscale>
<asrwt>0</asrwt>
<pdfrwt beam="1">  1        1 0.14060673E+00 0.72893730E+03</pdfrwt>
<pdfrwt beam="2">  1       -1 0.16726316E+00 0.72893730E+03</pdfrwt>
<totfact> 0.47518713E+00</totfact>
</mgrwt>
</event>
<event>
 4    1  0.4964158E-009  0.5663081E+03  0.7818608E-02  0.9977882E-01
          1   -1    0    0  501    0  0.00000000000E+00  0.00000000000E+00  0.10189169273E+04  0.10189169273E+04  0.50400000000E-02 0. -1.
         -1   -1    0    0    0  501 -0.00000000000E+00 -0.00000000000E+00 -0.71049769493E+03  0.71049769495E+03  0.50400000000E-02 0.  1.
    8880022    1    1    2    0    0 -0.31540010327E+03 -0.44478761709E+03  0.79956146817E+03  0.97979765455E+03  0.15294330000E+03 0.  0.
    8880022    1    1    2    0    0  0.31540010327E+03  0.44478761709E+03 -0.49114223581E+03  0.74961696771E+03  0.15294330000E+03 0.  0.
<mgrwt>
<rscale>  0 0.56630813E+03</rscale>
<asrwt>0</asrwt>
<pdfrwt beam="1">  1        1 0.15675645E+00 0.56630813E+03</pdfrwt>
<pdfrwt beam="2">  1       -1 0.10930734E+00 0.56630813E+03</pdfrwt>
<totfact> 0.12031320E+01</totfact>
</mgrwt>
</event>
<event>
 4    1  0.4964158E-009  0.4549467E+03  0.7818608E-02  0.1026257E+00
         -1   -1    0    0    0  501 -0.00000000000E+00  0.00000000000E+00  0.52504655167E+03  0.52504655169E+03  0.50400000000E-02 0.  1.
          1   -1    0    0  501    0  0.00000000000E+00 -0.00000000000E+00 -0.16593382566E+04  0.16593382566E+04  0.50400000000E-02 0. -1.
    8880022    1    1    2    0    0 -0.36306924708E+03 -0.22752047649E+03 -0.15208192188E+04  0.15874090824E+04  0.15294330000E+03 0.  0.
    8880022    1    1    2    0    0  0.36306924708E+03  0.22752047649E+03  0.38652751387E+03  0.59697572597E+03  0.15294330000E+03 0.  0.
<mgrwt>
<rscale>  0 0.45494670E+03</rscale>
<asrwt>0</asrwt>
<pdfrwt beam="1">  1        1 0.25528281E+00 0.45494670E+03</pdfrwt>
<pdfrwt beam="2">  1       -1 0.80776394E-01 0.45494670E+03</pdfrwt>
<totfact> 0.85886013E+00</totfact>
</mgrwt>
</event>
<event>
 4    1  0.4964158E-009  0.7752636E+03  0.7818608E-02  0.9596529E-01
         -1   -1    0    0    0  501 -0.00000000000E+00  0.00000000000E+00  0.73756627356E+03  0.73756627358E+03  0.50400000000E-02 0.  1.
          1   -1    0    0  501    0  0.00000000000E+00 -0.00000000000E+00 -0.11262276415E+04  0.11262276415E+04  0.50400000000E-02 0. -1.
    8880022    1    1    2    0    0 -0.44022720054E+03  0.61954979249E+03 -0.68430387131E+03  0.10340722290E+04  0.15294330000E+03 0.  0.
    8880022    1    1    2    0    0  0.44022720054E+03 -0.61954979249E+03  0.29564250341E+03  0.82972168605E+03  0.15294330000E+03 0.  0.
<mgrwt>
<rscale>  0 0.77526356E+03</rscale>
<asrwt>0</asrwt>
<pdfrwt beam="1">  1        1 0.17326579E+00 0.77526356E+03</pdfrwt>
<pdfrwt beam="2">  1       -1 0.11347173E+00 0.77526356E+03</pdfrwt>
<totfact> 0.88520497E+00</totfact>
</mgrwt>
</event>
<event>
 4    1  0.4964158E-009  0.5048738E+03  0.7818608E-02  0.1012515E+00
          1   -1    0    0  501    0  0.00000000000E+00  0.00000000000E+00  0.26900133913E+04  0.26900133913E+04  0.50400000000E-02 0. -1.
         -1   -1    0    0    0  501 -0.00000000000E+00 -0.00000000000E+00 -0.54821278312E+03  0.54821278314E+03  0.50400000000E-02 0.  1.
    8880022    1    1    2    0    0  0.48047341293E+03 -0.25519296219E+02  0.25434504008E+04  0.25930749178E+04  0.15294330000E+03 0. -1.
    8880022    1    1    2    0    0 -0.48047341293E+03  0.25519296219E+02 -0.40164979263E+03  0.64515125664E+03  0.15294330000E+03 0.  0.
<mgrwt>
<rscale>  0 0.50487383E+03</rscale>
<asrwt>0</asrwt>
<pdfrwt beam="1">  1        1 0.41384821E+00 0.50487383E+03</pdfrwt>
<pdfrwt beam="2">  1       -1 0.84340429E-01 0.50487383E+03</pdfrwt>
<totfact> 0.15838380E+00</totfact>
</mgrwt>
</event>
<event>
 4    1  0.4964158E-009  0.1310720E+04  0.7818608E-02  0.9021107E-01
         -1   -1    0    0    0  501 -0.00000000000E+00  0.00000000000E+00  0.53550422212E+03  0.53550422214E+03  0.50400000000E-02 0.  1.
          1   -1    0    0  501    0  0.00000000000E+00 -0.00000000000E+00 -0.34847062038E+04  0.34847062038E+04  0.50400000000E-02 0. -1.
    8880022    1    1    2    0    0  0.77698728767E+03 -0.10444553861E+04 -0.20408567416E+04  0.24255069968E+04  0.15294330000E+03 0.  0.
    8880022    1    1    2    0    0 -0.77698728767E+03  0.10444553861E+04 -0.90834524010E+03  0.15947034292E+04  0.15294330000E+03 0.  0.
<mgrwt>
<rscale>  0 0.13107204E+04</rscale>
<asrwt>0</asrwt>
<pdfrwt beam="1">  1        1 0.53610863E+00 0.13107204E+04</pdfrwt>
<pdfrwt beam="2">  1       -1 0.82385267E-01 0.13107204E+04</pdfrwt>
<totfact> 0.37245446E-01</totfact>
</mgrwt>
</event>
<event>
 4    1  0.4964158E-009  0.1733251E+04  0.7818608E-02  0.8742624E-01
          1   -1    0    0  501    0  0.00000000000E+00  0.00000000000E+00  0.28425495034E+04  0.28425495034E+04  0.50400000000E-02 0. -1.
         -1   -1    0    0    0  501 -0.00000000000E+00 -0.00000000000E+00 -0.14476582883E+04  0.14476582884E+04  0.50400000000E-02 0.  1.
    8880022    1    1    2    0    0 -0.28297427510E+03  0.17031420725E+04 -0.41709300213E+03  0.17827298126E+04  0.15294330000E+03 0.  0.
    8880022    1    1    2    0    0  0.28297427510E+03 -0.17031420725E+04  0.18119842172E+04  0.25074779791E+04  0.15294330000E+03 0.  0.
<mgrwt>
<rscale>  0 0.17332510E+04</rscale>
<asrwt>0</asrwt>
<pdfrwt beam="1">  1        1 0.43731531E+00 0.17332510E+04</pdfrwt>
<pdfrwt beam="2">  1       -1 0.22271666E+00 0.17332510E+04</pdfrwt>
<totfact> 0.75317941E-02</totfact>
</mgrwt>
</event>
<event>
 4    1  0.4964158E-009  0.1313405E+04  0.7818608E-02  0.9019002E-01
         -1   -1    0    0    0  501 -0.00000000000E+00  0.00000000000E+00  0.11427090695E+04  0.11427090696E+04  0.50400000000E-02 0.  1.
          1   -1    0    0  501    0  0.00000000000E+00 -0.00000000000E+00 -0.18855609564E+04  0.18855609564E+04  0.50400000000E-02 0. -1.
    8880022    1    1    2    0    0  0.12974552314E+04  0.13509220598E+03  0.30468300803E+03  0.13482816360E+04  0.15294330000E+03 0.  0.
    8880022    1    1    2    0    0 -0.12974552314E+04 -0.13509220598E+03 -0.10475348949E+04  0.16799883900E+04  0.15294330000E+03 0.  0.
<mgrwt>
<rscale>  0 0.13134046E+04</rscale>
<asrwt>0</asrwt>
<pdfrwt beam="1">  1        1 0.29008630E+00 0.13134046E+04</pdfrwt>
<pdfrwt beam="2">  1       -1 0.17580140E+00 0.13134046E+04</pdfrwt>
<totfact> 0.76943024E-01</totfact>
</mgrwt>
</event>
<event>
 4    1  0.4964158E-009  0.8406927E+03  0.7818608E-02  0.9502915E-01
         -1   -1    0    0    0  501 -0.00000000000E+00  0.00000000000E+00  0.56472568875E+03  0.56472568877E+03  0.50400000000E-02 0.  1.
          1   -1    0    0  501    0  0.00000000000E+00 -0.00000000000E+00 -0.37600496200E+04  0.37600496200E+04  0.50400000000E-02 0. -1.
    8880022    1    1    2    0    0 -0.24310714030E+03 -0.79010856406E+03 -0.33638891641E+04  0.34673497928E+04  0.15294330000E+03 0.  0.
    8880022    1    1    2    0    0  0.24310714030E+03  0.79010856406E+03  0.16856523282E+03  0.85742551595E+03  0.15294330000E+03 0.  0.
<mgrwt>
<rscale>  0 0.84069274E+03</rscale>
<asrwt>0</asrwt>
<pdfrwt beam="1">  1        1 0.57846916E+00 0.84069274E+03</pdfrwt>
<pdfrwt beam="2">  1       -1 0.86880877E-01 0.84069274E+03</pdfrwt>
<totfact> 0.21765037E-01</totfact>
</mgrwt>
</event>
<event>
 4    1  0.4964158E-009  0.2851175E+03  0.7818608E-02  0.1092926E+00
          1   -1    0    0  501    0  0.00000000000E+00  0.00000000000E+00  0.25728748317E+03  0.25728748322E+03  0.50400000000E-02 0. -1.
         -1   -1    0    0    0  501 -0.00000000000E+00 -0.00000000000E+00 -0.52286368894E+03  0.52286368897E+03  0.50400000000E-02 0.  1.
    8880022    1    1    2    0    0  0.10154290669E+03  0.21814983918E+03 -0.37816916135E+03  0.47360730763E+03  0.15294330000E+03 0.  0.
    8880022    1    1    2    0    0 -0.10154290669E+03 -0.21814983918E+03  0.11259295558E+03  0.30654386455E+03  0.15294330000E+03 0.  0.
<mgrwt>
<rscale>  0 0.28511746E+03</rscale>
<asrwt>0</asrwt>
<pdfrwt beam="1">  1        1 0.39582690E-01 0.28511746E+03</pdfrwt>
<pdfrwt beam="2">  1       -1 0.80440567E-01 0.28511746E+03</pdfrwt>
<totfact> 0.17283970E+02</totfact>
</mgrwt>
</event>
<event>
 4    1  0.4964158E-009  0.8944389E+03  0.7818608E-02  0.9432560E-01
         -1   -1    0    0    0  501 -0.00000000000E+00  0.00000000000E+00  0.23676241514E+04  0.23676241514E+04  0.50400000000E-02 0.  1.
          1   -1    0    0  501    0  0.00000000000E+00 -0.00000000000E+00 -0.73674470242E+03  0.73674470244E+03  0.50400000000E-02 0. -1.
    8880022    1    1    2    0    0 -0.78595565268E+03  0.39862637439E+03 -0.32661406160E+03  0.95220673837E+03  0.15294330000E+03 0.  0.
    8880022    1    1    2    0    0  0.78595565268E+03 -0.39862637439E+03  0.19574935106E+04  0.21521621155E+04  0.15294330000E+03 0.  0.
<mgrwt>
<rscale>  0 0.89443889E+03</rscale>
<asrwt>0</asrwt>
<pdfrwt beam="1">  1        1 0.11334534E+00 0.89443889E+03</pdfrwt>
<pdfrwt beam="2">  1       -1 0.36424987E+00 0.89443889E+03</pdfrwt>
<totfact> 0.32730309E-01</totfact>
</mgrwt>
</event>
<event>
 4    1  0.4964158E-009  0.1030967E+04  0.7818608E-02  0.9275218E-01
         -1   -1    0    0    0  501 -0.00000000000E+00  0.00000000000E+00  0.12361638831E+04  0.12361638831E+04  0.50400000000E-02 0.  1.
          1   -1    0    0  501    0  0.00000000000E+00 -0.00000000000E+00 -0.17592245084E+04  0.17592245084E+04  0.50400000000E-02 0. -1.
    8880022    1    1    2    0    0 -0.78724963448E+03  0.64787330238E+03  0.80934056660E+03  0.13106966120E+04  0.15294330000E+03 0.  0.
    8880022    1    1    2    0    0  0.78724963448E+03 -0.64787330238E+03 -0.13324011919E+04  0.16846917796E+04  0.15294330000E+03 0.  0.
<mgrwt>
<rscale>  0 0.10309672E+04</rscale>
<asrwt>0</asrwt>
<pdfrwt beam="1">  1        1 0.27064993E+00 0.10309672E+04</pdfrwt>
<pdfrwt beam="2">  1       -1 0.19017906E+00 0.10309672E+04</pdfrwt>
<totfact> 0.76849572E-01</totfact>
</mgrwt>
</event>
<event>
 4    1  0.4964158E-009  0.1165719E+04  0.7818608E-02  0.9143403E-01
          1   -1    0    0  501    0  0.00000000000E+00  0.00000000000E+00  0.95868797169E+03  0.95868797170E+03  0.50400000000E-02 0. -1.
         -1   -1    0    0    0  501 -0.00000000000E+00 -0.00000000000E+00 -0.15529460359E+04  0.15529460359E+04  0.50400000000E-02 0.  1.
    8880022    1    1    2    0    0 -0.11521945809E+04  0.89202782205E+02 -0.66806302379E+03  0.13435807923E+04  0.15294330000E+03 0.  0.
    8880022    1    1    2    0    0  0.11521945809E+04 -0.89202782205E+02  0.73804959576E+02  0.11680532153E+04  0.15294330000E+03 0.  0.
<mgrwt>
<rscale>  0 0.11657192E+04</rscale>
<asrwt>0</asrwt>
<pdfrwt beam="1">  1        1 0.14749046E+00 0.11657192E+04</pdfrwt>
<pdfrwt beam="2">  1       -1 0.23891478E+00 0.11657192E+04</pdfrwt>
<totfact> 0.13255766E+00</totfact>
</mgrwt>
</event>
<event>
 4    1  0.4964158E-009  0.1083382E+04  0.7818608E-02  0.9221542E-01
         -1   -1    0    0    0  501 -0.00000000000E+00  0.00000000000E+00  0.75619167188E+03  0.75619167190E+03  0.50400000000E-02 0.  1.
          1   -1    0    0  501    0  0.00000000000E+00 -0.00000000000E+00 -0.25040845971E+04  0.25040845972E+04  0.50400000000E-02 0. -1.
    8880022    1    1    2    0    0 -0.87091556711E+02  0.10689903508E+04  0.13114424190E+03  0.10912908754E+04  0.15294330000E+03 0.  0.
    8880022    1    1    2    0    0  0.87091556711E+02 -0.10689903508E+04 -0.18790371672E+04  0.21689853937E+04  0.15294330000E+03 0.  0.
<mgrwt>
<rscale>  0 0.10833822E+04</rscale>
<asrwt>0</asrwt>
<pdfrwt beam="1">  1        1 0.38524378E+00 0.10833822E+04</pdfrwt>
<pdfrwt beam="2">  1       -1 0.11633718E+00 0.10833822E+04</pdfrwt>
<totfact> 0.90329139E-01</totfact>
</mgrwt>
</event>
<event>
 4    1  0.4964158E-009  0.6326600E+03  0.7818608E-02  0.9839872E-01
          1   -1    0    0  501    0  0.00000000000E+00  0.00000000000E+00  0.10905459549E+04  0.10905459549E+04  0.50400000000E-02 0. -1.
         -1   -1    0    0    0  501 -0.00000000000E+00 -0.00000000000E+00 -0.77825638270E+03  0.77825638272E+03  0.50400000000E-02 0.  1.
    8880022    1    1    2    0    0  0.42737060525E+03 -0.44070553903E+03  0.83537133623E+03  0.10479045418E+04  0.15294330000E+03 0.  0.
    8880022    1    1    2    0    0 -0.42737060525E+03  0.44070553903E+03 -0.52308176400E+03  0.82089779584E+03  0.15294330000E+03 0.  0.
<mgrwt>
<rscale>  0 0.63265999E+03</rscale>
<asrwt>0</asrwt>
<pdfrwt beam="1">  1        1 0.16777630E+00 0.63265999E+03</pdfrwt>
<pdfrwt beam="2">  1       -1 0.11973175E+00 0.63265999E+03</pdfrwt>
<totfact> 0.84548709E+00</totfact>
</mgrwt>
</event>
<event>
 4    1  0.4964158E-009  0.3422140E+03  0.7818608E-02  0.1065857E+00
          1   -1    0    0  501    0  0.00000000000E+00  0.00000000000E+00  0.30831066797E+03  0.30831066802E+03  0.50400000000E-02 0. -1.
         -1   -1    0    0    0  501 -0.00000000000E+00 -0.00000000000E+00 -0.66379181693E+03  0.66379181695E+03  0.50400000000E-02 0.  1.
    8880022    1    1    2    0    0 -0.18359374975E+03 -0.24497369935E+03  0.14015479501E+03  0.36980237681E+03  0.15294330000E+03 0.  0.
    8880022    1    1    2    0    0  0.18359374975E+03  0.24497369935E+03 -0.49563594396E+03  0.60230010815E+03  0.15294330000E+03 0.  0.
<mgrwt>
<rscale>  0 0.34221401E+03</rscale>
<asrwt>0</asrwt>
<pdfrwt beam="1">  1        1 0.47432410E-01 0.34221401E+03</pdfrwt>
<pdfrwt beam="2">  1       -1 0.10212182E+00 0.34221401E+03</pdfrwt>
<totfact> 0.81304978E+01</totfact>
</mgrwt>
</event>
<event>
 4    1  0.4964158E-009  0.8248088E+03  0.7818608E-02  0.9524786E-01
          1   -1    0    0  501    0  0.00000000000E+00  0.00000000000E+00  0.30314093293E+04  0.30314093293E+04  0.50400000000E-02 0. -1.
         -1   -1    0    0    0  501 -0.00000000000E+00 -0.00000000000E+00 -0.59988054955E+03  0.59988054957E+03  0.50400000000E-02 0.  1.
    8880022    1    1    2    0    0  0.72613413116E+03  0.36006551253E+03 -0.22065265975E+03  0.85381332797E+03  0.15294330000E+03 0.  0.
    8880022    1    1    2    0    0 -0.72613413116E+03 -0.36006551253E+03  0.26521814395E+04  0.27774765509E+04  0.15294330000E+03 0.  0.
<mgrwt>
<rscale>  0 0.82480883E+03</rscale>
<asrwt>0</asrwt>
<pdfrwt beam="1">  1        1 0.46637066E+00 0.82480883E+03</pdfrwt>
<pdfrwt beam="2">  1       -1 0.92289317E-01 0.82480883E+03</pdfrwt>
<totfact> 0.68887149E-01</totfact>
</mgrwt>
</event>
<event>
 4    1  0.4964158E-009  0.1312585E+04  0.7818608E-02  0.9019644E-01
          1   -1    0    0  501    0  0.00000000000E+00  0.00000000000E+00  0.25700080187E+04  0.25700080187E+04  0.50400000000E-02 0. -1.
         -1   -1    0    0    0  501 -0.00000000000E+00 -0.00000000000E+00 -0.72552650370E+03  0.72552650372E+03  0.50400000000E-02 0.  1.
    8880022    1    1    2    0    0  0.91920424628E+03 -0.92441997682E+03  0.46795340576E+03  0.13935066497E+04  0.15294330000E+03 0.  0.
    8880022    1    1    2    0    0 -0.91920424628E+03  0.92441997682E+03  0.13765281093E+04  0.19020278727E+04  0.15294330000E+03 0.  0.
<mgrwt>
<rscale>  0 0.13125854E+04</rscale>
<asrwt>0</asrwt>
<pdfrwt beam="1">  1        1 0.39538585E+00 0.13125854E+04</pdfrwt>
<pdfrwt beam="2">  1       -1 0.11161946E+00 0.13125854E+04</pdfrwt>
<totfact> 0.87103368E-01</totfact>
</mgrwt>
</event>
<event>
 4    1  0.4964158E-009  0.1321792E+04  0.7818608E-02  0.9012460E-01
         -1   -1    0    0    0  501 -0.00000000000E+00  0.00000000000E+00  0.11379658006E+04  0.11379658006E+04  0.50400000000E-02 0.  1.
          1   -1    0    0  501    0  0.00000000000E+00 -0.00000000000E+00 -0.29446126408E+04  0.29446126408E+04  0.50400000000E-02 0. -1.
    8880022    1    1    2    0    0  0.97158353925E+03 -0.88304502269E+03  0.50886284882E+03  0.14163601723E+04  0.15294330000E+03 0.  0.
    8880022    1    1    2    0    0 -0.97158353925E+03  0.88304502269E+03 -0.23155096890E+04  0.26662182691E+04  0.15294330000E+03 0.  0.
<mgrwt>
<rscale>  0 0.13217922E+04</rscale>
<asrwt>0</asrwt>
<pdfrwt beam="1">  1        1 0.45301733E+00 0.13217922E+04</pdfrwt>
<pdfrwt beam="2">  1       -1 0.17507166E+00 0.13217922E+04</pdfrwt>
<totfact> 0.14412374E-01</totfact>
</mgrwt>
</event>
<event>
 4    1  0.4964158E-009  0.2884514E+03  0.7818608E-02  0.1091160E+00
          1   -1    0    0  501    0  0.00000000000E+00  0.00000000000E+00  0.10021975362E+04  0.10021975362E+04  0.50400000000E-02 0. -1.
         -1   -1    0    0    0  501 -0.00000000000E+00 -0.00000000000E+00 -0.74658090670E+03  0.74658090672E+03  0.50400000000E-02 0.  1.
    8880022    1    1    2    0    0  0.23053117947E+03  0.81657269086E+02  0.95214794893E+03  0.99488185428E+03  0.15294330000E+03 0. -1.
    8880022    1    1    2    0    0 -0.23053117947E+03 -0.81657269086E+02 -0.69653131947E+03  0.75389658861E+03  0.15294330000E+03 0.  0.
<mgrwt>
<rscale>  0 0.28845136E+03</rscale>
<asrwt>0</asrwt>
<pdfrwt beam="1">  1        1 0.15418424E+00 0.28845136E+03</pdfrwt>
<pdfrwt beam="2">  1       -1 0.11485860E+00 0.28845136E+03</pdfrwt>
<totfact> 0.11837433E+01</totfact>
</mgrwt>
</event>
<event>
 4    1  0.4964158E-009  0.5610967E+03  0.7818608E-02  0.9989576E-01
         -1   -1    0    0    0  501 -0.00000000000E+00  0.00000000000E+00  0.40143254662E+03  0.40143254665E+03  0.50400000000E-02 0.  1.
          1   -1    0    0  501    0  0.00000000000E+00 -0.00000000000E+00 -0.12238726498E+04  0.12238726498E+04  0.50400000000E-02 0. -1.
    8880022    1    1    2    0    0  0.52213995348E+03  0.13714130982E+03 -0.89826540134E+03  0.10591082353E+04  0.15294330000E+03 0.  0.
    8880022    1    1    2    0    0 -0.52213995348E+03 -0.13714130982E+03  0.75825298202E+02  0.56619696109E+03  0.15294330000E+03 0.  0.
<mgrwt>
<rscale>  0 0.56109671E+03</rscale>
<asrwt>0</asrwt>
<pdfrwt beam="1">  1        1 0.18828810E+00 0.56109671E+03</pdfrwt>
<pdfrwt beam="2">  1       -1 0.61758854E-01 0.56109671E+03</pdfrwt>
<totfact> 0.28835262E+01</totfact>
</mgrwt>
</event>
<event>
 4    1  0.4964158E-009  0.2433511E+03  0.7818608E-02  0.1117580E+00
          1   -1    0    0  501    0  0.00000000000E+00  0.00000000000E+00  0.47875953165E+03  0.47875953168E+03  0.50400000000E-02 0. -1.
         -1   -1    0    0    0  501 -0.00000000000E+00 -0.00000000000E+00 -0.24582379183E+03  0.24582379188E+03  0.50400000000E-02 0.  1.
    8880022    1    1    2    0    0  0.17819545072E+03  0.63831587651E+02  0.37183027572E+03  0.44438440251E+03  0.15294330000E+03 0.  0.
    8880022    1    1    2    0    0 -0.17819545072E+03 -0.63831587651E+02 -0.13889453590E+03  0.28019892105E+03  0.15294330000E+03 0.  1.
<mgrwt>
<rscale>  0 0.24335107E+03</rscale>
<asrwt>0</asrwt>
<pdfrwt beam="1">  1        1 0.73655312E-01 0.24335107E+03</pdfrwt>
<pdfrwt beam="2">  1       -1 0.37819045E-01 0.24335107E+03</pdfrwt>
<totfact> 0.32971969E+02</totfact>
</mgrwt>
</event>
<event>
 4    1  0.4964158E-009  0.4557498E+03  0.7818608E-02  0.1026021E+00
         -1   -1    0    0    0  501 -0.00000000000E+00  0.00000000000E+00  0.14461979703E+03  0.14461979712E+03  0.50400000000E-02 0.  1.
          1   -1    0    0  501    0  0.00000000000E+00 -0.00000000000E+00 -0.23111564369E+04  0.23111564369E+04  0.50400000000E-02 0. -1.
    8880022    1    1    2    0    0  0.42907347291E+03  0.14565622503E+02 -0.32777796155E+03  0.56137888061E+03  0.15294330000E+03 0.  0.
    8880022    1    1    2    0    0 -0.42907347291E+03 -0.14565622503E+02 -0.18387586783E+04  0.18943973534E+04  0.15294330000E+03 0.  0.
<mgrwt>
<rscale>  0 0.45574977E+03</rscale>
<asrwt>0</asrwt>
<pdfrwt beam="1">  1        1 0.35556250E+00 0.45574977E+03</pdfrwt>
<pdfrwt beam="2">  1       -1 0.22249201E-01 0.45574977E+03</pdfrwt>
<totfact> 0.34196172E+01</totfact>
</mgrwt>
</event>
<event>
 4    1  0.4964158E-009  0.1482441E+04  0.7818608E-02  0.8896214E-01
          1   -1    0    0  501    0  0.00000000000E+00  0.00000000000E+00  0.35815582919E+04  0.35815582919E+04  0.50400000000E-02 0. -1.
         -1   -1    0    0    0  501 -0.00000000000E+00 -0.00000000000E+00 -0.12144179240E+04  0.12144179241E+04  0.50400000000E-02 0.  1.
    8880022    1    1    2    0    0 -0.76072234830E+03  0.12631477320E+04  0.28702613674E+04  0.32304848946E+04  0.15294330000E+03 0.  0.
    8880022    1    1    2    0    0  0.76072234830E+03 -0.12631477320E+04 -0.50312099953E+03  0.15654913214E+04  0.15294330000E+03 0.  0.
<mgrwt>
<rscale>  0 0.14824413E+04</rscale>
<asrwt>0</asrwt>
<pdfrwt beam="1">  1        1 0.55100897E+00 0.14824413E+04</pdfrwt>
<pdfrwt beam="2">  1       -1 0.18683353E+00 0.14824413E+04</pdfrwt>
<totfact> 0.38273140E-02</totfact>
</mgrwt>
</event>
<event>
 4    1  0.4964158E-009  0.3256286E+03  0.7818608E-02  0.1073088E+00
          1   -1    0    0  501    0  0.00000000000E+00  0.00000000000E+00  0.82456472608E+03  0.82456472610E+03  0.50400000000E-02 0. -1.
         -1   -1    0    0    0  501 -0.00000000000E+00 -0.00000000000E+00 -0.28646511914E+03  0.28646511919E+03  0.50400000000E-02 0.  1.
    8880022    1    1    2    0    0 -0.18569609451E+03 -0.21945221405E+03 -0.14334328891E+03  0.35578260955E+03  0.15294330000E+03 0.  0.
    8880022    1    1    2    0    0  0.18569609451E+03  0.21945221405E+03  0.68144289585E+03  0.75524723573E+03  0.15294330000E+03 0.  0.
<mgrwt>
<rscale>  0 0.32562857E+03</rscale>
<asrwt>0</asrwt>
<pdfrwt beam="1">  1        1 0.12685611E+00 0.32562857E+03</pdfrwt>
<pdfrwt beam="2">  1       -1 0.44071558E-01 0.32562857E+03</pdfrwt>
<totfact> 0.11423221E+02</totfact>
</mgrwt>
</event>
<event>
 4    1  0.4964158E-009  0.6917628E+03  0.7818608E-02  0.9731424E-01
          1   -1    0    0  501    0  0.00000000000E+00  0.00000000000E+00  0.92680699816E+03  0.92680699817E+03  0.50400000000E-02 0. -1.
         -1   -1    0    0    0  501 -0.00000000000E+00 -0.00000000000E+00 -0.51977221537E+03  0.51977221540E+03  0.50400000000E-02 0.  1.
    8880022    1    1    2    0    0 -0.30202187569E+03 -0.60326354177E+03  0.26240096263E+03  0.73985811641E+03  0.15294330000E+03 0.  0.
    8880022    1    1    2    0    0  0.30202187569E+03  0.60326354177E+03  0.14463382015E+03  0.70672109716E+03  0.15294330000E+03 0.  0.
<mgrwt>
<rscale>  0 0.69176280E+03</rscale>
<asrwt>0</asrwt>
<pdfrwt beam="1">  1        1 0.14258569E+00 0.69176280E+03</pdfrwt>
<pdfrwt beam="2">  1       -1 0.79964956E-01 0.69176280E+03</pdfrwt>
<totfact> 0.27929134E+01</totfact>
</mgrwt>
</event>
<event>
 4    1  0.4964158E-009  0.5295421E+03  0.7818608E-02  0.1006343E+00
          1   -1    0    0  501    0  0.00000000000E+00  0.00000000000E+00  0.85182663429E+03  0.85182663430E+03  0.50400000000E-02 0. -1.
         -1   -1    0    0    0  501 -0.00000000000E+00 -0.00000000000E+00 -0.34443366567E+03  0.34443366571E+03  0.50400000000E-02 0.  1.
    8880022    1    1    2    0    0 -0.39716794926E+03 -0.31508859602E+03  0.37951755567E+03  0.65149706932E+03  0.15294330000E+03 0.  0.
    8880022    1    1    2    0    0  0.39716794926E+03  0.31508859602E+03  0.12787541295E+03  0.54476323069E+03  0.15294330000E+03 0.  0.
<mgrwt>
<rscale>  0 0.52954212E+03</rscale>
<asrwt>0</asrwt>
<pdfrwt beam="1">  1        1 0.13105025E+00 0.52954212E+03</pdfrwt>
<pdfrwt beam="2">  1       -1 0.52989795E-01 0.52954212E+03</pdfrwt>
<totfact> 0.74787206E+01</totfact>
</mgrwt>
</event>
<event>
 4    1  0.4964158E-009  0.5689769E+03  0.7818608E-02  0.9971945E-01
          1   -1    0    0  501    0  0.00000000000E+00  0.00000000000E+00  0.71722822188E+03  0.71722822190E+03  0.50400000000E-02 0. -1.
         -1   -1    0    0    0  501 -0.00000000000E+00 -0.00000000000E+00 -0.79032796569E+03  0.79032796570E+03  0.50400000000E-02 0.  1.
    8880022    1    1    2    0    0 -0.19619715074E+03  0.51171254064E+03  0.45709348637E+03  0.72984186952E+03  0.15294330000E+03 0.  0.
    8880022    1    1    2    0    0  0.19619715074E+03 -0.51171254064E+03 -0.53019323017E+03  0.77771431808E+03  0.15294330000E+03 0.  0.
<mgrwt>
<rscale>  0 0.56897689E+03</rscale>
<asrwt>0</asrwt>
<pdfrwt beam="1">  1        1 0.11034280E+00 0.56897689E+03</pdfrwt>
<pdfrwt beam="2">  1       -1 0.12158892E+00 0.56897689E+03</pdfrwt>
<totfact> 0.16578660E+01</totfact>
</mgrwt>
</event>
<event>
 4    1  0.4964158E-009  0.1197558E+04  0.7818608E-02  0.9114996E-01
         -1   -1    0    0    0  501 -0.00000000000E+00  0.00000000000E+00  0.83415563948E+03  0.83415563950E+03  0.50400000000E-02 0.  1.
          1   -1    0    0  501    0  0.00000000000E+00 -0.00000000000E+00 -0.17665277479E+04  0.17665277479E+04  0.50400000000E-02 0. -1.
    8880022    1    1    2    0    0  0.97058410621E+03 -0.68463183147E+03 -0.67885028049E+03  0.13765840360E+04  0.15294330000E+03 0.  0.
    8880022    1    1    2    0    0 -0.97058410621E+03  0.68463183147E+03 -0.25352182796E+03  0.12240993514E+04  0.15294330000E+03 0.  0.
<mgrwt>
<rscale>  0 0.11975583E+04</rscale>
<asrwt>0</asrwt>
<pdfrwt beam="1">  1        1 0.27177350E+00 0.11975583E+04</pdfrwt>
<pdfrwt beam="2">  1       -1 0.12833164E+00 0.11975583E+04</pdfrwt>
<totfact> 0.22116795E+00</totfact>
</mgrwt>
</event>
<event>
 4    1  0.4964158E-009  0.4928175E+03  0.7818608E-02  0.1015671E+00
         -1   -1    0    0    0  501 -0.00000000000E+00  0.00000000000E+00  0.29292437652E+03  0.29292437657E+03  0.50400000000E-02 0.  1.
          1   -1    0    0  501    0  0.00000000000E+00 -0.00000000000E+00 -0.88078301827E+03  0.88078301829E+03  0.50400000000E-02 0. -1.
    8880022    1    1    2    0    0  0.46737791218E+03  0.32176736688E+02 -0.15179783333E+03  0.51566625873E+03  0.15294330000E+03 0.  0.
    8880022    1    1    2    0    0 -0.46737791218E+03 -0.32176736688E+02 -0.43606080842E+03  0.65804113612E+03  0.15294330000E+03 0.  0.
<mgrwt>
<rscale>  0 0.49281752E+03</rscale>
<asrwt>0</asrwt>
<pdfrwt beam="1">  1        1 0.13550508E+00 0.49281752E+03</pdfrwt>
<pdfrwt beam="2">  1       -1 0.45065289E-01 0.49281752E+03</pdfrwt>
<totfact> 0.96316395E+01</totfact>
</mgrwt>
</event>
<event>
 4    1  0.4964158E-009  0.8347273E+03  0.7818608E-02  0.9511068E-01
         -1   -1    0    0    0  501 -0.00000000000E+00  0.00000000000E+00  0.70828362634E+03  0.70828362636E+03  0.50400000000E-02 0.  1.
          1   -1    0    0  501    0  0.00000000000E+00 -0.00000000000E+00 -0.33666399760E+04  0.33666399760E+04  0.50400000000E-02 0. -1.
    8880022    1    1    2    0    0 -0.47772171797E+03  0.66720311582E+03 -0.30433079114E+04  0.31557079609E+04  0.15294330000E+03 0.  0.
    8880022    1    1    2    0    0  0.47772171797E+03 -0.66720311582E+03  0.38495156179E+03  0.91921564147E+03  0.15294330000E+03 0.  0.
<mgrwt>
<rscale>  0 0.83472732E+03</rscale>
<asrwt>0</asrwt>
<pdfrwt beam="1">  1        1 0.51794460E+00 0.83472732E+03</pdfrwt>
<pdfrwt beam="2">  1       -1 0.10896671E+00 0.83472732E+03</pdfrwt>
<totfact> 0.26579049E-01</totfact>
</mgrwt>
</event>
<event>
 4    1  0.4964158E-009  0.1364258E+04  0.7818608E-02  0.8980105E-01
          1   -1    0    0  501    0  0.00000000000E+00  0.00000000000E+00  0.18482200980E+04  0.18482200980E+04  0.50400000000E-02 0. -1.
         -1   -1    0    0    0  501 -0.00000000000E+00 -0.00000000000E+00 -0.21961199130E+04  0.21961199130E+04  0.50400000000E-02 0.  1.
    8880022    1    1    2    0    0  0.11985312053E+04 -0.63350707853E+03 -0.16619339972E+04  0.21501684894E+04  0.15294330000E+03 0.  0.
    8880022    1    1    2    0    0 -0.11985312053E+04  0.63350707853E+03  0.13140341822E+04  0.18941715217E+04  0.15294330000E+03 0.  0.
<mgrwt>
<rscale>  0 0.13642580E+04</rscale>
<asrwt>0</asrwt>
<pdfrwt beam="1">  1        1 0.28434155E+00 0.13642580E+04</pdfrwt>
<pdfrwt beam="2">  1       -1 0.33786460E+00 0.13642580E+04</pdfrwt>
<totfact> 0.67970427E-02</totfact>
</mgrwt>
</event>
<event>
 4    1  0.4964158E-009  0.3791897E+03  0.7818608E-02  0.1051234E+00
         -1   -1    0    0    0  501 -0.00000000000E+00  0.00000000000E+00  0.46263312929E+03  0.46263312932E+03  0.50400000000E-02 0.  1.
          1   -1    0    0  501    0  0.00000000000E+00 -0.00000000000E+00 -0.79589110572E+03  0.79589110574E+03  0.50400000000E-02 0. -1.
    8880022    1    1    2    0    0  0.34053161642E+03  0.66568603388E+02 -0.65789637015E+03  0.75935001654E+03  0.15294330000E+03 0.  0.
    8880022    1    1    2    0    0 -0.34053161642E+03 -0.66568603388E+02  0.32463839372E+03  0.49917421852E+03  0.15294330000E+03 0.  0.
<mgrwt>
<rscale>  0 0.37918968E+03</rscale>
<asrwt>0</asrwt>
<pdfrwt beam="1">  1        1 0.12244479E+00 0.37918968E+03</pdfrwt>
<pdfrwt beam="2">  1       -1 0.71174328E-01 0.37918968E+03</pdfrwt>
<totfact> 0.47758524E+01</totfact>
</mgrwt>
</event>
<event>
 4    1  0.4964158E-009  0.5269423E+03  0.7818608E-02  0.1006976E+00
          1   -1    0    0  501    0  0.00000000000E+00  0.00000000000E+00  0.22997054461E+04  0.22997054461E+04  0.50400000000E-02 0. -1.
         -1   -1    0    0    0  501 -0.00000000000E+00 -0.00000000000E+00 -0.19842269837E+03  0.19842269844E+03  0.50400000000E-02 0.  1.
    8880022    1    1    2    0    0 -0.48430568011E+03  0.14044409919E+03  0.18321775039E+04  0.19064476378E+04  0.15294330000E+03 0.  0.
    8880022    1    1    2    0    0  0.48430568011E+03 -0.14044409919E+03  0.26910524377E+03  0.59168050671E+03  0.15294330000E+03 0.  1.
<mgrwt>
<rscale>  0 0.52694230E+03</rscale>
<asrwt>0</asrwt>
<pdfrwt beam="1">  1        1 0.35380085E+00 0.52694230E+03</pdfrwt>
<pdfrwt beam="2">  1       -1 0.30526568E-01 0.52694230E+03</pdfrwt>
<totfact> 0.20017618E+01</totfact>
</mgrwt>
</event>
<event>
 4    1  0.4964158E-009  0.6286938E+03  0.7818608E-02  0.9847601E-01
          1   -1    0    0  501    0  0.00000000000E+00  0.00000000000E+00  0.20371560243E+04  0.20371560243E+04  0.50400000000E-02 0. -1.
         -1   -1    0    0    0  501 -0.00000000000E+00 -0.00000000000E+00 -0.16447138433E+04  0.16447138433E+04  0.50400000000E-02 0.  1.
    8880022    1    1    2    0    0 -0.54952969018E+03 -0.26435071472E+03  0.19251639797E+04  0.20252190456E+04  0.15294330000E+03 0.  0.
    8880022    1    1    2    0    0  0.54952969018E+03  0.26435071472E+03 -0.15327217987E+04  0.16566508220E+04  0.15294330000E+03 0.  0.
<mgrwt>
<rscale>  0 0.62869375E+03</rscale>
<asrwt>0</asrwt>
<pdfrwt beam="1">  1        1 0.31340862E+00 0.62869375E+03</pdfrwt>
<pdfrwt beam="2">  1       -1 0.25303290E+00 0.62869375E+03</pdfrwt>
<totfact> 0.20847217E-01</totfact>
</mgrwt>
</event>
<event>
 4    1  0.4964158E-009  0.2761581E+03  0.7818608E-02  0.1097806E+00
         -1   -1    0    0    0  501 -0.00000000000E+00  0.00000000000E+00  0.67124184562E+03  0.67124184564E+03  0.50400000000E-02 0.  1.
          1   -1    0    0  501    0  0.00000000000E+00 -0.00000000000E+00 -0.96712069111E+03  0.96712069113E+03  0.50400000000E-02 0. -1.
    8880022    1    1    2    0    0 -0.15273620649E+03 -0.17188158142E+03  0.62162119417E+03  0.68020304973E+03  0.15294330000E+03 0.  0.
    8880022    1    1    2    0    0  0.15273620649E+03  0.17188158142E+03 -0.91750003966E+03  0.95815948704E+03  0.15294330000E+03 0.  0.
<mgrwt>
<rscale>  0 0.27615807E+03</rscale>
<asrwt>0</asrwt>
<pdfrwt beam="1">  1        1 0.14878780E+00 0.27615807E+03</pdfrwt>
<pdfrwt beam="2">  1       -1 0.10326798E+00 0.27615807E+03</pdfrwt>
<totfact> 0.16150878E+01</totfact>
</mgrwt>
</event>
<event>
 4    1  0.4964158E-009  0.1010769E+04  0.7818608E-02  0.9296812E-01
          1   -1    0    0  501    0  0.00000000000E+00  0.00000000000E+00  0.19648066644E+04  0.19648066644E+04  0.50400000000E-02 0. -1.
         -1   -1    0    0    0  501 -0.00000000000E+00 -0.00000000000E+00 -0.10591718965E+04  0.10591718965E+04  0.50400000000E-02 0.  1.
    8880022    1    1    2    0    0 -0.96041005927E+03 -0.27545417779E+03 -0.62597631720E+03  0.11889072667E+04  0.15294330000E+03 0.  0.
    8880022    1    1    2    0    0  0.96041005927E+03  0.27545417779E+03  0.15316110851E+04  0.18350712942E+04  0.15294330000E+03 0.  0.
<mgrwt>
<rscale>  0 0.10107691E+04</rscale>
<asrwt>0</asrwt>
<pdfrwt beam="1">  1        1 0.30227794E+00 0.10107691E+04</pdfrwt>
<pdfrwt beam="2">  1       -1 0.16294953E+00 0.10107691E+04</pdfrwt>
<totfact> 0.88209753E-01</totfact>
</mgrwt>
</event>
<event>
 4    1  0.4964158E-009  0.1190229E+04  0.7818608E-02  0.9121452E-01
         -1   -1    0    0    0  501 -0.00000000000E+00  0.00000000000E+00  0.55534494269E+03  0.55534494271E+03  0.50400000000E-02 0.  1.
          1   -1    0    0  501    0  0.00000000000E+00 -0.00000000000E+00 -0.40866217105E+04  0.40866217105E+04  0.50400000000E-02 0. -1.
    8880022    1    1    2    0    0  0.63572368314E+03  0.99453964059E+03 -0.31884323212E+04  0.34033433588E+04  0.15294330000E+03 0.  0.
    8880022    1    1    2    0    0 -0.63572368314E+03 -0.99453964059E+03 -0.34284444669E+03  0.12386232945E+04  0.15294330000E+03 0.  0.
<mgrwt>
<rscale>  0 0.11902291E+04</rscale>
<asrwt>0</asrwt>
<pdfrwt beam="1">  1        1 0.62871101E+00 0.11902291E+04</pdfrwt>
<pdfrwt beam="2">  1       -1 0.85437686E-01 0.11902291E+04</pdfrwt>
<totfact> 0.11096080E-01</totfact>
</mgrwt>
</event>
<event>
 4    1  0.4964158E-009  0.1397167E+04  0.7818608E-02  0.8955872E-01
          1   -1    0    0  501    0  0.00000000000E+00  0.00000000000E+00  0.15202672869E+04  0.15202672869E+04  0.50400000000E-02 0. -1.
         -1   -1    0    0    0  501 -0.00000000000E+00 -0.00000000000E+00 -0.14763405468E+04  0.14763405468E+04  0.50400000000E-02 0.  1.
    8880022    1    1    2    0    0  0.13874346642E+04  0.60908786580E+02 -0.51879405451E+03  0.14903770502E+04  0.15294330000E+03 0.  0.
    8880022    1    1    2    0    0 -0.13874346642E+04 -0.60908786580E+02  0.56272079460E+03  0.15062307836E+04  0.15294330000E+03 0.  0.
<mgrwt>
<rscale>  0 0.13971673E+04</rscale>
<asrwt>0</asrwt>
<pdfrwt beam="1">  1        1 0.23388727E+00 0.13971673E+04</pdfrwt>
<pdfrwt beam="2">  1       -1 0.22712932E+00 0.13971673E+04</pdfrwt>
<totfact> 0.59776606E-01</totfact>
</mgrwt>
</event>
<event>
 4    1  0.4964158E-009  0.1452996E+04  0.7818608E-02  0.8916326E-01
         -1   -1    0    0    0  501 -0.00000000000E+00  0.00000000000E+00  0.34752705499E+04  0.34752705499E+04  0.50400000000E-02 0.  1.
          1   -1    0    0  501    0  0.00000000000E+00 -0.00000000000E+00 -0.68655697180E+03  0.68655697182E+03  0.50400000000E-02 0. -1.
    8880022    1    1    2    0    0  0.52197074750E+03  0.13473499831E+04  0.21005270187E+04  0.25540968751E+04  0.15294330000E+03 0.  0.
    8880022    1    1    2    0    0 -0.52197074750E+03 -0.13473499831E+04  0.68818655937E+03  0.16077306465E+04  0.15294330000E+03 0.  0.
<mgrwt>
<rscale>  0 0.14529959E+04</rscale>
<asrwt>0</asrwt>
<pdfrwt beam="1">  1        1 0.10562415E+00 0.14529959E+04</pdfrwt>
<pdfrwt beam="2">  1       -1 0.53465701E+00 0.14529959E+04</pdfrwt>
<totfact> 0.24265291E-02</totfact>
</mgrwt>
</event>
<event>
 4    1  0.4964158E-009  0.5528266E+03  0.7818608E-02  0.1000842E+00
         -1   -1    0    0    0  501 -0.00000000000E+00  0.00000000000E+00  0.25365906830E+03  0.25365906835E+03  0.50400000000E-02 0.  1.
          1   -1    0    0  501    0  0.00000000000E+00 -0.00000000000E+00 -0.21912294751E+04  0.21912294751E+04  0.50400000000E-02 0. -1.
    8880022    1    1    2    0    0 -0.50569717547E+03 -0.16277565340E+03 -0.14860258307E+03  0.57245080778E+03  0.15294330000E+03 0.  0.
    8880022    1    1    2    0    0  0.50569717547E+03  0.16277565340E+03 -0.17889678238E+04  0.18724377357E+04  0.15294330000E+03 0.  0.
<mgrwt>
<rscale>  0 0.55282655E+03</rscale>
<asrwt>0</asrwt>
<pdfrwt beam="1">  1        1 0.33711221E+00 0.55282655E+03</pdfrwt>
<pdfrwt beam="2">  1       -1 0.39024473E-01 0.55282655E+03</pdfrwt>
<totfact> 0.15239985E+01</totfact>
</mgrwt>
</event>
<event>
 4    1  0.4964158E-009  0.1140189E+04  0.7818608E-02  0.9166882E-01
         -1   -1    0    0    0  501 -0.00000000000E+00  0.00000000000E+00  0.66374473021E+03  0.66374473023E+03  0.50400000000E-02 0.  1.
          1   -1    0    0  501    0  0.00000000000E+00 -0.00000000000E+00 -0.33636110790E+04  0.33636110790E+04  0.50400000000E-02 0. -1.
    8880022    1    1    2    0    0 -0.82128846248E+03 -0.77596717701E+03 -0.26513670195E+04  0.28861355692E+04  0.15294330000E+03 0.  0.
    8880022    1    1    2    0    0  0.82128846248E+03  0.77596717701E+03 -0.48499329282E+02  0.11412202401E+04  0.15294330000E+03 0.  0.
<mgrwt>
<rscale>  0 0.11401892E+04</rscale>
<asrwt>0</asrwt>
<pdfrwt beam="1">  1        1 0.51747862E+00 0.11401892E+04</pdfrwt>
<pdfrwt beam="2">  1       -1 0.10211458E+00 0.11401892E+04</pdfrwt>
<totfact> 0.29317253E-01</totfact>
</mgrwt>
</event>
<event>
 4    1  0.4964158E-009  0.2585503E+03  0.7818608E-02  0.1108017E+00
          1   -1    0    0  501    0  0.00000000000E+00  0.00000000000E+00  0.14388585500E+04  0.14388585500E+04  0.50400000000E-02 0. -1.
         -1   -1    0    0    0  501 -0.00000000000E+00 -0.00000000000E+00 -0.15453522187E+03  0.15453522196E+03  0.50400000000E-02 0.  1.
    8880022    1    1    2    0    0 -0.16572746909E+03 -0.12645559986E+03  0.13084220424E+04  0.13337227998E+04  0.15294330000E+03 0.  0.
    8880022    1    1    2    0    0  0.16572746909E+03  0.12645559986E+03 -0.24098714233E+02  0.25967097217E+03  0.15294330000E+03 0.  1.
<mgrwt>
<rscale>  0 0.25855032E+03</rscale>
<asrwt>0</asrwt>
<pdfrwt beam="1">  1        1 0.22136285E+00 0.25855032E+03</pdfrwt>
<pdfrwt beam="2">  1       -1 0.23774649E-01 0.25855032E+03</pdfrwt>
<totfact> 0.12056770E+02</totfact>
</mgrwt>
</event>
<event>
 4    1  0.4964158E-009  0.3717189E+03  0.7818608E-02  0.1054038E+00
         -1   -1    0    0    0  501 -0.00000000000E+00  0.00000000000E+00  0.31793148885E+03  0.31793148889E+03  0.50400000000E-02 0.  1.
          1   -1    0    0  501    0  0.00000000000E+00 -0.00000000000E+00 -0.99049347573E+03  0.99049347575E+03  0.50400000000E-02 0. -1.
    8880022    1    1    2    0    0 -0.86385490671E+02  0.32759858951E+03  0.15382097853E+03  0.40228824902E+03  0.15294330000E+03 0.  0.
    8880022    1    1    2    0    0  0.86385490671E+02 -0.32759858951E+03 -0.82638296542E+03  0.90613671562E+03  0.15294330000E+03 0.  0.
<mgrwt>
<rscale>  0 0.37171890E+03</rscale>
<asrwt>0</asrwt>
<pdfrwt beam="1">  1        1 0.15238361E+00 0.37171890E+03</pdfrwt>
<pdfrwt beam="2">  1       -1 0.48912537E-01 0.37171890E+03</pdfrwt>
<totfact> 0.69091578E+01</totfact>
</mgrwt>
</event>
<event>
 4    1  0.4964158E-009  0.9310297E+03  0.7818608E-02  0.9387603E-01
         -1   -1    0    0    0  501 -0.00000000000E+00  0.00000000000E+00  0.13243726846E+04  0.13243726846E+04  0.50400000000E-02 0.  1.
          1   -1    0    0  501    0  0.00000000000E+00 -0.00000000000E+00 -0.11592560412E+04  0.11592560412E+04  0.50400000000E-02 0. -1.
    8880022    1    1    2    0    0  0.41306820530E+02 -0.91745215685E+03  0.90197172847E+03  0.12962906177E+04  0.15294330000E+03 0.  0.
    8880022    1    1    2    0    0 -0.41306820530E+02  0.91745215685E+03 -0.73685508514E+03  0.11873381081E+04  0.15294330000E+03 0.  0.
<mgrwt>
<rscale>  0 0.93102973E+03</rscale>
<asrwt>0</asrwt>
<pdfrwt beam="1">  1        1 0.17834708E+00 0.93102973E+03</pdfrwt>
<pdfrwt beam="2">  1       -1 0.20374964E+00 0.93102973E+03</pdfrwt>
<totfact> 0.16483929E+00</totfact>
</mgrwt>
</event>
<event>
 4    1  0.4964158E-009  0.9704253E+03  0.7818608E-02  0.9341590E-01
         -1   -1    0    0    0  501 -0.00000000000E+00  0.00000000000E+00  0.19760152851E+04  0.19760152851E+04  0.50400000000E-02 0.  1.
          1   -1    0    0  501    0  0.00000000000E+00 -0.00000000000E+00 -0.73888046932E+03  0.73888046934E+03  0.50400000000E-02 0. -1.
    8880022    1    1    2    0    0  0.70039405542E+03 -0.65405023935E+03 -0.19022552375E+03  0.98889380186E+03  0.15294330000E+03 0.  0.
    8880022    1    1    2    0    0 -0.70039405542E+03  0.65405023935E+03  0.14273603395E+04  0.17260019526E+04  0.15294330000E+03 0.  0.
<mgrwt>
<rscale>  0 0.97042527E+03</rscale>
<asrwt>0</asrwt>
<pdfrwt beam="1">  1        1 0.11367392E+00 0.97042527E+03</pdfrwt>
<pdfrwt beam="2">  1       -1 0.30400234E+00 0.97042527E+03</pdfrwt>
<totfact> 0.79458922E-01</totfact>
</mgrwt>
</event>
<event>
 4    1  0.4964158E-009  0.2292861E+04  0.7818608E-02  0.8480741E-01
          1   -1    0    0  501    0  0.00000000000E+00  0.00000000000E+00  0.35269976913E+04  0.35269976913E+04  0.50400000000E-02 0. -1.
         -1   -1    0    0    0  501 -0.00000000000E+00 -0.00000000000E+00 -0.15291735011E+04  0.15291735011E+04  0.50400000000E-02 0.  1.
    8880022    1    1    2    0    0  0.12199308126E+04 -0.19353526741E+04  0.59719970406E+03  0.23693586263E+04  0.15294330000E+03 0.  0.
    8880022    1    1    2    0    0 -0.12199308126E+04  0.19353526741E+04  0.14006244861E+04  0.26868125660E+04  0.15294330000E+03 0.  0.
<mgrwt>
<rscale>  0 0.22928613E+04</rscale>
<asrwt>0</asrwt>
<pdfrwt beam="1">  1        1 0.54261502E+00 0.22928613E+04</pdfrwt>
<pdfrwt beam="2">  1       -1 0.23525746E+00 0.22928613E+04</pdfrwt>
<totfact> 0.17899851E-02</totfact>
</mgrwt>
</event>
<event>
 4    1  0.4964158E-009  0.1424348E+04  0.7818608E-02  0.8936380E-01
         -1   -1    0    0    0  501 -0.00000000000E+00  0.00000000000E+00  0.13194137256E+04  0.13194137256E+04  0.50400000000E-02 0.  1.
          1   -1    0    0  501    0  0.00000000000E+00 -0.00000000000E+00 -0.18813872024E+04  0.18813872024E+04  0.50400000000E-02 0. -1.
    8880022    1    1    2    0    0 -0.13122724451E+04  0.53227564215E+03  0.40310840258E+03  0.14802919869E+04  0.15294330000E+03 0.  0.
    8880022    1    1    2    0    0  0.13122724451E+04 -0.53227564215E+03 -0.96508187939E+03  0.17205089411E+04  0.15294330000E+03 0.  0.
<mgrwt>
<rscale>  0 0.14243483E+04</rscale>
<asrwt>0</asrwt>
<pdfrwt beam="1">  1        1 0.28944418E+00 0.14243483E+04</pdfrwt>
<pdfrwt beam="2">  1       -1 0.20298673E+00 0.14243483E+04</pdfrwt>
<totfact> 0.49103531E-01</totfact>
</mgrwt>
</event>
<event>
 4    1  0.4964158E-009  0.7539832E+03  0.7818608E-02  0.9629122E-01
          1   -1    0    0  501    0  0.00000000000E+00  0.00000000000E+00  0.14813806211E+04  0.14813806212E+04  0.50400000000E-02 0. -1.
         -1   -1    0    0    0  501 -0.00000000000E+00 -0.00000000000E+00 -0.44927422636E+03  0.44927422639E+03  0.50400000000E-02 0.  1.
    8880022    1    1    2    0    0 -0.50796671855E+03  0.53578803410E+03  0.14741903373E+03  0.76825974068E+03  0.15294330000E+03 0.  0.
    8880022    1    1    2    0    0  0.50796671855E+03 -0.53578803410E+03  0.88468736105E+03  0.11623951069E+04  0.15294330000E+03 0.  0.
<mgrwt>
<rscale>  0 0.75398319E+03</rscale>
<asrwt>0</asrwt>
<pdfrwt beam="1">  1        1 0.22790471E+00 0.75398319E+03</pdfrwt>
<pdfrwt beam="2">  1       -1 0.69119112E-01 0.75398319E+03</pdfrwt>
<totfact> 0.14778780E+01</totfact>
</mgrwt>
</event>
<event>
 4    1  0.4964158E-009  0.2177777E+03  0.7818608E-02  0.1135551E+00
          1   -1    0    0  501    0  0.00000000000E+00  0.00000000000E+00  0.89585244546E+03  0.89585244547E+03  0.50400000000E-02 0. -1.
         -1   -1    0    0    0  501 -0.00000000000E+00 -0.00000000000E+00 -0.19459211562E+03  0.19459211569E+03  0.50400000000E-02 0.  1.
    8880022    1    1    2    0    0  0.12489720171E+03 -0.91848619122E+02  0.81581045208E+03  0.84437777480E+03  0.15294330000E+03 0. -1.
    8880022    1    1    2    0    0 -0.12489720171E+03  0.91848619122E+02 -0.11455012225E+03  0.24606678636E+03  0.15294330000E+03 0. -1.
<mgrwt>
<rscale>  0 0.21777771E+03</rscale>
<asrwt>0</asrwt>
<pdfrwt beam="1">  1        1 0.13782345E+00 0.21777771E+03</pdfrwt>
<pdfrwt beam="2">  1       -1 0.29937249E-01 0.21777771E+03</pdfrwt>
<totfact> 0.20118032E+02</totfact>
</mgrwt>
</event>
<event>
 4    1  0.4964158E-009  0.5812971E+03  0.7818608E-02  0.9944987E-01
         -1   -1    0    0    0  501 -0.00000000000E+00  0.00000000000E+00  0.49058285216E+03  0.49058285218E+03  0.50400000000E-02 0.  1.
          1   -1    0    0  501    0  0.00000000000E+00 -0.00000000000E+00 -0.19780463171E+04  0.19780463171E+04  0.50400000000E-02 0. -1.
    8880022    1    1    2    0    0  0.54205894738E+03  0.14382890748E+03  0.25276995790E+03  0.63387614066E+03  0.15294330000E+03 0.  0.
    8880022    1    1    2    0    0 -0.54205894738E+03 -0.14382890748E+03 -0.17402334229E+04  0.18347530287E+04  0.15294330000E+03 0.  0.
<mgrwt>
<rscale>  0 0.58129709E+03</rscale>
<asrwt>0</asrwt>
<pdfrwt beam="1">  1        1 0.30431481E+00 0.58129709E+03</pdfrwt>
<pdfrwt beam="2">  1       -1 0.75474286E-01 0.58129709E+03</pdfrwt>
<totfact> 0.58983847E+00</totfact>
</mgrwt>
</event>
<event>
 4    1  0.4964158E-009  0.1358544E+04  0.7818608E-02  0.8984385E-01
          1   -1    0    0  501    0  0.00000000000E+00  0.00000000000E+00  0.25928789644E+04  0.25928789644E+04  0.50400000000E-02 0. -1.
         -1   -1    0    0    0  501 -0.00000000000E+00 -0.00000000000E+00 -0.88213445903E+03  0.88213445905E+03  0.50400000000E-02 0.  1.
    8880022    1    1    2    0    0 -0.96866679710E+03  0.94017838043E+03  0.91896874719E+02  0.13616487945E+04  0.15294330000E+03 0.  0.
    8880022    1    1    2    0    0  0.96866679710E+03 -0.94017838043E+03  0.16188476306E+04  0.21133646290E+04  0.15294330000E+03 0.  0.
<mgrwt>
<rscale>  0 0.13585442E+04</rscale>
<asrwt>0</asrwt>
<pdfrwt beam="1">  1        1 0.39890445E+00 0.13585442E+04</pdfrwt>
<pdfrwt beam="2">  1       -1 0.13571299E+00 0.13585442E+04</pdfrwt>
<totfact> 0.51342309E-01</totfact>
</mgrwt>
</event>
<event>
 4    1  0.4964158E-009  0.4671581E+03  0.7818608E-02  0.1022725E+00
          1   -1    0    0  501    0  0.00000000000E+00  0.00000000000E+00  0.12106169184E+04  0.12106169185E+04  0.50400000000E-02 0. -1.
         -1   -1    0    0    0  501 -0.00000000000E+00 -0.00000000000E+00 -0.11839816106E+04  0.11839816106E+04  0.50400000000E-02 0.  1.
    8880022    1    1    2    0    0  0.43812629964E+03  0.53762022442E+02 -0.10890715070E+04  0.11850373032E+04  0.15294330000E+03 0.  0.
    8880022    1    1    2    0    0 -0.43812629964E+03 -0.53762022442E+02  0.11157068148E+04  0.12095612259E+04  0.15294330000E+03 0. -1.
<mgrwt>
<rscale>  0 0.46715807E+03</rscale>
<asrwt>0</asrwt>
<pdfrwt beam="1">  1        1 0.18624876E+00 0.46715807E+03</pdfrwt>
<pdfrwt beam="2">  1       -1 0.18215102E+00 0.46715807E+03</pdfrwt>
<totfact> 0.23499474E+00</totfact>
</mgrwt>
</event>
<event>
 4    1  0.4964158E-009  0.5340812E+03  0.7818608E-02  0.1005247E+00
         -1   -1    0    0    0  501 -0.00000000000E+00  0.00000000000E+00  0.37455210352E+03  0.37455210355E+03  0.50400000000E-02 0.  1.
          1   -1    0    0  501    0  0.00000000000E+00 -0.00000000000E+00 -0.15270377161E+04  0.15270377161E+04  0.50400000000E-02 0. -1.
    8880022    1    1    2    0    0  0.50985767645E+03 -0.43545852689E+02  0.96933958332E+02  0.54280653719E+03  0.15294330000E+03 0.  0.
    8880022    1    1    2    0    0 -0.50985767645E+03  0.43545852689E+02 -0.12494195709E+04  0.13587832825E+04  0.15294330000E+03 0. -1.
<mgrwt>
<rscale>  0 0.53408122E+03</rscale>
<asrwt>0</asrwt>
<pdfrwt beam="1">  1        1 0.23492888E+00 0.53408122E+03</pdfrwt>
<pdfrwt beam="2">  1       -1 0.57623401E-01 0.53408122E+03</pdfrwt>
<totfact> 0.20466358E+01</totfact>
</mgrwt>
</event>
<event>
 4    1  0.4964158E-009  0.1767655E+03  0.7818608E-02  0.1170971E+00
          1   -1    0    0  501    0  0.00000000000E+00  0.00000000000E+00  0.45442269336E+03  0.45442269339E+03  0.50400000000E-02 0. -1.
         -1   -1    0    0    0  501 -0.00000000000E+00 -0.00000000000E+00 -0.25473553921E+03  0.25473553926E+03  0.50400000000E-02 0.  1.
    8880022    1    1    2    0    0 -0.57041171727E+02  0.67828403099E+02  0.40281136847E+03  0.43988980339E+03  0.15294330000E+03 0.  0.
    8880022    1    1    2    0    0  0.57041171727E+02 -0.67828403099E+02 -0.20312421432E+03  0.26926842926E+03  0.15294330000E+03 0.  1.
<mgrwt>
<rscale>  0 0.17676550E+03</rscale>
<asrwt>0</asrwt>
<pdfrwt beam="1">  1        1 0.69911183E-01 0.17676550E+03</pdfrwt>
<pdfrwt beam="2">  1       -1 0.39190083E-01 0.17676550E+03</pdfrwt>
<totfact> 0.33364083E+02</totfact>
</mgrwt>
</event>
<event>
 4    1  0.4964158E-009  0.4529666E+03  0.7818608E-02  0.1026841E+00
          1   -1    0    0  501    0  0.00000000000E+00  0.00000000000E+00  0.89541922492E+03  0.89541922493E+03  0.50400000000E-02 0. -1.
         -1   -1    0    0    0  501 -0.00000000000E+00 -0.00000000000E+00 -0.73754666988E+03  0.73754666989E+03  0.50400000000E-02 0.  1.
    8880022    1    1    2    0    0 -0.18132881339E+03  0.38588467998E+03 -0.59894998437E+03  0.75094597782E+03  0.15294330000E+03 0.  0.
    8880022    1    1    2    0    0  0.18132881339E+03 -0.38588467998E+03  0.75682253941E+03  0.88201991700E+03  0.15294330000E+03 0.  0.
<mgrwt>
<rscale>  0 0.45296664E+03</rscale>
<asrwt>0</asrwt>
<pdfrwt beam="1">  1        1 0.13775680E+00 0.45296664E+03</pdfrwt>
<pdfrwt beam="2">  1       -1 0.11346872E+00 0.45296664E+03</pdfrwt>
<totfact> 0.14076749E+01</totfact>
</mgrwt>
</event>
<event>
 4    1  0.4964158E-009  0.1137562E+04  0.7818608E-02  0.9169335E-01
         -1   -1    0    0    0  501 -0.00000000000E+00  0.00000000000E+00  0.67065621359E+03  0.67065621361E+03  0.50400000000E-02 0.  1.
          1   -1    0    0  501    0  0.00000000000E+00 -0.00000000000E+00 -0.21255727364E+04  0.21255727364E+04  0.50400000000E-02 0. -1.
    8880022    1    1    2    0    0 -0.11252134534E+04 -0.67461541124E+02 -0.30285287283E+03  0.11771864299E+04  0.15294330000E+03 0.  0.
    8880022    1    1    2    0    0  0.11252134534E+04  0.67461541124E+02 -0.11520636500E+04  0.16190425201E+04  0.15294330000E+03 0.  0.
<mgrwt>
<rscale>  0 0.11375623E+04</rscale>
<asrwt>0</asrwt>
<pdfrwt beam="1">  1        1 0.32701119E+00 0.11375623E+04</pdfrwt>
<pdfrwt beam="2">  1       -1 0.10317788E+00 0.11375623E+04</pdfrwt>
<totfact> 0.21587403E+00</totfact>
</mgrwt>
</event>
<event>
 4    1  0.4964158E-009  0.5666663E+03  0.7818608E-02  0.9977083E-01
         -1   -1    0    0    0  501 -0.00000000000E+00  0.00000000000E+00  0.29717747385E+03  0.29717747389E+03  0.50400000000E-02 0.  1.
          1   -1    0    0  501    0  0.00000000000E+00 -0.00000000000E+00 -0.17605280876E+04  0.17605280876E+04  0.50400000000E-02 0. -1.
    8880022    1    1    2    0    0  0.49589254644E+03  0.22761719625E+03 -0.13710920570E+04  0.14835781366E+04  0.15294330000E+03 0.  0.
    8880022    1    1    2    0    0 -0.49589254644E+03 -0.22761719625E+03 -0.92258556691E+02  0.57412742483E+03  0.15294330000E+03 0.  0.
<mgrwt>
<rscale>  0 0.56666627E+03</rscale>
<asrwt>0</asrwt>
<pdfrwt beam="1">  1        1 0.27085047E+00 0.56666627E+03</pdfrwt>
<pdfrwt beam="2">  1       -1 0.45719612E-01 0.56666627E+03</pdfrwt>
<totfact> 0.21991891E+01</totfact>
</mgrwt>
</event>
<event>
 4    1  0.4964158E-009  0.6020375E+03  0.7818608E-02  0.9901188E-01
          1   -1    0    0  501    0  0.00000000000E+00  0.00000000000E+00  0.15705496575E+04  0.15705496575E+04  0.50400000000E-02 0. -1.
         -1   -1    0    0    0  501 -0.00000000000E+00 -0.00000000000E+00 -0.14837608227E+04  0.14837608227E+04  0.50400000000E-02 0.  1.
    8880022    1    1    2    0    0  0.58224987954E+03 -0.65256908013E+01 -0.13599804724E+04  0.14872780658E+04  0.15294330000E+03 0.  0.
    8880022    1    1    2    0    0 -0.58224987954E+03  0.65256908013E+01  0.14467693071E+04  0.15670324144E+04  0.15294330000E+03 0.  0.
<mgrwt>
<rscale>  0 0.60203751E+03</rscale>
<asrwt>0</asrwt>
<pdfrwt beam="1">  1        1 0.24162303E+00 0.60203751E+03</pdfrwt>
<pdfrwt beam="2">  1       -1 0.22827089E+00 0.60203751E+03</pdfrwt>
<totfact> 0.62274521E-01</totfact>
</mgrwt>
</event>
<event>
 4    1  0.4964158E-009  0.1353946E+04  0.7818608E-02  0.8987847E-01
         -1   -1    0    0    0  501 -0.00000000000E+00  0.00000000000E+00  0.10023164300E+04  0.10023164300E+04  0.50400000000E-02 0.  1.
          1   -1    0    0  501    0  0.00000000000E+00 -0.00000000000E+00 -0.21992882634E+04  0.21992882634E+04  0.50400000000E-02 0. -1.
    8880022    1    1    2    0    0  0.93114317216E+03 -0.97095286268E+03 -0.12553967222E+04  0.18463991041E+04  0.15294330000E+03 0.  0.
    8880022    1    1    2    0    0 -0.93114317216E+03  0.97095286268E+03  0.58424888827E+02  0.13552055893E+04  0.15294330000E+03 0.  0.
<mgrwt>
<rscale>  0 0.13539456E+04</rscale>
<asrwt>0</asrwt>
<pdfrwt beam="1">  1        1 0.33835204E+00 0.13539456E+04</pdfrwt>
<pdfrwt beam="2">  1       -1 0.15420253E+00 0.13539456E+04</pdfrwt>
<totfact> 0.68118840E-01</totfact>
</mgrwt>
</event>
<event>
 4    1  0.4964158E-009  0.3990370E+03  0.7818608E-02  0.1044114E+00
          1   -1    0    0  501    0  0.00000000000E+00  0.00000000000E+00  0.27829051271E+03  0.27829051276E+03  0.50400000000E-02 0. -1.
         -1   -1    0    0    0  501 -0.00000000000E+00 -0.00000000000E+00 -0.16695197475E+04  0.16695197475E+04  0.50400000000E-02 0.  1.
    8880022    1    1    2    0    0 -0.36268719899E+03 -0.65550380506E+02 -0.14851883231E+04  0.15378604828E+04  0.15294330000E+03 0.  0.
    8880022    1    1    2    0    0  0.36268719899E+03  0.65550380506E+02  0.93959088303E+02  0.40994977739E+03  0.15294330000E+03 0.  0.
<mgrwt>
<rscale>  0 0.39903698E+03</rscale>
<asrwt>0</asrwt>
<pdfrwt beam="1">  1        1 0.42813926E-01 0.39903698E+03</pdfrwt>
<pdfrwt beam="2">  1       -1 0.25684919E+00 0.39903698E+03</pdfrwt>
<totfact> 0.67314485E+00</totfact>
</mgrwt>
</event>
<event>
 4    1  0.4964158E-009  0.1193942E+04  0.7818608E-02  0.9118176E-01
          1   -1    0    0  501    0  0.00000000000E+00  0.00000000000E+00  0.13248567644E+04  0.13248567644E+04  0.50400000000E-02 0. -1.
         -1   -1    0    0    0  501 -0.00000000000E+00 -0.00000000000E+00 -0.11724401855E+04  0.11724401855E+04  0.50400000000E-02 0.  1.
    8880022    1    1    2    0    0 -0.24009432987E+03  0.11595086825E+04  0.43439243957E+03  0.12705093925E+04  0.15294330000E+03 0.  0.
    8880022    1    1    2    0    0  0.24009432987E+03 -0.11595086825E+04 -0.28197586072E+03  0.12267875574E+04  0.15294330000E+03 0.  0.
<mgrwt>
<rscale>  0 0.11939419E+04</rscale>
<asrwt>0</asrwt>
<pdfrwt beam="1">  1        1 0.20382412E+00 0.11939419E+04</pdfrwt>
<pdfrwt beam="2">  1       -1 0.18037541E+00 0.11939419E+04</pdfrwt>
<totfact> 0.17613700E+00</totfact>
</mgrwt>
</event>
<event>
 4    1  0.5383026E-009  0.1095228E+04  0.7818608E-02  0.9209856E-01
          1   -1    0    0  501    0  0.00000000000E+00  0.00000000000E+00  0.17124475056E+04  0.17124475056E+04  0.50400000000E-02 0. -1.
         -1   -1    0    0    0  501 -0.00000000000E+00 -0.00000000000E+00 -0.12264618402E+04  0.12264618402E+04  0.50400000000E-02 0.  1.
    8880022    1    1    2    0    0 -0.93634386089E+01  0.10844557674E+04  0.12053080279E+04  0.16285856074E+04  0.15294330000E+03 0.  0.
    8880022    1    1    2    0    0  0.93634386089E+01 -0.10844557674E+04 -0.71932236241E+03  0.13103237384E+04  0.15294330000E+03 0.  0.
<mgrwt>
<rscale>  0 0.10952277E+04</rscale>
<asrwt>0</asrwt>
<pdfrwt beam="1">  1        1 0.26345346E+00 0.10952277E+04</pdfrwt>
<pdfrwt beam="2">  1       -1 0.18868644E+00 0.10952277E+04</pdfrwt>
<totfact> 0.83890456E-01</totfact>
</mgrwt>
</event>
<event>
 4    1  0.4964158E-009  0.3919445E+03  0.7818608E-02  0.1046605E+00
          1   -1    0    0  501    0  0.00000000000E+00  0.00000000000E+00  0.19338592543E+04  0.19338592543E+04  0.50400000000E-02 0. -1.
         -1   -1    0    0    0  501 -0.00000000000E+00 -0.00000000000E+00 -0.11055600132E+03  0.11055600143E+03  0.50400000000E-02 0.  1.
    8880022    1    1    2    0    0  0.18621402697E+03  0.30911673673E+03  0.14539758356E+04  0.15058772208E+04  0.15294330000E+03 0.  0.
    8880022    1    1    2    0    0 -0.18621402697E+03 -0.30911673673E+03  0.36932741738E+03  0.53853803488E+03  0.15294330000E+03 0.  0.
<mgrwt>
<rscale>  0 0.39194448E+03</rscale>
<asrwt>0</asrwt>
<pdfrwt beam="1">  1        1 0.29751678E+00 0.39194448E+03</pdfrwt>
<pdfrwt beam="2">  1       -1 0.17008617E-01 0.39194448E+03</pdfrwt>
<totfact> 0.95657279E+01</totfact>
</mgrwt>
</event>
<event>
 4    1  0.4964158E-009  0.3289899E+03  0.7818608E-02  0.1071585E+00
         -1   -1    0    0    0  501 -0.00000000000E+00  0.00000000000E+00  0.25433263595E+03  0.25433263600E+03  0.50400000000E-02 0.  1.
          1   -1    0    0  501    0  0.00000000000E+00 -0.00000000000E+00 -0.11524083434E+04  0.11524083434E+04  0.50400000000E-02 0. -1.
    8880022    1    1    2    0    0 -0.27376619242E+03  0.99472606056E+02 -0.10076394378E+04  0.10599866118E+04  0.15294330000E+03 0.  0.
    8880022    1    1    2    0    0  0.27376619242E+03 -0.99472606056E+02  0.10956373035E+03  0.34675436765E+03  0.15294330000E+03 0.  0.
<mgrwt>
<rscale>  0 0.32898994E+03</rscale>
<asrwt>0</asrwt>
<pdfrwt beam="1">  1        1 0.17729359E+00 0.32898994E+03</pdfrwt>
<pdfrwt beam="2">  1       -1 0.39128098E-01 0.32898994E+03</pdfrwt>
<totfact> 0.79467526E+01</totfact>
</mgrwt>
</event>
<event>
 4    1  0.4964158E-009  0.8940511E+03  0.7818608E-02  0.9433048E-01
          1   -1    0    0  501    0  0.00000000000E+00  0.00000000000E+00  0.64348355686E+03  0.64348355688E+03  0.50400000000E-02 0. -1.
         -1   -1    0    0    0  501 -0.00000000000E+00 -0.00000000000E+00 -0.20519045218E+04  0.20519045218E+04  0.50400000000E-02 0.  1.
    8880022    1    1    2    0    0 -0.81887876882E+03 -0.32461263277E+03  0.14239148900E+03  0.90531916390E+03  0.15294330000E+03 0. -1.
    8880022    1    1    2    0    0  0.81887876882E+03  0.32461263277E+03 -0.15508124540E+04  0.17900689148E+04  0.15294330000E+03 0.  0.
<mgrwt>
<rscale>  0 0.89405115E+03</rscale>
<asrwt>0</asrwt>
<pdfrwt beam="1">  1        1 0.98997471E-01 0.89405115E+03</pdfrwt>
<pdfrwt beam="2">  1       -1 0.31567762E+00 0.89405115E+03</pdfrwt>
<totfact> 0.83371710E-01</totfact>
</mgrwt>
</event>
<event>
 4    1  0.4964158E-009  0.6134988E+03  0.7818608E-02  0.9877789E-01
         -1   -1    0    0    0  501 -0.00000000000E+00  0.00000000000E+00  0.51127949606E+03  0.51127949609E+03  0.50400000000E-02 0.  1.
          1   -1    0    0  501    0  0.00000000000E+00 -0.00000000000E+00 -0.99541963560E+03  0.99541963562E+03  0.50400000000E-02 0. -1.
    8880022    1    1    2    0    0 -0.14853606698E+02  0.59394318410E+03 -0.62654263754E+03  0.87689022416E+03  0.15294330000E+03 0.  0.
    8880022    1    1    2    0    0  0.14853606698E+02 -0.59394318410E+03  0.14240249799E+03  0.62980890754E+03  0.15294330000E+03 0.  0.
<mgrwt>
<rscale>  0 0.61349881E+03</rscale>
<asrwt>0</asrwt>
<pdfrwt beam="1">  1        1 0.15314148E+00 0.61349881E+03</pdfrwt>
<pdfrwt beam="2">  1       -1 0.78658384E-01 0.61349881E+03</pdfrwt>
<totfact> 0.25802634E+01</totfact>
</mgrwt>
</event>
<event>
 4    1  0.4964158E-009  0.5284108E+03  0.7818608E-02  0.1006618E+00
          1   -1    0    0  501    0  0.00000000000E+00  0.00000000000E+00  0.28016740554E+04  0.28016740554E+04  0.50400000000E-02 0. -1.
         -1   -1    0    0    0  501 -0.00000000000E+00 -0.00000000000E+00 -0.19410810545E+03  0.19410810551E+03  0.50400000000E-02 0.  1.
    8880022    1    1    2    0    0 -0.10246484043E+03  0.49530520429E+03  0.25893651364E+03  0.58844376115E+03  0.15294330000E+03 0.  0.
    8880022    1    1    2    0    0  0.10246484043E+03 -0.49530520429E+03  0.23486294363E+04  0.24073383998E+04  0.15294330000E+03 0.  0.
<mgrwt>
<rscale>  0 0.52841077E+03</rscale>
<asrwt>0</asrwt>
<pdfrwt beam="1">  1        1 0.43102676E+00 0.52841077E+03</pdfrwt>
<pdfrwt beam="2">  1       -1 0.29862787E-01 0.52841077E+03</pdfrwt>
<totfact> 0.94687631E+00</totfact>
</mgrwt>
</event>
<event>
 4    1  0.4964158E-009  0.4315752E+03  0.7818608E-02  0.1033364E+00
          1   -1    0    0  501    0  0.00000000000E+00  0.00000000000E+00  0.22119286707E+03  0.22119286713E+03  0.50400000000E-02 0. -1.
         -1   -1    0    0    0  501 -0.00000000000E+00 -0.00000000000E+00 -0.27469517684E+04  0.27469517684E+04  0.50400000000E-02 0.  1.
    8880022    1    1    2    0    0  0.32552378741E+03  0.23853664545E+03 -0.24987272280E+04  0.25357237390E+04  0.15294330000E+03 0.  1.
    8880022    1    1    2    0    0 -0.32552378741E+03 -0.23853664545E+03 -0.27031673300E+02  0.43242089654E+03  0.15294330000E+03 0.  0.
<mgrwt>
<rscale>  0 0.43157516E+03</rscale>
<asrwt>0</asrwt>
<pdfrwt beam="1">  1        1 0.34029674E-01 0.43157516E+03</pdfrwt>
<pdfrwt beam="2">  1       -1 0.42260794E+00 0.43157516E+03</pdfrwt>
<totfact> 0.75293016E-01</totfact>
</mgrwt>
</event>
<event>
 4    1  0.4964158E-009  0.5325756E+03  0.7818608E-02  0.1005609E+00
         -1   -1    0    0    0  501 -0.00000000000E+00  0.00000000000E+00  0.10572615119E+03  0.10572615131E+03  0.50400000000E-02 0.  1.
          1   -1    0    0  501    0  0.00000000000E+00 -0.00000000000E+00 -0.29305630986E+04  0.29305630986E+04  0.50400000000E-02 0. -1.
    8880022    1    1    2    0    0 -0.32066301191E+03 -0.39676232918E+03 -0.18538875476E+04  0.19288690482E+04  0.15294330000E+03 0.  0.
    8880022    1    1    2    0    0  0.32066301191E+03  0.39676232918E+03 -0.97094939981E+03  0.11074202017E+04  0.15294330000E+03 0.  0.
<mgrwt>
<rscale>  0 0.53257560E+03</rscale>
<asrwt>0</asrwt>
<pdfrwt beam="1">  1        1 0.45085580E+00 0.53257560E+03</pdfrwt>
<pdfrwt beam="2">  1       -1 0.16265564E-01 0.53257560E+03</pdfrwt>
<totfact> 0.21243072E+01</totfact>
</mgrwt>
</event>
<event>
 4    1  0.4964158E-009  0.6462812E+03  0.7818608E-02  0.9813782E-01
         -1   -1    0    0    0  501 -0.00000000000E+00  0.00000000000E+00  0.19274162359E+04  0.19274162359E+04  0.50400000000E-02 0.  1.
          1   -1    0    0  501    0  0.00000000000E+00 -0.00000000000E+00 -0.92308374787E+03  0.92308374788E+03  0.50400000000E-02 0. -1.
    8880022    1    1    2    0    0 -0.12521519199E+03 -0.61531198638E+03  0.17489453915E+04  0.18645346122E+04  0.15294330000E+03 0.  0.
    8880022    1    1    2    0    0  0.12521519199E+03  0.61531198638E+03 -0.74461290344E+03  0.98596537154E+03  0.15294330000E+03 0.  0.
<mgrwt>
<rscale>  0 0.64628116E+03</rscale>
<asrwt>0</asrwt>
<pdfrwt beam="1">  1        1 0.14201289E+00 0.64628116E+03</pdfrwt>
<pdfrwt beam="2">  1       -1 0.29652557E+00 0.64628116E+03</pdfrwt>
<totfact> 0.65770220E-01</totfact>
</mgrwt>
</event>
<event>
 4    1  0.4964158E-009  0.7010214E+03  0.7818608E-02  0.9715487E-01
          1   -1    0    0  501    0  0.00000000000E+00  0.00000000000E+00  0.31280497028E+04  0.31280497028E+04  0.50400000000E-02 0. -1.
         -1   -1    0    0    0  501 -0.00000000000E+00 -0.00000000000E+00 -0.29298907729E+03  0.29298907734E+03  0.50400000000E-02 0.  1.
    8880022    1    1    2    0    0  0.69268400220E+02  0.68061832275E+03  0.25263425421E+03  0.74515443497E+03  0.15294330000E+03 0.  0.
    8880022    1    1    2    0    0 -0.69268400220E+02 -0.68061832275E+03  0.25824263713E+04  0.26758843452E+04  0.15294330000E+03 0. -1.
<mgrwt>
<rscale>  0 0.70102144E+03</rscale>
<asrwt>0</asrwt>
<pdfrwt beam="1">  1        1 0.48123840E+00 0.70102144E+03</pdfrwt>
<pdfrwt beam="2">  1       -1 0.45075244E-01 0.70102144E+03</pdfrwt>
<totfact> 0.25526759E+00</totfact>
</mgrwt>
</event>
<event>
 4    1  0.4964158E-009  0.2916225E+03  0.7818608E-02  0.1089505E+00
         -1   -1    0    0    0  501 -0.00000000000E+00  0.00000000000E+00  0.39603757900E+03  0.39603757903E+03  0.50400000000E-02 0.  1.
          1   -1    0    0  501    0  0.00000000000E+00 -0.00000000000E+00 -0.10030578060E+04  0.10030578060E+04  0.50400000000E-02 0. -1.
    8880022    1    1    2    0    0 -0.10579114766E+03  0.22463367126E+03  0.31665308608E+03  0.43047982895E+03  0.15294330000E+03 0.  0.
    8880022    1    1    2    0    0  0.10579114766E+03 -0.22463367126E+03 -0.92367331311E+03  0.96861555612E+03  0.15294330000E+03 0. -1.
<mgrwt>
<rscale>  0 0.29162254E+03</rscale>
<asrwt>0</asrwt>
<pdfrwt beam="1">  1        1 0.15431659E+00 0.29162254E+03</pdfrwt>
<pdfrwt beam="2">  1       -1 0.60928858E-01 0.29162254E+03</pdfrwt>
<totfact> 0.45345786E+01</totfact>
</mgrwt>
</event>
<event>
 4    1  0.4964158E-009  0.1147627E+04  0.7818608E-02  0.9159975E-01
          1   -1    0    0  501    0  0.00000000000E+00  0.00000000000E+00  0.21663507589E+04  0.21663507589E+04  0.50400000000E-02 0. -1.
         -1   -1    0    0    0  501 -0.00000000000E+00 -0.00000000000E+00 -0.36277128822E+04  0.36277128822E+04  0.50400000000E-02 0.  1.
    8880022    1    1    2    0    0  0.62337396044E+03  0.95134738610E+03  0.19124744362E+04  0.22303827173E+04  0.15294330000E+03 0.  0.
    8880022    1    1    2    0    0 -0.62337396044E+03 -0.95134738610E+03 -0.33738365595E+04  0.35636809238E+04  0.15294330000E+03 0.  0.
<mgrwt>
<rscale>  0 0.11476274E+04</rscale>
<asrwt>0</asrwt>
<pdfrwt beam="1">  1        1 0.33328473E+00 0.11476274E+04</pdfrwt>
<pdfrwt beam="2">  1       -1 0.55810967E+00 0.11476274E+04</pdfrwt>
<totfact> 0.15301772E-03</totfact>
</mgrwt>
</event>
<event>
 4    1  0.4964158E-009  0.9835609E+03  0.7818608E-02  0.9326761E-01
          1   -1    0    0  501    0  0.00000000000E+00  0.00000000000E+00  0.30936694253E+04  0.30936694253E+04  0.50400000000E-02 0. -1.
         -1   -1    0    0    0  501 -0.00000000000E+00 -0.00000000000E+00 -0.49874546442E+03  0.49874546444E+03  0.50400000000E-02 0.  1.
    8880022    1    1    2    0    0 -0.49352732044E+03 -0.83691763017E+03  0.23945108331E+04  0.25886432969E+04  0.15294330000E+03 0.  0.
    8880022    1    1    2    0    0  0.49352732044E+03  0.83691763017E+03  0.20041312771E+03  0.10037715928E+04  0.15294330000E+03 0.  0.
<mgrwt>
<rscale>  0 0.98356087E+03</rscale>
<asrwt>0</asrwt>
<pdfrwt beam="1">  1        1 0.47594915E+00 0.98356087E+03</pdfrwt>
<pdfrwt beam="2">  1       -1 0.76730070E-01 0.98356087E+03</pdfrwt>
<totfact> 0.89815490E-01</totfact>
</mgrwt>
</event>
<event>
 4    1  0.4964158E-009  0.1322840E+04  0.7818608E-02  0.9011647E-01
         -1   -1    0    0    0  501 -0.00000000000E+00  0.00000000000E+00  0.93705738671E+03  0.93705738673E+03  0.50400000000E-02 0.  1.
          1   -1    0    0  501    0  0.00000000000E+00 -0.00000000000E+00 -0.20723127858E+04  0.20723127859E+04  0.50400000000E-02 0. -1.
    8880022    1    1    2    0    0  0.10337810560E+04  0.81105479531E+03 -0.10407276540E+04  0.16831574067E+04  0.15294330000E+03 0.  0.
    8880022    1    1    2    0    0 -0.10337810560E+04 -0.81105479531E+03 -0.94527745112E+02  0.13262127659E+04  0.15294330000E+03 0.  0.
<mgrwt>
<rscale>  0 0.13228397E+04</rscale>
<asrwt>0</asrwt>
<pdfrwt beam="1">  1        1 0.31881735E+00 0.13228397E+04</pdfrwt>
<pdfrwt beam="2">  1       -1 0.14416268E+00 0.13228397E+04</pdfrwt>
<totfact> 0.10005113E+00</totfact>
</mgrwt>
</event>
<event>
 4    1  0.4964158E-009  0.6000116E+03  0.7818608E-02  0.9905382E-01
          1   -1    0    0  501    0  0.00000000000E+00  0.00000000000E+00  0.22738420592E+04  0.22738420592E+04  0.50400000000E-02 0. -1.
         -1   -1    0    0    0  501 -0.00000000000E+00 -0.00000000000E+00 -0.12382172566E+04  0.12382172566E+04  0.50400000000E-02 0.  1.
    8880022    1    1    2    0    0  0.38777963147E+03 -0.43156601844E+03 -0.11221086356E+04  0.12724549949E+04  0.15294330000E+03 0.  0.
    8880022    1    1    2    0    0 -0.38777963147E+03  0.43156601844E+03  0.21577334382E+04  0.22396043209E+04  0.15294330000E+03 0.  0.
<mgrwt>
<rscale>  0 0.60001160E+03</rscale>
<asrwt>0</asrwt>
<pdfrwt beam="1">  1        1 0.34982185E+00 0.60001160E+03</pdfrwt>
<pdfrwt beam="2">  1       -1 0.19049496E+00 0.60001160E+03</pdfrwt>
<totfact> 0.37928651E-01</totfact>
</mgrwt>
</event>
<event>
 4    1  0.4964158E-009  0.4753061E+03  0.7818608E-02  0.1020433E+00
          1   -1    0    0  501    0  0.00000000000E+00  0.00000000000E+00  0.76160842813E+03  0.76160842815E+03  0.50400000000E-02 0. -1.
         -1   -1    0    0    0  501 -0.00000000000E+00 -0.00000000000E+00 -0.18121641575E+04  0.18121641575E+04  0.50400000000E-02 0.  1.
    8880022    1    1    2    0    0 -0.39561625718E+03 -0.21450406542E+03 -0.17021364463E+04  0.17672533355E+04  0.15294330000E+03 0.  0.
    8880022    1    1    2    0    0  0.39561625718E+03  0.21450406542E+03  0.65158071698E+03  0.80651925010E+03  0.15294330000E+03 0.  0.
<mgrwt>
<rscale>  0 0.47530608E+03</rscale>
<asrwt>0</asrwt>
<pdfrwt beam="1">  1        1 0.11717053E+00 0.47530608E+03</pdfrwt>
<pdfrwt beam="2">  1       -1 0.27879448E+00 0.47530608E+03</pdfrwt>
<totfact> 0.12190430E+00</totfact>
</mgrwt>
</event>
<event>
 4    1  0.4964158E-009  0.5312444E+03  0.7818608E-02  0.1005931E+00
         -1   -1    0    0    0  501 -0.00000000000E+00  0.00000000000E+00  0.13106459630E+04  0.13106459631E+04  0.50400000000E-02 0.  1.
          1   -1    0    0  501    0  0.00000000000E+00 -0.00000000000E+00 -0.41384920103E+03  0.41384920106E+03  0.50400000000E-02 0. -1.
    8880022    1    1    2    0    0  0.47638998282E+03  0.17855411314E+03  0.10455887762E+04  0.11728071150E+04  0.15294330000E+03 0.  0.
    8880022    1    1    2    0    0 -0.47638998282E+03 -0.17855411314E+03 -0.14879201417E+03  0.55168804913E+03  0.15294330000E+03 0.  0.
<mgrwt>
<rscale>  0 0.53124443E+03</rscale>
<asrwt>0</asrwt>
<pdfrwt beam="1">  1        1 0.63669110E-01 0.53124443E+03</pdfrwt>
<pdfrwt beam="2">  1       -1 0.20163783E+00 0.53124443E+03</pdfrwt>
<totfact> 0.89694746E+00</totfact>
</mgrwt>
</event>
<event>
 4    1  0.4964158E-009  0.4283368E+03  0.7818608E-02  0.1034387E+00
          1   -1    0    0  501    0  0.00000000000E+00  0.00000000000E+00  0.89736976977E+03  0.89736976979E+03  0.50400000000E-02 0. -1.
         -1   -1    0    0    0  501 -0.00000000000E+00 -0.00000000000E+00 -0.58086809860E+03  0.58086809863E+03  0.50400000000E-02 0.  1.
    8880022    1    1    2    0    0  0.38497242839E+03 -0.10898142533E+03 -0.43673622156E+03  0.61172780052E+03  0.15294330000E+03 0.  0.
    8880022    1    1    2    0    0 -0.38497242839E+03  0.10898142533E+03  0.75323789273E+03  0.86651006789E+03  0.15294330000E+03 0.  0.
<mgrwt>
<rscale>  0 0.42833675E+03</rscale>
<asrwt>0</asrwt>
<pdfrwt beam="1">  1        1 0.13805689E+00 0.42833675E+03</pdfrwt>
<pdfrwt beam="2">  1       -1 0.89364322E-01 0.42833675E+03</pdfrwt>
<totfact> 0.24205470E+01</totfact>
</mgrwt>
</event>
<event>
 4    1  0.4964158E-009  0.1097178E+04  0.7818608E-02  0.9207947E-01
          1   -1    0    0  501    0  0.00000000000E+00  0.00000000000E+00  0.29987951631E+04  0.29987951631E+04  0.50400000000E-02 0. -1.
         -1   -1    0    0    0  501 -0.00000000000E+00 -0.00000000000E+00 -0.83848317310E+03  0.83848317311E+03  0.50400000000E-02 0.  1.
    8880022    1    1    2    0    0 -0.85128829045E+03 -0.67506723662E+03  0.24653622878E+04  0.26984829795E+04  0.15294330000E+03 0.  0.
    8880022    1    1    2    0    0  0.85128829045E+03  0.67506723662E+03 -0.30505029777E+03  0.11387953568E+04  0.15294330000E+03 0.  0.
<mgrwt>
<rscale>  0 0.10971778E+04</rscale>
<asrwt>0</asrwt>
<pdfrwt beam="1">  1        1 0.46135310E+00 0.10971778E+04</pdfrwt>
<pdfrwt beam="2">  1       -1 0.12899741E+00 0.10971778E+04</pdfrwt>
<totfact> 0.31295891E-01</totfact>
</mgrwt>
</event>
<event>
 4    1  0.4964158E-009  0.1002940E+04  0.7818608E-02  0.9305326E-01
          1   -1    0    0  501    0  0.00000000000E+00  0.00000000000E+00  0.20826303021E+04  0.20826303021E+04  0.50400000000E-02 0. -1.
         -1   -1    0    0    0  501 -0.00000000000E+00 -0.00000000000E+00 -0.10034782741E+04  0.10034782741E+04  0.50400000000E-02 0.  1.
    8880022    1    1    2    0    0  0.78747065280E+03 -0.60198614631E+03  0.16508798546E+04  0.19316555844E+04  0.15294330000E+03 0.  0.
    8880022    1    1    2    0    0 -0.78747065280E+03  0.60198614631E+03 -0.57172782662E+03  0.11544529917E+04  0.15294330000E+03 0.  0.
<mgrwt>
<rscale>  0 0.10029402E+04</rscale>
<asrwt>0</asrwt>
<pdfrwt beam="1">  1        1 0.32040466E+00 0.10029402E+04</pdfrwt>
<pdfrwt beam="2">  1       -1 0.15438127E+00 0.10029402E+04</pdfrwt>
<totfact> 0.85483334E-01</totfact>
</mgrwt>
</event>
<event>
 4    1  0.4964158E-009  0.1143679E+04  0.7818608E-02  0.9163635E-01
          1   -1    0    0  501    0  0.00000000000E+00  0.00000000000E+00  0.20159954548E+04  0.20159954549E+04  0.50400000000E-02 0. -1.
         -1   -1    0    0    0  501 -0.00000000000E+00 -0.00000000000E+00 -0.15968621306E+04  0.15968621306E+04  0.50400000000E-02 0.  1.
    8880022    1    1    2    0    0  0.10755491692E+04 -0.35749671970E+03  0.16014500148E+04  0.19679033825E+04  0.15294330000E+03 0.  0.
    8880022    1    1    2    0    0 -0.10755491692E+04  0.35749671970E+03 -0.11823166905E+04  0.16449542029E+04  0.15294330000E+03 0.  0.
<mgrwt>
<rscale>  0 0.11436790E+04</rscale>
<asrwt>0</asrwt>
<pdfrwt beam="1">  1        1 0.31015315E+00 0.11436790E+04</pdfrwt>
<pdfrwt beam="2">  1       -1 0.24567110E+00 0.11436790E+04</pdfrwt>
<totfact> 0.21445881E-01</totfact>
</mgrwt>
</event>
<event>
 4    1  0.4964158E-009  0.1321210E+04  0.7818608E-02  0.9012912E-01
         -1   -1    0    0    0  501 -0.00000000000E+00  0.00000000000E+00  0.76044274540E+03  0.76044274541E+03  0.50400000000E-02 0.  1.
          1   -1    0    0  501    0  0.00000000000E+00 -0.00000000000E+00 -0.29782541897E+04  0.29782541897E+04  0.50400000000E-02 0. -1.
    8880022    1    1    2    0    0 -0.75559233960E+03  0.10729794802E+04 -0.21386758818E+03  0.13384079150E+04  0.15294330000E+03 0.  0.
    8880022    1    1    2    0    0  0.75559233960E+03 -0.10729794802E+04 -0.20039438561E+04  0.24002890201E+04  0.15294330000E+03 0.  0.
<mgrwt>
<rscale>  0 0.13212102E+04</rscale>
<asrwt>0</asrwt>
<pdfrwt beam="1">  1        1 0.45819294E+00 0.13212102E+04</pdfrwt>
<pdfrwt beam="2">  1       -1 0.11699119E+00 0.13212102E+04</pdfrwt>
<totfact> 0.39921252E-01</totfact>
</mgrwt>
</event>
<event>
 4    1  0.4964158E-009  0.1580592E+04  0.7818608E-02  0.8832561E-01
         -1   -1    0    0    0  501 -0.00000000000E+00  0.00000000000E+00  0.15733736670E+04  0.15733736670E+04  0.50400000000E-02 0.  1.
          1   -1    0    0  501    0  0.00000000000E+00 -0.00000000000E+00 -0.17793035966E+04  0.17793035966E+04  0.50400000000E-02 0. -1.
    8880022    1    1    2    0    0  0.95967747637E+03 -0.12465547179E+04 -0.65285499184E+03  0.17101142701E+04  0.15294330000E+03 0.  0.
    8880022    1    1    2    0    0 -0.95967747637E+03  0.12465547179E+04  0.44692506223E+03  0.16425629935E+04  0.15294330000E+03 0.  0.
<mgrwt>
<rscale>  0 0.15805920E+04</rscale>
<asrwt>0</asrwt>
<pdfrwt beam="1">  1        1 0.27373902E+00 0.15805920E+04</pdfrwt>
<pdfrwt beam="2">  1       -1 0.24205749E+00 0.15805920E+04</pdfrwt>
<totfact> 0.30953411E-01</totfact>
</mgrwt>
</event>
<event>
 4    1  0.4964158E-009  0.6240760E+03  0.7818608E-02  0.9856678E-01
         -1   -1    0    0    0  501 -0.00000000000E+00  0.00000000000E+00  0.49352514773E+03  0.49352514776E+03  0.50400000000E-02 0.  1.
          1   -1    0    0  501    0  0.00000000000E+00 -0.00000000000E+00 -0.86143484023E+03  0.86143484024E+03  0.50400000000E-02 0. -1.
    8880022    1    1    2    0    0  0.54885257614E+03  0.25463701770E+03  0.12279820932E+02  0.62419677037E+03  0.15294330000E+03 0.  0.
    8880022    1    1    2    0    0 -0.54885257614E+03 -0.25463701770E+03 -0.38018951342E+03  0.73076321764E+03  0.15294330000E+03 0.  0.
<mgrwt>
<rscale>  0 0.62407597E+03</rscale>
<asrwt>0</asrwt>
<pdfrwt beam="1">  1        1 0.13252844E+00 0.62407597E+03</pdfrwt>
<pdfrwt beam="2">  1       -1 0.75926946E-01 0.62407597E+03</pdfrwt>
<totfact> 0.35492936E+01</totfact>
</mgrwt>
</event>
<event>
 4    1  0.4964158E-009  0.6475471E+03  0.7818608E-02  0.9811393E-01
         -1   -1    0    0    0  501 -0.00000000000E+00  0.00000000000E+00  0.94731002897E+03  0.94731002898E+03  0.50400000000E-02 0.  1.
          1   -1    0    0  501    0  0.00000000000E+00 -0.00000000000E+00 -0.10788060943E+04  0.10788060944E+04  0.50400000000E-02 0. -1.
    8880022    1    1    2    0    0 -0.60878489906E+03 -0.15908038020E+03  0.71219521260E+03  0.96256911157E+03  0.15294330000E+03 0.  0.
    8880022    1    1    2    0    0  0.60878489906E+03  0.15908038020E+03 -0.84369127798E+03  0.10635470118E+04  0.15294330000E+03 0.  0.
<mgrwt>
<rscale>  0 0.64754712E+03</rscale>
<asrwt>0</asrwt>
<pdfrwt beam="1">  1        1 0.16597017E+00 0.64754712E+03</pdfrwt>
<pdfrwt beam="2">  1       -1 0.14574001E+00 0.64754712E+03</pdfrwt>
<totfact> 0.52323829E+00</totfact>
</mgrwt>
</event>
<event>
 4    1  0.4964158E-009  0.4495463E+03  0.7818608E-02  0.1027857E+00
          1   -1    0    0  501    0  0.00000000000E+00  0.00000000000E+00  0.18622027415E+04  0.18622027415E+04  0.50400000000E-02 0. -1.
         -1   -1    0    0    0  501 -0.00000000000E+00 -0.00000000000E+00 -0.40533764793E+03  0.40533764796E+03  0.50400000000E-02 0.  1.
    8880022    1    1    2    0    0  0.23789328392E+03  0.34943810999E+03 -0.24176286515E+03  0.51043231014E+03  0.15294330000E+03 0.  1.
    8880022    1    1    2    0    0 -0.23789328392E+03 -0.34943810999E+03  0.16986279588E+04  0.17571080794E+04  0.15294330000E+03 0.  0.
<mgrwt>
<rscale>  0 0.44954628E+03</rscale>
<asrwt>0</asrwt>
<pdfrwt beam="1">  1        1 0.28649272E+00 0.44954628E+03</pdfrwt>
<pdfrwt beam="2">  1       -1 0.62359639E-01 0.44954628E+03</pdfrwt>
<totfact> 0.10690449E+01</totfact>
</mgrwt>
</event>
<event>
 4    1  0.4964158E-009  0.2444500E+03  0.7818608E-02  0.1116863E+00
          1   -1    0    0  501    0  0.00000000000E+00  0.00000000000E+00  0.30846333049E+03  0.30846333054E+03  0.50400000000E-02 0. -1.
         -1   -1    0    0    0  501 -0.00000000000E+00 -0.00000000000E+00 -0.29229873819E+04  0.29229873819E+04  0.50400000000E-02 0.  1.
    8880022    1    1    2    0    0 -0.94479902516E+02  0.16564331952E+03 -0.28685285067E+04  0.28789254259E+04  0.15294330000E+03 0.  0.
    8880022    1    1    2    0    0  0.94479902516E+02 -0.16564331952E+03  0.25400445532E+03  0.35252528649E+03  0.15294330000E+03 0. -1.
<mgrwt>
<rscale>  0 0.24445002E+03</rscale>
<asrwt>0</asrwt>
<pdfrwt beam="1">  1        1 0.47455899E-01 0.24445002E+03</pdfrwt>
<pdfrwt beam="2">  1       -1 0.44969035E+00 0.24445002E+03</pdfrwt>
<totfact> 0.35152469E-01</totfact>
</mgrwt>
</event>
<event>
 4    1  0.4964158E-009  0.3761164E+03  0.7818608E-02  0.1052379E+00
          1   -1    0    0  501    0  0.00000000000E+00  0.00000000000E+00  0.11761765730E+04  0.11761765730E+04  0.50400000000E-02 0. -1.
         -1   -1    0    0    0  501 -0.00000000000E+00 -0.00000000000E+00 -0.34684048399E+03  0.34684048402E+03  0.50400000000E-02 0.  1.
    8880022    1    1    2    0    0 -0.31694705530E+03 -0.13272706128E+03  0.10301390954E+04  0.10966540556E+04  0.15294330000E+03 0.  0.
    8880022    1    1    2    0    0  0.31694705530E+03  0.13272706128E+03 -0.20080300638E+03  0.42636300149E+03  0.15294330000E+03 0.  0.
<mgrwt>
<rscale>  0 0.37611642E+03</rscale>
<asrwt>0</asrwt>
<pdfrwt beam="1">  1        1 0.18095024E+00 0.37611642E+03</pdfrwt>
<pdfrwt beam="2">  1       -1 0.53360075E-01 0.37611642E+03</pdfrwt>
<totfact> 0.42808018E+01</totfact>
</mgrwt>
</event>
<event>
 4    1  0.4964158E-009  0.8769499E+03  0.7818608E-02  0.9454863E-01
          1   -1    0    0  501    0  0.00000000000E+00  0.00000000000E+00  0.26853792916E+04  0.26853792917E+04  0.50400000000E-02 0. -1.
         -1   -1    0    0    0  501 -0.00000000000E+00 -0.00000000000E+00 -0.92753966094E+03  0.92753966095E+03  0.50400000000E-02 0.  1.
    8880022    1    1    2    0    0  0.23834818307E+03 -0.82996358318E+03  0.23808329141E+04  0.25372044505E+04  0.15294330000E+03 0.  0.
    8880022    1    1    2    0    0 -0.23834818307E+03  0.82996358318E+03 -0.62299328342E+03  0.10757145021E+04  0.15294330000E+03 0.  1.
<mgrwt>
<rscale>  0 0.87694986E+03</rscale>
<asrwt>0</asrwt>
<pdfrwt beam="1">  1        1 0.41313527E+00 0.87694986E+03</pdfrwt>
<pdfrwt beam="2">  1       -1 0.14269841E+00 0.87694986E+03</pdfrwt>
<totfact> 0.41903918E-01</totfact>
</mgrwt>
</event>
<event>
 4    1  0.4964158E-009  0.4238935E+03  0.7818608E-02  0.1035807E+00
          1   -1    0    0  501    0  0.00000000000E+00  0.00000000000E+00  0.19118467794E+04  0.19118467794E+04  0.50400000000E-02 0. -1.
         -1   -1    0    0    0  501 -0.00000000000E+00 -0.00000000000E+00 -0.26316590287E+03  0.26316590292E+03  0.50400000000E-02 0.  1.
    8880022    1    1    2    0    0  0.16028084600E+03  0.36139189676E+03  0.16962915381E+04  0.17484537992E+04  0.15294330000E+03 0.  0.
    8880022    1    1    2    0    0 -0.16028084600E+03 -0.36139189676E+03 -0.47610661617E+02  0.42655888310E+03  0.15294330000E+03 0.  0.
<mgrwt>
<rscale>  0 0.42389351E+03</rscale>
<asrwt>0</asrwt>
<pdfrwt beam="1">  1        1 0.29413028E+00 0.42389351E+03</pdfrwt>
<pdfrwt beam="2">  1       -1 0.40487061E-01 0.42389351E+03</pdfrwt>
<totfact> 0.22475713E+01</totfact>
</mgrwt>
</event>
<event>
 4    1  0.4964158E-009  0.6167149E+03  0.7818608E-02  0.9871322E-01
         -1   -1    0    0    0  501 -0.00000000000E+00  0.00000000000E+00  0.25557009724E+04  0.25557009724E+04  0.50400000000E-02 0.  1.
          1   -1    0    0  501    0  0.00000000000E+00 -0.00000000000E+00 -0.11422479643E+04  0.11422479643E+04  0.50400000000E-02 0. -1.
    8880022    1    1    2    0    0  0.54091947369E+03 -0.25367651980E+03 -0.10175983535E+04  0.11898923127E+04  0.15294330000E+03 0.  0.
    8880022    1    1    2    0    0 -0.54091947369E+03  0.25367651980E+03  0.24310513616E+04  0.25080566241E+04  0.15294330000E+03 0.  0.
<mgrwt>
<rscale>  0 0.61671493E+03</rscale>
<asrwt>0</asrwt>
<pdfrwt beam="1">  1        1 0.17573046E+00 0.61671493E+03</pdfrwt>
<pdfrwt beam="2">  1       -1 0.39318476E+00 0.61671493E+03</pdfrwt>
<totfact> 0.10576095E-01</totfact>
</mgrwt>
</event>
<event>
 4    1  0.4964158E-009  0.1226507E+04  0.7818608E-02  0.9089966E-01
          1   -1    0    0  501    0  0.00000000000E+00  0.00000000000E+00  0.17186383994E+04  0.17186383994E+04  0.50400000000E-02 0. -1.
         -1   -1    0    0    0  501 -0.00000000000E+00 -0.00000000000E+00 -0.10383974765E+04  0.10383974765E+04  0.50400000000E-02 0.  1.
    8880022    1    1    2    0    0 -0.11211256842E+04 -0.47329209352E+03 -0.20621273088E+03  0.12437216525E+04  0.15294330000E+03 0.  0.
    8880022    1    1    2    0    0  0.11211256842E+04  0.47329209352E+03  0.88645365379E+03  0.15133142234E+04  0.15294330000E+03 0.  0.
<mgrwt>
<rscale>  0 0.12265072E+04</rscale>
<asrwt>0</asrwt>
<pdfrwt beam="1">  1        1 0.26440591E+00 0.12265072E+04</pdfrwt>
<pdfrwt beam="2">  1       -1 0.15975346E+00 0.12265072E+04</pdfrwt>
<totfact> 0.13285190E+00</totfact>
</mgrwt>
</event>
<event>
 4    1  0.5576401E-009  0.8637476E+03  0.7818608E-02  0.9472069E-01
         -1   -1    0    0    0  501 -0.00000000000E+00  0.00000000000E+00  0.13839738220E+04  0.13839738220E+04  0.50400000000E-02 0.  1.
          1   -1    0    0  501    0  0.00000000000E+00 -0.00000000000E+00 -0.18505084768E+04  0.18505084768E+04  0.50400000000E-02 0. -1.
    8880022    1    1    2    0    0 -0.23988128757E+03  0.81555207488E+03 -0.15947216412E+04  0.18136143429E+04  0.15294330000E+03 0.  0.
    8880022    1    1    2    0    0  0.23988128757E+03 -0.81555207488E+03  0.11281869863E+04  0.14208679559E+04  0.15294330000E+03 0.  0.
<mgrwt>
<rscale>  0 0.86374757E+03</rscale>
<asrwt>0</asrwt>
<pdfrwt beam="1">  1        1 0.28469361E+00 0.86374757E+03</pdfrwt>
<pdfrwt beam="2">  1       -1 0.21291905E+00 0.86374757E+03</pdfrwt>
<totfact> 0.47962631E-01</totfact>
</mgrwt>
</event>
<event>
 4    1  0.4964158E-009  0.3590377E+03  0.7818608E-02  0.1058966E+00
          1   -1    0    0  501    0  0.00000000000E+00  0.00000000000E+00  0.17664759923E+04  0.17664759923E+04  0.50400000000E-02 0. -1.
         -1   -1    0    0    0  501 -0.00000000000E+00 -0.00000000000E+00 -0.19708990590E+03  0.19708990597E+03  0.50400000000E-02 0.  1.
    8880022    1    1    2    0    0 -0.26496708428E+03 -0.18790643178E+03  0.55883690401E+01  0.35908114089E+03  0.15294330000E+03 0.  0.
    8880022    1    1    2    0    0  0.26496708428E+03  0.18790643178E+03  0.15637977173E+04  0.16044847573E+04  0.15294330000E+03 0. -1.
<mgrwt>
<rscale>  0 0.35903765E+03</rscale>
<asrwt>0</asrwt>
<pdfrwt beam="1">  1        1 0.27176553E+00 0.35903765E+03</pdfrwt>
<pdfrwt beam="2">  1       -1 0.30321525E-01 0.35903765E+03</pdfrwt>
<totfact> 0.47344332E+01</totfact>
</mgrwt>
</event>
<event>
 4    1  0.4964158E-009  0.3474594E+03  0.7818608E-02  0.1063663E+00
         -1   -1    0    0    0  501 -0.00000000000E+00  0.00000000000E+00  0.93495306591E+03  0.93495306592E+03  0.50400000000E-02 0.  1.
          1   -1    0    0  501    0  0.00000000000E+00 -0.00000000000E+00 -0.14622081070E+04  0.14622081071E+04  0.50400000000E-02 0. -1.
    8880022    1    1    2    0    0 -0.23995486208E+02 -0.31106369237E+03  0.88080678359E+03  0.94686252810E+03  0.15294330000E+03 0.  1.
    8880022    1    1    2    0    0  0.23995486208E+02  0.31106369237E+03 -0.14080618247E+04  0.14502986449E+04  0.15294330000E+03 0.  0.
<mgrwt>
<rscale>  0 0.34745943E+03</rscale>
<asrwt>0</asrwt>
<pdfrwt beam="1">  1        1 0.22495509E+00 0.34745943E+03</pdfrwt>
<pdfrwt beam="2">  1       -1 0.14383893E+00 0.34745943E+03</pdfrwt>
<totfact> 0.31521460E+00</totfact>
</mgrwt>
</event>
<event>
 4    1  0.4964158E-009  0.2925781E+03  0.7818608E-02  0.1089011E+00
         -1   -1    0    0    0  501 -0.00000000000E+00  0.00000000000E+00  0.25353290863E+03  0.25353290868E+03  0.50400000000E-02 0.  1.
          1   -1    0    0  501    0  0.00000000000E+00 -0.00000000000E+00 -0.13724328685E+04  0.13724328685E+04  0.50400000000E-02 0. -1.
    8880022    1    1    2    0    0 -0.23647641833E+02 -0.24829630946E+03  0.14648277406E+03  0.32719890643E+03  0.15294330000E+03 0.  0.
    8880022    1    1    2    0    0  0.23647641833E+02  0.24829630946E+03 -0.12653827339E+04  0.12987668707E+04  0.15294330000E+03 0.  0.
<mgrwt>
<rscale>  0 0.29257806E+03</rscale>
<asrwt>0</asrwt>
<pdfrwt beam="1">  1        1 0.21114351E+00 0.29257806E+03</pdfrwt>
<pdfrwt beam="2">  1       -1 0.39005064E-01 0.29257806E+03</pdfrwt>
<totfact> 0.56699001E+01</totfact>
</mgrwt>
</event>
<event>
 4    1  0.4964158E-009  0.6763283E+03  0.7818608E-02  0.9758593E-01
          1   -1    0    0  501    0  0.00000000000E+00  0.00000000000E+00  0.15073211748E+04  0.15073211748E+04  0.50400000000E-02 0. -1.
         -1   -1    0    0    0  501 -0.00000000000E+00 -0.00000000000E+00 -0.47610866447E+03  0.47610866450E+03  0.50400000000E-02 0.  1.
    8880022    1    1    2    0    0 -0.21811131342E+03 -0.62165565042E+03 -0.81578237770E+02  0.68123047101E+03  0.15294330000E+03 0.  0.
    8880022    1    1    2    0    0  0.21811131342E+03  0.62165565042E+03  0.11127907481E+04  0.13021993683E+04  0.15294330000E+03 0.  0.
<mgrwt>
<rscale>  0 0.67632828E+03</rscale>
<asrwt>0</asrwt>
<pdfrwt beam="1">  1        1 0.23189556E+00 0.67632828E+03</pdfrwt>
<pdfrwt beam="2">  1       -1 0.73247489E-01 0.67632828E+03</pdfrwt>
<totfact> 0.12740095E+01</totfact>
</mgrwt>
</event>
<event>
 4    1  0.4964158E-009  0.4743000E+03  0.7818608E-02  0.1020714E+00
         -1   -1    0    0    0  501 -0.00000000000E+00  0.00000000000E+00  0.10057740585E+04  0.10057740585E+04  0.50400000000E-02 0.  1.
          1   -1    0    0  501    0  0.00000000000E+00 -0.00000000000E+00 -0.29400234706E+03  0.29400234711E+03  0.50400000000E-02 0. -1.
    8880022    1    1    2    0    0 -0.26508042497E+03 -0.36235505119E+03  0.67375174701E+03  0.82395502574E+03  0.15294330000E+03 0.  0.
    8880022    1    1    2    0    0  0.26508042497E+03  0.36235505119E+03  0.38019964409E+02  0.47582137986E+03  0.15294330000E+03 0.  0.
<mgrwt>
<rscale>  0 0.47429998E+03</rscale>
<asrwt>0</asrwt>
<pdfrwt beam="1">  1        1 0.45231129E-01 0.47429998E+03</pdfrwt>
<pdfrwt beam="2">  1       -1 0.15473447E+00 0.47429998E+03</pdfrwt>
<totfact> 0.30469772E+01</totfact>
</mgrwt>
</event>
<event>
 4    1  0.4964158E-009  0.6593457E+03  0.7818608E-02  0.9789399E-01
         -1   -1    0    0    0  501 -0.00000000000E+00  0.00000000000E+00  0.80023791823E+03  0.80023791825E+03  0.50400000000E-02 0.  1.
          1   -1    0    0  501    0  0.00000000000E+00 -0.00000000000E+00 -0.71949191750E+03  0.71949191752E+03  0.50400000000E-02 0. -1.
    8880022    1    1    2    0    0  0.51624484787E+03  0.38057368241E+03 -0.33569512932E+03  0.73988373652E+03  0.15294330000E+03 0.  1.
    8880022    1    1    2    0    0 -0.51624484787E+03 -0.38057368241E+03  0.41644113006E+03  0.77984609925E+03  0.15294330000E+03 0.  1.
<mgrwt>
<rscale>  0 0.65934568E+03</rscale>
<asrwt>0</asrwt>
<pdfrwt beam="1">  1        1 0.11069106E+00 0.65934568E+03</pdfrwt>
<pdfrwt beam="2">  1       -1 0.12311353E+00 0.65934568E+03</pdfrwt>
<totfact> 0.15792971E+01</totfact>
</mgrwt>
</event>
<event>
 4    1  0.4964158E-009  0.7002488E+03  0.7818608E-02  0.9716807E-01
         -1   -1    0    0    0  501 -0.00000000000E+00  0.00000000000E+00  0.62926355032E+03  0.62926355034E+03  0.50400000000E-02 0.  1.
          1   -1    0    0  501    0  0.00000000000E+00 -0.00000000000E+00 -0.21022828807E+04  0.21022828807E+04  0.50400000000E-02 0. -1.
    8880022    1    1    2    0    0  0.68122662939E+03  0.53731527439E+02  0.34696729862E+03  0.78149520598E+03  0.15294330000E+03 0.  0.
    8880022    1    1    2    0    0 -0.68122662939E+03 -0.53731527439E+02 -0.18199866290E+04  0.19500512250E+04  0.15294330000E+03 0.  0.
<mgrwt>
<rscale>  0 0.70024885E+03</rscale>
<asrwt>0</asrwt>
<pdfrwt beam="1">  1        1 0.32342813E+00 0.70024885E+03</pdfrwt>
<pdfrwt beam="2">  1       -1 0.96809778E-01 0.70024885E+03</pdfrwt>
<totfact> 0.27755508E+00</totfact>
</mgrwt>
</event>
<event>
 4    1  0.4964158E-009  0.6164271E+03  0.7818608E-02  0.9871899E-01
          1   -1    0    0  501    0  0.00000000000E+00  0.00000000000E+00  0.45606304734E+03  0.45606304736E+03  0.50400000000E-02 0. -1.
         -1   -1    0    0    0  501 -0.00000000000E+00 -0.00000000000E+00 -0.17396921726E+04  0.17396921726E+04  0.50400000000E-02 0.  1.
    8880022    1    1    2    0    0  0.50628879561E+03 -0.31664230923E+03 -0.14343244337E+04  0.15611754965E+04  0.15294330000E+03 0.  0.
    8880022    1    1    2    0    0 -0.50628879561E+03  0.31664230923E+03  0.15069530842E+03  0.63457972355E+03  0.15294330000E+03 0.  0.
<mgrwt>
<rscale>  0 0.61642708E+03</rscale>
<asrwt>0</asrwt>
<pdfrwt beam="1">  1        1 0.70163546E-01 0.61642708E+03</pdfrwt>
<pdfrwt beam="2">  1       -1 0.26764495E+00 0.61642708E+03</pdfrwt>
<totfact> 0.28798717E+00</totfact>
</mgrwt>
</event>
<event>
 4    1  0.4964158E-009  0.9600259E+03  0.7818608E-02  0.9353508E-01
         -1   -1    0    0    0  501 -0.00000000000E+00  0.00000000000E+00  0.55539610482E+03  0.55539610485E+03  0.50400000000E-02 0.  1.
          1   -1    0    0  501    0  0.00000000000E+00 -0.00000000000E+00 -0.28622098085E+04  0.28622098085E+04  0.50400000000E-02 0. -1.
    8880022    1    1    2    0    0  0.21243338855E+03 -0.92365046214E+03 -0.45683138781E+02  0.96111223224E+03  0.15294330000E+03 0.  0.
    8880022    1    1    2    0    0 -0.21243338855E+03  0.92365046214E+03 -0.22611305649E+04  0.24564936811E+04  0.15294330000E+03 0.  0.
<mgrwt>
<rscale>  0 0.96002592E+03</rscale>
<asrwt>0</asrwt>
<pdfrwt beam="1">  1        1 0.44033996E+00 0.96002592E+03</pdfrwt>
<pdfrwt beam="2">  1       -1 0.85445556E-01 0.96002592E+03</pdfrwt>
<totfact> 0.10509629E+00</totfact>
</mgrwt>
</event>
<event>
 4    1  0.4964158E-009  0.7035077E+03  0.7818608E-02  0.9711252E-01
         -1   -1    0    0    0  501 -0.00000000000E+00  0.00000000000E+00  0.98841627445E+03  0.98841627446E+03  0.50400000000E-02 0.  1.
          1   -1    0    0  501    0  0.00000000000E+00 -0.00000000000E+00 -0.16712593728E+04  0.16712593728E+04  0.50400000000E-02 0. -1.
    8880022    1    1    2    0    0 -0.36406562201E+03 -0.58222644739E+03  0.77151179102E+03  0.10441041662E+04  0.15294330000E+03 0.  0.
    8880022    1    1    2    0    0  0.36406562201E+03  0.58222644739E+03 -0.14543548894E+04  0.16155714811E+04  0.15294330000E+03 0.  0.
<mgrwt>
<rscale>  0 0.70350769E+03</rscale>
<asrwt>0</asrwt>
<pdfrwt beam="1">  1        1 0.25711683E+00 0.70350769E+03</pdfrwt>
<pdfrwt beam="2">  1       -1 0.15206404E+00 0.70350769E+03</pdfrwt>
<totfact> 0.17773932E+00</totfact>
</mgrwt>
</event>
<event>
 4    1  0.4964158E-009  0.3892318E+03  0.7818608E-02  0.1047573E+00
         -1   -1    0    0    0  501 -0.00000000000E+00  0.00000000000E+00  0.22655129348E+03  0.22655129354E+03  0.50400000000E-02 0.  1.
          1   -1    0    0  501    0  0.00000000000E+00 -0.00000000000E+00 -0.12250239532E+04  0.12250239532E+04  0.50400000000E-02 0. -1.
    8880022    1    1    2    0    0 -0.18802505095E+03  0.30455919365E+03 -0.98832759284E+03  0.10622112813E+04  0.15294330000E+03 0.  0.
    8880022    1    1    2    0    0  0.18802505095E+03 -0.30455919365E+03 -0.10145066865E+02  0.38936396549E+03  0.15294330000E+03 0.  0.
<mgrwt>
<rscale>  0 0.38923178E+03</rscale>
<asrwt>0</asrwt>
<pdfrwt beam="1">  1        1 0.18846522E+00 0.38923178E+03</pdfrwt>
<pdfrwt beam="2">  1       -1 0.34854046E-01 0.38923178E+03</pdfrwt>
<totfact> 0.85604670E+01</totfact>
</mgrwt>
</event>
<event>
 4    1  0.4964158E-009  0.1041776E+04  0.7818608E-02  0.9263877E-01
         -1   -1    0    0    0  501 -0.00000000000E+00  0.00000000000E+00  0.43459071993E+03  0.43459071996E+03  0.50400000000E-02 0.  1.
          1   -1    0    0  501    0  0.00000000000E+00 -0.00000000000E+00 -0.41505609653E+04  0.41505609653E+04  0.50400000000E-02 0. -1.
    8880022    1    1    2    0    0  0.26910077842E+03  0.99473086164E+03 -0.41106970104E+03  0.11199440469E+04  0.15294330000E+03 0.  0.
    8880022    1    1    2    0    0 -0.26910077842E+03 -0.99473086164E+03 -0.33049005443E+04  0.34652076384E+04  0.15294330000E+03 0.  0.
<mgrwt>
<rscale>  0 0.10417756E+04</rscale>
<asrwt>0</asrwt>
<pdfrwt beam="1">  1        1 0.63854781E+00 0.10417756E+04</pdfrwt>
<pdfrwt beam="2">  1       -1 0.66860114E-01 0.10417756E+04</pdfrwt>
<totfact> 0.16736370E-01</totfact>
</mgrwt>
</event>
<event>
 4    1  0.7869748E-009  0.6825666E+03  0.7818608E-02  0.9747519E-01
          1   -1    0    0  501    0  0.00000000000E+00  0.00000000000E+00  0.21301227696E+04  0.21301227696E+04  0.50400000000E-02 0. -1.
         -1   -1    0    0    0  501 -0.00000000000E+00 -0.00000000000E+00 -0.19247738321E+04  0.19247738321E+04  0.50400000000E-02 0.  1.
    8880022    1    1    2    0    0 -0.66004561849E+03 -0.82736031125E+02  0.20114572124E+04  0.21241132832E+04  0.15294330000E+03 0.  0.
    8880022    1    1    2    0    0  0.66004561849E+03  0.82736031125E+02 -0.18061082749E+04  0.19307833185E+04  0.15294330000E+03 0.  0.
<mgrwt>
<rscale>  0 0.68256657E+03</rscale>
<asrwt>0</asrwt>
<pdfrwt beam="1">  1        1 0.32771119E+00 0.68256657E+03</pdfrwt>
<pdfrwt beam="2">  1       -1 0.29611905E+00 0.68256657E+03</pdfrwt>
<totfact> 0.94360427E-02</totfact>
</mgrwt>
</event>
<event>
 4    1  0.4964158E-009  0.6806545E+03  0.7818608E-02  0.9750900E-01
          1   -1    0    0  501    0  0.00000000000E+00  0.00000000000E+00  0.43840280058E+03  0.43840280061E+03  0.50400000000E-02 0. -1.
         -1   -1    0    0    0  501 -0.00000000000E+00 -0.00000000000E+00 -0.12793114484E+04  0.12793114484E+04  0.50400000000E-02 0.  1.
    8880022    1    1    2    0    0 -0.40874645294E+03  0.52232679433E+03 -0.77866536910E+03  0.10342196831E+04  0.15294330000E+03 0.  0.
    8880022    1    1    2    0    0  0.40874645294E+03 -0.52232679433E+03 -0.62243278705E+02  0.68349456591E+03  0.15294330000E+03 0. -1.
<mgrwt>
<rscale>  0 0.68065453E+03</rscale>
<asrwt>0</asrwt>
<pdfrwt beam="1">  1        1 0.67446585E-01 0.68065453E+03</pdfrwt>
<pdfrwt beam="2">  1       -1 0.19681714E+00 0.68065453E+03</pdfrwt>
<totfact> 0.87510816E+00</totfact>
</mgrwt>
</event>
<event>
 4    1  0.4964158E-009  0.1284848E+04  0.7818608E-02  0.9041668E-01
         -1   -1    0    0    0  501 -0.00000000000E+00  0.00000000000E+00  0.94828038274E+03  0.94828038276E+03  0.50400000000E-02 0.  1.
          1   -1    0    0  501    0  0.00000000000E+00 -0.00000000000E+00 -0.19592350296E+04  0.19592350296E+04  0.50400000000E-02 0. -1.
    8880022    1    1    2    0    0  0.28020037397E+02  0.12754049275E+04 -0.99080894861E+03  0.16225094382E+04  0.15294330000E+03 0. -1.
    8880022    1    1    2    0    0 -0.28020037397E+02 -0.12754049275E+04 -0.20145698283E+02  0.12850059742E+04  0.15294330000E+03 0.  0.
<mgrwt>
<rscale>  0 0.12848480E+04</rscale>
<asrwt>0</asrwt>
<pdfrwt beam="1">  1        1 0.30142077E+00 0.12848480E+04</pdfrwt>
<pdfrwt beam="2">  1       -1 0.14588929E+00 0.12848480E+04</pdfrwt>
<totfact> 0.11613101E+00</totfact>
</mgrwt>
</event>
<event>
 4    1  0.4964158E-009  0.6652590E+03  0.7818608E-02  0.9778561E-01
          1   -1    0    0  501    0  0.00000000000E+00  0.00000000000E+00  0.14539409414E+04  0.14539409415E+04  0.50400000000E-02 0. -1.
         -1   -1    0    0    0  501 -0.00000000000E+00 -0.00000000000E+00 -0.57042940417E+03  0.57042940420E+03  0.50400000000E-02 0.  1.
    8880022    1    1    2    0    0  0.59537375659E+03 -0.25437773660E+03  0.11329967354E+04  0.13138687904E+04  0.15294330000E+03 0.  0.
    8880022    1    1    2    0    0 -0.59537375659E+03  0.25437773660E+03 -0.24948519814E+03  0.71050155525E+03  0.15294330000E+03 0.  0.
<mgrwt>
<rscale>  0 0.66525904E+03</rscale>
<asrwt>0</asrwt>
<pdfrwt beam="1">  1        1 0.22368322E+00 0.66525904E+03</pdfrwt>
<pdfrwt beam="2">  1       -1 0.87758370E-01 0.66525904E+03</pdfrwt>
<totfact> 0.94635406E+00</totfact>
</mgrwt>
</event>
<event>
 4    1  0.4964158E-009  0.8137968E+03  0.7818608E-02  0.9540259E-01
          1   -1    0    0  501    0  0.00000000000E+00  0.00000000000E+00  0.14779512844E+04  0.14779512844E+04  0.50400000000E-02 0. -1.
         -1   -1    0    0    0  501 -0.00000000000E+00 -0.00000000000E+00 -0.10312546801E+04  0.10312546801E+04  0.50400000000E-02 0.  1.
    8880022    1    1    2    0    0  0.58332893239E+03  0.54644396954E+03  0.11667929100E+04  0.14225579085E+04  0.15294330000E+03 0.  0.
    8880022    1    1    2    0    0 -0.58332893239E+03 -0.54644396954E+03 -0.72009630571E+03  0.10866480561E+04  0.15294330000E+03 0.  0.
<mgrwt>
<rscale>  0 0.81379685E+03</rscale>
<asrwt>0</asrwt>
<pdfrwt beam="1">  1        1 0.22737712E+00 0.81379685E+03</pdfrwt>
<pdfrwt beam="2">  1       -1 0.15865457E+00 0.81379685E+03</pdfrwt>
<totfact> 0.20979591E+00</totfact>
</mgrwt>
</event>
<event>
 4    1  0.4964158E-009  0.7105530E+03  0.7818608E-02  0.9699353E-01
          1   -1    0    0  501    0  0.00000000000E+00  0.00000000000E+00  0.17170845691E+04  0.17170845691E+04  0.50400000000E-02 0. -1.
         -1   -1    0    0    0  501 -0.00000000000E+00 -0.00000000000E+00 -0.10729007698E+04  0.10729007698E+04  0.50400000000E-02 0.  1.
    8880022    1    1    2    0    0  0.24432181035E+03  0.64946190987E+03 -0.86647335890E+03  0.11205630969E+04  0.15294330000E+03 0.  0.
    8880022    1    1    2    0    0 -0.24432181035E+03 -0.64946190987E+03  0.15106571583E+04  0.16694222420E+04  0.15294330000E+03 0.  0.
<mgrwt>
<rscale>  0 0.71055300E+03</rscale>
<asrwt>0</asrwt>
<pdfrwt beam="1">  1        1 0.26416686E+00 0.71055300E+03</pdfrwt>
<pdfrwt beam="2">  1       -1 0.16506166E+00 0.71055300E+03</pdfrwt>
<totfact> 0.13185780E+00</totfact>
</mgrwt>
</event>
<event>
 4    1  0.4964158E-009  0.1068535E+04  0.7818608E-02  0.9236414E-01
         -1   -1    0    0    0  501 -0.00000000000E+00  0.00000000000E+00  0.17545393012E+04  0.17545393012E+04  0.50400000000E-02 0.  1.
          1   -1    0    0  501    0  0.00000000000E+00 -0.00000000000E+00 -0.21950403769E+04  0.21950403769E+04  0.50400000000E-02 0. -1.
    8880022    1    1    2    0    0 -0.34976419505E+03 -0.99801802935E+03 -0.18766462413E+04  0.21595295199E+04  0.15294330000E+03 0.  0.
    8880022    1    1    2    0    0  0.34976419505E+03  0.99801802935E+03  0.14361451657E+04  0.17900501582E+04  0.15294330000E+03 0.  0.
<mgrwt>
<rscale>  0 0.10685348E+04</rscale>
<asrwt>0</asrwt>
<pdfrwt beam="1">  1        1 0.33769852E+00 0.10685348E+04</pdfrwt>
<pdfrwt beam="2">  1       -1 0.26992912E+00 0.10685348E+04</pdfrwt>
<totfact> 0.11448604E-01</totfact>
</mgrwt>
</event>
<event>
 4    1  0.4964158E-009  0.7547748E+03  0.7818608E-02  0.9627889E-01
         -1   -1    0    0    0  501 -0.00000000000E+00  0.00000000000E+00  0.83567888985E+03  0.83567888986E+03  0.50400000000E-02 0.  1.
          1   -1    0    0  501    0  0.00000000000E+00 -0.00000000000E+00 -0.84687936721E+03  0.84687936723E+03  0.50400000000E-02 0. -1.
    8880022    1    1    2    0    0  0.55271626678E+03  0.49071186815E+03  0.36593746377E+03  0.83880587117E+03  0.15294330000E+03 0.  0.
    8880022    1    1    2    0    0 -0.55271626678E+03 -0.49071186815E+03 -0.37713794113E+03  0.84375238593E+03  0.15294330000E+03 0.  0.
<mgrwt>
<rscale>  0 0.75477484E+03</rscale>
<asrwt>0</asrwt>
<pdfrwt beam="1">  1        1 0.13028913E+00 0.75477484E+03</pdfrwt>
<pdfrwt beam="2">  1       -1 0.12856598E+00 0.75477484E+03</pdfrwt>
<totfact> 0.10828045E+01</totfact>
</mgrwt>
</event>
<event>
 4    1  0.4964158E-009  0.1605984E+04  0.7818608E-02  0.8816880E-01
          1   -1    0    0  501    0  0.00000000000E+00  0.00000000000E+00  0.80155594383E+03  0.80155594385E+03  0.50400000000E-02 0. -1.
         -1   -1    0    0    0  501 -0.00000000000E+00 -0.00000000000E+00 -0.46753317048E+04  0.46753317048E+04  0.50400000000E-02 0.  1.
    8880022    1    1    2    0    0 -0.14436961204E+04  0.68668383378E+03 -0.40785040470E+03  0.16569631201E+04  0.15294330000E+03 0.  0.
    8880022    1    1    2    0    0  0.14436961204E+04 -0.68668383378E+03 -0.34659253563E+04  0.38199245286E+04  0.15294330000E+03 0.  0.
<mgrwt>
<rscale>  0 0.16059841E+04</rscale>
<asrwt>0</asrwt>
<pdfrwt beam="1">  1        1 0.12331630E+00 0.16059841E+04</pdfrwt>
<pdfrwt beam="2">  1       -1 0.71928179E+00 0.16059841E+04</pdfrwt>
<totfact> 0.34989753E-03</totfact>
</mgrwt>
</event>
<event>
 4    1  0.4964158E-009  0.2780366E+03  0.7818608E-02  0.1096766E+00
          1   -1    0    0  501    0  0.00000000000E+00  0.00000000000E+00  0.18148742253E+04  0.18148742253E+04  0.50400000000E-02 0. -1.
         -1   -1    0    0    0  501 -0.00000000000E+00 -0.00000000000E+00 -0.90764332951E+03  0.90764332952E+03  0.50400000000E-02 0.  1.
    8880022    1    1    2    0    0 -0.43599060520E+02 -0.22806096692E+03  0.17825491058E+04  0.18041024501E+04  0.15294330000E+03 0.  0.
    8880022    1    1    2    0    0  0.43599060520E+02  0.22806096692E+03 -0.87531821006E+03  0.91841510472E+03  0.15294330000E+03 0.  1.
<mgrwt>
<rscale>  0 0.27803657E+03</rscale>
<asrwt>0</asrwt>
<pdfrwt beam="1">  1        1 0.27921142E+00 0.27803657E+03</pdfrwt>
<pdfrwt beam="2">  1       -1 0.13963744E+00 0.27803657E+03</pdfrwt>
<totfact> 0.20591335E+00</totfact>
</mgrwt>
</event>
<event>
 4    1  0.4964158E-009  0.1196768E+04  0.7818608E-02  0.9115690E-01
          1   -1    0    0  501    0  0.00000000000E+00  0.00000000000E+00  0.77711328420E+03  0.77711328422E+03  0.50400000000E-02 0. -1.
         -1   -1    0    0    0  501 -0.00000000000E+00 -0.00000000000E+00 -0.22547902682E+04  0.22547902682E+04  0.50400000000E-02 0.  1.
    8880022    1    1    2    0    0 -0.11068918217E+04  0.42854791967E+03 -0.91029747906E+02  0.12002253507E+04  0.15294330000E+03 0.  0.
    8880022    1    1    2    0    0  0.11068918217E+04 -0.42854791967E+03 -0.13866472361E+04  0.18316782018E+04  0.15294330000E+03 0.  0.
<mgrwt>
<rscale>  0 0.11967683E+04</rscale>
<asrwt>0</asrwt>
<pdfrwt beam="1">  1        1 0.11955589E+00 0.11967683E+04</pdfrwt>
<pdfrwt beam="2">  1       -1 0.34689081E+00 0.11967683E+04</pdfrwt>
<totfact> 0.37401573E-01</totfact>
</mgrwt>
</event>
<event>
 4    1  0.4964158E-009  0.1331230E+04  0.7818608E-02  0.9005160E-01
         -1   -1    0    0    0  501 -0.00000000000E+00  0.00000000000E+00  0.15479848827E+04  0.15479848827E+04  0.50400000000E-02 0.  1.
          1   -1    0    0  501    0  0.00000000000E+00 -0.00000000000E+00 -0.19006996357E+04  0.19006996357E+04  0.50400000000E-02 0. -1.
    8880022    1    1    2    0    0 -0.95621105597E+03  0.91347763685E+03 -0.12637627055E+04  0.18355568107E+04  0.15294330000E+03 0.  0.
    8880022    1    1    2    0    0  0.95621105597E+03 -0.91347763685E+03  0.91104795251E+03  0.16131277077E+04  0.15294330000E+03 0.  0.
<mgrwt>
<rscale>  0 0.13312297E+04</rscale>
<asrwt>0</asrwt>
<pdfrwt beam="1">  1        1 0.29241533E+00 0.13312297E+04</pdfrwt>
<pdfrwt beam="2">  1       -1 0.23815152E+00 0.13312297E+04</pdfrwt>
<totfact> 0.27972312E-01</totfact>
</mgrwt>
</event>
<event>
 4    1  0.4964158E-009  0.1123108E+04  0.7818608E-02  0.9182957E-01
          1   -1    0    0  501    0  0.00000000000E+00  0.00000000000E+00  0.14666715638E+04  0.14666715638E+04  0.50400000000E-02 0. -1.
         -1   -1    0    0    0  501 -0.00000000000E+00 -0.00000000000E+00 -0.11582572831E+04  0.11582572831E+04  0.50400000000E-02 0.  1.
    8880022    1    1    2    0    0 -0.11119478795E+04  0.39400961319E+02  0.82019046880E+03  0.13907136947E+04  0.15294330000E+03 0.  0.
    8880022    1    1    2    0    0  0.11119478795E+04 -0.39400961319E+02 -0.51177618804E+03  0.12342151523E+04  0.15294330000E+03 0.  0.
<mgrwt>
<rscale>  0 0.11231083E+04</rscale>
<asrwt>0</asrwt>
<pdfrwt beam="1">  1        1 0.22564178E+00 0.11231083E+04</pdfrwt>
<pdfrwt beam="2">  1       -1 0.17819343E+00 0.11231083E+04</pdfrwt>
<totfact> 0.14639692E+00</totfact>
</mgrwt>
</event>
<event>
 4    1  0.4964158E-009  0.6591541E+03  0.7818608E-02  0.9789752E-01
          1   -1    0    0  501    0  0.00000000000E+00  0.00000000000E+00  0.19089457922E+04  0.19089457922E+04  0.50400000000E-02 0. -1.
         -1   -1    0    0    0  501 -0.00000000000E+00 -0.00000000000E+00 -0.26291716467E+03  0.26291716472E+03  0.50400000000E-02 0.  1.
    8880022    1    1    2    0    0  0.61096972980E+03 -0.19444402984E+03  0.42503560889E+03  0.78430823871E+03  0.15294330000E+03 0.  0.
    8880022    1    1    2    0    0 -0.61096972980E+03  0.19444402984E+03  0.12209930187E+04  0.13875547182E+04  0.15294330000E+03 0.  0.
<mgrwt>
<rscale>  0 0.65915411E+03</rscale>
<asrwt>0</asrwt>
<pdfrwt beam="1">  1        1 0.29368396E+00 0.65915411E+03</pdfrwt>
<pdfrwt beam="2">  1       -1 0.40448795E-01 0.65915411E+03</pdfrwt>
<totfact> 0.21592514E+01</totfact>
</mgrwt>
</event>
<event>
 4    1  0.4964158E-009  0.7757431E+03  0.7818608E-02  0.9595807E-01
         -1   -1    0    0    0  501 -0.00000000000E+00  0.00000000000E+00  0.14454345143E+04  0.14454345143E+04  0.50400000000E-02 0.  1.
          1   -1    0    0  501    0  0.00000000000E+00 -0.00000000000E+00 -0.89608787937E+03  0.89608787938E+03  0.50400000000E-02 0. -1.
    8880022    1    1    2    0    0  0.46707107038E+03  0.60019188121E+03  0.11313248730E+04  0.13717409742E+04  0.15294330000E+03 0.  0.
    8880022    1    1    2    0    0 -0.46707107038E+03 -0.60019188121E+03 -0.58197823804E+03  0.96978141951E+03  0.15294330000E+03 0.  0.
<mgrwt>
<rscale>  0 0.77574308E+03</rscale>
<asrwt>0</asrwt>
<pdfrwt beam="1">  1        1 0.13785967E+00 0.77574308E+03</pdfrwt>
<pdfrwt beam="2">  1       -1 0.22237454E+00 0.77574308E+03</pdfrwt>
<totfact> 0.20222114E+00</totfact>
</mgrwt>
</event>
<event>
 4    1  0.4964158E-009  0.8606272E+03  0.7818608E-02  0.9476183E-01
         -1   -1    0    0    0  501 -0.00000000000E+00  0.00000000000E+00  0.77720161228E+03  0.77720161230E+03  0.50400000000E-02 0.  1.
          1   -1    0    0  501    0  0.00000000000E+00 -0.00000000000E+00 -0.10687257168E+04  0.10687257168E+04  0.50400000000E-02 0. -1.
    8880022    1    1    2    0    0 -0.36815313523E+03 -0.76272586867E+03  0.15794294064E+03  0.87500006127E+03  0.15294330000E+03 0.  0.
    8880022    1    1    2    0    0  0.36815313523E+03  0.76272586867E+03 -0.44946704514E+03  0.97092726782E+03  0.15294330000E+03 0.  0.
<mgrwt>
<rscale>  0 0.86062718E+03</rscale>
<asrwt>0</asrwt>
<pdfrwt beam="1">  1        1 0.16441934E+00 0.86062718E+03</pdfrwt>
<pdfrwt beam="2">  1       -1 0.11956948E+00 0.86062718E+03</pdfrwt>
<totfact> 0.85204469E+00</totfact>
</mgrwt>
</event>
<event>
 4    1  0.4964158E-009  0.1416537E+04  0.7818608E-02  0.8941935E-01
         -1   -1    0    0    0  501 -0.00000000000E+00  0.00000000000E+00  0.20698400548E+04  0.20698400548E+04  0.50400000000E-02 0.  1.
          1   -1    0    0  501    0  0.00000000000E+00 -0.00000000000E+00 -0.12489681947E+04  0.12489681947E+04  0.50400000000E-02 0. -1.
    8880022    1    1    2    0    0  0.11080644558E+04 -0.86912495729E+03 -0.37460569698E+03  0.14652324426E+04  0.15294330000E+03 0.  0.
    8880022    1    1    2    0    0 -0.11080644558E+04  0.86912495729E+03  0.11954775571E+04  0.18535758069E+04  0.15294330000E+03 0.  0.
<mgrwt>
<rscale>  0 0.14165369E+04</rscale>
<asrwt>0</asrwt>
<pdfrwt beam="1">  1        1 0.19214896E+00 0.14165369E+04</pdfrwt>
<pdfrwt beam="2">  1       -1 0.31843693E+00 0.14165369E+04</pdfrwt>
<totfact> 0.23624146E-01</totfact>
</mgrwt>
</event>
<event>
 4    1  0.4964158E-009  0.5482678E+03  0.7818608E-02  0.1001896E+00
         -1   -1    0    0    0  501 -0.00000000000E+00  0.00000000000E+00  0.67267948523E+03  0.67267948524E+03  0.50400000000E-02 0.  1.
          1   -1    0    0  501    0  0.00000000000E+00 -0.00000000000E+00 -0.11420339204E+04  0.11420339204E+04  0.50400000000E-02 0. -1.
    8880022    1    1    2    0    0  0.52359480739E+03  0.55266431264E+02  0.47324155430E+03  0.72426177759E+03  0.15294330000E+03 0.  0.
    8880022    1    1    2    0    0 -0.52359480739E+03 -0.55266431264E+02 -0.94259598944E+03  0.10904516280E+04  0.15294330000E+03 0.  0.
<mgrwt>
<rscale>  0 0.54826778E+03</rscale>
<asrwt>0</asrwt>
<pdfrwt beam="1">  1        1 0.17569753E+00 0.54826778E+03</pdfrwt>
<pdfrwt beam="2">  1       -1 0.10348915E+00 0.54826778E+03</pdfrwt>
<totfact> 0.11094490E+01</totfact>
</mgrwt>
</event>
<event>
 4    1  0.4964158E-009  0.5798320E+03  0.7818608E-02  0.9948155E-01
         -1   -1    0    0    0  501 -0.00000000000E+00  0.00000000000E+00  0.90723722625E+03  0.90723722626E+03  0.50400000000E-02 0.  1.
          1   -1    0    0  501    0  0.00000000000E+00 -0.00000000000E+00 -0.11358991092E+04  0.11358991092E+04  0.50400000000E-02 0. -1.
    8880022    1    1    2    0    0  0.48319654014E+03  0.28166407428E+03  0.72419859844E+03  0.92772237773E+03  0.15294330000E+03 0.  0.
    8880022    1    1    2    0    0 -0.48319654014E+03 -0.28166407428E+03 -0.95286048143E+03  0.11154139578E+04  0.15294330000E+03 0.  0.
<mgrwt>
<rscale>  0 0.57983204E+03</rscale>
<asrwt>0</asrwt>
<pdfrwt beam="1">  1        1 0.17475371E+00 0.57983204E+03</pdfrwt>
<pdfrwt beam="2">  1       -1 0.13957496E+00 0.57983204E+03</pdfrwt>
<totfact> 0.53856853E+00</totfact>
</mgrwt>
</event>
<event>
 4    1  0.4964158E-009  0.9015417E+03  0.7818608E-02  0.9423656E-01
         -1   -1    0    0    0  501 -0.00000000000E+00  0.00000000000E+00  0.11704648244E+04  0.11704648245E+04  0.50400000000E-02 0.  1.
          1   -1    0    0  501    0  0.00000000000E+00 -0.00000000000E+00 -0.15339009151E+04  0.15339009151E+04  0.50400000000E-02 0. -1.
    8880022    1    1    2    0    0  0.87086793334E+03  0.17599687883E+03  0.81861789946E+03  0.12177490616E+04  0.15294330000E+03 0.  0.
    8880022    1    1    2    0    0 -0.87086793334E+03 -0.17599687883E+03 -0.11820539901E+04  0.14866166780E+04  0.15294330000E+03 0. -1.
<mgrwt>
<rscale>  0 0.90154174E+03</rscale>
<asrwt>0</asrwt>
<pdfrwt beam="1">  1        1 0.23598476E+00 0.90154174E+03</pdfrwt>
<pdfrwt beam="2">  1       -1 0.18007151E+00 0.90154174E+03</pdfrwt>
<totfact> 0.13167116E+00</totfact>
</mgrwt>
</event>
<event>
 4    1  0.4964158E-009  0.5929689E+03  0.7818608E-02  0.9920102E-01
          1   -1    0    0  501    0  0.00000000000E+00  0.00000000000E+00  0.10308222770E+04  0.10308222771E+04  0.50400000000E-02 0. -1.
         -1   -1    0    0    0  501 -0.00000000000E+00 -0.00000000000E+00 -0.87228180419E+03  0.87228180421E+03  0.50400000000E-02 0.  1.
    8880022    1    1    2    0    0 -0.56504016239E+02 -0.57011204227E+03 -0.66328075270E+03  0.88969289899E+03  0.15294330000E+03 0.  0.
    8880022    1    1    2    0    0  0.56504016239E+02  0.57011204227E+03  0.82182122555E+03  0.10134111823E+04  0.15294330000E+03 0.  0.
<mgrwt>
<rscale>  0 0.59296888E+03</rscale>
<asrwt>0</asrwt>
<pdfrwt beam="1">  1        1 0.15858804E+00 0.59296888E+03</pdfrwt>
<pdfrwt beam="2">  1       -1 0.13419720E+00 0.59296888E+03</pdfrwt>
<totfact> 0.71144996E+00</totfact>
</mgrwt>
</event>
<event>
 4    1  0.4964158E-009  0.4904042E+03  0.7818608E-02  0.1016314E+00
          1   -1    0    0  501    0  0.00000000000E+00  0.00000000000E+00  0.32966636356E+04  0.32966636356E+04  0.50400000000E-02 0. -1.
         -1   -1    0    0    0  501 -0.00000000000E+00 -0.00000000000E+00 -0.28409390472E+03  0.28409390477E+03  0.50400000000E-02 0.  1.
    8880022    1    1    2    0    0  0.26819863793E+03  0.38101717421E+03 -0.37197916838E+02  0.49181290596E+03  0.15294330000E+03 0.  0.
    8880022    1    1    2    0    0 -0.26819863793E+03 -0.38101717421E+03  0.30497676477E+04  0.30889446344E+04  0.15294330000E+03 0. -1.
<mgrwt>
<rscale>  0 0.49040417E+03</rscale>
<asrwt>0</asrwt>
<pdfrwt beam="1">  1        1 0.50717901E+00 0.49040417E+03</pdfrwt>
<pdfrwt beam="2">  1       -1 0.43706755E-01 0.49040417E+03</pdfrwt>
<totfact> 0.21492125E+00</totfact>
</mgrwt>
</event>
<event>
 4    1  0.4964158E-009  0.1885091E+03  0.7818608E-02  0.1159813E+00
         -1   -1    0    0    0  501 -0.00000000000E+00  0.00000000000E+00  0.99314761480E+02  0.99314761608E+02  0.50400000000E-02 0.  1.
          1   -1    0    0  501    0  0.00000000000E+00 -0.00000000000E+00 -0.19687443271E+04  0.19687443271E+04  0.50400000000E-02 0. -1.
    8880022    1    1    2    0    0  0.88809262832E+02 -0.65245328231E+02 -0.18700717246E+04  0.18795488677E+04  0.15294330000E+03 0.  0.
    8880022    1    1    2    0    0 -0.88809262832E+02  0.65245328231E+02  0.64215901099E+00  0.18851022095E+03  0.15294330000E+03 0.  0.
<mgrwt>
<rscale>  0 0.18850913E+03</rscale>
<asrwt>0</asrwt>
<pdfrwt beam="1">  1        1 0.30288371E+00 0.18850913E+03</pdfrwt>
<pdfrwt beam="2">  1       -1 0.15279196E-01 0.18850913E+03</pdfrwt>
<totfact> 0.11392214E+02</totfact>
</mgrwt>
</event>
<event>
 4    1  0.4964158E-009  0.1205785E+04  0.7818608E-02  0.9107808E-01
          1   -1    0    0  501    0  0.00000000000E+00  0.00000000000E+00  0.20471041483E+04  0.20471041483E+04  0.50400000000E-02 0. -1.
         -1   -1    0    0    0  501 -0.00000000000E+00 -0.00000000000E+00 -0.98175213792E+03  0.98175213793E+03  0.50400000000E-02 0.  1.
    8880022    1    1    2    0    0 -0.22784631760E+03 -0.11741431034E+04 -0.26375700925E+03  0.12342955013E+04  0.15294330000E+03 0.  0.
    8880022    1    1    2    0    0  0.22784631760E+03  0.11741431034E+04  0.13291090196E+04  0.17945607849E+04  0.15294330000E+03 0.  0.
<mgrwt>
<rscale>  0 0.12057851E+04</rscale>
<asrwt>0</asrwt>
<pdfrwt beam="1">  1        1 0.31493910E+00 0.12057851E+04</pdfrwt>
<pdfrwt beam="2">  1       -1 0.15103879E+00 0.12057851E+04</pdfrwt>
<totfact> 0.93132462E-01</totfact>
</mgrwt>
</event>
<event>
 4    1  0.4964158E-009  0.1766090E+04  0.7818608E-02  0.8724543E-01
         -1   -1    0    0    0  501 -0.00000000000E+00  0.00000000000E+00  0.16390141445E+04  0.16390141446E+04  0.50400000000E-02 0.  1.
          1   -1    0    0  501    0  0.00000000000E+00 -0.00000000000E+00 -0.23247220363E+04  0.23247220363E+04  0.50400000000E-02 0. -1.
    8880022    1    1    2    0    0 -0.14144207533E+04 -0.10464685115E+04 -0.11869520111E+04  0.21278931229E+04  0.15294330000E+03 0.  0.
    8880022    1    1    2    0    0  0.14144207533E+04  0.10464685115E+04  0.50124411935E+03  0.18358430579E+04  0.15294330000E+03 0.  0.
<mgrwt>
<rscale>  0 0.17660901E+04</rscale>
<asrwt>0</asrwt>
<pdfrwt beam="1">  1        1 0.35764954E+00 0.17660901E+04</pdfrwt>
<pdfrwt beam="2">  1       -1 0.25215602E+00 0.17660901E+04</pdfrwt>
<totfact> 0.11042615E-01</totfact>
</mgrwt>
</event>
<event>
 4    1  0.4964158E-009  0.1794046E+04  0.7818608E-02  0.8709472E-01
         -1   -1    0    0    0  501 -0.00000000000E+00  0.00000000000E+00  0.21147956022E+04  0.21147956022E+04  0.50400000000E-02 0.  1.
          1   -1    0    0  501    0  0.00000000000E+00 -0.00000000000E+00 -0.17423516891E+04  0.17423516891E+04  0.50400000000E-02 0. -1.
    8880022    1    1    2    0    0 -0.12299964324E+04 -0.12970416232E+04 -0.49971149180E+03  0.18623403083E+04  0.15294330000E+03 0.  0.
    8880022    1    1    2    0    0  0.12299964324E+04  0.12970416232E+04  0.87215540495E+03  0.19948069830E+04  0.15294330000E+03 0.  0.
<mgrwt>
<rscale>  0 0.17940457E+04</rscale>
<asrwt>0</asrwt>
<pdfrwt beam="1">  1        1 0.26805411E+00 0.17940457E+04</pdfrwt>
<pdfrwt beam="2">  1       -1 0.32535317E+00 0.17940457E+04</pdfrwt>
<totfact> 0.91902171E-02</totfact>
</mgrwt>
</event>
<event>
 4    1  0.4964158E-009  0.1451083E+04  0.7818608E-02  0.8917650E-01
          1   -1    0    0  501    0  0.00000000000E+00  0.00000000000E+00  0.32713092783E+04  0.32713092783E+04  0.50400000000E-02 0. -1.
         -1   -1    0    0    0  501 -0.00000000000E+00 -0.00000000000E+00 -0.11624999409E+04  0.11624999409E+04  0.50400000000E-02 0.  1.
    8880022    1    1    2    0    0 -0.11084428914E+04 -0.92390786083E+03 -0.42662285702E+03  0.15124979649E+04  0.15294330000E+03 0.  0.
    8880022    1    1    2    0    0  0.11084428914E+04  0.92390786083E+03  0.25354321944E+04  0.29213112543E+04  0.15294330000E+03 0.  0.
<mgrwt>
<rscale>  0 0.14510834E+04</rscale>
<asrwt>0</asrwt>
<pdfrwt beam="1">  1        1 0.50327835E+00 0.14510834E+04</pdfrwt>
<pdfrwt beam="2">  1       -1 0.17884615E+00 0.14510834E+04</pdfrwt>
<totfact> 0.76288206E-02</totfact>
</mgrwt>
</event>
<event>
 4    1  0.4964158E-009  0.6929802E+03  0.7818608E-02  0.9729313E-01
          1   -1    0    0  501    0  0.00000000000E+00  0.00000000000E+00  0.14907338581E+04  0.14907338581E+04  0.50400000000E-02 0. -1.
         -1   -1    0    0    0  501 -0.00000000000E+00 -0.00000000000E+00 -0.39376081594E+03  0.39376081597E+03  0.50400000000E-02 0.  1.
    8880022    1    1    2    0    0 -0.43958149121E+03 -0.51341800327E+03  0.14662608104E+03  0.70832252128E+03  0.15294330000E+03 0.  0.
    8880022    1    1    2    0    0  0.43958149121E+03  0.51341800327E+03  0.95034696116E+03  0.11761721528E+04  0.15294330000E+03 0.  0.
<mgrwt>
<rscale>  0 0.69298022E+03</rscale>
<asrwt>0</asrwt>
<pdfrwt beam="1">  1        1 0.22934367E+00 0.69298022E+03</pdfrwt>
<pdfrwt beam="2">  1       -1 0.60578587E-01 0.69298022E+03</pdfrwt>
<totfact> 0.19135775E+01</totfact>
</mgrwt>
</event>
<event>
 4    1  0.9990466E-009  0.1002018E+04  0.7818608E-02  0.9306334E-01
         -1   -1    0    0    0  501 -0.00000000000E+00  0.00000000000E+00  0.17369397235E+04  0.17369397235E+04  0.50400000000E-02 0.  1.
          1   -1    0    0  501    0  0.00000000000E+00 -0.00000000000E+00 -0.29573430592E+04  0.29573430592E+04  0.50400000000E-02 0. -1.
    8880022    1    1    2    0    0 -0.10875034266E+03 -0.98428768367E+03  0.14950898219E+04  0.17998150210E+04  0.15294330000E+03 0.  0.
    8880022    1    1    2    0    0  0.10875034266E+03  0.98428768367E+03 -0.27154931576E+04  0.28944677617E+04  0.15294330000E+03 0.  0.
<mgrwt>
<rscale>  0 0.10020182E+04</rscale>
<asrwt>0</asrwt>
<pdfrwt beam="1">  1        1 0.45497585E+00 0.10020182E+04</pdfrwt>
<pdfrwt beam="2">  1       -1 0.26722150E+00 0.10020182E+04</pdfrwt>
<totfact> 0.35764987E-02</totfact>
</mgrwt>
</event>
<event>
 4    1  0.4964158E-009  0.1095363E+04  0.7818608E-02  0.9209723E-01
         -1   -1    0    0    0  501 -0.00000000000E+00  0.00000000000E+00  0.14072921166E+04  0.14072921166E+04  0.50400000000E-02 0.  1.
          1   -1    0    0  501    0  0.00000000000E+00 -0.00000000000E+00 -0.10165437692E+04  0.10165437692E+04  0.50400000000E-02 0. -1.
    8880022    1    1    2    0    0 -0.54895274432E+02  0.10832425037E+04 -0.29136152376E+03  0.11334509269E+04  0.15294330000E+03 0.  0.
    8880022    1    1    2    0    0  0.54895274432E+02 -0.10832425037E+04  0.68210987111E+03  0.12903849590E+04  0.15294330000E+03 0.  0.
<mgrwt>
<rscale>  0 0.10953627E+04</rscale>
<asrwt>0</asrwt>
<pdfrwt beam="1">  1        1 0.15639135E+00 0.10953627E+04</pdfrwt>
<pdfrwt beam="2">  1       -1 0.21650648E+00 0.10953627E+04</pdfrwt>
<totfact> 0.16945139E+00</totfact>
</mgrwt>
</event>
<event>
 4    1  0.4964158E-009  0.1647271E+04  0.7818608E-02  0.8792023E-01
         -1   -1    0    0    0  501 -0.00000000000E+00  0.00000000000E+00  0.19883722892E+04  0.19883722892E+04  0.50400000000E-02 0.  1.
          1   -1    0    0  501    0  0.00000000000E+00 -0.00000000000E+00 -0.20998020110E+04  0.20998020110E+04  0.50400000000E-02 0. -1.
    8880022    1    1    2    0    0 -0.14343140524E+04  0.79552055175E+03 -0.12651665781E+04  0.20770526889E+04  0.15294330000E+03 0.  0.
    8880022    1    1    2    0    0  0.14343140524E+04 -0.79552055175E+03  0.11537368563E+04  0.20111216114E+04  0.15294330000E+03 0.  0.
<mgrwt>
<rscale>  0 0.16472709E+04</rscale>
<asrwt>0</asrwt>
<pdfrwt beam="1">  1        1 0.32304646E+00 0.16472709E+04</pdfrwt>
<pdfrwt beam="2">  1       -1 0.30590343E+00 0.16472709E+04</pdfrwt>
<totfact> 0.71358683E-02</totfact>
</mgrwt>
</event>
<event>
 4    1  0.4964158E-009  0.1031845E+04  0.7818608E-02  0.9274291E-01
         -1   -1    0    0    0  501 -0.00000000000E+00  0.00000000000E+00  0.26061451140E+04  0.26061451140E+04  0.50400000000E-02 0.  1.
          1   -1    0    0  501    0  0.00000000000E+00 -0.00000000000E+00 -0.55551509793E+03  0.55551509795E+03  0.50400000000E-02 0. -1.
    8880022    1    1    2    0    0  0.90940502479E+03 -0.46292016779E+03  0.21217565869E+03  0.10534337872E+04  0.15294330000E+03 0.  0.
    8880022    1    1    2    0    0 -0.90940502479E+03  0.46292016779E+03  0.18384543574E+04  0.21082264247E+04  0.15294330000E+03 0.  0.
<mgrwt>
<rscale>  0 0.10318451E+04</rscale>
<asrwt>0</asrwt>
<pdfrwt beam="1">  1        1 0.85463862E-01 0.10318451E+04</pdfrwt>
<pdfrwt beam="2">  1       -1 0.40094540E+00 0.10318451E+04</pdfrwt>
<totfact> 0.27515443E-01</totfact>
</mgrwt>
</event>
<event>
 4    1  0.4964158E-009  0.5279274E+03  0.7818608E-02  0.1006736E+00
         -1   -1    0    0    0  501 -0.00000000000E+00  0.00000000000E+00  0.27234034797E+03  0.27234034802E+03  0.50400000000E-02 0.  1.
          1   -1    0    0  501    0  0.00000000000E+00 -0.00000000000E+00 -0.12577429093E+04  0.12577429093E+04  0.50400000000E-02 0. -1.
    8880022    1    1    2    0    0  0.43071728861E+03 -0.26419373541E+03 -0.16245754468E+03  0.55235841568E+03  0.15294330000E+03 0.  0.
    8880022    1    1    2    0    0 -0.43071728861E+03  0.26419373541E+03 -0.82294501663E+03  0.97772484163E+03  0.15294330000E+03 0.  0.
<mgrwt>
<rscale>  0 0.52792742E+03</rscale>
<asrwt>0</asrwt>
<pdfrwt beam="1">  1        1 0.19349891E+00 0.52792742E+03</pdfrwt>
<pdfrwt beam="2">  1       -1 0.41898516E-01 0.52792742E+03</pdfrwt>
<totfact> 0.57128244E+01</totfact>
</mgrwt>
</event>
<event>
 4    1  0.4964158E-009  0.7251885E+03  0.7818608E-02  0.9675100E-01
          1   -1    0    0  501    0  0.00000000000E+00  0.00000000000E+00  0.19447916501E+04  0.19447916501E+04  0.50400000000E-02 0. -1.
         -1   -1    0    0    0  501 -0.00000000000E+00 -0.00000000000E+00 -0.54156783266E+03  0.54156783269E+03  0.50400000000E-02 0.  1.
    8880022    1    1    2    0    0 -0.70850671729E+03  0.22910898621E+02  0.15812734350E+04  0.17396332967E+04  0.15294330000E+03 0.  0.
    8880022    1    1    2    0    0  0.70850671729E+03 -0.22910898621E+02 -0.17804961754E+03  0.74672618612E+03  0.15294330000E+03 0.  0.
<mgrwt>
<rscale>  0 0.72518848E+03</rscale>
<asrwt>0</asrwt>
<pdfrwt beam="1">  1        1 0.29919871E+00 0.72518848E+03</pdfrwt>
<pdfrwt beam="2">  1       -1 0.83318129E-01 0.72518848E+03</pdfrwt>
<totfact> 0.48934176E+00</totfact>
</mgrwt>
</event>
<event>
 4    1  0.4964158E-009  0.1108741E+04  0.7818608E-02  0.9196713E-01
          1   -1    0    0  501    0  0.00000000000E+00  0.00000000000E+00  0.13093771264E+04  0.13093771264E+04  0.50400000000E-02 0. -1.
         -1   -1    0    0    0  501 -0.00000000000E+00 -0.00000000000E+00 -0.17065812517E+04  0.17065812517E+04  0.50400000000E-02 0.  1.
    8880022    1    1    2    0    0 -0.17265586718E+03  0.10844841965E+04 -0.12100340808E+04  0.16411855930E+04  0.15294330000E+03 0.  0.
    8880022    1    1    2    0    0  0.17265586718E+03 -0.10844841965E+04  0.81282995551E+03  0.13747727851E+04  0.15294330000E+03 0.  0.
<mgrwt>
<rscale>  0 0.11087415E+04</rscale>
<asrwt>0</asrwt>
<pdfrwt beam="1">  1        1 0.20144264E+00 0.11087415E+04</pdfrwt>
<pdfrwt beam="2">  1       -1 0.26255096E+00 0.11087415E+04</pdfrwt>
<totfact> 0.51148102E-01</totfact>
</mgrwt>
</event>
<event>
 4    1  0.4964158E-009  0.3112385E+03  0.7818608E-02  0.1079754E+00
         -1   -1    0    0    0  501 -0.00000000000E+00  0.00000000000E+00  0.19069867842E+03  0.19069867848E+03  0.50400000000E-02 0.  1.
          1   -1    0    0  501    0  0.00000000000E+00 -0.00000000000E+00 -0.28668393242E+04  0.28668393242E+04  0.50400000000E-02 0. -1.
    8880022    1    1    2    0    0  0.17666677859E+03  0.20558841737E+03 -0.27248007332E+04  0.27425186301E+04  0.15294330000E+03 0.  0.
    8880022    1    1    2    0    0 -0.17666677859E+03 -0.20558841737E+03  0.48660087335E+02  0.31501937262E+03  0.15294330000E+03 0.  1.
<mgrwt>
<rscale>  0 0.31123850E+03</rscale>
<asrwt>0</asrwt>
<pdfrwt beam="1">  1        1 0.44105217E+00 0.31123850E+03</pdfrwt>
<pdfrwt beam="2">  1       -1 0.29338260E-01 0.31123850E+03</pdfrwt>
<totfact> 0.94340700E+00</totfact>
</mgrwt>
</event>
<event>
 4    1  0.4964158E-009  0.4898833E+03  0.7818608E-02  0.1016454E+00
         -1   -1    0    0    0  501 -0.00000000000E+00  0.00000000000E+00  0.63602001175E+03  0.63602001177E+03  0.50400000000E-02 0.  1.
          1   -1    0    0  501    0  0.00000000000E+00 -0.00000000000E+00 -0.50452330985E+03  0.50452330988E+03  0.50400000000E-02 0. -1.
    8880022    1    1    2    0    0  0.12501617882E+03  0.44829112844E+03 -0.22059262373E+03  0.53725854061E+03  0.15294330000E+03 0.  0.
    8880022    1    1    2    0    0 -0.12501617882E+03 -0.44829112844E+03  0.35208932562E+03  0.60328478104E+03  0.15294330000E+03 0.  1.
<mgrwt>
<rscale>  0 0.48988329E+03</rscale>
<asrwt>0</asrwt>
<pdfrwt beam="1">  1        1 0.77618971E-01 0.48988329E+03</pdfrwt>
<pdfrwt beam="2">  1       -1 0.97849232E-01 0.48988329E+03</pdfrwt>
<totfact> 0.46062934E+01</totfact>
</mgrwt>
</event>
<event>
 4    1  0.4964158E-009  0.9289533E+03  0.7818608E-02  0.9390095E-01
         -1   -1    0    0    0  501 -0.00000000000E+00  0.00000000000E+00  0.48961660372E+03  0.48961660374E+03  0.50400000000E-02 0.  1.
          1   -1    0    0  501    0  0.00000000000E+00 -0.00000000000E+00 -0.20362445142E+04  0.20362445142E+04  0.50400000000E-02 0. -1.
    8880022    1    1    2    0    0 -0.19355416710E+03  0.89559995646E+03 -0.12363654640E+04  0.15464649078E+04  0.15294330000E+03 0.  0.
    8880022    1    1    2    0    0  0.19355416710E+03 -0.89559995646E+03 -0.31026244646E+03  0.97939621008E+03  0.15294330000E+03 0.  0.
<mgrwt>
<rscale>  0 0.92895326E+03</rscale>
<asrwt>0</asrwt>
<pdfrwt beam="1">  1        1 0.31326838E+00 0.92895326E+03</pdfrwt>
<pdfrwt beam="2">  1       -1 0.75325632E-01 0.92895326E+03</pdfrwt>
<totfact> 0.50962617E+00</totfact>
</mgrwt>
</event>
<event>
 4    1  0.4964158E-009  0.5585853E+03  0.7818608E-02  0.9995261E-01
         -1   -1    0    0    0  501 -0.00000000000E+00  0.00000000000E+00  0.61987929707E+03  0.61987929710E+03  0.50400000000E-02 0.  1.
          1   -1    0    0  501    0  0.00000000000E+00 -0.00000000000E+00 -0.96636367260E+03  0.96636367261E+03  0.50400000000E-02 0. -1.
    8880022    1    1    2    0    0  0.53687697081E+03  0.19723864319E+02 -0.72223331430E+03  0.91303807473E+03  0.15294330000E+03 0.  0.
    8880022    1    1    2    0    0 -0.53687697081E+03 -0.19723864319E+02  0.37574893878E+03  0.67320489497E+03  0.15294330000E+03 0.  0.
<mgrwt>
<rscale>  0 0.55858533E+03</rscale>
<asrwt>0</asrwt>
<pdfrwt beam="1">  1        1 0.14867133E+00 0.55858533E+03</pdfrwt>
<pdfrwt beam="2">  1       -1 0.95366046E-01 0.55858533E+03</pdfrwt>
<totfact> 0.18064922E+01</totfact>
</mgrwt>
</event>
<event>
 4    1  0.4964158E-009  0.7900069E+03  0.7818608E-02  0.9574595E-01
          1   -1    0    0  501    0  0.00000000000E+00  0.00000000000E+00  0.16766290076E+04  0.16766290077E+04  0.50400000000E-02 0. -1.
         -1   -1    0    0    0  501 -0.00000000000E+00 -0.00000000000E+00 -0.51232771486E+03  0.51232771488E+03  0.50400000000E-02 0.  1.
    8880022    1    1    2    0    0  0.76417283409E+03 -0.12945719680E+03  0.98411980955E+01  0.79006821754E+03  0.15294330000E+03 0.  0.
    8880022    1    1    2    0    0 -0.76417283409E+03  0.12945719680E+03  0.11544600947E+04  0.13988885050E+04  0.15294330000E+03 0.  0.
<mgrwt>
<rscale>  0 0.79000692E+03</rscale>
<asrwt>0</asrwt>
<pdfrwt beam="1">  1        1 0.25794292E+00 0.79000692E+03</pdfrwt>
<pdfrwt beam="2">  1       -1 0.78819648E-01 0.79000692E+03</pdfrwt>
<totfact> 0.82446444E+00</totfact>
</mgrwt>
</event>
<event>
 4    1  0.4964158E-009  0.1586456E+04  0.7818608E-02  0.8828912E-01
         -1   -1    0    0    0  501 -0.00000000000E+00  0.00000000000E+00  0.11060134870E+04  0.11060134870E+04  0.50400000000E-02 0.  1.
          1   -1    0    0  501    0  0.00000000000E+00 -0.00000000000E+00 -0.39241447224E+04  0.39241447224E+04  0.50400000000E-02 0. -1.
    8880022    1    1    2    0    0  0.57228564118E+03  0.14717130040E+04 -0.30392240679E+04  0.34283705472E+04  0.15294330000E+03 0.  0.
    8880022    1    1    2    0    0 -0.57228564118E+03 -0.14717130040E+04  0.22109283246E+03  0.16017876622E+04  0.15294330000E+03 0.  0.
<mgrwt>
<rscale>  0 0.15864557E+04</rscale>
<asrwt>0</asrwt>
<pdfrwt beam="1">  1        1 0.60371457E+00 0.15864557E+04</pdfrwt>
<pdfrwt beam="2">  1       -1 0.17015592E+00 0.15864557E+04</pdfrwt>
<totfact> 0.25977106E-02</totfact>
</mgrwt>
</event>
<event>
 4    1  0.4964158E-009  0.7867353E+03  0.7818608E-02  0.9579418E-01
         -1   -1    0    0    0  501 -0.00000000000E+00  0.00000000000E+00  0.82854847749E+03  0.82854847751E+03  0.50400000000E-02 0.  1.
          1   -1    0    0  501    0  0.00000000000E+00 -0.00000000000E+00 -0.12960035441E+04  0.12960035441E+04  0.50400000000E-02 0. -1.
    8880022    1    1    2    0    0  0.46854607567E+02 -0.77030214396E+03  0.45764020993E+03  0.91015765777E+03  0.15294330000E+03 0.  0.
    8880022    1    1    2    0    0 -0.46854607567E+02  0.77030214396E+03 -0.92509527652E+03  0.12143943638E+04  0.15294330000E+03 0.  0.
<mgrwt>
<rscale>  0 0.78673528E+03</rscale>
<asrwt>0</asrwt>
<pdfrwt beam="1">  1        1 0.19938516E+00 0.78673528E+03</pdfrwt>
<pdfrwt beam="2">  1       -1 0.12746900E+00 0.78673528E+03</pdfrwt>
<totfact> 0.50138003E+00</totfact>
</mgrwt>
</event>
<event>
 4    1  0.4964158E-009  0.3722113E+03  0.7818608E-02  0.1053851E+00
          1   -1    0    0  501    0  0.00000000000E+00  0.00000000000E+00  0.16668705021E+04  0.16668705021E+04  0.50400000000E-02 0. -1.
         -1   -1    0    0    0  501 -0.00000000000E+00 -0.00000000000E+00 -0.77601686145E+03  0.77601686147E+03  0.50400000000E-02 0.  1.
    8880022    1    1    2    0    0 -0.10078832748E+03  0.32402361002E+03  0.15996076708E+04  0.16423416028E+04  0.15294330000E+03 0.  0.
    8880022    1    1    2    0    0  0.10078832748E+03 -0.32402361002E+03 -0.70875403016E+03  0.80054576077E+03  0.15294330000E+03 0.  0.
<mgrwt>
<rscale>  0 0.37221128E+03</rscale>
<asrwt>0</asrwt>
<pdfrwt beam="1">  1        1 0.25644162E+00 0.37221128E+03</pdfrwt>
<pdfrwt beam="2">  1       -1 0.11938721E+00 0.37221128E+03</pdfrwt>
<totfact> 0.36290649E+00</totfact>
</mgrwt>
</event>
<event>
 4    1  0.4964158E-009  0.4079381E+03  0.7818608E-02  0.1041065E+00
          1   -1    0    0  501    0  0.00000000000E+00  0.00000000000E+00  0.13890951043E+04  0.13890951043E+04  0.50400000000E-02 0. -1.
         -1   -1    0    0    0  501 -0.00000000000E+00 -0.00000000000E+00 -0.58023644688E+03  0.58023644691E+03  0.50400000000E-02 0.  1.
    8880022    1    1    2    0    0  0.32014556923E+03 -0.20131733849E+03  0.12815739735E+04  0.13449332173E+04  0.15294330000E+03 0. -1.
    8880022    1    1    2    0    0 -0.32014556923E+03  0.20131733849E+03 -0.47271531614E+03  0.62439833392E+03  0.15294330000E+03 0.  0.
<mgrwt>
<rscale>  0 0.40793812E+03</rscale>
<asrwt>0</asrwt>
<pdfrwt beam="1">  1        1 0.21370694E+00 0.40793812E+03</pdfrwt>
<pdfrwt beam="2">  1       -1 0.89267146E-01 0.40793812E+03</pdfrwt>
<totfact> 0.10678054E+01</totfact>
</mgrwt>
</event>
<event>
 4    1  0.4964158E-009  0.6003170E+03  0.7818608E-02  0.9904749E-01
         -1   -1    0    0    0  501 -0.00000000000E+00  0.00000000000E+00  0.10830760008E+04  0.10830760008E+04  0.50400000000E-02 0.  1.
          1   -1    0    0  501    0  0.00000000000E+00 -0.00000000000E+00 -0.84552892105E+03  0.84552892107E+03  0.50400000000E-02 0. -1.
    8880022    1    1    2    0    0  0.58033437627E+03 -0.14170512824E+02 -0.63219067679E+03  0.87180588238E+03  0.15294330000E+03 0.  0.
    8880022    1    1    2    0    0 -0.58033437627E+03  0.14170512824E+02  0.86973775653E+03  0.10567990395E+04  0.15294330000E+03 0.  0.
<mgrwt>
<rscale>  0 0.60031695E+03</rscale>
<asrwt>0</asrwt>
<pdfrwt beam="1">  1        1 0.13008137E+00 0.60031695E+03</pdfrwt>
<pdfrwt beam="2">  1       -1 0.16662708E+00 0.60031695E+03</pdfrwt>
<totfact> 0.55893740E+00</totfact>
</mgrwt>
</event>
<event>
 4    1  0.4964158E-009  0.4753170E+03  0.7818608E-02  0.1020430E+00
          1   -1    0    0  501    0  0.00000000000E+00  0.00000000000E+00  0.11543974232E+04  0.11543974232E+04  0.50400000000E-02 0. -1.
         -1   -1    0    0    0  501 -0.00000000000E+00 -0.00000000000E+00 -0.64563533312E+03  0.64563533313E+03  0.50400000000E-02 0.  1.
    8880022    1    1    2    0    0  0.34516459628E+03  0.28878365571E+03 -0.49694311467E+03  0.68766177047E+03  0.15294330000E+03 0.  0.
    8880022    1    1    2    0    0 -0.34516459628E+03 -0.28878365571E+03  0.10057052048E+04  0.11123709859E+04  0.15294330000E+03 0.  0.
<mgrwt>
<rscale>  0 0.47531700E+03</rscale>
<asrwt>0</asrwt>
<pdfrwt beam="1">  1        1 0.17759960E+00 0.47531700E+03</pdfrwt>
<pdfrwt beam="2">  1       -1 0.99328514E-01 0.47531700E+03</pdfrwt>
<totfact> 0.12113924E+01</totfact>
</mgrwt>
</event>
<event>
 4    1  0.4964158E-009  0.9260724E+03  0.7818608E-02  0.9393564E-01
         -1   -1    0    0    0  501 -0.00000000000E+00  0.00000000000E+00  0.15418192076E+04  0.15418192076E+04  0.50400000000E-02 0.  1.
          1   -1    0    0  501    0  0.00000000000E+00 -0.00000000000E+00 -0.15606048563E+04  0.15606048563E+04  0.50400000000E-02 0. -1.
    8880022    1    1    2    0    0  0.78960230974E+03  0.45907152548E+03  0.12350416644E+04  0.15436767922E+04  0.15294330000E+03 0.  0.
    8880022    1    1    2    0    0 -0.78960230974E+03 -0.45907152548E+03 -0.12538273131E+04  0.15587472717E+04  0.15294330000E+03 0.  0.
<mgrwt>
<rscale>  0 0.92607242E+03</rscale>
<asrwt>0</asrwt>
<pdfrwt beam="1">  1        1 0.24009305E+00 0.92607242E+03</pdfrwt>
<pdfrwt beam="2">  1       -1 0.23720296E+00 0.92607242E+03</pdfrwt>
<totfact> 0.51424414E-01</totfact>
</mgrwt>
</event>
<event>
 4    1  0.4964158E-009  0.3979488E+03  0.7818608E-02  0.1044492E+00
         -1   -1    0    0    0  501 -0.00000000000E+00  0.00000000000E+00  0.48908717766E+03  0.48908717769E+03  0.50400000000E-02 0.  1.
          1   -1    0    0  501    0  0.00000000000E+00 -0.00000000000E+00 -0.11154594886E+04  0.11154594886E+04  0.50400000000E-02 0. -1.
    8880022    1    1    2    0    0  0.14962600718E+02 -0.36707993907E+03  0.36268897910E+03  0.53842967011E+03  0.15294330000E+03 0.  0.
    8880022    1    1    2    0    0 -0.14962600718E+02  0.36707993907E+03 -0.98906128998E+03  0.10661169961E+04  0.15294330000E+03 0.  0.
<mgrwt>
<rscale>  0 0.39794876E+03</rscale>
<asrwt>0</asrwt>
<pdfrwt beam="1">  1        1 0.17160915E+00 0.39794876E+03</pdfrwt>
<pdfrwt beam="2">  1       -1 0.75244181E-01 0.39794876E+03</pdfrwt>
<totfact> 0.23917736E+01</totfact>
</mgrwt>
</event>
<event>
 4    1  0.4964158E-009  0.3789696E+03  0.7818608E-02  0.1051315E+00
          1   -1    0    0  501    0  0.00000000000E+00  0.00000000000E+00  0.21873915470E+04  0.21873915470E+04  0.50400000000E-02 0. -1.
         -1   -1    0    0    0  501 -0.00000000000E+00 -0.00000000000E+00 -0.62281288651E+03  0.62281288653E+03  0.50400000000E-02 0.  1.
    8880022    1    1    2    0    0  0.29172497850E+03 -0.18741090537E+03 -0.54668751706E+03  0.66519561398E+03  0.15294330000E+03 0.  0.
    8880022    1    1    2    0    0 -0.29172497850E+03  0.18741090537E+03  0.21112661775E+04  0.21450088195E+04  0.15294330000E+03 0.  0.
<mgrwt>
<rscale>  0 0.37896961E+03</rscale>
<asrwt>0</asrwt>
<pdfrwt beam="1">  1        1 0.33652177E+00 0.37896961E+03</pdfrwt>
<pdfrwt beam="2">  1       -1 0.95817368E-01 0.37896961E+03</pdfrwt>
<totfact> 0.27323632E+00</totfact>
</mgrwt>
</event>
<event>
 4    1  0.4964158E-009  0.6534249E+03  0.7818608E-02  0.9800374E-01
         -1   -1    0    0    0  501 -0.00000000000E+00  0.00000000000E+00  0.35524512227E+03  0.35524512230E+03  0.50400000000E-02 0.  1.
          1   -1    0    0  501    0  0.00000000000E+00 -0.00000000000E+00 -0.17878236185E+04  0.17878236185E+04  0.50400000000E-02 0. -1.
    8880022    1    1    2    0    0  0.24263127577E+03  0.58711376515E+03 -0.10285299656E+03  0.66147025718E+03  0.15294330000E+03 0.  0.
    8880022    1    1    2    0    0 -0.24263127577E+03 -0.58711376515E+03 -0.13297254997E+04  0.14815984836E+04  0.15294330000E+03 0.  0.
<mgrwt>
<rscale>  0 0.65342495E+03</rscale>
<asrwt>0</asrwt>
<pdfrwt beam="1">  1        1 0.27504978E+00 0.65342495E+03</pdfrwt>
<pdfrwt beam="2">  1       -1 0.54653097E-01 0.65342495E+03</pdfrwt>
<totfact> 0.14833146E+01</totfact>
</mgrwt>
</event>
<event>
 4    1  0.4964158E-009  0.1921389E+03  0.7818608E-02  0.1156546E+00
         -1   -1    0    0    0  501 -0.00000000000E+00  0.00000000000E+00  0.31040428881E+03  0.31040428885E+03  0.50400000000E-02 0.  1.
          1   -1    0    0  501    0  0.00000000000E+00 -0.00000000000E+00 -0.11423916834E+04  0.11423916834E+04  0.50400000000E-02 0. -1.
    8880022    1    1    2    0    0  0.11108163965E+03 -0.34446899051E+02 -0.11035404450E+04  0.11201423509E+04  0.15294330000E+03 0. -1.
    8880022    1    1    2    0    0 -0.11108163965E+03  0.34446899051E+02  0.27155305048E+03  0.33265362130E+03  0.15294330000E+03 0.  0.
<mgrwt>
<rscale>  0 0.19213894E+03</rscale>
<asrwt>0</asrwt>
<pdfrwt beam="1">  1        1 0.17575256E+00 0.19213894E+03</pdfrwt>
<pdfrwt beam="2">  1       -1 0.47754507E-01 0.19213894E+03</pdfrwt>
<totfact> 0.58644627E+01</totfact>
</mgrwt>
</event>
<event>
 4    1  0.4964158E-009  0.3595900E+03  0.7818608E-02  0.1058746E+00
          1   -1    0    0  501    0  0.00000000000E+00  0.00000000000E+00  0.35781702408E+03  0.35781702411E+03  0.50400000000E-02 0. -1.
         -1   -1    0    0    0  501 -0.00000000000E+00 -0.00000000000E+00 -0.61333820859E+03  0.61333820861E+03  0.50400000000E-02 0.  1.
    8880022    1    1    2    0    0 -0.90407634251E+02 -0.31263360862E+03 -0.43898955755E+03  0.56746523966E+03  0.15294330000E+03 0.  0.
    8880022    1    1    2    0    0  0.90407634251E+02  0.31263360862E+03  0.18346837304E+03  0.40368999306E+03  0.15294330000E+03 0.  0.
<mgrwt>
<rscale>  0 0.35959000E+03</rscale>
<asrwt>0</asrwt>
<pdfrwt beam="1">  1        1 0.55048773E-01 0.35959000E+03</pdfrwt>
<pdfrwt beam="2">  1       -1 0.94359724E-01 0.35959000E+03</pdfrwt>
<totfact> 0.79965910E+01</totfact>
</mgrwt>
</event>
<event>
 4    1  0.4964158E-009  0.8997207E+03  0.7818608E-02  0.9425931E-01
         -1   -1    0    0    0  501 -0.00000000000E+00  0.00000000000E+00  0.76983817437E+03  0.76983817439E+03  0.50400000000E-02 0.  1.
          1   -1    0    0  501    0  0.00000000000E+00 -0.00000000000E+00 -0.21829212965E+04  0.21829212965E+04  0.50400000000E-02 0. -1.
    8880022    1    1    2    0    0  0.26408328505E+03  0.84638384765E+03 -0.17694310612E+04  0.19850399322E+04  0.15294330000E+03 0.  0.
    8880022    1    1    2    0    0 -0.26408328505E+03 -0.84638384765E+03  0.35634793904E+03  0.96771953875E+03  0.15294330000E+03 0.  0.
<mgrwt>
<rscale>  0 0.89972065E+03</rscale>
<asrwt>0</asrwt>
<pdfrwt beam="1">  1        1 0.33583404E+00 0.89972065E+03</pdfrwt>
<pdfrwt beam="2">  1       -1 0.11843664E+00 0.89972065E+03</pdfrwt>
<totfact> 0.14733992E+00</totfact>
</mgrwt>
</event>
<event>
 4    1  0.4964158E-009  0.7499296E+03  0.7818608E-02  0.9635461E-01
         -1   -1    0    0    0  501 -0.00000000000E+00  0.00000000000E+00  0.17336999122E+04  0.17336999122E+04  0.50400000000E-02 0.  1.
          1   -1    0    0  501    0  0.00000000000E+00 -0.00000000000E+00 -0.64517800777E+03  0.64517800779E+03  0.50400000000E-02 0. -1.
    8880022    1    1    2    0    0 -0.61033420805E+03 -0.40803789920E+03  0.13829705930E+04  0.15732139355E+04  0.15294330000E+03 0.  0.
    8880022    1    1    2    0    0  0.61033420805E+03  0.40803789920E+03 -0.29444868858E+03  0.80566398450E+03  0.15294330000E+03 0.  0.
<mgrwt>
<rscale>  0 0.74992961E+03</rscale>
<asrwt>0</asrwt>
<pdfrwt beam="1">  1        1 0.99258156E-01 0.74992961E+03</pdfrwt>
<pdfrwt beam="2">  1       -1 0.26672306E+00 0.74992961E+03</pdfrwt>
<totfact> 0.17522851E+00</totfact>
</mgrwt>
</event>
<event>
 4    1  0.4964158E-009  0.2952312E+03  0.7818608E-02  0.1087649E+00
          1   -1    0    0  501    0  0.00000000000E+00  0.00000000000E+00  0.77955064721E+03  0.77955064722E+03  0.50400000000E-02 0. -1.
         -1   -1    0    0    0  501 -0.00000000000E+00 -0.00000000000E+00 -0.30143680984E+03  0.30143680988E+03  0.50400000000E-02 0.  1.
    8880022    1    1    2    0    0  0.35242815547E+01 -0.25250225849E+03  0.66774610029E+03  0.73010021132E+03  0.15294330000E+03 0.  0.
    8880022    1    1    2    0    0 -0.35242815547E+01  0.25250225849E+03 -0.18963226292E+03  0.35088724579E+03  0.15294330000E+03 0.  1.
<mgrwt>
<rscale>  0 0.29523120E+03</rscale>
<asrwt>0</asrwt>
<pdfrwt beam="1">  1        1 0.11993087E+00 0.29523120E+03</pdfrwt>
<pdfrwt beam="2">  1       -1 0.46374895E-01 0.29523120E+03</pdfrwt>
<totfact> 0.11417449E+02</totfact>
</mgrwt>
</event>
<event>
 4    1  0.4964158E-009  0.1183123E+04  0.7818608E-02  0.9127758E-01
          1   -1    0    0  501    0  0.00000000000E+00  0.00000000000E+00  0.22448030584E+04  0.22448030584E+04  0.50400000000E-02 0. -1.
         -1   -1    0    0    0  501 -0.00000000000E+00 -0.00000000000E+00 -0.11124335500E+04  0.11124335500E+04  0.50400000000E-02 0.  1.
    8880022    1    1    2    0    0 -0.10396701480E+04  0.54357604799E+03  0.16789690056E+04  0.20539516819E+04  0.15294330000E+03 0.  0.
    8880022    1    1    2    0    0  0.10396701480E+04 -0.54357604799E+03 -0.54659949716E+03  0.13032849266E+04  0.15294330000E+03 0.  0.
<mgrwt>
<rscale>  0 0.11831232E+04</rscale>
<asrwt>0</asrwt>
<pdfrwt beam="1">  1        1 0.34535431E+00 0.11831232E+04</pdfrwt>
<pdfrwt beam="2">  1       -1 0.17114363E+00 0.11831232E+04</pdfrwt>
<totfact> 0.48324691E-01</totfact>
</mgrwt>
</event>
<event>
 4    1  0.4964158E-009  0.3080046E+03  0.7818608E-02  0.1081306E+00
         -1   -1    0    0    0  501 -0.00000000000E+00  0.00000000000E+00  0.46142100334E+03  0.46142100336E+03  0.50400000000E-02 0.  1.
          1   -1    0    0  501    0  0.00000000000E+00 -0.00000000000E+00 -0.26635673083E+04  0.26635673083E+04  0.50400000000E-02 0. -1.
    8880022    1    1    2    0    0  0.64856715185E+02  0.25936229783E+03  0.39990671017E+03  0.50476947699E+03  0.15294330000E+03 0.  1.
    8880022    1    1    2    0    0 -0.64856715185E+02 -0.25936229783E+03 -0.26020530152E+04  0.26202188347E+04  0.15294330000E+03 0.  0.
<mgrwt>
<rscale>  0 0.30800462E+03</rscale>
<asrwt>0</asrwt>
<pdfrwt beam="1">  1        1 0.40977958E+00 0.30800462E+03</pdfrwt>
<pdfrwt beam="2">  1       -1 0.70987848E-01 0.30800462E+03</pdfrwt>
<totfact> 0.25605310E+00</totfact>
</mgrwt>
</event>
<event>
 4    1  0.4964158E-009  0.2215666E+03  0.7818608E-02  0.1132720E+00
          1   -1    0    0  501    0  0.00000000000E+00  0.00000000000E+00  0.71414216022E+03  0.71414216024E+03  0.50400000000E-02 0. -1.
         -1   -1    0    0    0  501 -0.00000000000E+00 -0.00000000000E+00 -0.54496295197E+03  0.54496295199E+03  0.50400000000E-02 0.  1.
    8880022    1    1    2    0    0 -0.62098137715E+01  0.16019223811E+03 -0.50391873221E+03  0.55047784390E+03  0.15294330000E+03 0.  1.
    8880022    1    1    2    0    0  0.62098137715E+01 -0.16019223811E+03  0.67309794047E+03  0.70862726832E+03  0.15294330000E+03 0.  0.
<mgrwt>
<rscale>  0 0.22156662E+03</rscale>
<asrwt>0</asrwt>
<pdfrwt beam="1">  1        1 0.10986802E+00 0.22156662E+03</pdfrwt>
<pdfrwt beam="2">  1       -1 0.83840454E-01 0.22156662E+03</pdfrwt>
<totfact> 0.41733318E+01</totfact>
</mgrwt>
</event>
<event>
 4    1  0.4964158E-009  0.8731715E+03  0.7818608E-02  0.9459754E-01
          1   -1    0    0  501    0  0.00000000000E+00  0.00000000000E+00  0.24877795293E+04  0.24877795293E+04  0.50400000000E-02 0. -1.
         -1   -1    0    0    0  501 -0.00000000000E+00 -0.00000000000E+00 -0.54027496814E+03  0.54027496816E+03  0.50400000000E-02 0.  1.
    8880022    1    1    2    0    0 -0.36910361271E+01  0.85966460088E+03  0.19697391600E+04  0.21545999307E+04  0.15294330000E+03 0.  0.
    8880022    1    1    2    0    0  0.36910361271E+01 -0.85966460088E+03 -0.22234598909E+02  0.87345456674E+03  0.15294330000E+03 0.  0.
<mgrwt>
<rscale>  0 0.87317152E+03</rscale>
<asrwt>0</asrwt>
<pdfrwt beam="1">  1        1 0.38273531E+00 0.87317152E+03</pdfrwt>
<pdfrwt beam="2">  1       -1 0.83119227E-01 0.87317152E+03</pdfrwt>
<totfact> 0.20633210E+00</totfact>
</mgrwt>
</event>
<event>
 4    1  0.4964158E-009  0.7346539E+03  0.7818608E-02  0.9659738E-01
          1   -1    0    0  501    0  0.00000000000E+00  0.00000000000E+00  0.85157676764E+03  0.85157676765E+03  0.50400000000E-02 0. -1.
         -1   -1    0    0    0  501 -0.00000000000E+00 -0.00000000000E+00 -0.81190757359E+03  0.81190757361E+03  0.50400000000E-02 0.  1.
    8880022    1    1    2    0    0 -0.70930284919E+03 -0.11495284163E+03  0.40941333903E+03  0.84103247432E+03  0.15294330000E+03 0.  0.
    8880022    1    1    2    0    0  0.70930284919E+03  0.11495284163E+03 -0.36974414498E+03  0.82245186694E+03  0.15294330000E+03 0.  0.
<mgrwt>
<rscale>  0 0.73465389E+03</rscale>
<asrwt>0</asrwt>
<pdfrwt beam="1">  1        1 0.13101181E+00 0.73465389E+03</pdfrwt>
<pdfrwt beam="2">  1       -1 0.12490886E+00 0.73465389E+03</pdfrwt>
<totfact> 0.11560903E+01</totfact>
</mgrwt>
</event>
<event>
 4    1  0.5087743E-009  0.9358862E+03  0.7818608E-02  0.9381801E-01
         -1   -1    0    0    0  501 -0.00000000000E+00  0.00000000000E+00  0.20439669323E+04  0.20439669323E+04  0.50400000000E-02 0.  1.
          1   -1    0    0  501    0  0.00000000000E+00 -0.00000000000E+00 -0.15068076886E+04  0.15068076886E+04  0.50400000000E-02 0. -1.
    8880022    1    1    2    0    0 -0.14622092507E+03 -0.91165273947E+03 -0.12332867817E+04  0.15481857819E+04  0.15294330000E+03 0.  0.
    8880022    1    1    2    0    0  0.14622092507E+03  0.91165273947E+03  0.17704460254E+04  0.20025888390E+04  0.15294330000E+03 0.  0.
<mgrwt>
<rscale>  0 0.93588617E+03</rscale>
<asrwt>0</asrwt>
<pdfrwt beam="1">  1        1 0.23181657E+00 0.93588617E+03</pdfrwt>
<pdfrwt beam="2">  1       -1 0.31445645E+00 0.93588617E+03</pdfrwt>
<totfact> 0.17759308E-01</totfact>
</mgrwt>
</event>
<event>
 4    1  0.4964158E-009  0.3344238E+03  0.7818608E-02  0.1069196E+00
         -1   -1    0    0    0  501 -0.00000000000E+00  0.00000000000E+00  0.23131684861E+03  0.23131684867E+03  0.50400000000E-02 0.  1.
          1   -1    0    0  501    0  0.00000000000E+00 -0.00000000000E+00 -0.19395170155E+04  0.19395170155E+04  0.50400000000E-02 0. -1.
    8880022    1    1    2    0    0 -0.28149558842E+03  0.95957727306E+02 -0.17945475962E+04  0.18254425161E+04  0.15294330000E+03 0.  0.
    8880022    1    1    2    0    0  0.28149558842E+03 -0.95957727306E+02  0.86347429301E+02  0.34539134803E+03  0.15294330000E+03 0.  0.
<mgrwt>
<rscale>  0 0.33442384E+03</rscale>
<asrwt>0</asrwt>
<pdfrwt beam="1">  1        1 0.29838722E+00 0.33442384E+03</pdfrwt>
<pdfrwt beam="2">  1       -1 0.35587209E-01 0.33442384E+03</pdfrwt>
<totfact> 0.27797379E+01</totfact>
</mgrwt>
</event>
<event>
 4    1  0.4964158E-009  0.3870787E+03  0.7818608E-02  0.1048348E+00
         -1   -1    0    0    0  501 -0.00000000000E+00  0.00000000000E+00  0.56285812485E+03  0.56285812488E+03  0.50400000000E-02 0.  1.
          1   -1    0    0  501    0  0.00000000000E+00 -0.00000000000E+00 -0.98218265668E+03  0.98218265670E+03  0.50400000000E-02 0. -1.
    8880022    1    1    2    0    0  0.24121911457E+03 -0.26125004957E+03  0.44991647765E+03  0.59351052182E+03  0.15294330000E+03 0.  0.
    8880022    1    1    2    0    0 -0.24121911457E+03  0.26125004957E+03 -0.86924100948E+03  0.95153025975E+03  0.15294330000E+03 0.  0.
<mgrwt>
<rscale>  0 0.38707868E+03</rscale>
<asrwt>0</asrwt>
<pdfrwt beam="1">  1        1 0.15110502E+00 0.38707868E+03</pdfrwt>
<pdfrwt beam="2">  1       -1 0.86593558E-01 0.38707868E+03</pdfrwt>
<totfact> 0.22437950E+01</totfact>
</mgrwt>
</event>
<event>
 4    1  0.4964158E-009  0.1104155E+04  0.7818608E-02  0.9201151E-01
         -1   -1    0    0    0  501 -0.00000000000E+00  0.00000000000E+00  0.12886983489E+04  0.12886983489E+04  0.50400000000E-02 0.  1.
          1   -1    0    0  501    0  0.00000000000E+00 -0.00000000000E+00 -0.13522850287E+04  0.13522850287E+04  0.50400000000E-02 0. -1.
    8880022    1    1    2    0    0  0.26703427765E+03 -0.10604054486E+04  0.69196937941E+03  0.13030657297E+04  0.15294330000E+03 0.  0.
    8880022    1    1    2    0    0 -0.26703427765E+03  0.10604054486E+04 -0.75555605928E+03  0.13379176479E+04  0.15294330000E+03 0.  0.
<mgrwt>
<rscale>  0 0.11041552E+04</rscale>
<asrwt>0</asrwt>
<pdfrwt beam="1">  1        1 0.20804385E+00 0.11041552E+04</pdfrwt>
<pdfrwt beam="2">  1       -1 0.19826129E+00 0.11041552E+04</pdfrwt>
<totfact> 0.12739083E+00</totfact>
</mgrwt>
</event>
<event>
 4    1  0.4964158E-009  0.8014914E+03  0.7818608E-02  0.9557861E-01
          1   -1    0    0  501    0  0.00000000000E+00  0.00000000000E+00  0.49725597271E+03  0.49725597274E+03  0.50400000000E-02 0. -1.
         -1   -1    0    0    0  501 -0.00000000000E+00 -0.00000000000E+00 -0.16592784767E+04  0.16592784767E+04  0.50400000000E-02 0.  1.
    8880022    1    1    2    0    0 -0.97196594041E+02  0.78073659566E+03 -0.10884028427E+04  0.13516690463E+04  0.15294330000E+03 0.  0.
    8880022    1    1    2    0    0  0.97196594041E+02 -0.78073659566E+03 -0.73619661324E+02  0.80486540318E+03  0.15294330000E+03 0.  0.
<mgrwt>
<rscale>  0 0.80149140E+03</rscale>
<asrwt>0</asrwt>
<pdfrwt beam="1">  1        1 0.76500920E-01 0.80149140E+03</pdfrwt>
<pdfrwt beam="2">  1       -1 0.25527361E+00 0.80149140E+03</pdfrwt>
<totfact> 0.29787104E+00</totfact>
</mgrwt>
</event>
<event>
 4    1  0.4964158E-009  0.9913463E+03  0.7818608E-02  0.9318087E-01
          1   -1    0    0  501    0  0.00000000000E+00  0.00000000000E+00  0.15536414927E+04  0.15536414927E+04  0.50400000000E-02 0. -1.
         -1   -1    0    0    0  501 -0.00000000000E+00 -0.00000000000E+00 -0.84993922456E+03  0.84993922458E+03  0.50400000000E-02 0.  1.
    8880022    1    1    2    0    0  0.25356051165E+02 -0.97914902289E+03  0.95963114780E+03  0.13797316156E+04  0.15294330000E+03 0.  0.
    8880022    1    1    2    0    0 -0.25356051165E+02  0.97914902289E+03 -0.25592887970E+03  0.10238491016E+04  0.15294330000E+03 0.  0.
<mgrwt>
<rscale>  0 0.99134625E+03</rscale>
<asrwt>0</asrwt>
<pdfrwt beam="1">  1        1 0.23902176E+00 0.99134625E+03</pdfrwt>
<pdfrwt beam="2">  1       -1 0.13075988E+00 0.99134625E+03</pdfrwt>
<totfact> 0.30223731E+00</totfact>
</mgrwt>
</event>
<event>
 4    1  0.4964158E-009  0.2968827E+03  0.7818608E-02  0.1086809E+00
         -1   -1    0    0    0  501 -0.00000000000E+00  0.00000000000E+00  0.15976540697E+04  0.15976540697E+04  0.50400000000E-02 0.  1.
          1   -1    0    0  501    0  0.00000000000E+00 -0.00000000000E+00 -0.71851736322E+03  0.71851736324E+03  0.50400000000E-02 0. -1.
    8880022    1    1    2    0    0 -0.10247812207E+03 -0.23290753509E+03  0.15523071698E+04  0.15804419913E+04  0.15294330000E+03 0.  0.
    8880022    1    1    2    0    0  0.10247812207E+03  0.23290753509E+03 -0.67317046340E+03  0.73572944158E+03  0.15294330000E+03 0. -1.
<mgrwt>
<rscale>  0 0.29688270E+03</rscale>
<asrwt>0</asrwt>
<pdfrwt beam="1">  1        1 0.11054113E+00 0.29688270E+03</pdfrwt>
<pdfrwt beam="2">  1       -1 0.24579293E+00 0.29688270E+03</pdfrwt>
<totfact> 0.23012949E+00</totfact>
</mgrwt>
</event>
<event>
 4    1  0.4964158E-009  0.1357866E+04  0.7818608E-02  0.8984895E-01
         -1   -1    0    0    0  501 -0.00000000000E+00  0.00000000000E+00  0.19908631025E+04  0.19908631025E+04  0.50400000000E-02 0.  1.
          1   -1    0    0  501    0  0.00000000000E+00 -0.00000000000E+00 -0.99109579108E+03  0.99109579109E+03  0.50400000000E-02 0. -1.
    8880022    1    1    2    0    0 -0.97104253285E+03  0.93674097771E+03  0.11815501184E+03  0.13629965223E+04  0.15294330000E+03 0.  0.
    8880022    1    1    2    0    0  0.97104253285E+03 -0.93674097771E+03  0.88161229955E+03  0.16189623713E+04  0.15294330000E+03 0.  0.
<mgrwt>
<rscale>  0 0.13578656E+04</rscale>
<asrwt>0</asrwt>
<pdfrwt beam="1">  1        1 0.15247628E+00 0.13578656E+04</pdfrwt>
<pdfrwt beam="2">  1       -1 0.30628663E+00 0.13578656E+04</pdfrwt>
<totfact> 0.44690758E-01</totfact>
</mgrwt>
</event>
<event>
 4    1  0.4964158E-009  0.7181574E+03  0.7818608E-02  0.9686675E-01
          1   -1    0    0  501    0  0.00000000000E+00  0.00000000000E+00  0.16976975848E+04  0.16976975848E+04  0.50400000000E-02 0. -1.
         -1   -1    0    0    0  501 -0.00000000000E+00 -0.00000000000E+00 -0.40163778902E+03  0.40163778905E+03  0.50400000000E-02 0.  1.
    8880022    1    1    2    0    0  0.22632306258E+03 -0.66418094221E+03  0.11661154508E+04  0.13695164658E+04  0.15294330000E+03 0. -1.
    8880022    1    1    2    0    0 -0.22632306258E+03  0.66418094221E+03  0.12994434497E+03  0.72981890798E+03  0.15294330000E+03 0.  0.
<mgrwt>
<rscale>  0 0.71815744E+03</rscale>
<asrwt>0</asrwt>
<pdfrwt beam="1">  1        1 0.26118424E+00 0.71815744E+03</pdfrwt>
<pdfrwt beam="2">  1       -1 0.61790429E-01 0.71815744E+03</pdfrwt>
<totfact> 0.13273591E+01</totfact>
</mgrwt>
</event>
<event>
 4    1  0.4964158E-009  0.8586627E+03  0.7818608E-02  0.9478783E-01
         -1   -1    0    0    0  501 -0.00000000000E+00  0.00000000000E+00  0.43869092973E+03  0.43869092976E+03  0.50400000000E-02 0.  1.
          1   -1    0    0  501    0  0.00000000000E+00 -0.00000000000E+00 -0.20945096366E+04  0.20945096367E+04  0.50400000000E-02 0. -1.
    8880022    1    1    2    0    0 -0.27166146927E+03 -0.80006875893E+03 -0.13909064293E+04  0.16346015787E+04  0.15294330000E+03 0.  0.
    8880022    1    1    2    0    0  0.27166146927E+03  0.80006875893E+03 -0.26491227760E+03  0.89859898773E+03  0.15294330000E+03 0.  0.
<mgrwt>
<rscale>  0 0.85866270E+03</rscale>
<asrwt>0</asrwt>
<pdfrwt beam="1">  1        1 0.32223224E+00 0.85866270E+03</pdfrwt>
<pdfrwt beam="2">  1       -1 0.67490914E-01 0.85866270E+03</pdfrwt>
<totfact> 0.59002810E+00</totfact>
</mgrwt>
</event>
<event>
 4    1  0.4964158E-009  0.8497888E+03  0.7818608E-02  0.9490620E-01
          1   -1    0    0  501    0  0.00000000000E+00  0.00000000000E+00  0.21886418047E+04  0.21886418047E+04  0.50400000000E-02 0. -1.
         -1   -1    0    0    0  501 -0.00000000000E+00 -0.00000000000E+00 -0.57163147264E+03  0.57163147266E+03  0.50400000000E-02 0.  1.
    8880022    1    1    2    0    0 -0.63690557142E+03 -0.54138768896E+03  0.17059055739E+04  0.19058475324E+04  0.15294330000E+03 0.  0.
    8880022    1    1    2    0    0  0.63690557142E+03  0.54138768896E+03 -0.88895241832E+02  0.85442574499E+03  0.15294330000E+03 0.  0.
<mgrwt>
<rscale>  0 0.84978879E+03</rscale>
<asrwt>0</asrwt>
<pdfrwt beam="1">  1        1 0.33671412E+00 0.84978879E+03</pdfrwt>
<pdfrwt beam="2">  1       -1 0.87943304E-01 0.84978879E+03</pdfrwt>
<totfact> 0.29241009E+00</totfact>
</mgrwt>
</event>
<event>
 4    1  0.4964158E-009  0.9270943E+03  0.7818608E-02  0.9392332E-01
         -1   -1    0    0    0  501 -0.00000000000E+00  0.00000000000E+00  0.48286988597E+03  0.48286988600E+03  0.50400000000E-02 0.  1.
          1   -1    0    0  501    0  0.00000000000E+00 -0.00000000000E+00 -0.29765190912E+04  0.29765190912E+04  0.50400000000E-02 0. -1.
    8880022    1    1    2    0    0 -0.71791541410E+03 -0.56631237568E+03 -0.15015306760E+03  0.93917508771E+03  0.15294330000E+03 0.  0.
    8880022    1    1    2    0    0  0.71791541410E+03  0.56631237568E+03 -0.23434961376E+04  0.25202138895E+04  0.15294330000E+03 0.  0.
<mgrwt>
<rscale>  0 0.92709433E+03</rscale>
<asrwt>0</asrwt>
<pdfrwt beam="1">  1        1 0.45792600E+00 0.92709433E+03</pdfrwt>
<pdfrwt beam="2">  1       -1 0.74287677E-01 0.92709433E+03</pdfrwt>
<totfact> 0.11799685E+00</totfact>
</mgrwt>
</event>
<event>
 4    1  0.4964158E-009  0.9317856E+03  0.7818608E-02  0.9386697E-01
         -1   -1    0    0    0  501 -0.00000000000E+00  0.00000000000E+00  0.69256818526E+03  0.69256818528E+03  0.50400000000E-02 0.  1.
          1   -1    0    0  501    0  0.00000000000E+00 -0.00000000000E+00 -0.16258015897E+04  0.16258015898E+04  0.50400000000E-02 0. -1.
    8880022    1    1    2    0    0  0.37485564161E+03 -0.83923536623E+03  0.87996776839E+02  0.93593153474E+03  0.15294330000E+03 0.  0.
    8880022    1    1    2    0    0 -0.37485564161E+03  0.83923536623E+03 -0.10212301813E+04  0.13824382403E+04  0.15294330000E+03 0.  0.
<mgrwt>
<rscale>  0 0.93178560E+03</rscale>
<asrwt>0</asrwt>
<pdfrwt beam="1">  1        1 0.25012332E+00 0.93178560E+03</pdfrwt>
<pdfrwt beam="2">  1       -1 0.10654895E+00 0.93178560E+03</pdfrwt>
<totfact> 0.44767685E+00</totfact>
</mgrwt>
</event>
<event>
 4    1  0.4964158E-009  0.8627742E+03  0.7818608E-02  0.9473351E-01
          1   -1    0    0  501    0  0.00000000000E+00  0.00000000000E+00  0.80908736256E+03  0.80908736258E+03  0.50400000000E-02 0. -1.
         -1   -1    0    0    0  501 -0.00000000000E+00 -0.00000000000E+00 -0.13227153214E+04  0.13227153214E+04  0.50400000000E-02 0.  1.
    8880022    1    1    2    0    0 -0.22615864623E+03 -0.81843744966E+03 -0.84493989399E+03  0.12076020328E+04  0.15294330000E+03 0.  0.
    8880022    1    1    2    0    0  0.22615864623E+03  0.81843744966E+03  0.33131193511E+03  0.92420065118E+03  0.15294330000E+03 0.  0.
<mgrwt>
<rscale>  0 0.86277416E+03</rscale>
<asrwt>0</asrwt>
<pdfrwt beam="1">  1        1 0.12447498E+00 0.86277416E+03</pdfrwt>
<pdfrwt beam="2">  1       -1 0.20349467E+00 0.86277416E+03</pdfrwt>
<totfact> 0.31600842E+00</totfact>
</mgrwt>
</event>
<event>
 4    1  0.4964158E-009  0.1948518E+04  0.7818608E-02  0.8631076E-01
         -1   -1    0    0    0  501 -0.00000000000E+00  0.00000000000E+00  0.22174951923E+04  0.22174951923E+04  0.50400000000E-02 0.  1.
          1   -1    0    0  501    0  0.00000000000E+00 -0.00000000000E+00 -0.30328431109E+04  0.30328431109E+04  0.50400000000E-02 0. -1.
    8880022    1    1    2    0    0 -0.32056808874E+03 -0.19158721712E+04  0.13246555671E+04  0.23561481491E+04  0.15294330000E+03 0.  0.
    8880022    1    1    2    0    0  0.32056808874E+03  0.19158721712E+04 -0.21400034858E+04  0.28941901541E+04  0.15294330000E+03 0.  0.
<mgrwt>
<rscale>  0 0.19485178E+04</rscale>
<asrwt>0</asrwt>
<pdfrwt beam="1">  1        1 0.46659125E+00 0.19485178E+04</pdfrwt>
<pdfrwt beam="2">  1       -1 0.34115310E+00 0.19485178E+04</pdfrwt>
<totfact> 0.89388090E-03</totfact>
</mgrwt>
</event>
<event>
 4    1  0.4964158E-009  0.4281304E+03  0.7818608E-02  0.1034452E+00
         -1   -1    0    0    0  501 -0.00000000000E+00  0.00000000000E+00  0.73884331511E+03  0.73884331513E+03  0.50400000000E-02 0.  1.
          1   -1    0    0  501    0  0.00000000000E+00 -0.00000000000E+00 -0.45698175898E+03  0.45698175900E+03  0.50400000000E-02 0. -1.
    8880022    1    1    2    0    0  0.15639893737E+03 -0.36802633106E+03  0.54518491811E+03  0.69319712630E+03  0.15294330000E+03 0.  0.
    8880022    1    1    2    0    0 -0.15639893737E+03  0.36802633106E+03 -0.26332336197E+03  0.50262794783E+03  0.15294330000E+03 0.  0.
<mgrwt>
<rscale>  0 0.42813043E+03</rscale>
<asrwt>0</asrwt>
<pdfrwt beam="1">  1        1 0.70304887E-01 0.42813043E+03</pdfrwt>
<pdfrwt beam="2">  1       -1 0.11366820E+00 0.42813043E+03</pdfrwt>
<totfact> 0.37610141E+01</totfact>
</mgrwt>
</event>
<event>
 4    1  0.4964158E-009  0.1657016E+04  0.7818608E-02  0.8786267E-01
         -1   -1    0    0    0  501 -0.00000000000E+00  0.00000000000E+00  0.19583643400E+04  0.19583643400E+04  0.50400000000E-02 0.  1.
          1   -1    0    0  501    0  0.00000000000E+00 -0.00000000000E+00 -0.17826971733E+04  0.17826971733E+04  0.50400000000E-02 0. -1.
    8880022    1    1    2    0    0  0.16488260766E+04 -0.60693533474E+02 -0.77652462254E+03  0.18299435178E+04  0.15294330000E+03 0.  0.
    8880022    1    1    2    0    0 -0.16488260766E+04  0.60693533474E+02  0.95219178931E+03  0.19111179955E+04  0.15294330000E+03 0.  0.
<mgrwt>
<rscale>  0 0.16570162E+04</rscale>
<asrwt>0</asrwt>
<pdfrwt beam="1">  1        1 0.27426110E+00 0.16570162E+04</pdfrwt>
<pdfrwt beam="2">  1       -1 0.30128682E+00 0.16570162E+04</pdfrwt>
<totfact> 0.12566315E-01</totfact>
</mgrwt>
</event>
<event>
 4    1  0.4964158E-009  0.3745813E+03  0.7818608E-02  0.1052955E+00
          1   -1    0    0  501    0  0.00000000000E+00  0.00000000000E+00  0.18150217886E+04  0.18150217887E+04  0.50400000000E-02 0. -1.
         -1   -1    0    0    0  501 -0.00000000000E+00 -0.00000000000E+00 -0.21994067417E+03  0.21994067422E+03  0.50400000000E-02 0.  1.
    8880022    1    1    2    0    0  0.20918034021E+03  0.27048672093E+03  0.16169236096E+04  0.16597448879E+04  0.15294330000E+03 0.  0.
    8880022    1    1    2    0    0 -0.20918034021E+03 -0.27048672093E+03 -0.21842495075E+02  0.37521757493E+03  0.15294330000E+03 0.  0.
<mgrwt>
<rscale>  0 0.37458128E+03</rscale>
<asrwt>0</asrwt>
<pdfrwt beam="1">  1        1 0.27923411E+00 0.37458128E+03</pdfrwt>
<pdfrwt beam="2">  1       -1 0.33837028E-01 0.37458128E+03</pdfrwt>
<totfact> 0.36229222E+01</totfact>
</mgrwt>
</event>
<event>
 4    1  0.4964158E-009  0.4225316E+03  0.7818608E-02  0.1036245E+00
         -1   -1    0    0    0  501 -0.00000000000E+00  0.00000000000E+00  0.24183882140E+03  0.24183882145E+03  0.50400000000E-02 0.  1.
          1   -1    0    0  501    0  0.00000000000E+00 -0.00000000000E+00 -0.12467269515E+04  0.12467269515E+04  0.50400000000E-02 0. -1.
    8880022    1    1    2    0    0  0.21845940804E+03 -0.32774502848E+03 -0.27113203492E+02  0.42340063235E+03  0.15294330000E+03 0.  0.
    8880022    1    1    2    0    0 -0.21845940804E+03  0.32774502848E+03 -0.97777492660E+03  0.10651651406E+04  0.15294330000E+03 0.  0.
<mgrwt>
<rscale>  0 0.42253162E+03</rscale>
<asrwt>0</asrwt>
<pdfrwt beam="1">  1        1 0.19180414E+00 0.42253162E+03</pdfrwt>
<pdfrwt beam="2">  1       -1 0.37205973E-01 0.42253162E+03</pdfrwt>
<totfact> 0.73214427E+01</totfact>
</mgrwt>
</event>
<event>
 4    1  0.4964158E-009  0.1850670E+03  0.7818608E-02  0.1162987E+00
         -1   -1    0    0    0  501 -0.00000000000E+00  0.00000000000E+00  0.89237072982E+02  0.89237073124E+02  0.50400000000E-02 0.  1.
          1   -1    0    0  501    0  0.00000000000E+00 -0.00000000000E+00 -0.75358650526E+03  0.75358650528E+03  0.50400000000E-02 0. -1.
    8880022    1    1    2    0    0  0.36710099916E+01 -0.10413779704E+03 -0.62737146104E+03  0.65409843313E+03  0.15294330000E+03 0.  0.
    8880022    1    1    2    0    0 -0.36710099916E+01  0.10413779704E+03 -0.36977971246E+02  0.18872514527E+03  0.15294330000E+03 0.  0.
<mgrwt>
<rscale>  0 0.18506704E+03</rscale>
<asrwt>0</asrwt>
<pdfrwt beam="1">  1        1 0.11593638E+00 0.18506704E+03</pdfrwt>
<pdfrwt beam="2">  1       -1 0.13728781E-01 0.18506704E+03</pdfrwt>
<totfact> 0.93794713E+02</totfact>
</mgrwt>
</event>
<event>
 4    1  0.4964158E-009  0.9214318E+03  0.7818608E-02  0.9399180E-01
          1   -1    0    0  501    0  0.00000000000E+00  0.00000000000E+00  0.30705728828E+04  0.30705728828E+04  0.50400000000E-02 0. -1.
         -1   -1    0    0    0  501 -0.00000000000E+00 -0.00000000000E+00 -0.29288390754E+03  0.29288390758E+03  0.50400000000E-02 0.  1.
    8880022    1    1    2    0    0 -0.53637462328E+03  0.73344886582E+03  0.17865087570E+04  0.20101368528E+04  0.15294330000E+03 0.  0.
    8880022    1    1    2    0    0  0.53637462328E+03 -0.73344886582E+03  0.99118021823E+03  0.13533199375E+04  0.15294330000E+03 0.  0.
<mgrwt>
<rscale>  0 0.92143184E+03</rscale>
<asrwt>0</asrwt>
<pdfrwt beam="1">  1        1 0.47239579E+00 0.92143184E+03</pdfrwt>
<pdfrwt beam="2">  1       -1 0.45059067E-01 0.92143184E+03</pdfrwt>
<totfact> 0.26995107E+00</totfact>
</mgrwt>
</event>
<event>
 4    1  0.4964158E-009  0.9204712E+03  0.7818608E-02  0.9400347E-01
          1   -1    0    0  501    0  0.00000000000E+00  0.00000000000E+00  0.13614064577E+04  0.13614064577E+04  0.50400000000E-02 0. -1.
         -1   -1    0    0    0  501 -0.00000000000E+00 -0.00000000000E+00 -0.95644694204E+03  0.95644694205E+03  0.50400000000E-02 0.  1.
    8880022    1    1    2    0    0  0.27313118510E+03  0.86560671140E+03  0.88743737956E+03  0.12785978174E+04  0.15294330000E+03 0.  0.
    8880022    1    1    2    0    0 -0.27313118510E+03 -0.86560671140E+03 -0.48247786393E+03  0.10392555823E+04  0.15294330000E+03 0.  0.
<mgrwt>
<rscale>  0 0.92047123E+03</rscale>
<asrwt>0</asrwt>
<pdfrwt beam="1">  1        1 0.20944715E+00 0.92047123E+03</pdfrwt>
<pdfrwt beam="2">  1       -1 0.14714568E+00 0.92047123E+03</pdfrwt>
<totfact> 0.30510527E+00</totfact>
</mgrwt>
</event>
<event>
 4    1  0.4964158E-009  0.5965655E+03  0.7818608E-02  0.9912557E-01
          1   -1    0    0  501    0  0.00000000000E+00  0.00000000000E+00  0.18551562509E+04  0.18551562509E+04  0.50400000000E-02 0. -1.
         -1   -1    0    0    0  501 -0.00000000000E+00 -0.00000000000E+00 -0.68478142339E+03  0.68478142341E+03  0.50400000000E-02 0.  1.
    8880022    1    1    2    0    0 -0.45557547683E+03 -0.35348234646E+03 -0.49230789147E+03  0.77347107080E+03  0.15294330000E+03 0.  0.
    8880022    1    1    2    0    0  0.45557547683E+03  0.35348234646E+03  0.16626827190E+04  0.17664666035E+04  0.15294330000E+03 0.  0.
<mgrwt>
<rscale>  0 0.59656553E+03</rscale>
<asrwt>0</asrwt>
<pdfrwt beam="1">  1        1 0.28540865E+00 0.59656553E+03</pdfrwt>
<pdfrwt beam="2">  1       -1 0.10535099E+00 0.59656553E+03</pdfrwt>
<totfact> 0.34195746E+00</totfact>
</mgrwt>
</event>
<event>
 4    1  0.4964158E-009  0.1349823E+04  0.7818608E-02  0.8990962E-01
          1   -1    0    0  501    0  0.00000000000E+00  0.00000000000E+00  0.13754500927E+04  0.13754500927E+04  0.50400000000E-02 0. -1.
         -1   -1    0    0    0  501 -0.00000000000E+00 -0.00000000000E+00 -0.17060241307E+04  0.17060241307E+04  0.50400000000E-02 0.  1.
    8880022    1    1    2    0    0  0.13358918149E+04 -0.11842013356E+03 -0.89373466592E+03  0.16188834348E+04  0.15294330000E+03 0.  0.
    8880022    1    1    2    0    0 -0.13358918149E+04  0.11842013356E+03  0.56316062794E+03  0.14625907887E+04  0.15294330000E+03 0.  0.
<mgrwt>
<rscale>  0 0.13498229E+04</rscale>
<asrwt>0</asrwt>
<pdfrwt beam="1">  1        1 0.21160771E+00 0.13498229E+04</pdfrwt>
<pdfrwt beam="2">  1       -1 0.26246525E+00 0.13498229E+04</pdfrwt>
<totfact> 0.44523809E-01</totfact>
</mgrwt>
</event>
<event>
 4    1  0.4964158E-009  0.1150250E+04  0.7818608E-02  0.9157553E-01
         -1   -1    0    0    0  501 -0.00000000000E+00  0.00000000000E+00  0.46317109026E+03  0.46317109029E+03  0.50400000000E-02 0.  1.
          1   -1    0    0  501    0  0.00000000000E+00 -0.00000000000E+00 -0.31179780190E+04  0.31179780190E+04  0.50400000000E-02 0. -1.
    8880022    1    1    2    0    0 -0.10453004490E+04  0.45500593105E+03 -0.18458754708E+04  0.21749324892E+04  0.15294330000E+03 0.  0.
    8880022    1    1    2    0    0  0.10453004490E+04 -0.45500593105E+03 -0.80893145793E+03  0.14062166201E+04  0.15294330000E+03 0.  0.
<mgrwt>
<rscale>  0 0.11502500E+04</rscale>
<asrwt>0</asrwt>
<pdfrwt beam="1">  1        1 0.47968891E+00 0.11502500E+04</pdfrwt>
<pdfrwt beam="2">  1       -1 0.71257093E-01 0.11502500E+04</pdfrwt>
<totfact> 0.98061945E-01</totfact>
</mgrwt>
</event>
<event>
 4    1  0.4964158E-009  0.7452449E+03  0.7818608E-02  0.9642840E-01
         -1   -1    0    0    0  501 -0.00000000000E+00  0.00000000000E+00  0.54251193222E+03  0.54251193224E+03  0.50400000000E-02 0.  1.
          1   -1    0    0  501    0  0.00000000000E+00 -0.00000000000E+00 -0.16526456152E+04  0.16526456152E+04  0.50400000000E-02 0. -1.
    8880022    1    1    2    0    0 -0.23079912962E+03  0.69190321087E+03 -0.12321458429E+04  0.14399907370E+04  0.15294330000E+03 0.  0.
    8880022    1    1    2    0    0  0.23079912962E+03 -0.69190321087E+03  0.12201215991E+03  0.75516681046E+03  0.15294330000E+03 0.  0.
<mgrwt>
<rscale>  0 0.74524489E+03</rscale>
<asrwt>0</asrwt>
<pdfrwt beam="1">  1        1 0.25425317E+00 0.74524489E+03</pdfrwt>
<pdfrwt beam="2">  1       -1 0.83463375E-01 0.74524489E+03</pdfrwt>
<totfact> 0.76267653E+00</totfact>
</mgrwt>
</event>
<event>
 4    1  0.1490845E-008  0.1709378E+04  0.7818608E-02  0.8756034E-01
          1   -1    0    0  501    0  0.00000000000E+00  0.00000000000E+00  0.22365507589E+04  0.22365507589E+04  0.50400000000E-02 0. -1.
         -1   -1    0    0    0  501 -0.00000000000E+00 -0.00000000000E+00 -0.25036840404E+04  0.25036840404E+04  0.50400000000E-02 0.  1.
    8880022    1    1    2    0    0  0.42436279519E+02  0.17019930418E+04 -0.17725219330E+04  0.24624798087E+04  0.15294330000E+03 0.  0.
    8880022    1    1    2    0    0 -0.42436279519E+02 -0.17019930418E+04  0.15053886515E+04  0.22777549906E+04  0.15294330000E+03 0.  0.
<mgrwt>
<rscale>  0 0.17093779E+04</rscale>
<asrwt>0</asrwt>
<pdfrwt beam="1">  1        1 0.34408473E+00 0.17093779E+04</pdfrwt>
<pdfrwt beam="2">  1       -1 0.38518216E+00 0.17093779E+04</pdfrwt>
<totfact> 0.17024543E-02</totfact>
</mgrwt>
</event>
<event>
 4    1  0.4964158E-009  0.3417392E+03  0.7818608E-02  0.1066058E+00
         -1   -1    0    0    0  501 -0.00000000000E+00  0.00000000000E+00  0.12176867579E+03  0.12176867589E+03  0.50400000000E-02 0.  1.
          1   -1    0    0  501    0  0.00000000000E+00 -0.00000000000E+00 -0.24954344049E+04  0.24954344049E+04  0.50400000000E-02 0. -1.
    8880022    1    1    2    0    0  0.28203417277E+03  0.11768913897E+03 -0.16004593393E+03  0.37735972496E+03  0.15294330000E+03 0.  0.
    8880022    1    1    2    0    0 -0.28203417277E+03 -0.11768913897E+03 -0.22136197952E+04  0.22398433558E+04  0.15294330000E+03 0.  0.
<mgrwt>
<rscale>  0 0.34173917E+03</rscale>
<asrwt>0</asrwt>
<pdfrwt beam="1">  1        1 0.38391295E+00 0.34173917E+03</pdfrwt>
<pdfrwt beam="2">  1       -1 0.18733644E-01 0.34173917E+03</pdfrwt>
<totfact> 0.35227521E+01</totfact>
</mgrwt>
</event>
<event>
 4    1  0.4964158E-009  0.4204997E+03  0.7818608E-02  0.1036904E+00
          1   -1    0    0  501    0  0.00000000000E+00  0.00000000000E+00  0.51727697320E+04  0.51727697320E+04  0.50400000000E-02 0. -1.
         -1   -1    0    0    0  501 -0.00000000000E+00 -0.00000000000E+00 -0.18592738061E+03  0.18592738068E+03  0.50400000000E-02 0.  1.
    8880022    1    1    2    0    0  0.37359287609E+03  0.11771467198E+03  0.49139711661E+04  0.49319299118E+04  0.15294330000E+03 0.  0.
    8880022    1    1    2    0    0 -0.37359287609E+03 -0.11771467198E+03  0.72871185315E+02  0.42676720086E+03  0.15294330000E+03 0.  0.
<mgrwt>
<rscale>  0 0.42049974E+03</rscale>
<asrwt>0</asrwt>
<pdfrwt beam="1">  1        1 0.79581078E+00 0.42049974E+03</pdfrwt>
<pdfrwt beam="2">  1       -1 0.28604211E-01 0.42049974E+03</pdfrwt>
<totfact> 0.76022729E-02</totfact>
</mgrwt>
</event>
<event>
 4    1  0.4964158E-009  0.3440052E+03  0.7818608E-02  0.1065103E+00
          1   -1    0    0  501    0  0.00000000000E+00  0.00000000000E+00  0.10547724414E+04  0.10547724414E+04  0.50400000000E-02 0. -1.
         -1   -1    0    0    0  501 -0.00000000000E+00 -0.00000000000E+00 -0.38102409303E+03  0.38102409307E+03  0.50400000000E-02 0.  1.
    8880022    1    1    2    0    0 -0.21299961113E+03  0.22266362472E+03  0.93988525393E+03  0.10008615627E+04  0.15294330000E+03 0.  0.
    8880022    1    1    2    0    0  0.21299961113E+03 -0.22266362472E+03 -0.26613690560E+03  0.43493497175E+03  0.15294330000E+03 0.  0.
<mgrwt>
<rscale>  0 0.34400520E+03</rscale>
<asrwt>0</asrwt>
<pdfrwt beam="1">  1        1 0.16227268E+00 0.34400520E+03</pdfrwt>
<pdfrwt beam="2">  1       -1 0.58619092E-01 0.34400520E+03</pdfrwt>
<totfact> 0.44135920E+01</totfact>
</mgrwt>
</event>
<event>
 4    1  0.4964158E-009  0.4064934E+03  0.7818608E-02  0.1041554E+00
         -1   -1    0    0    0  501 -0.00000000000E+00  0.00000000000E+00  0.53508491267E+03  0.53508491269E+03  0.50400000000E-02 0.  1.
          1   -1    0    0  501    0  0.00000000000E+00 -0.00000000000E+00 -0.15243657096E+04  0.15243657096E+04  0.50400000000E-02 0. -1.
    8880022    1    1    2    0    0  0.15993033037E+03 -0.34098024495E+03  0.42488796830E+03  0.58801928255E+03  0.15294330000E+03 0.  0.
    8880022    1    1    2    0    0 -0.15993033037E+03  0.34098024495E+03 -0.14141687652E+04  0.14714313397E+04  0.15294330000E+03 0.  0.
<mgrwt>
<rscale>  0 0.40649341E+03</rscale>
<asrwt>0</asrwt>
<pdfrwt beam="1">  1        1 0.23451780E+00 0.40649341E+03</pdfrwt>
<pdfrwt beam="2">  1       -1 0.82320757E-01 0.40649341E+03</pdfrwt>
<totfact> 0.10291956E+01</totfact>
</mgrwt>
</event>
<event>
 4    1  0.4964158E-009  0.1986763E+03  0.7818608E-02  0.1150861E+00
         -1   -1    0    0    0  501 -0.00000000000E+00  0.00000000000E+00  0.60541321688E+02  0.60541321897E+02  0.50400000000E-02 0.  1.
          1   -1    0    0  501    0  0.00000000000E+00 -0.00000000000E+00 -0.39764073512E+04  0.39764073512E+04  0.50400000000E-02 0. -1.
    8880022    1    1    2    0    0  0.47077054516E+02 -0.11774700114E+03 -0.11234121270E+03  0.22823848585E+03  0.15294330000E+03 0.  0.
    8880022    1    1    2    0    0 -0.47077054516E+02  0.11774700114E+03 -0.38035248168E+04  0.38087101872E+04  0.15294330000E+03 0. -1.
<mgrwt>
<rscale>  0 0.19867627E+03</rscale>
<asrwt>0</asrwt>
<pdfrwt beam="1">  1        1 0.61175477E+00 0.19867627E+03</pdfrwt>
<pdfrwt beam="2">  1       -1 0.93140526E-02 0.19867627E+03</pdfrwt>
<totfact> 0.93614824E+00</totfact>
</mgrwt>
</event>
<event>
 4    1  0.4964158E-009  0.1138767E+04  0.7818608E-02  0.9168210E-01
         -1   -1    0    0    0  501 -0.00000000000E+00  0.00000000000E+00  0.12718248345E+04  0.12718248345E+04  0.50400000000E-02 0.  1.
          1   -1    0    0  501    0  0.00000000000E+00 -0.00000000000E+00 -0.19646350287E+04  0.19646350287E+04  0.50400000000E-02 0. -1.
    8880022    1    1    2    0    0  0.48894252062E+02  0.11273894076E+04 -0.14687249190E+04  0.18584784273E+04  0.15294330000E+03 0.  0.
    8880022    1    1    2    0    0 -0.48894252062E+02 -0.11273894076E+04  0.77591472482E+03  0.13779814358E+04  0.15294330000E+03 0.  0.
<mgrwt>
<rscale>  0 0.11387665E+04</rscale>
<asrwt>0</asrwt>
<pdfrwt beam="1">  1        1 0.30225154E+00 0.11387665E+04</pdfrwt>
<pdfrwt beam="2">  1       -1 0.19566536E+00 0.11387665E+04</pdfrwt>
<totfact> 0.50295216E-01</totfact>
</mgrwt>
</event>
<event>
 4    1  0.4964158E-009  0.5291510E+03  0.7818608E-02  0.1006438E+00
          1   -1    0    0  501    0  0.00000000000E+00  0.00000000000E+00  0.60184886149E+03  0.60184886151E+03  0.50400000000E-02 0. -1.
         -1   -1    0    0    0  501 -0.00000000000E+00 -0.00000000000E+00 -0.86972875639E+03  0.86972875641E+03  0.50400000000E-02 0.  1.
    8880022    1    1    2    0    0 -0.48230989561E+03 -0.15487494626E+03  0.36784490507E+03  0.64444597259E+03  0.15294330000E+03 0.  0.
    8880022    1    1    2    0    0  0.48230989561E+03  0.15487494626E+03 -0.63572479998E+03  0.82713164533E+03  0.15294330000E+03 0.  1.
<mgrwt>
<rscale>  0 0.52915096E+03</rscale>
<asrwt>0</asrwt>
<pdfrwt beam="1">  1        1 0.92592132E-01 0.52915096E+03</pdfrwt>
<pdfrwt beam="2">  1       -1 0.13380443E+00 0.52915096E+03</pdfrwt>
<totfact> 0.17015007E+01</totfact>
</mgrwt>
</event>
<event>
 4    1  0.4964158E-009  0.8422181E+03  0.7818608E-02  0.9500841E-01
          1   -1    0    0  501    0  0.00000000000E+00  0.00000000000E+00  0.65813730020E+03  0.65813730022E+03  0.50400000000E-02 0. -1.
         -1   -1    0    0    0  501 -0.00000000000E+00 -0.00000000000E+00 -0.14900532443E+04  0.14900532443E+04  0.50400000000E-02 0.  1.
    8880022    1    1    2    0    0  0.73822348133E+03  0.37545411159E+03 -0.98093550767E+03  0.12928904909E+04  0.15294330000E+03 0.  0.
    8880022    1    1    2    0    0 -0.73822348133E+03 -0.37545411159E+03  0.14901956361E+03  0.85530005357E+03  0.15294330000E+03 0.  0.
<mgrwt>
<rscale>  0 0.84221811E+03</rscale>
<asrwt>0</asrwt>
<pdfrwt beam="1">  1        1 0.10125189E+00 0.84221811E+03</pdfrwt>
<pdfrwt beam="2">  1       -1 0.22923896E+00 0.84221811E+03</pdfrwt>
<totfact> 0.29324596E+00</totfact>
</mgrwt>
</event>
<event>
 4    1  0.4964158E-009  0.6874062E+03  0.7818608E-02  0.9739015E-01
         -1   -1    0    0    0  501 -0.00000000000E+00  0.00000000000E+00  0.56690701863E+03  0.56690701865E+03  0.50400000000E-02 0.  1.
          1   -1    0    0  501    0  0.00000000000E+00 -0.00000000000E+00 -0.23485579980E+04  0.23485579980E+04  0.50400000000E-02 0. -1.
    8880022    1    1    2    0    0 -0.62903547880E+03  0.23119255785E+03 -0.20616430377E+04  0.21732232514E+04  0.15294330000E+03 0.  0.
    8880022    1    1    2    0    0  0.62903547880E+03 -0.23119255785E+03  0.27999205832E+03  0.74224176529E+03  0.15294330000E+03 0.  0.
<mgrwt>
<rscale>  0 0.68740620E+03</rscale>
<asrwt>0</asrwt>
<pdfrwt beam="1">  1        1 0.36131661E+00 0.68740620E+03</pdfrwt>
<pdfrwt beam="2">  1       -1 0.87216466E-01 0.68740620E+03</pdfrwt>
<totfact> 0.23961946E+00</totfact>
</mgrwt>
</event>
<event>
 4    1  0.4964158E-009  0.1158630E+04  0.7818608E-02  0.9149858E-01
          1   -1    0    0  501    0  0.00000000000E+00  0.00000000000E+00  0.13130816455E+04  0.13130816455E+04  0.50400000000E-02 0. -1.
         -1   -1    0    0    0  501 -0.00000000000E+00 -0.00000000000E+00 -0.16798857738E+04  0.16798857738E+04  0.50400000000E-02 0.  1.
    8880022    1    1    2    0    0  0.11479815422E+04 -0.34223674942E+02  0.75285032447E+03  0.13817409834E+04  0.15294330000E+03 0.  0.
    8880022    1    1    2    0    0 -0.11479815422E+04  0.34223674942E+02 -0.11196544528E+04  0.16112264359E+04  0.15294330000E+03 0.  0.
<mgrwt>
<rscale>  0 0.11586305E+04</rscale>
<asrwt>0</asrwt>
<pdfrwt beam="1">  1        1 0.20201256E+00 0.11586305E+04</pdfrwt>
<pdfrwt beam="2">  1       -1 0.25844397E+00 0.11586305E+04</pdfrwt>
<totfact> 0.53665347E-01</totfact>
</mgrwt>
</event>
<event>
 4    1  0.4964158E-009  0.1057786E+04  0.7818608E-02  0.9247343E-01
         -1   -1    0    0    0  501 -0.00000000000E+00  0.00000000000E+00  0.10820399470E+04  0.10820399470E+04  0.50400000000E-02 0.  1.
          1   -1    0    0  501    0  0.00000000000E+00 -0.00000000000E+00 -0.27046547750E+04  0.27046547750E+04  0.50400000000E-02 0. -1.
    8880022    1    1    2    0    0 -0.43930390542E+03 -0.95001618792E+03 -0.22993247944E+04  0.25309691507E+04  0.15294330000E+03 0.  0.
    8880022    1    1    2    0    0  0.43930390542E+03  0.95001618792E+03  0.67670996648E+03  0.12557255713E+04  0.15294330000E+03 0.  0.
<mgrwt>
<rscale>  0 0.10577856E+04</rscale>
<asrwt>0</asrwt>
<pdfrwt beam="1">  1        1 0.41610073E+00 0.10577856E+04</pdfrwt>
<pdfrwt beam="2">  1       -1 0.16646768E+00 0.10577856E+04</pdfrwt>
<totfact> 0.25749920E-01</totfact>
</mgrwt>
</event>
<event>
 4    1  0.4964158E-009  0.1030378E+04  0.7818608E-02  0.9275840E-01
          1   -1    0    0  501    0  0.00000000000E+00  0.00000000000E+00  0.26646501066E+04  0.26646501066E+04  0.50400000000E-02 0. -1.
         -1   -1    0    0    0  501 -0.00000000000E+00 -0.00000000000E+00 -0.15275956228E+04  0.15275956229E+04  0.50400000000E-02 0.  1.
    8880022    1    1    2    0    0  0.65084372524E+03 -0.78402182129E+03 -0.12336236394E+04  0.16073290601E+04  0.15294330000E+03 0.  0.
    8880022    1    1    2    0    0 -0.65084372524E+03  0.78402182129E+03  0.23706781231E+04  0.25849166693E+04  0.15294330000E+03 0.  0.
<mgrwt>
<rscale>  0 0.10303783E+04</rscale>
<asrwt>0</asrwt>
<pdfrwt beam="1">  1        1 0.40994616E+00 0.10303783E+04</pdfrwt>
<pdfrwt beam="2">  1       -1 0.23501472E+00 0.10303783E+04</pdfrwt>
<totfact> 0.92640949E-02</totfact>
</mgrwt>
</event>
<event>
 4    1  0.4964158E-009  0.7058426E+03  0.7818608E-02  0.9707292E-01
          1   -1    0    0  501    0  0.00000000000E+00  0.00000000000E+00  0.11124603085E+04  0.11124603085E+04  0.50400000000E-02 0. -1.
         -1   -1    0    0    0  501 -0.00000000000E+00 -0.00000000000E+00 -0.80459904705E+03  0.80459904707E+03  0.50400000000E-02 0.  1.
    8880022    1    1    2    0    0  0.44895289262E+03  0.52274601712E+03 -0.48433005164E+03  0.85603116190E+03  0.15294330000E+03 0.  1.
    8880022    1    1    2    0    0 -0.44895289262E+03 -0.52274601712E+03  0.79219131306E+03  0.10610281936E+04  0.15294330000E+03 0.  0.
<mgrwt>
<rscale>  0 0.70584258E+03</rscale>
<asrwt>0</asrwt>
<pdfrwt beam="1">  1        1 0.17114774E+00 0.70584258E+03</pdfrwt>
<pdfrwt beam="2">  1       -1 0.12378447E+00 0.70584258E+03</pdfrwt>
<totfact> 0.74153706E+00</totfact>
</mgrwt>
</event>
<event>
 4    1  0.4964158E-009  0.8722899E+03  0.7818608E-02  0.9460899E-01
          1   -1    0    0  501    0  0.00000000000E+00  0.00000000000E+00  0.12087408543E+04  0.12087408543E+04  0.50400000000E-02 0. -1.
         -1   -1    0    0    0  501 -0.00000000000E+00 -0.00000000000E+00 -0.16062458481E+04  0.16062458481E+04  0.50400000000E-02 0.  1.
    8880022    1    1    2    0    0 -0.70741394286E+03 -0.48689174072E+03  0.89882061314E+03  0.12525047710E+04  0.15294330000E+03 0.  0.
    8880022    1    1    2    0    0  0.70741394286E+03  0.48689174072E+03 -0.12963256070E+04  0.15624819314E+04  0.15294330000E+03 0.  0.
<mgrwt>
<rscale>  0 0.87228992E+03</rscale>
<asrwt>0</asrwt>
<pdfrwt beam="1">  1        1 0.18596013E+00 0.87228992E+03</pdfrwt>
<pdfrwt beam="2">  1       -1 0.24711475E+00 0.87228992E+03</pdfrwt>
<totfact> 0.78990777E-01</totfact>
</mgrwt>
</event>
<event>
 4    1  0.4964158E-009  0.7299440E+03  0.7818608E-02  0.9667351E-01
         -1   -1    0    0    0  501 -0.00000000000E+00  0.00000000000E+00  0.36364238345E+03  0.36364238349E+03  0.50400000000E-02 0.  1.
          1   -1    0    0  501    0  0.00000000000E+00 -0.00000000000E+00 -0.17758178074E+04  0.17758178074E+04  0.50400000000E-02 0. -1.
    8880022    1    1    2    0    0  0.36591846811E+03 -0.61280519812E+03 -0.25871429574E+03  0.77443610194E+03  0.15294330000E+03 0.  0.
    8880022    1    1    2    0    0 -0.36591846811E+03  0.61280519812E+03 -0.11534611282E+04  0.13650240890E+04  0.15294330000E+03 0.  0.
<mgrwt>
<rscale>  0 0.72994396E+03</rscale>
<asrwt>0</asrwt>
<pdfrwt beam="1">  1        1 0.27320273E+00 0.72994396E+03</pdfrwt>
<pdfrwt beam="2">  1       -1 0.55944983E-01 0.72994396E+03</pdfrwt>
<totfact> 0.14269185E+01</totfact>
</mgrwt>
</event>
<event>
 4    1  0.4964158E-009  0.7776217E+03  0.7818608E-02  0.9592986E-01
          1   -1    0    0  501    0  0.00000000000E+00  0.00000000000E+00  0.83530837509E+03  0.83530837510E+03  0.50400000000E-02 0. -1.
         -1   -1    0    0    0  501 -0.00000000000E+00 -0.00000000000E+00 -0.10716631151E+04  0.10716631151E+04  0.50400000000E-02 0.  1.
    8880022    1    1    2    0    0 -0.70732098811E+03 -0.28460642668E+03  0.42496673633E+03  0.88616712776E+03  0.15294330000E+03 0.  0.
    8880022    1    1    2    0    0  0.70732098811E+03  0.28460642668E+03 -0.66132147636E+03  0.10208043625E+04  0.15294330000E+03 0.  0.
<mgrwt>
<rscale>  0 0.77762166E+03</rscale>
<asrwt>0</asrwt>
<pdfrwt beam="1">  1        1 0.12850898E+00 0.77762166E+03</pdfrwt>
<pdfrwt beam="2">  1       -1 0.16487125E+00 0.77762166E+03</pdfrwt>
<totfact> 0.57061742E+00</totfact>
</mgrwt>
</event>
<event>
 4    1  0.4964158E-009  0.4647108E+03  0.7818608E-02  0.1023424E+00
         -1   -1    0    0    0  501 -0.00000000000E+00  0.00000000000E+00  0.29736463263E+03  0.29736463267E+03  0.50400000000E-02 0.  1.
          1   -1    0    0  501    0  0.00000000000E+00 -0.00000000000E+00 -0.13920500393E+04  0.13920500394E+04  0.50400000000E-02 0. -1.
    8880022    1    1    2    0    0  0.10167744920E+03  0.42687959702E+03  0.36850021122E+02  0.46616957333E+03  0.15294330000E+03 0.  0.
    8880022    1    1    2    0    0 -0.10167744920E+03 -0.42687959702E+03 -0.11315354278E+04  0.12232450987E+04  0.15294330000E+03 0.  0.
<mgrwt>
<rscale>  0 0.46471082E+03</rscale>
<asrwt>0</asrwt>
<pdfrwt beam="1">  1        1 0.21416154E+00 0.46471082E+03</pdfrwt>
<pdfrwt beam="2">  1       -1 0.45748406E-01 0.46471082E+03</pdfrwt>
<totfact> 0.39627075E+01</totfact>
</mgrwt>
</event>
<event>
 4    1  0.4964158E-009  0.1561839E+04  0.7818608E-02  0.8844341E-01
          1   -1    0    0  501    0  0.00000000000E+00  0.00000000000E+00  0.36608674082E+04  0.36608674082E+04  0.50400000000E-02 0. -1.
         -1   -1    0    0    0  501 -0.00000000000E+00 -0.00000000000E+00 -0.11416608631E+04  0.11416608631E+04  0.50400000000E-02 0.  1.
    8880022    1    1    2    0    0 -0.15113468344E+04 -0.36301457772E+03 -0.28981989257E+03  0.15885011995E+04  0.15294330000E+03 0.  0.
    8880022    1    1    2    0    0  0.15113468344E+04  0.36301457772E+03  0.28090264377E+04  0.32140270718E+04  0.15294330000E+03 0.  0.
<mgrwt>
<rscale>  0 0.15618388E+04</rscale>
<asrwt>0</asrwt>
<pdfrwt beam="1">  1        1 0.56321037E+00 0.15618388E+04</pdfrwt>
<pdfrwt beam="2">  1       -1 0.17564013E+00 0.15618388E+04</pdfrwt>
<totfact> 0.39355894E-02</totfact>
</mgrwt>
</event>
<event>
 4    1  0.4964158E-009  0.3137472E+03  0.7818608E-02  0.1078564E+00
         -1   -1    0    0    0  501 -0.00000000000E+00  0.00000000000E+00  0.16573391422E+04  0.16573391422E+04  0.50400000000E-02 0.  1.
          1   -1    0    0  501    0  0.00000000000E+00 -0.00000000000E+00 -0.60695240636E+03  0.60695240638E+03  0.50400000000E-02 0. -1.
    8880022    1    1    2    0    0  0.11145271159E+03  0.25024773202E+03  0.16005188779E+04  0.16309806761E+04  0.15294330000E+03 0.  1.
    8880022    1    1    2    0    0 -0.11145271159E+03 -0.25024773202E+03 -0.55013214213E+03  0.63331087241E+03  0.15294330000E+03 0.  0.
<mgrwt>
<rscale>  0 0.31374717E+03</rscale>
<asrwt>0</asrwt>
<pdfrwt beam="1">  1        1 0.93377294E-01 0.31374717E+03</pdfrwt>
<pdfrwt beam="2">  1       -1 0.25497525E+00 0.31374717E+03</pdfrwt>
<totfact> 0.25492638E+00</totfact>
</mgrwt>
</event>
<event>
 4    1  0.4964158E-009  0.1150651E+04  0.7818608E-02  0.9157183E-01
         -1   -1    0    0    0  501 -0.00000000000E+00  0.00000000000E+00  0.64457485863E+03  0.64457485865E+03  0.50400000000E-02 0.  1.
          1   -1    0    0  501    0  0.00000000000E+00 -0.00000000000E+00 -0.25709290044E+04  0.25709290044E+04  0.50400000000E-02 0. -1.
    8880022    1    1    2    0    0 -0.40998972809E+03 -0.10641969241E+04 -0.24229809737E+03  0.11758854925E+04  0.15294330000E+03 0.  0.
    8880022    1    1    2    0    0  0.40998972809E+03  0.10641969241E+04 -0.16840560484E+04  0.20396183706E+04  0.15294330000E+03 0.  0.
<mgrwt>
<rscale>  0 0.11506513E+04</rscale>
<asrwt>0</asrwt>
<pdfrwt beam="1">  1        1 0.39552753E+00 0.11506513E+04</pdfrwt>
<pdfrwt beam="2">  1       -1 0.99165364E-01 0.11506513E+04</pdfrwt>
<totfact> 0.11718661E+00</totfact>
</mgrwt>
</event>
<event>
 4    1  0.4964158E-009  0.1231585E+04  0.7818608E-02  0.9085651E-01
         -1   -1    0    0    0  501 -0.00000000000E+00  0.00000000000E+00  0.11550061965E+04  0.11550061965E+04  0.50400000000E-02 0.  1.
          1   -1    0    0  501    0  0.00000000000E+00 -0.00000000000E+00 -0.16273966487E+04  0.16273966487E+04  0.50400000000E-02 0. -1.
    8880022    1    1    2    0    0 -0.12202896834E+04  0.65595885479E+02  0.37505045769E+03  0.12874254272E+04  0.15294330000E+03 0.  0.
    8880022    1    1    2    0    0  0.12202896834E+04 -0.65595885479E+02 -0.84744090988E+03  0.14949774180E+04  0.15294330000E+03 0.  0.
<mgrwt>
<rscale>  0 0.12315849E+04</rscale>
<asrwt>0</asrwt>
<pdfrwt beam="1">  1        1 0.25036872E+00 0.12315849E+04</pdfrwt>
<pdfrwt beam="2">  1       -1 0.17769326E+00 0.12315849E+04</pdfrwt>
<totfact> 0.11283545E+00</totfact>
</mgrwt>
</event>
<event>
 4    1  0.4964158E-009  0.3851272E+03  0.7818608E-02  0.1049055E+00
         -1   -1    0    0    0  501 -0.00000000000E+00  0.00000000000E+00  0.13029026404E+04  0.13029026404E+04  0.50400000000E-02 0.  1.
          1   -1    0    0  501    0  0.00000000000E+00 -0.00000000000E+00 -0.55824465245E+03  0.55824465247E+03  0.50400000000E-02 0. -1.
    8880022    1    1    2    0    0  0.10480087051E+03  0.33756195269E+03  0.12026147174E+04  0.12627767443E+04  0.15294330000E+03 0.  0.
    8880022    1    1    2    0    0 -0.10480087051E+03 -0.33756195269E+03 -0.45795672946E+03  0.59837054860E+03  0.15294330000E+03 0. -1.
<mgrwt>
<rscale>  0 0.38512718E+03</rscale>
<asrwt>0</asrwt>
<pdfrwt beam="1">  1        1 0.85883794E-01 0.38512718E+03</pdfrwt>
<pdfrwt beam="2">  1       -1 0.20044656E+00 0.38512718E+03</pdfrwt>
<totfact> 0.63086656E+00</totfact>
</mgrwt>
</event>
<event>
 4    1  0.4964158E-009  0.8371942E+03  0.7818608E-02  0.9507688E-01
          1   -1    0    0  501    0  0.00000000000E+00  0.00000000000E+00  0.24520146586E+04  0.24520146586E+04  0.50400000000E-02 0. -1.
         -1   -1    0    0    0  501 -0.00000000000E+00 -0.00000000000E+00 -0.31058825047E+03  0.31058825051E+03  0.50400000000E-02 0.  1.
    8880022    1    1    2    0    0 -0.47022255190E+03 -0.67556876489E+03  0.68083249077E+03  0.10790861587E+04  0.15294330000E+03 0.  0.
    8880022    1    1    2    0    0  0.47022255190E+03  0.67556876489E+03  0.14605939173E+04  0.16835167504E+04  0.15294330000E+03 0.  0.
<mgrwt>
<rscale>  0 0.83719416E+03</rscale>
<asrwt>0</asrwt>
<pdfrwt beam="1">  1        1 0.37723302E+00 0.83719416E+03</pdfrwt>
<pdfrwt beam="2">  1       -1 0.47782809E-01 0.83719416E+03</pdfrwt>
<totfact> 0.66602576E+00</totfact>
</mgrwt>
</event>
<event>
 4    1  0.4964158E-009  0.1225063E+04  0.7818608E-02  0.9091198E-01
          1   -1    0    0  501    0  0.00000000000E+00  0.00000000000E+00  0.10518137426E+04  0.10518137426E+04  0.50400000000E-02 0. -1.
         -1   -1    0    0    0  501 -0.00000000000E+00 -0.00000000000E+00 -0.20381185339E+04  0.20381185339E+04  0.50400000000E-02 0.  1.
    8880022    1    1    2    0    0 -0.24928029215E+02  0.12152226244E+04  0.35294571039E+03  0.12748920586E+04  0.15294330000E+03 0.  0.
    8880022    1    1    2    0    0  0.24928029215E+02 -0.12152226244E+04 -0.13392505017E+04  0.18150402180E+04  0.15294330000E+03 0.  0.
<mgrwt>
<rscale>  0 0.12250629E+04</rscale>
<asrwt>0</asrwt>
<pdfrwt beam="1">  1        1 0.16181750E+00 0.12250629E+04</pdfrwt>
<pdfrwt beam="2">  1       -1 0.31355670E+00 0.12250629E+04</pdfrwt>
<totfact> 0.36547578E-01</totfact>
</mgrwt>
</event>
<event>
 4    1  0.4964158E-009  0.3419963E+03  0.7818608E-02  0.1065949E+00
          1   -1    0    0  501    0  0.00000000000E+00  0.00000000000E+00  0.25198277161E+04  0.25198277161E+04  0.50400000000E-02 0. -1.
         -1   -1    0    0    0  501 -0.00000000000E+00 -0.00000000000E+00 -0.23142221749E+03  0.23142221754E+03  0.50400000000E-02 0.  1.
    8880022    1    1    2    0    0  0.26652222061E+03 -0.15011913169E+03 -0.85754842752E+02  0.35258388201E+03  0.15294330000E+03 0.  1.
    8880022    1    1    2    0    0 -0.26652222061E+03  0.15011913169E+03  0.23741603413E+04  0.23986660516E+04  0.15294330000E+03 0.  0.
<mgrwt>
<rscale>  0 0.34199635E+03</rscale>
<asrwt>0</asrwt>
<pdfrwt beam="1">  1        1 0.38766581E+00 0.34199635E+03</pdfrwt>
<pdfrwt beam="2">  1       -1 0.35603417E-01 0.34199635E+03</pdfrwt>
<totfact> 0.11474750E+01</totfact>
</mgrwt>
</event>
<event>
 4    1  0.4964158E-009  0.4590061E+03  0.7818608E-02  0.1025070E+00
          1   -1    0    0  501    0  0.00000000000E+00  0.00000000000E+00  0.30435722558E+04  0.30435722558E+04  0.50400000000E-02 0. -1.
         -1   -1    0    0    0  501 -0.00000000000E+00 -0.00000000000E+00 -0.25968613737E+03  0.25968613742E+03  0.50400000000E-02 0.  1.
    8880022    1    1    2    0    0  0.42094859572E+03 -0.10048499963E+03 -0.22524881164E+02  0.45955846056E+03  0.15294330000E+03 0.  1.
    8880022    1    1    2    0    0 -0.42094859572E+03  0.10048499963E+03  0.28064109996E+04  0.28436999327E+04  0.15294330000E+03 0.  0.
<mgrwt>
<rscale>  0 0.45900611E+03</rscale>
<asrwt>0</asrwt>
<pdfrwt beam="1">  1        1 0.46824189E+00 0.45900611E+03</pdfrwt>
<pdfrwt beam="2">  1       -1 0.39951713E-01 0.45900611E+03</pdfrwt>
<totfact> 0.39042301E+00</totfact>
</mgrwt>
</event>
<event>
 4    1  0.4964158E-009  0.1873508E+03  0.7818608E-02  0.1160873E+00
          1   -1    0    0  501    0  0.00000000000E+00  0.00000000000E+00  0.94605823616E+03  0.94605823618E+03  0.50400000000E-02 0. -1.
         -1   -1    0    0    0  501 -0.00000000000E+00 -0.00000000000E+00 -0.11420813266E+04  0.11420813266E+04  0.50400000000E-02 0.  1.
    8880022    1    1    2    0    0 -0.10759018431E+03 -0.11533497144E+02  0.92895939744E+03  0.94766338138E+03  0.15294330000E+03 0. -1.
    8880022    1    1    2    0    0  0.10759018431E+03  0.11533497144E+02 -0.11249824878E+04  0.11404761814E+04  0.15294330000E+03 0.  0.
<mgrwt>
<rscale>  0 0.18735080E+03</rscale>
<asrwt>0</asrwt>
<pdfrwt beam="1">  1        1 0.14554742E+00 0.18735080E+03</pdfrwt>
<pdfrwt beam="2">  1       -1 0.17570482E+00 0.18735080E+03</pdfrwt>
<totfact> 0.46121895E+00</totfact>
</mgrwt>
</event>
<event>
 4    1  0.4964158E-009  0.1624027E+04  0.7818608E-02  0.8805922E-01
          1   -1    0    0  501    0  0.00000000000E+00  0.00000000000E+00  0.41506933818E+04  0.41506933818E+04  0.50400000000E-02 0. -1.
         -1   -1    0    0    0  501 -0.00000000000E+00 -0.00000000000E+00 -0.98826989419E+03  0.98826989421E+03  0.50400000000E-02 0.  1.
    8880022    1    1    2    0    0  0.23736272496E+03 -0.15992903709E+04  0.45893329956E+02  0.16246749227E+04  0.15294330000E+03 0.  0.
    8880022    1    1    2    0    0 -0.23736272496E+03  0.15992903709E+04  0.31165301576E+04  0.35142883533E+04  0.15294330000E+03 0.  0.
<mgrwt>
<rscale>  0 0.16240266E+04</rscale>
<asrwt>0</asrwt>
<pdfrwt beam="1">  1        1 0.63856821E+00 0.16240266E+04</pdfrwt>
<pdfrwt beam="2">  1       -1 0.15204152E+00 0.16240266E+04</pdfrwt>
<totfact> 0.22385223E-02</totfact>
</mgrwt>
</event>
<event>
 4    1  0.4964158E-009  0.7534140E+03  0.7818608E-02  0.9630010E-01
          1   -1    0    0  501    0  0.00000000000E+00  0.00000000000E+00  0.22916590060E+04  0.22916590060E+04  0.50400000000E-02 0. -1.
         -1   -1    0    0    0  501 -0.00000000000E+00 -0.00000000000E+00 -0.33271985671E+03  0.33271985675E+03  0.50400000000E-02 0.  1.
    8880022    1    1    2    0    0  0.48422014482E+03  0.55657148294E+03  0.16428000859E+04  0.18073252998E+04  0.15294330000E+03 0.  0.
    8880022    1    1    2    0    0 -0.48422014482E+03 -0.55657148294E+03  0.31613906344E+03  0.81705356294E+03  0.15294330000E+03 0.  0.
<mgrwt>
<rscale>  0 0.75341397E+03</rscale>
<asrwt>0</asrwt>
<pdfrwt beam="1">  1        1 0.35256293E+00 0.75341397E+03</pdfrwt>
<pdfrwt beam="2">  1       -1 0.51187670E-01 0.75341397E+03</pdfrwt>
<totfact> 0.76115115E+00</totfact>
</mgrwt>
</event>
<event>
 4    1  0.4964158E-009  0.9200896E+03  0.7818608E-02  0.9400811E-01
          1   -1    0    0  501    0  0.00000000000E+00  0.00000000000E+00  0.10724407582E+04  0.10724407582E+04  0.50400000000E-02 0. -1.
         -1   -1    0    0    0  501 -0.00000000000E+00 -0.00000000000E+00 -0.12722795634E+04  0.12722795634E+04  0.50400000000E-02 0.  1.
    8880022    1    1    2    0    0  0.89172224475E+03  0.16734591493E+03 -0.82218597955E+03  0.12339184151E+04  0.15294330000E+03 0.  0.
    8880022    1    1    2    0    0 -0.89172224475E+03 -0.16734591493E+03  0.62234717435E+03  0.11108019065E+04  0.15294330000E+03 0.  0.
<mgrwt>
<rscale>  0 0.92008960E+03</rscale>
<asrwt>0</asrwt>
<pdfrwt beam="1">  1        1 0.16499089E+00 0.92008960E+03</pdfrwt>
<pdfrwt beam="2">  1       -1 0.19573532E+00 0.92008960E+03</pdfrwt>
<totfact> 0.21761726E+00</totfact>
</mgrwt>
</event>
<event>
 4    1  0.4964158E-009  0.7949378E+03  0.7818608E-02  0.9567374E-01
          1   -1    0    0  501    0  0.00000000000E+00  0.00000000000E+00  0.12620021275E+04  0.12620021275E+04  0.50400000000E-02 0. -1.
         -1   -1    0    0    0  501 -0.00000000000E+00 -0.00000000000E+00 -0.11641191589E+04  0.11641191589E+04  0.50400000000E-02 0.  1.
    8880022    1    1    2    0    0 -0.54061814385E+03 -0.56237571015E+03  0.96467056859E+03  0.12500061503E+04  0.15294330000E+03 0.  0.
    8880022    1    1    2    0    0  0.54061814385E+03  0.56237571015E+03 -0.86678760003E+03  0.11761151361E+04  0.15294330000E+03 0.  0.
<mgrwt>
<rscale>  0 0.79493778E+03</rscale>
<asrwt>0</asrwt>
<pdfrwt beam="1">  1        1 0.19415417E+00 0.79493778E+03</pdfrwt>
<pdfrwt beam="2">  1       -1 0.17909526E+00 0.79493778E+03</pdfrwt>
<totfact> 0.21089301E+00</totfact>
</mgrwt>
</event>
<event>
 4    1  0.4964158E-009  0.1528721E+04  0.7818608E-02  0.8865575E-01
         -1   -1    0    0    0  501 -0.00000000000E+00  0.00000000000E+00  0.96675391885E+03  0.96675391886E+03  0.50400000000E-02 0.  1.
          1   -1    0    0  501    0  0.00000000000E+00 -0.00000000000E+00 -0.25858232779E+04  0.25858232779E+04  0.50400000000E-02 0. -1.
    8880022    1    1    2    0    0  0.14927248306E+04 -0.29217961168E+03 -0.35614419165E+03  0.15696581423E+04  0.15294330000E+03 0.  0.
    8880022    1    1    2    0    0 -0.14927248306E+04  0.29217961168E+03 -0.12629251674E+04  0.19829190545E+04  0.15294330000E+03 0.  0.
<mgrwt>
<rscale>  0 0.15287210E+04</rscale>
<asrwt>0</asrwt>
<pdfrwt beam="1">  1        1 0.39781896E+00 0.15287210E+04</pdfrwt>
<pdfrwt beam="2">  1       -1 0.14873137E+00 0.15287210E+04</pdfrwt>
<totfact> 0.39914910E-01</totfact>
</mgrwt>
</event>
<event>
 4    1  0.6689104E-009  0.8911829E+03  0.7818608E-02  0.9436671E-01
          1   -1    0    0  501    0  0.00000000000E+00  0.00000000000E+00  0.13422704011E+04  0.13422704011E+04  0.50400000000E-02 0. -1.
         -1   -1    0    0    0  501 -0.00000000000E+00 -0.00000000000E+00 -0.19684735506E+04  0.19684735506E+04  0.50400000000E-02 0.  1.
    8880022    1    1    2    0    0  0.80820017467E+03 -0.34296908027E+03  0.10713053390E+04  0.13935214727E+04  0.15294330000E+03 0.  0.
    8880022    1    1    2    0    0 -0.80820017467E+03  0.34296908027E+03 -0.16975084885E+04  0.19172224790E+04  0.15294330000E+03 0.  0.
<mgrwt>
<rscale>  0 0.89118290E+03</rscale>
<asrwt>0</asrwt>
<pdfrwt beam="1">  1        1 0.20650314E+00 0.89118290E+03</pdfrwt>
<pdfrwt beam="2">  1       -1 0.30284208E+00 0.89118290E+03</pdfrwt>
<totfact> 0.27702831E-01</totfact>
</mgrwt>
</event>
<event>
 4    1  0.4964158E-009  0.3195141E+03  0.7818608E-02  0.1075873E+00
          1   -1    0    0  501    0  0.00000000000E+00  0.00000000000E+00  0.93501948542E+03  0.93501948544E+03  0.50400000000E-02 0. -1.
         -1   -1    0    0    0  501 -0.00000000000E+00 -0.00000000000E+00 -0.26618340820E+03  0.26618340825E+03  0.50400000000E-02 0.  1.
    8880022    1    1    2    0    0  0.27880436356E+03 -0.31076299729E+02 -0.12684085232E+03  0.34377007488E+03  0.15294330000E+03 0.  0.
    8880022    1    1    2    0    0 -0.27880436356E+03  0.31076299729E+02  0.79567692955E+03  0.85743281881E+03  0.15294330000E+03 0. -1.
<mgrwt>
<rscale>  0 0.31951410E+03</rscale>
<asrwt>0</asrwt>
<pdfrwt beam="1">  1        1 0.14384915E+00 0.31951410E+03</pdfrwt>
<pdfrwt beam="2">  1       -1 0.40951294E-01 0.31951410E+03</pdfrwt>
<totfact> 0.10647385E+02</totfact>
</mgrwt>
</event>
<event>
 4    1  0.4964158E-009  0.8278888E+03  0.7818608E-02  0.9520504E-01
         -1   -1    0    0    0  501 -0.00000000000E+00  0.00000000000E+00  0.78877715892E+03  0.78877715893E+03  0.50400000000E-02 0.  1.
          1   -1    0    0  501    0  0.00000000000E+00 -0.00000000000E+00 -0.18679125032E+04  0.18679125032E+04  0.50400000000E-02 0. -1.
    8880022    1    1    2    0    0 -0.27751790475E+03 -0.76484773617E+03  0.43185753155E+03  0.93375629987E+03  0.15294330000E+03 0.  0.
    8880022    1    1    2    0    0  0.27751790475E+03  0.76484773617E+03 -0.15109928758E+04  0.17229333622E+04  0.15294330000E+03 0.  0.
<mgrwt>
<rscale>  0 0.82788882E+03</rscale>
<asrwt>0</asrwt>
<pdfrwt beam="1">  1        1 0.28737115E+00 0.82788882E+03</pdfrwt>
<pdfrwt beam="2">  1       -1 0.12135033E+00 0.82788882E+03</pdfrwt>
<totfact> 0.22874022E+00</totfact>
</mgrwt>
</event>
<event>
 4    1  0.4964158E-009  0.6333089E+03  0.7818608E-02  0.9838613E-01
          1   -1    0    0  501    0  0.00000000000E+00  0.00000000000E+00  0.18600247405E+04  0.18600247405E+04  0.50400000000E-02 0. -1.
         -1   -1    0    0    0  501 -0.00000000000E+00 -0.00000000000E+00 -0.10215242733E+04  0.10215242733E+04  0.50400000000E-02 0.  1.
    8880022    1    1    2    0    0  0.61125623268E+03 -0.63673752039E+02  0.16989564027E+04  0.18131555477E+04  0.15294330000E+03 0.  0.
    8880022    1    1    2    0    0 -0.61125623268E+03  0.63673752039E+02 -0.86045593548E+03  0.10683934662E+04  0.15294330000E+03 0.  0.
<mgrwt>
<rscale>  0 0.63330891E+03</rscale>
<asrwt>0</asrwt>
<pdfrwt beam="1">  1        1 0.28615765E+00 0.63330891E+03</pdfrwt>
<pdfrwt beam="2">  1       -1 0.15715758E+00 0.63330891E+03</pdfrwt>
<totfact> 0.12347927E+00</totfact>
</mgrwt>
</event>
<event>
 4    1  0.4964158E-009  0.1572253E+04  0.7818608E-02  0.8837778E-01
         -1   -1    0    0    0  501 -0.00000000000E+00  0.00000000000E+00  0.11915499539E+04  0.11915499539E+04  0.50400000000E-02 0.  1.
          1   -1    0    0  501    0  0.00000000000E+00 -0.00000000000E+00 -0.23468499502E+04  0.23468499502E+04  0.50400000000E-02 0. -1.
    8880022    1    1    2    0    0 -0.94117877704E+03  0.12501077239E+04  0.24945068012E+02  0.15724505465E+04  0.15294330000E+03 0.  0.
    8880022    1    1    2    0    0  0.94117877704E+03 -0.12501077239E+04 -0.11802450643E+04  0.19659493576E+04  0.15294330000E+03 0.  0.
<mgrwt>
<rscale>  0 0.15722527E+04</rscale>
<asrwt>0</asrwt>
<pdfrwt beam="1">  1        1 0.36105384E+00 0.15722527E+04</pdfrwt>
<pdfrwt beam="2">  1       -1 0.18331538E+00 0.15722527E+04</pdfrwt>
<totfact> 0.31970122E-01</totfact>
</mgrwt>
</event>
<event>
 4    1  0.4964158E-009  0.4361634E+03  0.7818608E-02  0.1031931E+00
          1   -1    0    0  501    0  0.00000000000E+00  0.00000000000E+00  0.98775325919E+03  0.98775325920E+03  0.50400000000E-02 0. -1.
         -1   -1    0    0    0  501 -0.00000000000E+00 -0.00000000000E+00 -0.94594575439E+03  0.94594575441E+03  0.50400000000E-02 0.  1.
    8880022    1    1    2    0    0  0.40823823657E+03 -0.13725343878E+02  0.88373079489E+03  0.98550424338E+03  0.15294330000E+03 0.  0.
    8880022    1    1    2    0    0 -0.40823823657E+03  0.13725343878E+02 -0.84192329010E+03  0.94819477023E+03  0.15294330000E+03 0.  0.
<mgrwt>
<rscale>  0 0.43616338E+03</rscale>
<asrwt>0</asrwt>
<pdfrwt beam="1">  1        1 0.15196204E+00 0.43616338E+03</pdfrwt>
<pdfrwt beam="2">  1       -1 0.14553012E+00 0.43616338E+03</pdfrwt>
<totfact> 0.64480829E+00</totfact>
</mgrwt>
</event>
<event>
 4    1  0.4964158E-009  0.8831062E+03  0.7818608E-02  0.9446949E-01
          1   -1    0    0  501    0  0.00000000000E+00  0.00000000000E+00  0.19904367053E+04  0.19904367053E+04  0.50400000000E-02 0. -1.
         -1   -1    0    0    0  501 -0.00000000000E+00 -0.00000000000E+00 -0.93205947558E+03  0.93205947559E+03  0.50400000000E-02 0.  1.
    8880022    1    1    2    0    0 -0.62368161349E+03 -0.60622289019E+03  0.16416849646E+04  0.18641368307E+04  0.15294330000E+03 0.  0.
    8880022    1    1    2    0    0  0.62368161349E+03  0.60622289019E+03 -0.58330773486E+03  0.10583593502E+04  0.15294330000E+03 0.  0.
<mgrwt>
<rscale>  0 0.88310622E+03</rscale>
<asrwt>0</asrwt>
<pdfrwt beam="1">  1        1 0.30622103E+00 0.88310622E+03</pdfrwt>
<pdfrwt beam="2">  1       -1 0.14339377E+00 0.88310622E+03</pdfrwt>
<totfact> 0.12266019E+00</totfact>
</mgrwt>
</event>
<event>
 4    1  0.4964158E-009  0.7088165E+03  0.7818608E-02  0.9702272E-01
         -1   -1    0    0    0  501 -0.00000000000E+00  0.00000000000E+00  0.23541815467E+04  0.23541815467E+04  0.50400000000E-02 0.  1.
          1   -1    0    0  501    0  0.00000000000E+00 -0.00000000000E+00 -0.64410625446E+03  0.64410625448E+03  0.50400000000E-02 0. -1.
    8880022    1    1    2    0    0 -0.60908177434E+03  0.32870752531E+03  0.20809146436E+04  0.21983236004E+04  0.15294330000E+03 0.  0.
    8880022    1    1    2    0    0  0.60908177434E+03 -0.32870752531E+03 -0.37083935136E+03  0.79996420080E+03  0.15294330000E+03 0. -1.
<mgrwt>
<rscale>  0 0.70881655E+03</rscale>
<asrwt>0</asrwt>
<pdfrwt beam="1">  1        1 0.99093268E-01 0.70881655E+03</pdfrwt>
<pdfrwt beam="2">  1       -1 0.36218178E+00 0.70881655E+03</pdfrwt>
<totfact> 0.42948776E-01</totfact>
</mgrwt>
</event>
<event>
 4    1  0.4964158E-009  0.5416471E+03  0.7818608E-02  0.1003446E+00
         -1   -1    0    0    0  501 -0.00000000000E+00  0.00000000000E+00  0.12885584321E+03  0.12885584331E+03  0.50400000000E-02 0.  1.
          1   -1    0    0  501    0  0.00000000000E+00 -0.00000000000E+00 -0.26792009119E+04  0.26792009119E+04  0.50400000000E-02 0. -1.
    8880022    1    1    2    0    0 -0.10968439278E+03 -0.50789687747E+03 -0.18192890972E+04  0.18982082015E+04  0.15294330000E+03 0.  0.
    8880022    1    1    2    0    0  0.10968439278E+03  0.50789687747E+03 -0.73105597151E+03  0.90984855369E+03  0.15294330000E+03 0.  0.
<mgrwt>
<rscale>  0 0.54164708E+03</rscale>
<asrwt>0</asrwt>
<pdfrwt beam="1">  1        1 0.41218471E+00 0.54164708E+03</pdfrwt>
<pdfrwt beam="2">  1       -1 0.19823978E-01 0.54164708E+03</pdfrwt>
<totfact> 0.22934242E+01</totfact>
</mgrwt>
</event>
<event>
 4    1  0.4964158E-009  0.9371390E+03  0.7818608E-02  0.9380311E-01
          1   -1    0    0  501    0  0.00000000000E+00  0.00000000000E+00  0.35459905529E+04  0.35459905529E+04  0.50400000000E-02 0. -1.
         -1   -1    0    0    0  501 -0.00000000000E+00 -0.00000000000E+00 -0.32659087143E+03  0.32659087147E+03  0.50400000000E-02 0.  1.
    8880022    1    1    2    0    0  0.37553969590E+03 -0.84487146688E+03  0.25615511435E+04  0.27275948696E+04  0.15294330000E+03 0.  0.
    8880022    1    1    2    0    0 -0.37553969590E+03  0.84487146688E+03  0.65784853796E+03  0.11449865548E+04  0.15294330000E+03 0.  0.
<mgrwt>
<rscale>  0 0.93713900E+03</rscale>
<asrwt>0</asrwt>
<pdfrwt beam="1">  1        1 0.54553702E+00 0.93713900E+03</pdfrwt>
<pdfrwt beam="2">  1       -1 0.50244748E-01 0.93713900E+03</pdfrwt>
<totfact> 0.96141503E-01</totfact>
</mgrwt>
</event>
<event>
 4    1  0.4964158E-009  0.4741940E+03  0.7818608E-02  0.1020743E+00
          1   -1    0    0  501    0  0.00000000000E+00  0.00000000000E+00  0.32040570538E+04  0.32040570538E+04  0.50400000000E-02 0. -1.
         -1   -1    0    0    0  501 -0.00000000000E+00 -0.00000000000E+00 -0.33364859816E+03  0.33364859820E+03  0.50400000000E-02 0.  1.
    8880022    1    1    2    0    0  0.24175319266E+02  0.44820072712E+03  0.30070562802E+04  0.30442154101E+04  0.15294330000E+03 0.  0.
    8880022    1    1    2    0    0 -0.24175319266E+02 -0.44820072712E+03 -0.13664782458E+03  0.49349024188E+03  0.15294330000E+03 0.  0.
<mgrwt>
<rscale>  0 0.47419404E+03</rscale>
<asrwt>0</asrwt>
<pdfrwt beam="1">  1        1 0.49293185E+00 0.47419404E+03</pdfrwt>
<pdfrwt beam="2">  1       -1 0.51330554E-01 0.47419404E+03</pdfrwt>
<totfact> 0.18748479E+00</totfact>
</mgrwt>
</event>
<event>
 4    1  0.4964158E-009  0.5917438E+03  0.7818608E-02  0.9922685E-01
         -1   -1    0    0    0  501 -0.00000000000E+00  0.00000000000E+00  0.76825258570E+03  0.76825258572E+03  0.50400000000E-02 0.  1.
          1   -1    0    0  501    0  0.00000000000E+00 -0.00000000000E+00 -0.50991139892E+03  0.50991139894E+03  0.50400000000E-02 0. -1.
    8880022    1    1    2    0    0  0.67924926550E+02 -0.56758725387E+03  0.33737959724E+03  0.68116498152E+03  0.15294330000E+03 0.  0.
    8880022    1    1    2    0    0 -0.67924926550E+02  0.56758725387E+03 -0.79038410460E+02  0.59699900314E+03  0.15294330000E+03 0.  0.
<mgrwt>
<rscale>  0 0.59174381E+03</rscale>
<asrwt>0</asrwt>
<pdfrwt beam="1">  1        1 0.78447908E-01 0.59174381E+03</pdfrwt>
<pdfrwt beam="2">  1       -1 0.11819270E+00 0.59174381E+03</pdfrwt>
<totfact> 0.28883373E+01</totfact>
</mgrwt>
</event>
<event>
 4    1  0.4964158E-009  0.1691251E+04  0.7818608E-02  0.8766370E-01
          1   -1    0    0  501    0  0.00000000000E+00  0.00000000000E+00  0.34312086418E+04  0.34312086418E+04  0.50400000000E-02 0. -1.
         -1   -1    0    0    0  501 -0.00000000000E+00 -0.00000000000E+00 -0.98722234489E+03  0.98722234490E+03  0.50400000000E-02 0.  1.
    8880022    1    1    2    0    0  0.16679149081E+04  0.23451509239E+03  0.35057326458E+03  0.17272031543E+04  0.15294330000E+03 0.  0.
    8880022    1    1    2    0    0 -0.16679149081E+04 -0.23451509239E+03  0.20934130323E+04  0.26912278325E+04  0.15294330000E+03 0.  0.
<mgrwt>
<rscale>  0 0.16912508E+04</rscale>
<asrwt>0</asrwt>
<pdfrwt beam="1">  1        1 0.52787826E+00 0.16912508E+04</pdfrwt>
<pdfrwt beam="2">  1       -1 0.15188036E+00 0.16912508E+04</pdfrwt>
<totfact> 0.89015239E-02</totfact>
</mgrwt>
</event>
<event>
 4    1  0.4964158E-009  0.2819930E+03  0.7818608E-02  0.1094605E+00
          1   -1    0    0  501    0  0.00000000000E+00  0.00000000000E+00  0.83570735213E+03  0.83570735215E+03  0.50400000000E-02 0. -1.
         -1   -1    0    0    0  501 -0.00000000000E+00 -0.00000000000E+00 -0.94509660818E+03  0.94509660820E+03  0.50400000000E-02 0.  1.
    8880022    1    1    2    0    0  0.19619908262E+03 -0.13279437089E+03 -0.89908459816E+03  0.94227023334E+03  0.15294330000E+03 0.  0.
    8880022    1    1    2    0    0 -0.19619908262E+03  0.13279437089E+03  0.78969534211E+03  0.83853372701E+03  0.15294330000E+03 0. -1.
<mgrwt>
<rscale>  0 0.28199305E+03</rscale>
<asrwt>0</asrwt>
<pdfrwt beam="1">  1        1 0.12857036E+00 0.28199305E+03</pdfrwt>
<pdfrwt beam="2">  1       -1 0.14539948E+00 0.28199305E+03</pdfrwt>
<totfact> 0.89559157E+00</totfact>
</mgrwt>
</event>
<event>
 4    1  0.4964158E-009  0.5091993E+03  0.7818608E-02  0.1011405E+00
         -1   -1    0    0    0  501 -0.00000000000E+00  0.00000000000E+00  0.10554349524E+04  0.10554349524E+04  0.50400000000E-02 0.  1.
          1   -1    0    0  501    0  0.00000000000E+00 -0.00000000000E+00 -0.42108260234E+03  0.42108260237E+03  0.50400000000E-02 0. -1.
    8880022    1    1    2    0    0 -0.43723509615E+03 -0.21146576293E+03  0.79367402039E+03  0.94297529228E+03  0.15294330000E+03 0.  0.
    8880022    1    1    2    0    0  0.43723509615E+03  0.21146576293E+03 -0.15932167035E+03  0.53354226248E+03  0.15294330000E+03 0.  0.
<mgrwt>
<rscale>  0 0.50919932E+03</rscale>
<asrwt>0</asrwt>
<pdfrwt beam="1">  1        1 0.64781939E-01 0.50919932E+03</pdfrwt>
<pdfrwt beam="2">  1       -1 0.16237461E+00 0.50919932E+03</pdfrwt>
<totfact> 0.16661524E+01</totfact>
</mgrwt>
</event>
<event>
 4    1  0.4964158E-009  0.9959674E+03  0.7818608E-02  0.9312979E-01
         -1   -1    0    0    0  501 -0.00000000000E+00  0.00000000000E+00  0.80609064248E+03  0.80609064250E+03  0.50400000000E-02 0.  1.
          1   -1    0    0  501    0  0.00000000000E+00 -0.00000000000E+00 -0.15298601741E+04  0.15298601741E+04  0.50400000000E-02 0. -1.
    8880022    1    1    2    0    0 -0.95619420598E+03 -0.23292050502E+03 -0.87848434450E+03  0.13280382968E+04  0.15294330000E+03 0.  0.
    8880022    1    1    2    0    0  0.95619420598E+03  0.23292050502E+03  0.15471481291E+03  0.10079125198E+04  0.15294330000E+03 0.  0.
<mgrwt>
<rscale>  0 0.99596736E+03</rscale>
<asrwt>0</asrwt>
<pdfrwt beam="1">  1        1 0.23536310E+00 0.99596736E+03</pdfrwt>
<pdfrwt beam="2">  1       -1 0.12401394E+00 0.99596736E+03</pdfrwt>
<totfact> 0.35822343E+00</totfact>
</mgrwt>
</event>
<event>
 4    1  0.4964158E-009  0.1026391E+04  0.7818608E-02  0.9280064E-01
         -1   -1    0    0    0  501 -0.00000000000E+00  0.00000000000E+00  0.11293858703E+04  0.11293858703E+04  0.50400000000E-02 0.  1.
          1   -1    0    0  501    0  0.00000000000E+00 -0.00000000000E+00 -0.14391484495E+04  0.14391484495E+04  0.50400000000E-02 0. -1.
    8880022    1    1    2    0    0 -0.20618534547E+03  0.99376783922E+03  0.60690314794E+03  0.11923967456E+04  0.15294330000E+03 0.  0.
    8880022    1    1    2    0    0  0.20618534547E+03 -0.99376783922E+03 -0.91666572716E+03  0.13761375743E+04  0.15294330000E+03 0.  0.
<mgrwt>
<rscale>  0 0.10263910E+04</rscale>
<asrwt>0</asrwt>
<pdfrwt beam="1">  1        1 0.22140746E+00 0.10263910E+04</pdfrwt>
<pdfrwt beam="2">  1       -1 0.17375167E+00 0.10263910E+04</pdfrwt>
<totfact> 0.16689511E+00</totfact>
</mgrwt>
</event>
<event>
 4    1  0.4964158E-009  0.1050837E+04  0.7818608E-02  0.9254480E-01
          1   -1    0    0  501    0  0.00000000000E+00  0.00000000000E+00  0.16686688076E+04  0.16686688076E+04  0.50400000000E-02 0. -1.
         -1   -1    0    0    0  501 -0.00000000000E+00 -0.00000000000E+00 -0.69905668911E+03  0.69905668913E+03  0.50400000000E-02 0.  1.
    8880022    1    1    2    0    0  0.25820912120E+02  0.10393270396E+04  0.21135631919E+03  0.10718817851E+04  0.15294330000E+03 0.  0.
    8880022    1    1    2    0    0 -0.25820912120E+02 -0.10393270396E+04  0.75825579926E+03  0.12958437116E+04  0.15294330000E+03 0.  0.
<mgrwt>
<rscale>  0 0.10508373E+04</rscale>
<asrwt>0</asrwt>
<pdfrwt beam="1">  1        1 0.25671828E+00 0.10508373E+04</pdfrwt>
<pdfrwt beam="2">  1       -1 0.10754718E+00 0.10508373E+04</pdfrwt>
<totfact> 0.40330202E+00</totfact>
</mgrwt>
</event>
<event>
 4    1  0.4964158E-009  0.9632020E+03  0.7818608E-02  0.9349851E-01
         -1   -1    0    0    0  501 -0.00000000000E+00  0.00000000000E+00  0.12301494689E+04  0.12301494689E+04  0.50400000000E-02 0.  1.
          1   -1    0    0  501    0  0.00000000000E+00 -0.00000000000E+00 -0.78797249562E+03  0.78797249564E+03  0.50400000000E-02 0. -1.
    8880022    1    1    2    0    0 -0.16829772866E+03  0.93597136937E+03  0.43004255318E+03  0.10548434862E+04  0.15294330000E+03 0.  0.
    8880022    1    1    2    0    0  0.16829772866E+03 -0.93597136937E+03  0.12134420102E+02  0.96327847839E+03  0.15294330000E+03 0.  0.
<mgrwt>
<rscale>  0 0.96320205E+03</rscale>
<asrwt>0</asrwt>
<pdfrwt beam="1">  1        1 0.12122654E+00 0.96320205E+03</pdfrwt>
<pdfrwt beam="2">  1       -1 0.18925376E+00 0.96320205E+03</pdfrwt>
<totfact> 0.40830857E+00</totfact>
</mgrwt>
</event>
<event>
 4    1  0.4964158E-009  0.8873739E+03  0.7818608E-02  0.9441504E-01
         -1   -1    0    0    0  501 -0.00000000000E+00  0.00000000000E+00  0.84403279360E+03  0.84403279362E+03  0.50400000000E-02 0.  1.
          1   -1    0    0  501    0  0.00000000000E+00 -0.00000000000E+00 -0.15002485802E+04  0.15002485802E+04  0.50400000000E-02 0. -1.
    8880022    1    1    2    0    0  0.44226786035E+03  0.75394952266E+03 -0.10488959882E+04  0.13739050877E+04  0.15294330000E+03 0.  0.
    8880022    1    1    2    0    0 -0.44226786035E+03 -0.75394952266E+03  0.39268020154E+03  0.97037628615E+03  0.15294330000E+03 0.  0.
<mgrwt>
<rscale>  0 0.88737388E+03</rscale>
<asrwt>0</asrwt>
<pdfrwt beam="1">  1        1 0.23080747E+00 0.88737388E+03</pdfrwt>
<pdfrwt beam="2">  1       -1 0.12985120E+00 0.88737388E+03</pdfrwt>
<totfact> 0.33960568E+00</totfact>
</mgrwt>
</event>
<event>
 4    1  0.4964158E-009  0.6333718E+03  0.7818608E-02  0.9838491E-01
         -1   -1    0    0    0  501 -0.00000000000E+00  0.00000000000E+00  0.31200788313E+03  0.31200788317E+03  0.50400000000E-02 0.  1.
          1   -1    0    0  501    0  0.00000000000E+00 -0.00000000000E+00 -0.14852330326E+04  0.14852330326E+04  0.50400000000E-02 0. -1.
    8880022    1    1    2    0    0 -0.61437053396E+03  0.17805845289E+02 -0.25727072525E+03  0.68362861278E+03  0.15294330000E+03 0.  0.
    8880022    1    1    2    0    0  0.61437053396E+03 -0.17805845289E+02 -0.91595442419E+03  0.11136123030E+04  0.15294330000E+03 0.  0.
<mgrwt>
<rscale>  0 0.63337181E+03</rscale>
<asrwt>0</asrwt>
<pdfrwt beam="1">  1        1 0.22849739E+00 0.63337181E+03</pdfrwt>
<pdfrwt beam="2">  1       -1 0.48001213E-01 0.63337181E+03</pdfrwt>
<totfact> 0.30440237E+01</totfact>
</mgrwt>
</event>
<event>
 4    1  0.4964158E-009  0.7061184E+03  0.7818608E-02  0.9706826E-01
          1   -1    0    0  501    0  0.00000000000E+00  0.00000000000E+00  0.20221960260E+04  0.20221960260E+04  0.50400000000E-02 0. -1.
         -1   -1    0    0    0  501 -0.00000000000E+00 -0.00000000000E+00 -0.89336662054E+03  0.89336662055E+03  0.50400000000E-02 0.  1.
    8880022    1    1    2    0    0 -0.11833709145E+03 -0.67912284549E+03 -0.67598885991E+03  0.97752958943E+03  0.15294330000E+03 0.  0.
    8880022    1    1    2    0    0  0.11833709145E+03  0.67912284549E+03  0.18048182654E+04  0.19380330572E+04  0.15294330000E+03 0.  0.
<mgrwt>
<rscale>  0 0.70611837E+03</rscale>
<asrwt>0</asrwt>
<pdfrwt beam="1">  1        1 0.31110708E+00 0.70611837E+03</pdfrwt>
<pdfrwt beam="2">  1       -1 0.13744102E+00 0.70611837E+03</pdfrwt>
<totfact> 0.13509670E+00</totfact>
</mgrwt>
</event>
<event>
 4    1  0.4964158E-009  0.1860033E+04  0.7818608E-02  0.8675010E-01
         -1   -1    0    0    0  501 -0.00000000000E+00  0.00000000000E+00  0.14740385365E+04  0.14740385365E+04  0.50400000000E-02 0.  1.
          1   -1    0    0  501    0  0.00000000000E+00 -0.00000000000E+00 -0.42398123177E+04  0.42398123177E+04  0.50400000000E-02 0. -1.
    8880022    1    1    2    0    0 -0.17942943352E+04  0.46565926758E+03  0.52594369468E+03  0.19329612354E+04  0.15294330000E+03 0.  0.
    8880022    1    1    2    0    0  0.17942943352E+04 -0.46565926758E+03 -0.32917174759E+04  0.37808896187E+04  0.15294330000E+03 0.  0.
<mgrwt>
<rscale>  0 0.18600329E+04</rscale>
<asrwt>0</asrwt>
<pdfrwt beam="1">  1        1 0.65227881E+00 0.18600329E+04</pdfrwt>
<pdfrwt beam="2">  1       -1 0.22677516E+00 0.18600329E+04</pdfrwt>
<totfact> 0.52372146E-03</totfact>
</mgrwt>
</event>
<event>
 4    1  0.4964158E-009  0.1055076E+04  0.7818608E-02  0.9250119E-01
         -1   -1    0    0    0  501 -0.00000000000E+00  0.00000000000E+00  0.13569088544E+04  0.13569088544E+04  0.50400000000E-02 0.  1.
          1   -1    0    0  501    0  0.00000000000E+00 -0.00000000000E+00 -0.15135704872E+04  0.15135704873E+04  0.50400000000E-02 0. -1.
    8880022    1    1    2    0    0 -0.17860880991E+03 -0.10285388577E+04 -0.10496198052E+04  0.14882495346E+04  0.15294330000E+03 0.  0.
    8880022    1    1    2    0    0  0.17860880991E+03  0.10285388577E+04  0.89295817233E+03  0.13822298070E+04  0.15294330000E+03 0.  0.
<mgrwt>
<rscale>  0 0.10550758E+04</rscale>
<asrwt>0</asrwt>
<pdfrwt beam="1">  1        1 0.23285700E+00 0.10550758E+04</pdfrwt>
<pdfrwt beam="2">  1       -1 0.20875521E+00 0.10550758E+04</pdfrwt>
<totfact> 0.83870970E-01</totfact>
</mgrwt>
</event>
<event>
 4    1  0.4964158E-009  0.7254580E+03  0.7818608E-02  0.9674659E-01
          1   -1    0    0  501    0  0.00000000000E+00  0.00000000000E+00  0.19988065942E+04  0.19988065942E+04  0.50400000000E-02 0. -1.
         -1   -1    0    0    0  501 -0.00000000000E+00 -0.00000000000E+00 -0.58300454239E+03  0.58300454241E+03  0.50400000000E-02 0.  1.
    8880022    1    1    2    0    0 -0.14576373087E+03  0.69401055262E+03 -0.24804129455E+03  0.76669019115E+03  0.15294330000E+03 0.  0.
    8880022    1    1    2    0    0  0.14576373087E+03 -0.69401055262E+03  0.16638433463E+04  0.18151209454E+04  0.15294330000E+03 0.  0.
<mgrwt>
<rscale>  0 0.72545804E+03</rscale>
<asrwt>0</asrwt>
<pdfrwt beam="1">  1        1 0.30750871E+00 0.72545804E+03</pdfrwt>
<pdfrwt beam="2">  1       -1 0.89693006E-01 0.72545804E+03</pdfrwt>
<totfact> 0.38370772E+00</totfact>
</mgrwt>
</event>
<event>
 4    1  0.4964158E-009  0.6101454E+03  0.7818608E-02  0.9884578E-01
          1   -1    0    0  501    0  0.00000000000E+00  0.00000000000E+00  0.14614322176E+04  0.14614322176E+04  0.50400000000E-02 0. -1.
         -1   -1    0    0    0  501 -0.00000000000E+00 -0.00000000000E+00 -0.31635213145E+03  0.31635213149E+03  0.50400000000E-02 0.  1.
    8880022    1    1    2    0    0 -0.37908409618E+03  0.45296904606E+03  0.18024228757E+03  0.63621116299E+03  0.15294330000E+03 0.  0.
    8880022    1    1    2    0    0  0.37908409618E+03 -0.45296904606E+03  0.96483779862E+03  0.11415731861E+04  0.15294330000E+03 0.  0.
<mgrwt>
<rscale>  0 0.61014536E+03</rscale>
<asrwt>0</asrwt>
<pdfrwt beam="1">  1        1 0.22483573E+00 0.61014536E+03</pdfrwt>
<pdfrwt beam="2">  1       -1 0.48669558E-01 0.61014536E+03</pdfrwt>
<totfact> 0.30897913E+01</totfact>
</mgrwt>
</event>
<event>
 4    1  0.4964158E-009  0.8633788E+03  0.7818608E-02  0.9472554E-01
         -1   -1    0    0    0  501 -0.00000000000E+00  0.00000000000E+00  0.25758356500E+04  0.25758356500E+04  0.50400000000E-02 0.  1.
          1   -1    0    0  501    0  0.00000000000E+00 -0.00000000000E+00 -0.11709265665E+04  0.11709265665E+04  0.50400000000E-02 0. -1.
    8880022    1    1    2    0    0  0.66057214519E+03  0.53448634806E+03  0.23279333104E+04  0.24828806589E+04  0.15294330000E+03 0.  0.
    8880022    1    1    2    0    0 -0.66057214519E+03 -0.53448634806E+03 -0.92302422693E+03  0.12638815577E+04  0.15294330000E+03 0.  0.
<mgrwt>
<rscale>  0 0.86337875E+03</rscale>
<asrwt>0</asrwt>
<pdfrwt beam="1">  1        1 0.18014255E+00 0.86337875E+03</pdfrwt>
<pdfrwt beam="2">  1       -1 0.39628241E+00 0.86337875E+03</pdfrwt>
<totfact> 0.89872852E-02</totfact>
</mgrwt>
</event>
<event>
 4    1  0.4964158E-009  0.8305264E+03  0.7818608E-02  0.9516853E-01
          1   -1    0    0  501    0  0.00000000000E+00  0.00000000000E+00  0.94011410032E+03  0.94011410033E+03  0.50400000000E-02 0. -1.
         -1   -1    0    0    0  501 -0.00000000000E+00 -0.00000000000E+00 -0.13352350873E+04  0.13352350873E+04  0.50400000000E-02 0.  1.
    8880022    1    1    2    0    0  0.35327194189E+03  0.73592210757E+03 -0.96115875556E+03  0.12702756472E+04  0.15294330000E+03 0.  0.
    8880022    1    1    2    0    0 -0.35327194189E+03 -0.73592210757E+03  0.56603776857E+03  0.10050735405E+04  0.15294330000E+03 0.  0.
<mgrwt>
<rscale>  0 0.83052638E+03</rscale>
<asrwt>0</asrwt>
<pdfrwt beam="1">  1        1 0.14463294E+00 0.83052638E+03</pdfrwt>
<pdfrwt beam="2">  1       -1 0.20542078E+00 0.83052638E+03</pdfrwt>
<totfact> 0.23986554E+00</totfact>
</mgrwt>
</event>
<event>
 4    1  0.4964158E-009  0.9057288E+03  0.7818608E-02  0.9418448E-01
          1   -1    0    0  501    0  0.00000000000E+00  0.00000000000E+00  0.13757126325E+04  0.13757126325E+04  0.50400000000E-02 0. -1.
         -1   -1    0    0    0  501 -0.00000000000E+00 -0.00000000000E+00 -0.14907777073E+04  0.14907777073E+04  0.50400000000E-02 0.  1.
    8880022    1    1    2    0    0 -0.41449019155E+03 -0.79066485524E+03 -0.11677230831E+04  0.14778098267E+04  0.15294330000E+03 0.  0.
    8880022    1    1    2    0    0  0.41449019155E+03  0.79066485524E+03  0.10526580082E+04  0.13886805131E+04  0.15294330000E+03 0.  0.
<mgrwt>
<rscale>  0 0.90572881E+03</rscale>
<asrwt>0</asrwt>
<pdfrwt beam="1">  1        1 0.21164810E+00 0.90572881E+03</pdfrwt>
<pdfrwt beam="2">  1       -1 0.22935042E+00 0.90572881E+03</pdfrwt>
<totfact> 0.78015288E-01</totfact>
</mgrwt>
</event>
<event>
 4    1  0.4964158E-009  0.5672641E+03  0.7818608E-02  0.9975751E-01
          1   -1    0    0  501    0  0.00000000000E+00  0.00000000000E+00  0.20901901668E+04  0.20901901668E+04  0.50400000000E-02 0. -1.
         -1   -1    0    0    0  501 -0.00000000000E+00 -0.00000000000E+00 -0.18050741700E+03  0.18050741707E+03  0.50400000000E-02 0.  1.
    8880022    1    1    2    0    0 -0.43323229714E+03  0.33272605294E+03  0.51936949582E+03  0.76911193970E+03  0.15294330000E+03 0.  0.
    8880022    1    1    2    0    0  0.43323229714E+03 -0.33272605294E+03  0.13903132540E+04  0.15015856442E+04  0.15294330000E+03 0.  0.
<mgrwt>
<rscale>  0 0.56726405E+03</rscale>
<asrwt>0</asrwt>
<pdfrwt beam="1">  1        1 0.32156774E+00 0.56726405E+03</pdfrwt>
<pdfrwt beam="2">  1       -1 0.27770370E-01 0.56726405E+03</pdfrwt>
<totfact> 0.32253106E+01</totfact>
</mgrwt>
</event>
<event>
 4    1  0.4964158E-009  0.1183211E+04  0.7818608E-02  0.9127680E-01
         -1   -1    0    0    0  501 -0.00000000000E+00  0.00000000000E+00  0.14449856107E+04  0.14449856108E+04  0.50400000000E-02 0.  1.
          1   -1    0    0  501    0  0.00000000000E+00 -0.00000000000E+00 -0.12385731813E+04  0.12385731813E+04  0.50400000000E-02 0. -1.
    8880022    1    1    2    0    0 -0.11325345652E+04 -0.30653420542E+03 -0.52293314332E+03  0.12936183695E+04  0.15294330000E+03 0.  0.
    8880022    1    1    2    0    0  0.11325345652E+04  0.30653420542E+03  0.72934557281E+03  0.13899404225E+04  0.15294330000E+03 0.  0.
<mgrwt>
<rscale>  0 0.11832115E+04</rscale>
<asrwt>0</asrwt>
<pdfrwt beam="1">  1        1 0.19054972E+00 0.11832115E+04</pdfrwt>
<pdfrwt beam="2">  1       -1 0.22230548E+00 0.11832115E+04</pdfrwt>
<totfact> 0.10449579E+00</totfact>
</mgrwt>
</event>
<event>
 4    1  0.4964158E-009  0.7531426E+03  0.7818608E-02  0.9630433E-01
         -1   -1    0    0    0  501 -0.00000000000E+00  0.00000000000E+00  0.57074910780E+03  0.57074910782E+03  0.50400000000E-02 0.  1.
          1   -1    0    0  501    0  0.00000000000E+00 -0.00000000000E+00 -0.13722843416E+04  0.13722843416E+04  0.50400000000E-02 0. -1.
    8880022    1    1    2    0    0 -0.68568459260E+03 -0.27141977601E+03  0.10943052351E+03  0.76105108096E+03  0.15294330000E+03 0.  0.
    8880022    1    1    2    0    0  0.68568459260E+03  0.27141977601E+03 -0.91096575731E+03  0.11819823685E+04  0.15294330000E+03 0.  0.
<mgrwt>
<rscale>  0 0.75314256E+03</rscale>
<asrwt>0</asrwt>
<pdfrwt beam="1">  1        1 0.21112067E+00 0.75314256E+03</pdfrwt>
<pdfrwt beam="2">  1       -1 0.87807555E-01 0.75314256E+03</pdfrwt>
<totfact> 0.10617663E+01</totfact>
</mgrwt>
</event>
<event>
 4    1  0.4964158E-009  0.1066573E+04  0.7818608E-02  0.9238399E-01
         -1   -1    0    0    0  501 -0.00000000000E+00  0.00000000000E+00  0.83839027394E+03  0.83839027395E+03  0.50400000000E-02 0.  1.
          1   -1    0    0  501    0  0.00000000000E+00 -0.00000000000E+00 -0.13690820327E+04  0.13690820327E+04  0.50400000000E-02 0. -1.
    8880022    1    1    2    0    0 -0.50670115695E+02  0.10543333542E+04 -0.36963246163E+03  0.11288073760E+04  0.15294330000E+03 0.  0.
    8880022    1    1    2    0    0  0.50670115695E+02 -0.10543333542E+04 -0.16105929710E+03  0.10786649306E+04  0.15294330000E+03 0.  0.
<mgrwt>
<rscale>  0 0.10665730E+04</rscale>
<asrwt>0</asrwt>
<pdfrwt beam="1">  1        1 0.21062801E+00 0.10665730E+04</pdfrwt>
<pdfrwt beam="2">  1       -1 0.12898312E+00 0.10665730E+04</pdfrwt>
<totfact> 0.41639201E+00</totfact>
</mgrwt>
</event>
<event>
 4    1  0.4964158E-009  0.7997288E+03  0.7818608E-02  0.9560410E-01
         -1   -1    0    0    0  501 -0.00000000000E+00  0.00000000000E+00  0.30318705351E+04  0.30318705351E+04  0.50400000000E-02 0.  1.
          1   -1    0    0  501    0  0.00000000000E+00 -0.00000000000E+00 -0.25668133800E+03  0.25668133805E+03  0.50400000000E-02 0. -1.
    8880022    1    1    2    0    0  0.68071098792E+03 -0.39090538844E+03  0.69353715668E+03  0.10585650252E+04  0.15294330000E+03 0.  0.
    8880022    1    1    2    0    0 -0.68071098792E+03  0.39090538844E+03  0.20816520404E+04  0.22299868480E+04  0.15294330000E+03 0.  0.
<mgrwt>
<rscale>  0 0.79972878E+03</rscale>
<asrwt>0</asrwt>
<pdfrwt beam="1">  1        1 0.39489435E-01 0.79972878E+03</pdfrwt>
<pdfrwt beam="2">  1       -1 0.46644164E+00 0.79972878E+03</pdfrwt>
<totfact> 0.28399954E-01</totfact>
</mgrwt>
</event>
<event>
 4    1  0.4964158E-009  0.1257962E+04  0.7818608E-02  0.9063582E-01
         -1   -1    0    0    0  501 -0.00000000000E+00  0.00000000000E+00  0.12445970989E+04  0.12445970989E+04  0.50400000000E-02 0.  1.
          1   -1    0    0  501    0  0.00000000000E+00 -0.00000000000E+00 -0.13725271978E+04  0.13725271978E+04  0.50400000000E-02 0. -1.
    8880022    1    1    2    0    0 -0.67438404634E+03  0.10508490966E+04  0.29110578794E+03  0.12912055989E+04  0.15294330000E+03 0.  0.
    8880022    1    1    2    0    0  0.67438404634E+03 -0.10508490966E+04 -0.41903588689E+03  0.13259186978E+04  0.15294330000E+03 0.  0.
<mgrwt>
<rscale>  0 0.12579624E+04</rscale>
<asrwt>0</asrwt>
<pdfrwt beam="1">  1        1 0.21115803E+00 0.12579624E+04</pdfrwt>
<pdfrwt beam="2">  1       -1 0.19147648E+00 0.12579624E+04</pdfrwt>
<totfact> 0.13489629E+00</totfact>
</mgrwt>
</event>
<event>
 4    1  0.4964158E-009  0.9697263E+03  0.7818608E-02  0.9342386E-01
          1   -1    0    0  501    0  0.00000000000E+00  0.00000000000E+00  0.65573149347E+03  0.65573149349E+03  0.50400000000E-02 0. -1.
         -1   -1    0    0    0  501 -0.00000000000E+00 -0.00000000000E+00 -0.14452108158E+04  0.14452108158E+04  0.50400000000E-02 0.  1.
    8880022    1    1    2    0    0 -0.14695796061E+03 -0.94624562075E+03 -0.48694412313E+03  0.10851191866E+04  0.15294330000E+03 0.  0.
    8880022    1    1    2    0    0  0.14695796061E+03  0.94624562075E+03 -0.30253519922E+03  0.10158231228E+04  0.15294330000E+03 0.  0.
<mgrwt>
<rscale>  0 0.96972629E+03</rscale>
<asrwt>0</asrwt>
<pdfrwt beam="1">  1        1 0.10088177E+00 0.96972629E+03</pdfrwt>
<pdfrwt beam="2">  1       -1 0.22234012E+00 0.96972629E+03</pdfrwt>
<totfact> 0.32207413E+00</totfact>
</mgrwt>
</event>
<event>
 4    1  0.4964158E-009  0.1325897E+04  0.7818608E-02  0.9009277E-01
          1   -1    0    0  501    0  0.00000000000E+00  0.00000000000E+00  0.25132303451E+04  0.25132303451E+04  0.50400000000E-02 0. -1.
         -1   -1    0    0    0  501 -0.00000000000E+00 -0.00000000000E+00 -0.12054194723E+04  0.12054194723E+04  0.50400000000E-02 0.  1.
    8880022    1    1    2    0    0 -0.12381131557E+02 -0.13169885182E+04  0.18584615647E+04  0.22829549032E+04  0.15294330000E+03 0.  0.
    8880022    1    1    2    0    0  0.12381131557E+02  0.13169885182E+04 -0.55065069194E+03  0.14356949143E+04  0.15294330000E+03 0.  0.
<mgrwt>
<rscale>  0 0.13258973E+04</rscale>
<asrwt>0</asrwt>
<pdfrwt beam="1">  1        1 0.38665082E+00 0.13258973E+04</pdfrwt>
<pdfrwt beam="2">  1       -1 0.18544915E+00 0.13258973E+04</pdfrwt>
<totfact> 0.24430882E-01</totfact>
</mgrwt>
</event>
<event>
 4    1  0.4964158E-009  0.9880188E+03  0.7818608E-02  0.9321784E-01
         -1   -1    0    0    0  501 -0.00000000000E+00  0.00000000000E+00  0.16253382573E+04  0.16253382573E+04  0.50400000000E-02 0.  1.
          1   -1    0    0  501    0  0.00000000000E+00 -0.00000000000E+00 -0.21763343320E+04  0.21763343320E+04  0.50400000000E-02 0. -1.
    8880022    1    1    2    0    0 -0.17545509049E+03  0.96021091724E+03  0.13419232492E+04  0.16664150606E+04  0.15294330000E+03 0.  0.
    8880022    1    1    2    0    0  0.17545509049E+03 -0.96021091724E+03 -0.18929193239E+04  0.21352575288E+04  0.15294330000E+03 0.  0.
<mgrwt>
<rscale>  0 0.98801880E+03</rscale>
<asrwt>0</asrwt>
<pdfrwt beam="1">  1        1 0.33482066E+00 0.98801880E+03</pdfrwt>
<pdfrwt beam="2">  1       -1 0.25005204E+00 0.98801880E+03</pdfrwt>
<totfact> 0.16091699E-01</totfact>
</mgrwt>
</event>
<event>
 4    1  0.4964158E-009  0.5796063E+03  0.7818608E-02  0.9948644E-01
         -1   -1    0    0    0  501 -0.00000000000E+00  0.00000000000E+00  0.43223080261E+03  0.43223080264E+03  0.50400000000E-02 0.  1.
          1   -1    0    0  501    0  0.00000000000E+00 -0.00000000000E+00 -0.94738009902E+03  0.94738009903E+03  0.50400000000E-02 0. -1.
    8880022    1    1    2    0    0 -0.37526897353E+03  0.41439715488E+03  0.34758792114E+02  0.58064759632E+03  0.15294330000E+03 0.  0.
    8880022    1    1    2    0    0  0.37526897353E+03 -0.41439715488E+03 -0.54990808853E+03  0.79896330536E+03  0.15294330000E+03 0.  0.
<mgrwt>
<rscale>  0 0.57960630E+03</rscale>
<asrwt>0</asrwt>
<pdfrwt beam="1">  1        1 0.14575078E+00 0.57960630E+03</pdfrwt>
<pdfrwt beam="2">  1       -1 0.66497047E-01 0.57960630E+03</pdfrwt>
<totfact> 0.39913144E+01</totfact>
</mgrwt>
</event>
<event>
 4    1  0.4964158E-009  0.9351662E+03  0.7818608E-02  0.9382659E-01
         -1   -1    0    0    0  501 -0.00000000000E+00  0.00000000000E+00  0.10228024864E+04  0.10228024864E+04  0.50400000000E-02 0.  1.
          1   -1    0    0  501    0  0.00000000000E+00 -0.00000000000E+00 -0.10189092759E+04  0.10189092759E+04  0.50400000000E-02 0. -1.
    8880022    1    1    2    0    0 -0.64017740059E+03 -0.66431698402E+03  0.41134584532E+03  0.10216365386E+04  0.15294330000E+03 0.  0.
    8880022    1    1    2    0    0  0.64017740059E+03  0.66431698402E+03 -0.40745263475E+03  0.10200752237E+04  0.15294330000E+03 0.  0.
<mgrwt>
<rscale>  0 0.93516620E+03</rscale>
<asrwt>0</asrwt>
<pdfrwt beam="1">  1        1 0.15675527E+00 0.93516620E+03</pdfrwt>
<pdfrwt beam="2">  1       -1 0.15735423E+00 0.93516620E+03</pdfrwt>
<totfact> 0.45249733E+00</totfact>
</mgrwt>
</event>
<event>
 4    1  0.4964158E-009  0.5069203E+03  0.7818608E-02  0.1011988E+00
          1   -1    0    0  501    0  0.00000000000E+00  0.00000000000E+00  0.12405096635E+04  0.12405096635E+04  0.50400000000E-02 0. -1.
         -1   -1    0    0    0  501 -0.00000000000E+00 -0.00000000000E+00 -0.21988070397E+03  0.21988070403E+03  0.50400000000E-02 0.  1.
    8880022    1    1    2    0    0 -0.14348062680E+02  0.48308455314E+03  0.68603317382E+03  0.85300042262E+03  0.15294330000E+03 0.  0.
    8880022    1    1    2    0    0  0.14348062680E+02 -0.48308455314E+03  0.33459578575E+03  0.60738994496E+03  0.15294330000E+03 0.  0.
<mgrwt>
<rscale>  0 0.50692031E+03</rscale>
<asrwt>0</asrwt>
<pdfrwt beam="1">  1        1 0.19084764E+00 0.50692031E+03</pdfrwt>
<pdfrwt beam="2">  1       -1 0.33827801E-01 0.50692031E+03</pdfrwt>
<totfact> 0.86404731E+01</totfact>
</mgrwt>
</event>
<event>
 4    1  0.4964158E-009  0.3116916E+03  0.7818608E-02  0.1079538E+00
         -1   -1    0    0    0  501 -0.00000000000E+00  0.00000000000E+00  0.72879110753E+03  0.72879110755E+03  0.50400000000E-02 0.  1.
          1   -1    0    0  501    0  0.00000000000E+00 -0.00000000000E+00 -0.81424129265E+03  0.81424129266E+03  0.50400000000E-02 0. -1.
    8880022    1    1    2    0    0  0.13059158750E+03 -0.23812988137E+03 -0.74826512417E+03  0.81058765855E+03  0.15294330000E+03 0.  0.
    8880022    1    1    2    0    0 -0.13059158750E+03  0.23812988137E+03  0.66281493906E+03  0.73244474166E+03  0.15294330000E+03 0.  1.
<mgrwt>
<rscale>  0 0.31169160E+03</rscale>
<asrwt>0</asrwt>
<pdfrwt beam="1">  1        1 0.12526789E+00 0.31169160E+03</pdfrwt>
<pdfrwt beam="2">  1       -1 0.11212171E+00 0.31169160E+03</pdfrwt>
<totfact> 0.17486606E+01</totfact>
</mgrwt>
</event>
<event>
 4    1  0.4964158E-009  0.3682122E+03  0.7818608E-02  0.1055379E+00
         -1   -1    0    0    0  501 -0.00000000000E+00  0.00000000000E+00  0.75295304063E+03  0.75295304065E+03  0.50400000000E-02 0.  1.
          1   -1    0    0  501    0  0.00000000000E+00 -0.00000000000E+00 -0.86135115112E+03  0.86135115114E+03  0.50400000000E-02 0. -1.
    8880022    1    1    2    0    0  0.17393523546E+03 -0.28624308330E+03  0.66364507446E+03  0.75894993692E+03  0.15294330000E+03 0.  0.
    8880022    1    1    2    0    0 -0.17393523546E+03  0.28624308330E+03 -0.77204318496E+03  0.85535425487E+03  0.15294330000E+03 0.  0.
<mgrwt>
<rscale>  0 0.36821220E+03</rscale>
<asrwt>0</asrwt>
<pdfrwt beam="1">  1        1 0.13251556E+00 0.36821220E+03</pdfrwt>
<pdfrwt beam="2">  1       -1 0.11583893E+00 0.36821220E+03</pdfrwt>
<totfact> 0.14577351E+01</totfact>
</mgrwt>
</event>
<event>
 4    1  0.4964158E-009  0.6659633E+03  0.7818608E-02  0.9777278E-01
         -1   -1    0    0    0  501 -0.00000000000E+00  0.00000000000E+00  0.99516072861E+03  0.99516072862E+03  0.50400000000E-02 0.  1.
          1   -1    0    0  501    0  0.00000000000E+00 -0.00000000000E+00 -0.21271704802E+04  0.21271704802E+04  0.50400000000E-02 0. -1.
    8880022    1    1    2    0    0  0.38849871557E+03  0.51882965976E+03  0.82201959559E+03  0.10579335217E+04  0.15294330000E+03 0.  0.
    8880022    1    1    2    0    0 -0.38849871557E+03 -0.51882965976E+03 -0.19540293471E+04  0.20643976871E+04  0.15294330000E+03 0.  0.
<mgrwt>
<rscale>  0 0.66596330E+03</rscale>
<asrwt>0</asrwt>
<pdfrwt beam="1">  1        1 0.32725699E+00 0.66596330E+03</pdfrwt>
<pdfrwt beam="2">  1       -1 0.15310165E+00 0.66596330E+03</pdfrwt>
<totfact> 0.87292548E-01</totfact>
</mgrwt>
</event>
<event>
 4    1  0.4964158E-009  0.8931187E+03  0.7818608E-02  0.9434225E-01
          1   -1    0    0  501    0  0.00000000000E+00  0.00000000000E+00  0.22669429142E+04  0.22669429142E+04  0.50400000000E-02 0. -1.
         -1   -1    0    0    0  501 -0.00000000000E+00 -0.00000000000E+00 -0.86300391354E+03  0.86300391356E+03  0.50400000000E-02 0.  1.
    8880022    1    1    2    0    0  0.72243741356E+03 -0.50234794659E+03 -0.50242698836E+03  0.10247408490E+04  0.15294330000E+03 0.  0.
    8880022    1    1    2    0    0 -0.72243741356E+03  0.50234794659E+03  0.19063659891E+04  0.21052059788E+04  0.15294330000E+03 0.  0.
<mgrwt>
<rscale>  0 0.89311865E+03</rscale>
<asrwt>0</asrwt>
<pdfrwt beam="1">  1        1 0.34876044E+00 0.89311865E+03</pdfrwt>
<pdfrwt beam="2">  1       -1 0.13276983E+00 0.89311865E+03</pdfrwt>
<totfact> 0.97392620E-01</totfact>
</mgrwt>
</event>
<event>
 4    1  0.4964158E-009  0.1049154E+04  0.7818608E-02  0.9256218E-01
          1   -1    0    0  501    0  0.00000000000E+00  0.00000000000E+00  0.97508875827E+03  0.97508875828E+03  0.50400000000E-02 0. -1.
         -1   -1    0    0    0  501 -0.00000000000E+00 -0.00000000000E+00 -0.13924488042E+04  0.13924488042E+04  0.50400000000E-02 0.  1.
    8880022    1    1    2    0    0 -0.59378922442E+03 -0.85132018205E+03 -0.72373514438E+03  0.12745649876E+04  0.15294330000E+03 0.  0.
    8880022    1    1    2    0    0  0.59378922442E+03  0.85132018205E+03  0.30637509847E+03  0.10929725749E+04  0.15294330000E+03 0.  0.
<mgrwt>
<rscale>  0 0.10491536E+04</rscale>
<asrwt>0</asrwt>
<pdfrwt beam="1">  1        1 0.15001365E+00 0.10491536E+04</pdfrwt>
<pdfrwt beam="2">  1       -1 0.21422289E+00 0.10491536E+04</pdfrwt>
<totfact> 0.19028344E+00</totfact>
</mgrwt>
</event>
<event>
 4    1  0.4964158E-009  0.8387998E+03  0.7818608E-02  0.9505494E-01
         -1   -1    0    0    0  501 -0.00000000000E+00  0.00000000000E+00  0.60105977764E+03  0.60105977766E+03  0.50400000000E-02 0.  1.
          1   -1    0    0  501    0  0.00000000000E+00 -0.00000000000E+00 -0.12576629565E+04  0.12576629565E+04  0.50400000000E-02 0. -1.
    8880022    1    1    2    0    0 -0.79494969460E+03  0.21965535354E+03 -0.83742836886E+02  0.84296975451E+03  0.15294330000E+03 0.  0.
    8880022    1    1    2    0    0  0.79494969460E+03 -0.21965535354E+03 -0.57286034199E+03  0.10157529797E+04  0.15294330000E+03 0.  0.
<mgrwt>
<rscale>  0 0.83879982E+03</rscale>
<asrwt>0</asrwt>
<pdfrwt beam="1">  1        1 0.19348661E+00 0.83879982E+03</pdfrwt>
<pdfrwt beam="2">  1       -1 0.92470735E-01 0.83879982E+03</pdfrwt>
<totfact> 0.11284523E+01</totfact>
</mgrwt>
</event>
<event>
 4    1  0.4964158E-009  0.2405352E+03  0.7818608E-02  0.1119437E+00
          1   -1    0    0  501    0  0.00000000000E+00  0.00000000000E+00  0.39722138383E+03  0.39722138387E+03  0.50400000000E-02 0. -1.
         -1   -1    0    0    0  501 -0.00000000000E+00 -0.00000000000E+00 -0.59398234930E+03  0.59398234932E+03  0.50400000000E-02 0.  1.
    8880022    1    1    2    0    0  0.12435701419E+03  0.13784369615E+03 -0.52895058758E+03  0.58107308376E+03  0.15294330000E+03 0.  0.
    8880022    1    1    2    0    0 -0.12435701419E+03 -0.13784369615E+03  0.33218962212E+03  0.41013064943E+03  0.15294330000E+03 0. -1.
<mgrwt>
<rscale>  0 0.24053525E+03</rscale>
<asrwt>0</asrwt>
<pdfrwt beam="1">  1        1 0.61110982E-01 0.24053525E+03</pdfrwt>
<pdfrwt beam="2">  1       -1 0.91381900E-01 0.24053525E+03</pdfrwt>
<totfact> 0.76545098E+01</totfact>
</mgrwt>
</event>
<event>
 4    1  0.4964158E-009  0.1891202E+03  0.7818608E-02  0.1159257E+00
         -1   -1    0    0    0  501 -0.00000000000E+00  0.00000000000E+00  0.15145244580E+04  0.15145244580E+04  0.50400000000E-02 0.  1.
          1   -1    0    0  501    0  0.00000000000E+00 -0.00000000000E+00 -0.67731612536E+03  0.67731612538E+03  0.50400000000E-02 0. -1.
    8880022    1    1    2    0    0 -0.21743023228E+02 -0.10909641031E+03  0.14952495185E+04  0.15071620886E+04  0.15294330000E+03 0.  0.
    8880022    1    1    2    0    0  0.21743023228E+02  0.10909641031E+03 -0.65804118589E+03  0.68467849473E+03  0.15294330000E+03 0. -1.
<mgrwt>
<rscale>  0 0.18912017E+03</rscale>
<asrwt>0</asrwt>
<pdfrwt beam="1">  1        1 0.10420248E+00 0.18912017E+03</pdfrwt>
<pdfrwt beam="2">  1       -1 0.23300376E+00 0.18912017E+03</pdfrwt>
<totfact> 0.32124518E+00</totfact>
</mgrwt>
</event>
<event>
 4    1  0.4964158E-009  0.6041070E+03  0.7818608E-02  0.9896922E-01
         -1   -1    0    0    0  501 -0.00000000000E+00  0.00000000000E+00  0.23141427814E+03  0.23141427820E+03  0.50400000000E-02 0.  1.
          1   -1    0    0  501    0  0.00000000000E+00 -0.00000000000E+00 -0.25700467715E+04  0.25700467715E+04  0.50400000000E-02 0. -1.
    8880022    1    1    2    0    0  0.51243074923E+03 -0.28101317065E+03 -0.29862496440E+03  0.67388589332E+03  0.15294330000E+03 0.  0.
    8880022    1    1    2    0    0 -0.51243074923E+03  0.28101317065E+03 -0.20400075290E+04  0.21275751564E+04  0.15294330000E+03 0.  0.
<mgrwt>
<rscale>  0 0.60410705E+03</rscale>
<asrwt>0</asrwt>
<pdfrwt beam="1">  1        1 0.39539179E+00 0.60410705E+03</pdfrwt>
<pdfrwt beam="2">  1       -1 0.35602199E-01 0.60410705E+03</pdfrwt>
<totfact> 0.98745187E+00</totfact>
</mgrwt>
</event>
<event>
 4    1  0.4964158E-009  0.2452459E+03  0.7818608E-02  0.1116347E+00
          1   -1    0    0  501    0  0.00000000000E+00  0.00000000000E+00  0.14689418872E+04  0.14689418872E+04  0.50400000000E-02 0. -1.
         -1   -1    0    0    0  501 -0.00000000000E+00 -0.00000000000E+00 -0.50995293324E+03  0.50995293327E+03  0.50400000000E-02 0.  1.
    8880022    1    1    2    0    0 -0.13485996286E+03 -0.13625959116E+03 -0.46939985801E+03  0.52960529215E+03  0.15294330000E+03 0.  0.
    8880022    1    1    2    0    0  0.13485996286E+03  0.13625959116E+03  0.14283888119E+04  0.14492895283E+04  0.15294330000E+03 0. -1.
<mgrwt>
<rscale>  0 0.24524587E+03</rscale>
<asrwt>0</asrwt>
<pdfrwt beam="1">  1        1 0.22599106E+00 0.24524587E+03</pdfrwt>
<pdfrwt beam="2">  1       -1 0.78454296E-01 0.24524587E+03</pdfrwt>
<totfact> 0.13142694E+01</totfact>
</mgrwt>
</event>
<event>
 4    1  0.4964158E-009  0.3673229E+03  0.7818608E-02  0.1055721E+00
         -1   -1    0    0    0  501 -0.00000000000E+00  0.00000000000E+00  0.22977333178E+03  0.22977333183E+03  0.50400000000E-02 0.  1.
          1   -1    0    0  501    0  0.00000000000E+00 -0.00000000000E+00 -0.23307091256E+04  0.23307091256E+04  0.50400000000E-02 0. -1.
    8880022    1    1    2    0    0 -0.33237574375E+03 -0.32570120413E+02  0.56813869472E+02  0.37169061941E+03  0.15294330000E+03 0.  0.
    8880022    1    1    2    0    0  0.33237574375E+03  0.32570120413E+02 -0.21577496633E+04  0.21887918381E+04  0.15294330000E+03 0. -1.
<mgrwt>
<rscale>  0 0.36732288E+03</rscale>
<asrwt>0</asrwt>
<pdfrwt beam="1">  1        1 0.35857062E+00 0.36732288E+03</pdfrwt>
<pdfrwt beam="2">  1       -1 0.35349745E-01 0.36732288E+03</pdfrwt>
<totfact> 0.15398760E+01</totfact>
</mgrwt>
</event>
<event>
 4    1  0.4964158E-009  0.6803437E+03  0.7818608E-02  0.9751450E-01
          1   -1    0    0  501    0  0.00000000000E+00  0.00000000000E+00  0.53926563405E+03  0.53926563408E+03  0.50400000000E-02 0. -1.
         -1   -1    0    0    0  501 -0.00000000000E+00 -0.00000000000E+00 -0.11238467612E+04  0.11238467612E+04  0.50400000000E-02 0.  1.
    8880022    1    1    2    0    0  0.29503460968E+03 -0.59365860749E+03 -0.69647949283E+03  0.97362790639E+03  0.15294330000E+03 0.  0.
    8880022    1    1    2    0    0 -0.29503460968E+03  0.59365860749E+03  0.11189836569E+03  0.68948448889E+03  0.15294330000E+03 0.  0.
<mgrwt>
<rscale>  0 0.68034375E+03</rscale>
<asrwt>0</asrwt>
<pdfrwt beam="1">  1        1 0.82963944E-01 0.68034375E+03</pdfrwt>
<pdfrwt beam="2">  1       -1 0.17289950E+00 0.68034375E+03</pdfrwt>
<totfact> 0.97240782E+00</totfact>
</mgrwt>
</event>
<event>
 4    1  0.4964158E-009  0.1202335E+04  0.7818608E-02  0.9110815E-01
          1   -1    0    0  501    0  0.00000000000E+00  0.00000000000E+00  0.32925128047E+04  0.32925128047E+04  0.50400000000E-02 0. -1.
         -1   -1    0    0    0  501 -0.00000000000E+00 -0.00000000000E+00 -0.69564476325E+03  0.69564476326E+03  0.50400000000E-02 0.  1.
    8880022    1    1    2    0    0 -0.11348152180E+04 -0.36662426575E+03  0.87378630827E+02  0.12055063706E+04  0.15294330000E+03 0.  0.
    8880022    1    1    2    0    0  0.11348152180E+04  0.36662426575E+03  0.25094894106E+04  0.27826511974E+04  0.15294330000E+03 0. -1.
<mgrwt>
<rscale>  0 0.12023355E+04</rscale>
<asrwt>0</asrwt>
<pdfrwt beam="1">  1        1 0.50654043E+00 0.12023355E+04</pdfrwt>
<pdfrwt beam="2">  1       -1 0.10702227E+00 0.12023355E+04</pdfrwt>
<totfact> 0.29451599E-01</totfact>
</mgrwt>
</event>
<event>
 4    1  0.4964158E-009  0.9831744E+03  0.7818608E-02  0.9327194E-01
         -1   -1    0    0    0  501 -0.00000000000E+00  0.00000000000E+00  0.89695418220E+03  0.89695418221E+03  0.50400000000E-02 0.  1.
          1   -1    0    0  501    0  0.00000000000E+00 -0.00000000000E+00 -0.18993368075E+04  0.18993368075E+04  0.50400000000E-02 0. -1.
    8880022    1    1    2    0    0 -0.58897535301E+03  0.77223589325E+03 -0.14207848770E+04  0.17277909483E+04  0.15294330000E+03 0.  0.
    8880022    1    1    2    0    0  0.58897535301E+03 -0.77223589325E+03  0.41840225170E+03  0.10685000414E+04  0.15294330000E+03 0.  0.
<mgrwt>
<rscale>  0 0.98317440E+03</rscale>
<asrwt>0</asrwt>
<pdfrwt beam="1">  1        1 0.29220566E+00 0.98317440E+03</pdfrwt>
<pdfrwt beam="2">  1       -1 0.13799295E+00 0.98317440E+03</pdfrwt>
<totfact> 0.15366457E+00</totfact>
</mgrwt>
</event>
<event>
 4    1  0.4964158E-009  0.9813082E+03  0.7818608E-02  0.9329287E-01
          1   -1    0    0  501    0  0.00000000000E+00  0.00000000000E+00  0.22926030742E+04  0.22926030742E+04  0.50400000000E-02 0. -1.
         -1   -1    0    0    0  501 -0.00000000000E+00 -0.00000000000E+00 -0.51568396073E+03  0.51568396075E+03  0.50400000000E-02 0.  1.
    8880022    1    1    2    0    0 -0.77094541246E+03  0.58755187361E+03  0.28372110368E+03  0.10215005388E+04  0.15294330000E+03 0.  0.
    8880022    1    1    2    0    0  0.77094541246E+03 -0.58755187361E+03  0.14931980098E+04  0.17867864961E+04  0.15294330000E+03 0.  0.
<mgrwt>
<rscale>  0 0.98130815E+03</rscale>
<asrwt>0</asrwt>
<pdfrwt beam="1">  1        1 0.35270816E+00 0.98130815E+03</pdfrwt>
<pdfrwt beam="2">  1       -1 0.79335996E-01 0.98130815E+03</pdfrwt>
<totfact> 0.30444148E+00</totfact>
</mgrwt>
</event>
<event>
 4    1  0.4964158E-009  0.1087596E+04  0.7818608E-02  0.9217366E-01
         -1   -1    0    0    0  501 -0.00000000000E+00  0.00000000000E+00  0.75251005723E+03  0.75251005725E+03  0.50400000000E-02 0.  1.
          1   -1    0    0  501    0  0.00000000000E+00 -0.00000000000E+00 -0.30618196855E+04  0.30618196855E+04  0.50400000000E-02 0. -1.
    8880022    1    1    2    0    0  0.53927428127E+03  0.93201790315E+03 -0.24850503805E+04  0.27126262494E+04  0.15294330000E+03 0.  0.
    8880022    1    1    2    0    0 -0.53927428127E+03 -0.93201790315E+03  0.17574075225E+03  0.11017034933E+04  0.15294330000E+03 0.  0.
<mgrwt>
<rscale>  0 0.10875963E+04</rscale>
<asrwt>0</asrwt>
<pdfrwt beam="1">  1        1 0.47104918E+00 0.10875963E+04</pdfrwt>
<pdfrwt beam="2">  1       -1 0.11577078E+00 0.10875963E+04</pdfrwt>
<totfact> 0.36865966E-01</totfact>
</mgrwt>
</event>
<event>
 4    1  0.4964158E-009  0.2131663E+03  0.7818608E-02  0.1139083E+00
         -1   -1    0    0    0  501 -0.00000000000E+00  0.00000000000E+00  0.90413184828E+03  0.90413184830E+03  0.50400000000E-02 0.  1.
          1   -1    0    0  501    0  0.00000000000E+00 -0.00000000000E+00 -0.89764437281E+03  0.89764437282E+03  0.50400000000E-02 0. -1.
    8880022    1    1    2    0    0  0.10676792271E+03  0.10319315011E+03  0.87854878747E+03  0.90403973393E+03  0.15294330000E+03 0.  0.
    8880022    1    1    2    0    0 -0.10676792271E+03 -0.10319315011E+03 -0.87206131199E+03  0.89773648719E+03  0.15294330000E+03 0. -1.
<mgrwt>
<rscale>  0 0.21316629E+03</rscale>
<asrwt>0</asrwt>
<pdfrwt beam="1">  1        1 0.13809913E+00 0.21316629E+03</pdfrwt>
<pdfrwt beam="2">  1       -1 0.13909721E+00 0.21316629E+03</pdfrwt>
<totfact> 0.92328205E+00</totfact>
</mgrwt>
</event>
<event>
 4    1  0.4964158E-009  0.1544972E+04  0.7818608E-02  0.8855086E-01
          1   -1    0    0  501    0  0.00000000000E+00  0.00000000000E+00  0.17939900820E+04  0.17939900820E+04  0.50400000000E-02 0. -1.
         -1   -1    0    0    0  501 -0.00000000000E+00 -0.00000000000E+00 -0.17230897622E+04  0.17230897623E+04  0.50400000000E-02 0.  1.
    8880022    1    1    2    0    0 -0.62804941255E+03  0.14032462646E+04 -0.80392726638E+03  0.17416190302E+04  0.15294330000E+03 0.  0.
    8880022    1    1    2    0    0  0.62804941255E+03 -0.14032462646E+04  0.87482758610E+03  0.17754608140E+04  0.15294330000E+03 0.  0.
<mgrwt>
<rscale>  0 0.15449718E+04</rscale>
<asrwt>0</asrwt>
<pdfrwt beam="1">  1        1 0.27599847E+00 0.15449718E+04</pdfrwt>
<pdfrwt beam="2">  1       -1 0.26509073E+00 0.15449718E+04</pdfrwt>
<totfact> 0.21469713E-01</totfact>
</mgrwt>
</event>
<event>
 4    1  0.4964158E-009  0.5603799E+03  0.7818608E-02  0.9991196E-01
          1   -1    0    0  501    0  0.00000000000E+00  0.00000000000E+00  0.22455413840E+04  0.22455413840E+04  0.50400000000E-02 0. -1.
         -1   -1    0    0    0  501 -0.00000000000E+00 -0.00000000000E+00 -0.79143309204E+03  0.79143309206E+03  0.50400000000E-02 0.  1.
    8880022    1    1    2    0    0 -0.47003604484E+03  0.26400767345E+03 -0.65076092730E+03  0.85878715209E+03  0.15294330000E+03 0.  0.
    8880022    1    1    2    0    0  0.47003604484E+03 -0.26400767345E+03  0.21048692193E+04  0.21781873240E+04  0.15294330000E+03 0.  0.
<mgrwt>
<rscale>  0 0.56037986E+03</rscale>
<asrwt>0</asrwt>
<pdfrwt beam="1">  1        1 0.34546791E+00 0.56037986E+03</pdfrwt>
<pdfrwt beam="2">  1       -1 0.12175894E+00 0.56037986E+03</pdfrwt>
<totfact> 0.13472544E+00</totfact>
</mgrwt>
</event>
<event>
 4    1  0.4964158E-009  0.1319251E+04  0.7818608E-02  0.9014437E-01
          1   -1    0    0  501    0  0.00000000000E+00  0.00000000000E+00  0.24937551594E+04  0.24937551594E+04  0.50400000000E-02 0. -1.
         -1   -1    0    0    0  501 -0.00000000000E+00 -0.00000000000E+00 -0.10152970972E+04  0.10152970972E+04  0.50400000000E-02 0.  1.
    8880022    1    1    2    0    0 -0.10951273641E+04 -0.71953304175E+03  0.17201997735E+04  0.21678354771E+04  0.15294330000E+03 0.  0.
    8880022    1    1    2    0    0  0.10951273641E+04  0.71953304175E+03 -0.24174171134E+03  0.13412167796E+04  0.15294330000E+03 0.  0.
<mgrwt>
<rscale>  0 0.13192511E+04</rscale>
<asrwt>0</asrwt>
<pdfrwt beam="1">  1        1 0.38365464E+00 0.13192511E+04</pdfrwt>
<pdfrwt beam="2">  1       -1 0.15619955E+00 0.13192511E+04</pdfrwt>
<totfact> 0.41485974E-01</totfact>
</mgrwt>
</event>
<event>
 4    1  0.4964158E-009  0.5478873E+03  0.7818608E-02  0.1001984E+00
          1   -1    0    0  501    0  0.00000000000E+00  0.00000000000E+00  0.15129892517E+04  0.15129892517E+04  0.50400000000E-02 0. -1.
         -1   -1    0    0    0  501 -0.00000000000E+00 -0.00000000000E+00 -0.25733014353E+03  0.25733014358E+03  0.50400000000E-02 0.  1.
    8880022    1    1    2    0    0  0.15395778357E+03 -0.50307637299E+03  0.10514107934E+04  0.11855990662E+04  0.15294330000E+03 0.  0.
    8880022    1    1    2    0    0 -0.15395778357E+03  0.50307637299E+03  0.20424831476E+03  0.58472032911E+03  0.15294330000E+03 0.  0.
<mgrwt>
<rscale>  0 0.54788730E+03</rscale>
<asrwt>0</asrwt>
<pdfrwt beam="1">  1        1 0.23276758E+00 0.54788730E+03</pdfrwt>
<pdfrwt beam="2">  1       -1 0.39589252E-01 0.54788730E+03</pdfrwt>
<totfact> 0.42074745E+01</totfact>
</mgrwt>
</event>
<event>
 4    1  0.4964158E-009  0.1083819E+04  0.7818608E-02  0.9221108E-01
          1   -1    0    0  501    0  0.00000000000E+00  0.00000000000E+00  0.10020298816E+04  0.10020298816E+04  0.50400000000E-02 0. -1.
         -1   -1    0    0    0  501 -0.00000000000E+00 -0.00000000000E+00 -0.12958241721E+04  0.12958241721E+04  0.50400000000E-02 0.  1.
    8880022    1    1    2    0    0 -0.72276574051E+03 -0.79302105892E+03  0.20785265218E+03  0.11035701580E+04  0.15294330000E+03 0.  0.
    8880022    1    1    2    0    0  0.72276574051E+03  0.79302105892E+03 -0.50164694265E+03  0.11942838957E+04  0.15294330000E+03 0.  0.
<mgrwt>
<rscale>  0 0.10838193E+04</rscale>
<asrwt>0</asrwt>
<pdfrwt beam="1">  1        1 0.15415844E+00 0.10838193E+04</pdfrwt>
<pdfrwt beam="2">  1       -1 0.19935756E+00 0.10838193E+04</pdfrwt>
<totfact> 0.22783129E+00</totfact>
</mgrwt>
</event>
<event>
 4    1  0.4964158E-009  0.6493038E+03  0.7818608E-02  0.9808086E-01
         -1   -1    0    0    0  501 -0.00000000000E+00  0.00000000000E+00  0.19359104735E+04  0.19359104736E+04  0.50400000000E-02 0.  1.
          1   -1    0    0  501    0  0.00000000000E+00 -0.00000000000E+00 -0.88631999670E+03  0.88631999671E+03  0.50400000000E-02 0. -1.
    8880022    1    1    2    0    0  0.11206853910E+03 -0.62100275132E+03 -0.70075778259E+03  0.95533077909E+03  0.15294330000E+03 0.  0.
    8880022    1    1    2    0    0 -0.11206853910E+03  0.62100275132E+03  0.17503482594E+04  0.18668996912E+04  0.15294330000E+03 0.  0.
<mgrwt>
<rscale>  0 0.64930380E+03</rscale>
<asrwt>0</asrwt>
<pdfrwt beam="1">  1        1 0.13635692E+00 0.64930380E+03</pdfrwt>
<pdfrwt beam="2">  1       -1 0.29783238E+00 0.64930380E+03</pdfrwt>
<totfact> 0.69041540E-01</totfact>
</mgrwt>
</event>
<event>
 4    1  0.4964158E-009  0.2794707E+03  0.7818608E-02  0.1095978E+00
         -1   -1    0    0    0  501 -0.00000000000E+00  0.00000000000E+00  0.78706672866E+03  0.78706672868E+03  0.50400000000E-02 0.  1.
          1   -1    0    0  501    0  0.00000000000E+00 -0.00000000000E+00 -0.28405820972E+04  0.28405820972E+04  0.50400000000E-02 0. -1.
    8880022    1    1    2    0    0  0.13966236815E+03  0.18763434553E+03 -0.28086179900E+04  0.28224880676E+04  0.15294330000E+03 0.  0.
    8880022    1    1    2    0    0 -0.13966236815E+03 -0.18763434553E+03  0.75510262149E+03  0.80516075830E+03  0.15294330000E+03 0.  0.
<mgrwt>
<rscale>  0 0.27947071E+03</rscale>
<asrwt>0</asrwt>
<pdfrwt beam="1">  1        1 0.43701263E+00 0.27947071E+03</pdfrwt>
<pdfrwt beam="2">  1       -1 0.12108719E+00 0.27947071E+03</pdfrwt>
<totfact> 0.61284008E-01</totfact>
</mgrwt>
</event>
<event>
 4    1  0.4964158E-009  0.6422692E+03  0.7818608E-02  0.9821394E-01
          1   -1    0    0  501    0  0.00000000000E+00  0.00000000000E+00  0.18068917166E+04  0.18068917167E+04  0.50400000000E-02 0. -1.
         -1   -1    0    0    0  501 -0.00000000000E+00 -0.00000000000E+00 -0.57325456207E+03  0.57325456209E+03  0.50400000000E-02 0.  1.
    8880022    1    1    2    0    0  0.59870849782E+03  0.17511786972E+03 -0.30635229058E+03  0.71159083230E+03  0.15294330000E+03 0.  0.
    8880022    1    1    2    0    0 -0.59870849782E+03 -0.17511786972E+03  0.15399894452E+04  0.16685554464E+04  0.15294330000E+03 0. -1.
<mgrwt>
<rscale>  0 0.64226925E+03</rscale>
<asrwt>0</asrwt>
<pdfrwt beam="1">  1        1 0.27798334E+00 0.64226925E+03</pdfrwt>
<pdfrwt beam="2">  1       -1 0.88193011E-01 0.64226925E+03</pdfrwt>
<totfact> 0.54338061E+00</totfact>
</mgrwt>
</event>
<event>
 4    1  0.4964158E-009  0.1106929E+04  0.7818608E-02  0.9198465E-01
          1   -1    0    0  501    0  0.00000000000E+00  0.00000000000E+00  0.23567101228E+04  0.23567101228E+04  0.50400000000E-02 0. -1.
         -1   -1    0    0    0  501 -0.00000000000E+00 -0.00000000000E+00 -0.11547701416E+04  0.11547701416E+04  0.50400000000E-02 0.  1.
    8880022    1    1    2    0    0 -0.78311546175E+03  0.76722183698E+03  0.19027857076E+04  0.22013369291E+04  0.15294330000E+03 0.  0.
    8880022    1    1    2    0    0  0.78311546175E+03 -0.76722183698E+03 -0.70084572642E+03  0.13101433352E+04  0.15294330000E+03 0.  0.
<mgrwt>
<rscale>  0 0.11069286E+04</rscale>
<asrwt>0</asrwt>
<pdfrwt beam="1">  1        1 0.36257079E+00 0.11069286E+04</pdfrwt>
<pdfrwt beam="2">  1       -1 0.17765695E+00 0.11069286E+04</pdfrwt>
<totfact> 0.36768445E-01</totfact>
</mgrwt>
</event>
<event>
 4    1  0.4964158E-009  0.3526326E+03  0.7818608E-02  0.1061540E+00
         -1   -1    0    0    0  501 -0.00000000000E+00  0.00000000000E+00  0.18294048155E+04  0.18294048155E+04  0.50400000000E-02 0.  1.
          1   -1    0    0  501    0  0.00000000000E+00 -0.00000000000E+00 -0.76995344437E+03  0.76995344439E+03  0.50400000000E-02 0. -1.
    8880022    1    1    2    0    0  0.12182274722E+03 -0.29345754185E+03  0.17707105410E+04  0.18054820917E+04  0.15294330000E+03 0.  1.
    8880022    1    1    2    0    0 -0.12182274722E+03  0.29345754185E+03 -0.71125916987E+03  0.79387616815E+03  0.15294330000E+03 0.  0.
<mgrwt>
<rscale>  0 0.35263262E+03</rscale>
<asrwt>0</asrwt>
<pdfrwt beam="1">  1        1 0.11845438E+00 0.35263262E+03</pdfrwt>
<pdfrwt beam="2">  1       -1 0.28144689E+00 0.35263262E+03</pdfrwt>
<totfact> 0.12061210E+00</totfact>
</mgrwt>
</event>
<event>
 4    1  0.4964158E-009  0.3764763E+03  0.7818608E-02  0.1052244E+00
         -1   -1    0    0    0  501 -0.00000000000E+00  0.00000000000E+00  0.71330972236E+03  0.71330972238E+03  0.50400000000E-02 0.  1.
          1   -1    0    0  501    0  0.00000000000E+00 -0.00000000000E+00 -0.52738826100E+03  0.52738826103E+03  0.50400000000E-02 0. -1.
    8880022    1    1    2    0    0  0.13692849160E+03  0.31558413389E+03 -0.39677654670E+03  0.54696072839E+03  0.15294330000E+03 0.  0.
    8880022    1    1    2    0    0 -0.13692849160E+03 -0.31558413389E+03  0.58269800806E+03  0.69373725501E+03  0.15294330000E+03 0.  0.
<mgrwt>
<rscale>  0 0.37647631E+03</rscale>
<asrwt>0</asrwt>
<pdfrwt beam="1">  1        1 0.81136656E-01 0.37647631E+03</pdfrwt>
<pdfrwt beam="2">  1       -1 0.10973996E+00 0.37647631E+03</pdfrwt>
<totfact> 0.33977074E+01</totfact>
</mgrwt>
</event>
<event>
 4    1  0.4964158E-009  0.1408422E+04  0.7818608E-02  0.8947745E-01
          1   -1    0    0  501    0  0.00000000000E+00  0.00000000000E+00  0.36491890103E+04  0.36491890103E+04  0.50400000000E-02 0. -1.
         -1   -1    0    0    0  501 -0.00000000000E+00 -0.00000000000E+00 -0.11525754060E+04  0.11525754060E+04  0.50400000000E-02 0.  1.
    8880022    1    1    2    0    0  0.33664595339E+03  0.13590177619E+04  0.29934887767E+04  0.33082663865E+04  0.15294330000E+03 0.  0.
    8880022    1    1    2    0    0 -0.33664595339E+03 -0.13590177619E+04 -0.49687517246E+03  0.14934980298E+04  0.15294330000E+03 0.  0.
<mgrwt>
<rscale>  0 0.14084216E+04</rscale>
<asrwt>0</asrwt>
<pdfrwt beam="1">  1        1 0.56141369E+00 0.14084216E+04</pdfrwt>
<pdfrwt beam="2">  1       -1 0.17731929E+00 0.14084216E+04</pdfrwt>
<totfact> 0.39992653E-02</totfact>
</mgrwt>
</event>
<event>
 4    1  0.4964158E-009  0.2891025E+03  0.7818608E-02  0.1090819E+00
         -1   -1    0    0    0  501 -0.00000000000E+00  0.00000000000E+00  0.28897252842E+03  0.28897252846E+03  0.50400000000E-02 0.  1.
          1   -1    0    0  501    0  0.00000000000E+00 -0.00000000000E+00 -0.86909679106E+03  0.86909679107E+03  0.50400000000E-02 0. -1.
    8880022    1    1    2    0    0  0.96975999537E+02  0.22535368688E+03  0.18290790117E+03  0.34210463604E+03  0.15294330000E+03 0.  0.
    8880022    1    1    2    0    0 -0.96975999537E+02 -0.22535368688E+03 -0.76303216381E+03  0.81596468349E+03  0.15294330000E+03 0.  0.
<mgrwt>
<rscale>  0 0.28910255E+03</rscale>
<asrwt>0</asrwt>
<pdfrwt beam="1">  1        1 0.13370720E+00 0.28910255E+03</pdfrwt>
<pdfrwt beam="2">  1       -1 0.44457313E-01 0.28910255E+03</pdfrwt>
<totfact> 0.10409275E+02</totfact>
</mgrwt>
</event>
<event>
 4    1  0.4964158E-009  0.4365996E+03  0.7818608E-02  0.1031795E+00
          1   -1    0    0  501    0  0.00000000000E+00  0.00000000000E+00  0.10570887938E+04  0.10570887939E+04  0.50400000000E-02 0. -1.
         -1   -1    0    0    0  501 -0.00000000000E+00 -0.00000000000E+00 -0.87571549754E+03  0.87571549756E+03  0.50400000000E-02 0.  1.
    8880022    1    1    2    0    0 -0.28605317997E+03 -0.29223472137E+03  0.95186051260E+03  0.10472142296E+04  0.15294330000E+03 0.  0.
    8880022    1    1    2    0    0  0.28605317997E+03  0.29223472137E+03 -0.77048721630E+03  0.88559006185E+03  0.15294330000E+03 0.  0.
<mgrwt>
<rscale>  0 0.43659960E+03</rscale>
<asrwt>0</asrwt>
<pdfrwt beam="1">  1        1 0.16262904E+00 0.43659960E+03</pdfrwt>
<pdfrwt beam="2">  1       -1 0.13472546E+00 0.43659960E+03</pdfrwt>
<totfact> 0.69702974E+00</totfact>
</mgrwt>
</event>
<event>
 4    1  0.4964158E-009  0.4149928E+03  0.7818608E-02  0.1038708E+00
         -1   -1    0    0    0  501 -0.00000000000E+00  0.00000000000E+00  0.20620377753E+04  0.20620377753E+04  0.50400000000E-02 0.  1.
          1   -1    0    0  501    0  0.00000000000E+00 -0.00000000000E+00 -0.20482010555E+04  0.20482010555E+04  0.50400000000E-02 0. -1.
    8880022    1    1    2    0    0 -0.38255070833E+03 -0.49822574792E+02  0.20197012278E+04  0.20618952534E+04  0.15294330000E+03 0.  0.
    8880022    1    1    2    0    0  0.38255070833E+03  0.49822574792E+02 -0.20058645080E+04  0.20483435773E+04  0.15294330000E+03 0. -1.
<mgrwt>
<rscale>  0 0.41499275E+03</rscale>
<asrwt>0</asrwt>
<pdfrwt beam="1">  1        1 0.31510786E+00 0.41499275E+03</pdfrwt>
<pdfrwt beam="2">  1       -1 0.31723658E+00 0.41499275E+03</pdfrwt>
<totfact> 0.87513115E-02</totfact>
</mgrwt>
</event>
<event>
 4    1  0.4964158E-009  0.1042505E+04  0.7818608E-02  0.9263116E-01
          1   -1    0    0  501    0  0.00000000000E+00  0.00000000000E+00  0.63357979768E+03  0.63357979770E+03  0.50400000000E-02 0. -1.
         -1   -1    0    0    0  501 -0.00000000000E+00 -0.00000000000E+00 -0.24971507332E+04  0.24971507332E+04  0.50400000000E-02 0.  1.
    8880022    1    1    2    0    0  0.48281511890E+03 -0.91121615159E+03 -0.55917222684E+02  0.10440036891E+04  0.15294330000E+03 0.  0.
    8880022    1    1    2    0    0 -0.48281511890E+03  0.91121615159E+03 -0.18076537128E+04  0.20867268418E+04  0.15294330000E+03 0.  0.
<mgrwt>
<rscale>  0 0.10425051E+04</rscale>
<asrwt>0</asrwt>
<pdfrwt beam="1">  1        1 0.97473816E-01 0.10425051E+04</pdfrwt>
<pdfrwt beam="2">  1       -1 0.38417703E+00 0.10425051E+04</pdfrwt>
<totfact> 0.29502983E-01</totfact>
</mgrwt>
</event>
<event>
 4    1  0.4964158E-009  0.9166002E+03  0.7818608E-02  0.9405065E-01
         -1   -1    0    0    0  501 -0.00000000000E+00  0.00000000000E+00  0.11829006837E+04  0.11829006837E+04  0.50400000000E-02 0.  1.
          1   -1    0    0  501    0  0.00000000000E+00 -0.00000000000E+00 -0.94895012830E+03  0.94895012831E+03  0.50400000000E-02 0. -1.
    8880022    1    1    2    0    0  0.84400310924E+03  0.32314555859E+03  0.65157764075E+03  0.11245929821E+04  0.15294330000E+03 0.  0.
    8880022    1    1    2    0    0 -0.84400310924E+03 -0.32314555859E+03 -0.41762708537E+03  0.10072578299E+04  0.15294330000E+03 0.  0.
<mgrwt>
<rscale>  0 0.91660021E+03</rscale>
<asrwt>0</asrwt>
<pdfrwt beam="1">  1        1 0.14599233E+00 0.91660021E+03</pdfrwt>
<pdfrwt beam="2">  1       -1 0.18198472E+00 0.91660021E+03</pdfrwt>
<totfact> 0.33912801E+00</totfact>
</mgrwt>
</event>
<event>
 4    1  0.4964158E-009  0.1665692E+04  0.7818608E-02  0.8781177E-01
         -1   -1    0    0    0  501 -0.00000000000E+00  0.00000000000E+00  0.13771223701E+04  0.13771223702E+04  0.50400000000E-02 0.  1.
          1   -1    0    0  501    0  0.00000000000E+00 -0.00000000000E+00 -0.30099218983E+04  0.30099218983E+04  0.50400000000E-02 0. -1.
    8880022    1    1    2    0    0  0.14723404253E+04 -0.76377395424E+03  0.44489908947E+03  0.17240834765E+04  0.15294330000E+03 0.  0.
    8880022    1    1    2    0    0 -0.14723404253E+04  0.76377395424E+03 -0.20776986176E+04  0.26629607920E+04  0.15294330000E+03 0.  0.
<mgrwt>
<rscale>  0 0.16656916E+04</rscale>
<asrwt>0</asrwt>
<pdfrwt beam="1">  1        1 0.46306491E+00 0.16656916E+04</pdfrwt>
<pdfrwt beam="2">  1       -1 0.21186498E+00 0.16656916E+04</pdfrwt>
<totfact> 0.68045484E-02</totfact>
</mgrwt>
</event>
<event>
 4    1  0.4964158E-009  0.5886313E+03  0.7818608E-02  0.9929277E-01
         -1   -1    0    0    0  501 -0.00000000000E+00  0.00000000000E+00  0.19954949063E+03  0.19954949070E+03  0.50400000000E-02 0.  1.
          1   -1    0    0  501    0  0.00000000000E+00 -0.00000000000E+00 -0.30942321094E+04  0.30942321095E+04  0.50400000000E-02 0. -1.
    8880022    1    1    2    0    0  0.30781451231E+03 -0.47785501053E+03 -0.25383297012E+04  0.26056869555E+04  0.15294330000E+03 0.  0.
    8880022    1    1    2    0    0 -0.30781451231E+03  0.47785501053E+03 -0.35635291760E+03  0.68809464464E+03  0.15294330000E+03 0.  1.
<mgrwt>
<rscale>  0 0.58863133E+03</rscale>
<asrwt>0</asrwt>
<pdfrwt beam="1">  1        1 0.47603567E+00 0.58863133E+03</pdfrwt>
<pdfrwt beam="2">  1       -1 0.30699924E-01 0.58863133E+03</pdfrwt>
<totfact> 0.55197322E+00</totfact>
</mgrwt>
</event>
<event>
 4    1  0.4964158E-009  0.6142201E+03  0.7818608E-02  0.9876335E-01
          1   -1    0    0  501    0  0.00000000000E+00  0.00000000000E+00  0.25667844114E+03  0.25667844119E+03  0.50400000000E-02 0. -1.
         -1   -1    0    0    0  501 -0.00000000000E+00 -0.00000000000E+00 -0.15030818282E+04  0.15030818283E+04  0.50400000000E-02 0.  1.
    8880022    1    1    2    0    0  0.39164653983E+03 -0.44775853923E+03 -0.75412759552E+03  0.97261236109E+03  0.15294330000E+03 0.  0.
    8880022    1    1    2    0    0 -0.39164653983E+03  0.44775853923E+03 -0.49227579159E+03  0.78714790835E+03  0.15294330000E+03 0.  0.
<mgrwt>
<rscale>  0 0.61422014E+03</rscale>
<asrwt>0</asrwt>
<pdfrwt beam="1">  1        1 0.39488992E-01 0.61422014E+03</pdfrwt>
<pdfrwt beam="2">  1       -1 0.23124335E+00 0.61422014E+03</pdfrwt>
<totfact> 0.10463627E+01</totfact>
</mgrwt>
</event>
<event>
 4    1  0.4964158E-009  0.5617881E+03  0.7818608E-02  0.9988017E-01
          1   -1    0    0  501    0  0.00000000000E+00  0.00000000000E+00  0.39158561068E+04  0.39158561068E+04  0.50400000000E-02 0. -1.
         -1   -1    0    0    0  501 -0.00000000000E+00 -0.00000000000E+00 -0.29096669870E+03  0.29096669874E+03  0.50400000000E-02 0.  1.
    8880022    1    1    2    0    0  0.43517835765E+03 -0.32067750998E+03  0.36009665984E+04  0.36445255334E+04  0.15294330000E+03 0.  0.
    8880022    1    1    2    0    0 -0.43517835765E+03  0.32067750998E+03  0.23922809739E+02  0.56229727210E+03  0.15294330000E+03 0.  0.
<mgrwt>
<rscale>  0 0.56178815E+03</rscale>
<asrwt>0</asrwt>
<pdfrwt beam="1">  1        1 0.60243939E+00 0.56178815E+03</pdfrwt>
<pdfrwt beam="2">  1       -1 0.44764108E-01 0.56178815E+03</pdfrwt>
<totfact> 0.65570339E-01</totfact>
</mgrwt>
</event>
<event>
 4    1  0.4964158E-009  0.2889558E+03  0.7818608E-02  0.1090896E+00
         -1   -1    0    0    0  501 -0.00000000000E+00  0.00000000000E+00  0.81309369515E+02  0.81309369671E+02  0.50400000000E-02 0.  1.
          1   -1    0    0  501    0  0.00000000000E+00 -0.00000000000E+00 -0.17464393689E+04  0.17464393689E+04  0.50400000000E-02 0. -1.
    8880022    1    1    2    0    0  0.94583797390E+02 -0.22618074807E+03 -0.24596622354E+03  0.37946654880E+03  0.15294330000E+03 0.  0.
    8880022    1    1    2    0    0 -0.94583797390E+02  0.22618074807E+03 -0.14191637759E+04  0.14482821898E+04  0.15294330000E+03 0.  0.
<mgrwt>
<rscale>  0 0.28895584E+03</rscale>
<asrwt>0</asrwt>
<pdfrwt beam="1">  1        1 0.26868295E+00 0.28895584E+03</pdfrwt>
<pdfrwt beam="2">  1       -1 0.12509135E-01 0.28895584E+03</pdfrwt>
<totfact> 0.21158522E+02</totfact>
</mgrwt>
</event>
<event>
 4    1  0.4964158E-009  0.8923732E+03  0.7818608E-02  0.9435166E-01
          1   -1    0    0  501    0  0.00000000000E+00  0.00000000000E+00  0.11681301380E+04  0.11681301380E+04  0.50400000000E-02 0. -1.
         -1   -1    0    0    0  501 -0.00000000000E+00 -0.00000000000E+00 -0.11316508518E+04  0.11316508518E+04  0.50400000000E-02 0.  1.
    8880022    1    1    2    0    0  0.35236120115E+03 -0.80546872747E+03 -0.70682435337E+03  0.11383894793E+04  0.15294330000E+03 0.  0.
    8880022    1    1    2    0    0 -0.35236120115E+03  0.80546872747E+03  0.74330363960E+03  0.11613915105E+04  0.15294330000E+03 0.  0.
<mgrwt>
<rscale>  0 0.89237321E+03</rscale>
<asrwt>0</asrwt>
<pdfrwt beam="1">  1        1 0.17971233E+00 0.89237321E+03</pdfrwt>
<pdfrwt beam="2">  1       -1 0.17410013E+00 0.89237321E+03</pdfrwt>
<totfact> 0.26382219E+00</totfact>
</mgrwt>
</event>
<event>
 4    1  0.4964158E-009  0.4028785E+03  0.7818608E-02  0.1042787E+00
          1   -1    0    0  501    0  0.00000000000E+00  0.00000000000E+00  0.16589649329E+04  0.16589649330E+04  0.50400000000E-02 0. -1.
         -1   -1    0    0    0  501 -0.00000000000E+00 -0.00000000000E+00 -0.44426573743E+03  0.44426573746E+03  0.50400000000E-02 0.  1.
    8880022    1    1    2    0    0 -0.40708447124E+02  0.37048921550E+03 -0.32127748582E+03  0.51529633453E+03  0.15294330000E+03 0.  0.
    8880022    1    1    2    0    0  0.40708447124E+02 -0.37048921550E+03  0.15359766813E+04  0.15879343359E+04  0.15294330000E+03 0.  0.
<mgrwt>
<rscale>  0 0.40287850E+03</rscale>
<asrwt>0</asrwt>
<pdfrwt beam="1">  1        1 0.25522538E+00 0.40287850E+03</pdfrwt>
<pdfrwt beam="2">  1       -1 0.68348574E-01 0.40287850E+03</pdfrwt>
<totfact> 0.12293367E+01</totfact>
</mgrwt>
</event>
<event>
 4    1  0.4964158E-009  0.5592179E+03  0.7818608E-02  0.9993826E-01
         -1   -1    0    0    0  501 -0.00000000000E+00  0.00000000000E+00  0.61250133021E+03  0.61250133023E+03  0.50400000000E-02 0.  1.
          1   -1    0    0  501    0  0.00000000000E+00 -0.00000000000E+00 -0.11757982402E+04  0.11757982402E+04  0.50400000000E-02 0. -1.
    8880022    1    1    2    0    0 -0.31803860190E+03  0.43380238207E+03 -0.95420570950E+03  0.11059987559E+04  0.15294330000E+03 0.  0.
    8880022    1    1    2    0    0  0.31803860190E+03 -0.43380238207E+03  0.39090879950E+03  0.68230081455E+03  0.15294330000E+03 0.  0.
<mgrwt>
<rscale>  0 0.55921795E+03</rscale>
<asrwt>0</asrwt>
<pdfrwt beam="1">  1        1 0.18089204E+00 0.55921795E+03</pdfrwt>
<pdfrwt beam="2">  1       -1 0.94230974E-01 0.55921795E+03</pdfrwt>
<totfact> 0.12929077E+01</totfact>
</mgrwt>
</event>
<event>
 4    1  0.4964158E-009  0.4211433E+03  0.7818608E-02  0.1036695E+00
         -1   -1    0    0    0  501 -0.00000000000E+00  0.00000000000E+00  0.93230072794E+03  0.93230072795E+03  0.50400000000E-02 0.  1.
          1   -1    0    0  501    0  0.00000000000E+00 -0.00000000000E+00 -0.88737052876E+03  0.88737052877E+03  0.50400000000E-02 0. -1.
    8880022    1    1    2    0    0  0.25714076481E+03 -0.29639272441E+03 -0.78396592694E+03  0.88992373136E+03  0.15294330000E+03 0.  0.
    8880022    1    1    2    0    0 -0.25714076481E+03  0.29639272441E+03  0.82889612612E+03  0.92974752536E+03  0.15294330000E+03 0.  0.
<mgrwt>
<rscale>  0 0.42114329E+03</rscale>
<asrwt>0</asrwt>
<pdfrwt beam="1">  1        1 0.13651854E+00 0.42114329E+03</pdfrwt>
<pdfrwt beam="2">  1       -1 0.14343088E+00 0.42114329E+03</pdfrwt>
<totfact> 0.80617348E+00</totfact>
</mgrwt>
</event>
<event>
 4    1  0.4964158E-009  0.1252940E+04  0.7818608E-02  0.9067739E-01
         -1   -1    0    0    0  501 -0.00000000000E+00  0.00000000000E+00  0.89093963926E+03  0.89093963928E+03  0.50400000000E-02 0.  1.
          1   -1    0    0  501    0  0.00000000000E+00 -0.00000000000E+00 -0.25437742116E+04  0.25437742116E+04  0.50400000000E-02 0. -1.
    8880022    1    1    2    0    0 -0.99327976664E+03 -0.74824028522E+03  0.12562097469E+03  0.12592221812E+04  0.15294330000E+03 0.  0.
    8880022    1    1    2    0    0  0.99327976664E+03  0.74824028522E+03 -0.17784555470E+04  0.21754916697E+04  0.15294330000E+03 0.  0.
<mgrwt>
<rscale>  0 0.12529405E+04</rscale>
<asrwt>0</asrwt>
<pdfrwt beam="1">  1        1 0.39134988E+00 0.12529405E+04</pdfrwt>
<pdfrwt beam="2">  1       -1 0.13706764E+00 0.12529405E+04</pdfrwt>
<totfact> 0.54865439E-01</totfact>
</mgrwt>
</event>
<event>
 4    1  0.4964158E-009  0.5043389E+03  0.7818608E-02  0.1012653E+00
         -1   -1    0    0    0  501 -0.00000000000E+00  0.00000000000E+00  0.13052712980E+04  0.13052712980E+04  0.50400000000E-02 0.  1.
          1   -1    0    0  501    0  0.00000000000E+00 -0.00000000000E+00 -0.70212213794E+03  0.70212213795E+03  0.50400000000E-02 0. -1.
    8880022    1    1    2    0    0  0.34659054966E+03  0.33292803630E+03 -0.55154178060E+03  0.74736609184E+03  0.15294330000E+03 0.  0.
    8880022    1    1    2    0    0 -0.34659054966E+03 -0.33292803630E+03  0.11546909407E+04  0.12600273441E+04  0.15294330000E+03 0.  0.
<mgrwt>
<rscale>  0 0.50433891E+03</rscale>
<asrwt>0</asrwt>
<pdfrwt beam="1">  1        1 0.10801879E+00 0.50433891E+03</pdfrwt>
<pdfrwt beam="2">  1       -1 0.20081097E+00 0.50433891E+03</pdfrwt>
<totfact> 0.43774357E+00</totfact>
</mgrwt>
</event>
<event>
 4    1  0.4964158E-009  0.1058900E+04  0.7818608E-02  0.9246203E-01
          1   -1    0    0  501    0  0.00000000000E+00  0.00000000000E+00  0.29414813174E+04  0.29414813174E+04  0.50400000000E-02 0. -1.
         -1   -1    0    0    0  501 -0.00000000000E+00 -0.00000000000E+00 -0.64387663043E+03  0.64387663045E+03  0.50400000000E-02 0.  1.
    8880022    1    1    2    0    0  0.93986097585E+03  0.46318340851E+03  0.37679905463E+01  0.10589066883E+04  0.15294330000E+03 0.  0.
    8880022    1    1    2    0    0 -0.93986097585E+03 -0.46318340851E+03  0.22938366964E+04  0.25264512595E+04  0.15294330000E+03 0.  0.
<mgrwt>
<rscale>  0 0.10589000E+04</rscale>
<asrwt>0</asrwt>
<pdfrwt beam="1">  1        1 0.45253559E+00 0.10589000E+04</pdfrwt>
<pdfrwt beam="2">  1       -1 0.99057943E-01 0.10589000E+04</pdfrwt>
<totfact> 0.65289124E-01</totfact>
</mgrwt>
</event>
<event>
 4    1  0.4964158E-009  0.7095878E+03  0.7818608E-02  0.9700975E-01
         -1   -1    0    0    0  501 -0.00000000000E+00  0.00000000000E+00  0.19190676393E+04  0.19190676393E+04  0.50400000000E-02 0.  1.
          1   -1    0    0  501    0  0.00000000000E+00 -0.00000000000E+00 -0.87657087594E+03  0.87657087596E+03  0.50400000000E-02 0. -1.
    8880022    1    1    2    0    0  0.65202602058E+03  0.23448939280E+03  0.16913162231E+04  0.18341388787E+04  0.15294330000E+03 0.  0.
    8880022    1    1    2    0    0 -0.65202602058E+03 -0.23448939280E+03 -0.64881945971E+03  0.96149963659E+03  0.15294330000E+03 0.  0.
<mgrwt>
<rscale>  0 0.70958781E+03</rscale>
<asrwt>0</asrwt>
<pdfrwt beam="1">  1        1 0.13485706E+00 0.70958781E+03</pdfrwt>
<pdfrwt beam="2">  1       -1 0.29524117E+00 0.70958781E+03</pdfrwt>
<totfact> 0.72039702E-01</totfact>
</mgrwt>
</event>
<event>
 4    1  0.4964158E-009  0.6691906E+03  0.7818608E-02  0.9771421E-01
          1   -1    0    0  501    0  0.00000000000E+00  0.00000000000E+00  0.12422776041E+04  0.12422776041E+04  0.50400000000E-02 0. -1.
         -1   -1    0    0    0  501 -0.00000000000E+00 -0.00000000000E+00 -0.75611391205E+03  0.75611391207E+03  0.50400000000E-02 0.  1.
    8880022    1    1    2    0    0  0.55511477373E+03  0.34098681189E+03 -0.47969427008E+03  0.82336059151E+03  0.15294330000E+03 0.  0.
    8880022    1    1    2    0    0 -0.55511477373E+03 -0.34098681189E+03  0.96585796212E+03  0.11750309247E+04  0.15294330000E+03 0.  0.
<mgrwt>
<rscale>  0 0.66919061E+03</rscale>
<asrwt>0</asrwt>
<pdfrwt beam="1">  1        1 0.19111963E+00 0.66919061E+03</pdfrwt>
<pdfrwt beam="2">  1       -1 0.11632522E+00 0.66919061E+03</pdfrwt>
<totfact> 0.69837155E+00</totfact>
</mgrwt>
</event>
<event>
 4    1  0.4964158E-009  0.6758183E+03  0.7818608E-02  0.9759504E-01
         -1   -1    0    0    0  501 -0.00000000000E+00  0.00000000000E+00  0.53463910733E+03  0.53463910736E+03  0.50400000000E-02 0.  1.
          1   -1    0    0  501    0  0.00000000000E+00 -0.00000000000E+00 -0.12667974276E+04  0.12667974276E+04  0.50400000000E-02 0. -1.
    8880022    1    1    2    0    0  0.52756434077E+03 -0.39371894609E+03  0.14791433083E+03  0.69181575903E+03  0.15294330000E+03 0.  0.
    8880022    1    1    2    0    0 -0.52756434077E+03  0.39371894609E+03 -0.88007265109E+03  0.11096207759E+04  0.15294330000E+03 0.  0.
<mgrwt>
<rscale>  0 0.67581832E+03</rscale>
<asrwt>0</asrwt>
<pdfrwt beam="1">  1        1 0.19489191E+00 0.67581832E+03</pdfrwt>
<pdfrwt beam="2">  1       -1 0.82252171E-01 0.67581832E+03</pdfrwt>
<totfact> 0.14671934E+01</totfact>
</mgrwt>
</event>
<event>
 4    1  0.5546319E-009  0.1060575E+04  0.7818608E-02  0.9244493E-01
          1   -1    0    0  501    0  0.00000000000E+00  0.00000000000E+00  0.25441114493E+04  0.25441114493E+04  0.50400000000E-02 0. -1.
         -1   -1    0    0    0  501 -0.00000000000E+00 -0.00000000000E+00 -0.11497454166E+04  0.11497454166E+04  0.50400000000E-02 0.  1.
    8880022    1    1    2    0    0 -0.36108457311E+03 -0.98541680411E+03  0.21461177760E+04  0.23938758340E+04  0.15294330000E+03 0.  0.
    8880022    1    1    2    0    0  0.36108457311E+03  0.98541680411E+03 -0.75175174335E+03  0.12999810319E+04  0.15294330000E+03 0.  0.
<mgrwt>
<rscale>  0 0.10605753E+04</rscale>
<asrwt>0</asrwt>
<pdfrwt beam="1">  1        1 0.39140175E+00 0.10605753E+04</pdfrwt>
<pdfrwt beam="2">  1       -1 0.17688391E+00 0.10605753E+04</pdfrwt>
<totfact> 0.27911872E-01</totfact>
</mgrwt>
</event>
<event>
 4    1  0.4964158E-009  0.1412295E+04  0.7818608E-02  0.8944967E-01
          1   -1    0    0  501    0  0.00000000000E+00  0.00000000000E+00  0.12116054945E+04  0.12116054945E+04  0.50400000000E-02 0. -1.
         -1   -1    0    0    0  501 -0.00000000000E+00 -0.00000000000E+00 -0.26823240436E+04  0.26823240436E+04  0.50400000000E-02 0.  1.
    8880022    1    1    2    0    0  0.10829925354E+04  0.89348300031E+03 -0.19454081644E+04  0.24039944431E+04  0.15294330000E+03 0.  0.
    8880022    1    1    2    0    0 -0.10829925354E+04 -0.89348300031E+03  0.47468961520E+03  0.14899350950E+04  0.15294330000E+03 0.  0.
<mgrwt>
<rscale>  0 0.14122947E+04</rscale>
<asrwt>0</asrwt>
<pdfrwt beam="1">  1        1 0.18640085E+00 0.14122947E+04</pdfrwt>
<pdfrwt beam="2">  1       -1 0.41266524E+00 0.14122947E+04</pdfrwt>
<totfact> 0.58961883E-02</totfact>
</mgrwt>
</event>
<event>
 4    1  0.4964158E-009  0.8282205E+03  0.7818608E-02  0.9520044E-01
         -1   -1    0    0    0  501 -0.00000000000E+00  0.00000000000E+00  0.85736383666E+03  0.85736383668E+03  0.50400000000E-02 0.  1.
          1   -1    0    0  501    0  0.00000000000E+00 -0.00000000000E+00 -0.49840507275E+04  0.49840507275E+04  0.50400000000E-02 0. -1.
    8880022    1    1    2    0    0  0.76576904520E+03 -0.27596238139E+03  0.61269139368E+03  0.10302135038E+04  0.15294330000E+03 0.  0.
    8880022    1    1    2    0    0 -0.76576904520E+03  0.27596238139E+03 -0.47393782845E+04  0.48112010603E+04  0.15294330000E+03 0. -1.
<mgrwt>
<rscale>  0 0.82822045E+03</rscale>
<asrwt>0</asrwt>
<pdfrwt beam="1">  1        1 0.76677702E+00 0.82822045E+03</pdfrwt>
<pdfrwt beam="2">  1       -1 0.13190213E+00 0.82822045E+03</pdfrwt>
<totfact> 0.51154876E-03</totfact>
</mgrwt>
</event>
<event>
 4    1  0.4964158E-009  0.5735093E+03  0.7818608E-02  0.9961943E-01
          1   -1    0    0  501    0  0.00000000000E+00  0.00000000000E+00  0.13603505302E+04  0.13603505302E+04  0.50400000000E-02 0. -1.
         -1   -1    0    0    0  501 -0.00000000000E+00 -0.00000000000E+00 -0.51281623904E+03  0.51281623907E+03  0.50400000000E-02 0.  1.
    8880022    1    1    2    0    0 -0.51299268644E+03 -0.20581476447E+03  0.11046539804E+04  0.12446578980E+04  0.15294330000E+03 0.  0.
    8880022    1    1    2    0    0  0.51299268644E+03  0.20581476447E+03 -0.25711968928E+03  0.62850887125E+03  0.15294330000E+03 0.  0.
<mgrwt>
<rscale>  0 0.57350926E+03</rscale>
<asrwt>0</asrwt>
<pdfrwt beam="1">  1        1 0.20928470E+00 0.57350926E+03</pdfrwt>
<pdfrwt beam="2">  1       -1 0.78894805E-01 0.57350926E+03</pdfrwt>
<totfact> 0.14015065E+01</totfact>
</mgrwt>
</event>
<event>
 4    1  0.4964158E-009  0.5409256E+03  0.7818608E-02  0.1003616E+00
          1   -1    0    0  501    0  0.00000000000E+00  0.00000000000E+00  0.20108658997E+04  0.20108658998E+04  0.50400000000E-02 0. -1.
         -1   -1    0    0    0  501 -0.00000000000E+00 -0.00000000000E+00 -0.30336722902E+03  0.30336722906E+03  0.50400000000E-02 0.  1.
    8880022    1    1    2    0    0 -0.34010903675E+03 -0.39183509840E+03  0.16884396750E+04  0.17729718245E+04  0.15294330000E+03 0.  0.
    8880022    1    1    2    0    0  0.34010903675E+03  0.39183509840E+03  0.19058995690E+02  0.54126130432E+03  0.15294330000E+03 0.  0.
<mgrwt>
<rscale>  0 0.54092565E+03</rscale>
<asrwt>0</asrwt>
<pdfrwt beam="1">  1        1 0.30936399E+00 0.54092565E+03</pdfrwt>
<pdfrwt beam="2">  1       -1 0.46671881E-01 0.54092565E+03</pdfrwt>
<totfact> 0.14511457E+01</totfact>
</mgrwt>
</event>
<event>
 4    1  0.4964158E-009  0.6915819E+03  0.7818608E-02  0.9731737E-01
         -1   -1    0    0    0  501 -0.00000000000E+00  0.00000000000E+00  0.62933473907E+03  0.62933473909E+03  0.50400000000E-02 0.  1.
          1   -1    0    0  501    0  0.00000000000E+00 -0.00000000000E+00 -0.77629425209E+03  0.77629425211E+03  0.50400000000E-02 0. -1.
    8880022    1    1    2    0    0  0.67049523352E+03  0.73007370572E+02 -0.17534623924E+03  0.71346470898E+03  0.15294330000E+03 0.  0.
    8880022    1    1    2    0    0 -0.67049523352E+03 -0.73007370572E+02  0.28386726220E+02  0.69216428222E+03  0.15294330000E+03 0. -1.
<mgrwt>
<rscale>  0 0.69158195E+03</rscale>
<asrwt>0</asrwt>
<pdfrwt beam="1">  1        1 0.11942988E+00 0.69158195E+03</pdfrwt>
<pdfrwt beam="2">  1       -1 0.96820729E-01 0.69158195E+03</pdfrwt>
<totfact> 0.24590129E+01</totfact>
</mgrwt>
</event>
<event>
 4    1  0.4964158E-009  0.2017904E+03  0.7818608E-02  0.1148237E+00
          1   -1    0    0  501    0  0.00000000000E+00  0.00000000000E+00  0.40964472476E+03  0.40964472479E+03  0.50400000000E-02 0. -1.
         -1   -1    0    0    0  501 -0.00000000000E+00 -0.00000000000E+00 -0.29925915637E+03  0.29925915641E+03  0.50400000000E-02 0.  1.
    8880022    1    1    2    0    0  0.21254342288E+02  0.12990753107E+03  0.34485633714E+03  0.39955632891E+03  0.15294330000E+03 0.  0.
    8880022    1    1    2    0    0 -0.21254342288E+02 -0.12990753107E+03 -0.23447076875E+03  0.30934755229E+03  0.15294330000E+03 0.  1.
<mgrwt>
<rscale>  0 0.20179040E+03</rscale>
<asrwt>0</asrwt>
<pdfrwt beam="1">  1        1 0.63022266E-01 0.20179040E+03</pdfrwt>
<pdfrwt beam="2">  1       -1 0.46039870E-01 0.20179040E+03</pdfrwt>
<totfact> 0.28523315E+02</totfact>
</mgrwt>
</event>
<event>
 4    1  0.4964158E-009  0.1907665E+04  0.7818608E-02  0.8651051E-01
          1   -1    0    0  501    0  0.00000000000E+00  0.00000000000E+00  0.32352430022E+04  0.32352430022E+04  0.50400000000E-02 0. -1.
         -1   -1    0    0    0  501 -0.00000000000E+00 -0.00000000000E+00 -0.21164043524E+04  0.21164043524E+04  0.50400000000E-02 0.  1.
    8880022    1    1    2    0    0  0.19014200818E+04 -0.19846539788E+02 -0.12721148459E+04  0.22929151852E+04  0.15294330000E+03 0.  0.
    8880022    1    1    2    0    0 -0.19014200818E+04  0.19846539788E+02  0.23909534957E+04  0.30587321694E+04  0.15294330000E+03 0.  0.
<mgrwt>
<rscale>  0 0.19076645E+04</rscale>
<asrwt>0</asrwt>
<pdfrwt beam="1">  1        1 0.49772969E+00 0.19076645E+04</pdfrwt>
<pdfrwt beam="2">  1       -1 0.32560067E+00 0.19076645E+04</pdfrwt>
<totfact> 0.80415926E-03</totfact>
</mgrwt>
</event>
<event>
 4    1  0.4964158E-009  0.7431081E+03  0.7818608E-02  0.9646225E-01
          1   -1    0    0  501    0  0.00000000000E+00  0.00000000000E+00  0.15020228935E+04  0.15020228935E+04  0.50400000000E-02 0. -1.
         -1   -1    0    0    0  501 -0.00000000000E+00 -0.00000000000E+00 -0.44929993891E+03  0.44929993894E+03  0.50400000000E-02 0.  1.
    8880022    1    1    2    0    0  0.54091007419E+03  0.48603941088E+03  0.94229593452E+03  0.12000547065E+04  0.15294330000E+03 0.  0.
    8880022    1    1    2    0    0 -0.54091007419E+03 -0.48603941088E+03  0.11042702002E+03  0.75126812594E+03  0.15294330000E+03 0.  0.
<mgrwt>
<rscale>  0 0.74310811E+03</rscale>
<asrwt>0</asrwt>
<pdfrwt beam="1">  1        1 0.23108044E+00 0.74310811E+03</pdfrwt>
<pdfrwt beam="2">  1       -1 0.69123068E-01 0.74310811E+03</pdfrwt>
<totfact> 0.14325042E+01</totfact>
</mgrwt>
</event>
<event>
 4    1  0.4964158E-009  0.6726607E+03  0.7818608E-02  0.9765163E-01
          1   -1    0    0  501    0  0.00000000000E+00  0.00000000000E+00  0.99516457534E+03  0.99516457535E+03  0.50400000000E-02 0. -1.
         -1   -1    0    0    0  501 -0.00000000000E+00 -0.00000000000E+00 -0.61044384716E+03  0.61044384718E+03  0.50400000000E-02 0.  1.
    8880022    1    1    2    0    0  0.84061589115E+02 -0.64962638606E+03  0.59789943228E+03  0.89997565321E+03  0.15294330000E+03 0.  0.
    8880022    1    1    2    0    0 -0.84061589115E+02  0.64962638606E+03 -0.21317870411E+03  0.70563276932E+03  0.15294330000E+03 0.  0.
<mgrwt>
<rscale>  0 0.67266072E+03</rscale>
<asrwt>0</asrwt>
<pdfrwt beam="1">  1        1 0.15310224E+00 0.67266072E+03</pdfrwt>
<pdfrwt beam="2">  1       -1 0.93914438E-01 0.67266072E+03</pdfrwt>
<totfact> 0.17447609E+01</totfact>
</mgrwt>
</event>
<event>
 4    1  0.4964158E-009  0.8080482E+03  0.7818608E-02  0.9548440E-01
          1   -1    0    0  501    0  0.00000000000E+00  0.00000000000E+00  0.10761427589E+04  0.10761427589E+04  0.50400000000E-02 0. -1.
         -1   -1    0    0    0  501 -0.00000000000E+00 -0.00000000000E+00 -0.72928418830E+03  0.72928418831E+03  0.50400000000E-02 0.  1.
    8880022    1    1    2    0    0  0.41709303494E+03  0.67496935068E+03  0.54346437843E+03  0.97380460452E+03  0.15294330000E+03 0.  0.
    8880022    1    1    2    0    0 -0.41709303494E+03 -0.67496935068E+03 -0.19660580785E+03  0.83162234268E+03  0.15294330000E+03 0.  0.
<mgrwt>
<rscale>  0 0.80804819E+03</rscale>
<asrwt>0</asrwt>
<pdfrwt beam="1">  1        1 0.16556043E+00 0.80804819E+03</pdfrwt>
<pdfrwt beam="2">  1       -1 0.11219757E+00 0.80804819E+03</pdfrwt>
<totfact> 0.98677979E+00</totfact>
</mgrwt>
</event>
<event>
 4    1  0.4964158E-009  0.2288749E+03  0.7818608E-02  0.1127434E+00
         -1   -1    0    0    0  501 -0.00000000000E+00  0.00000000000E+00  0.24109032130E+03  0.24109032135E+03  0.50400000000E-02 0.  1.
          1   -1    0    0  501    0  0.00000000000E+00 -0.00000000000E+00 -0.13451065346E+04  0.13451065346E+04  0.50400000000E-02 0. -1.
    8880022    1    1    2    0    0 -0.14446912367E+03 -0.90115123423E+02 -0.12782314631E+04  0.12985605066E+04  0.15294330000E+03 0.  0.
    8880022    1    1    2    0    0  0.14446912367E+03  0.90115123423E+02  0.17421524980E+03  0.28763634931E+03  0.15294330000E+03 0.  1.
<mgrwt>
<rscale>  0 0.22887489E+03</rscale>
<asrwt>0</asrwt>
<pdfrwt beam="1">  1        1 0.20693946E+00 0.22887489E+03</pdfrwt>
<pdfrwt beam="2">  1       -1 0.37090819E-01 0.22887489E+03</pdfrwt>
<totfact> 0.65923327E+01</totfact>
</mgrwt>
</event>
<event>
 4    1  0.4964158E-009  0.9953664E+03  0.7818608E-02  0.9313641E-01
          1   -1    0    0  501    0  0.00000000000E+00  0.00000000000E+00  0.29190496923E+04  0.29190496923E+04  0.50400000000E-02 0. -1.
         -1   -1    0    0    0  501 -0.00000000000E+00 -0.00000000000E+00 -0.45627207957E+03  0.45627207960E+03  0.50400000000E-02 0.  1.
    8880022    1    1    2    0    0 -0.18518683584E+03 -0.96595471722E+03  0.20854918097E+04  0.23108505839E+04  0.15294330000E+03 0.  0.
    8880022    1    1    2    0    0  0.18518683584E+03  0.96595471722E+03  0.37728580305E+03  0.10644711880E+04  0.15294330000E+03 0.  0.
<mgrwt>
<rscale>  0 0.99536643E+03</rscale>
<asrwt>0</asrwt>
<pdfrwt beam="1">  1        1 0.44908456E+00 0.99536643E+03</pdfrwt>
<pdfrwt beam="2">  1       -1 0.70195706E-01 0.99536643E+03</pdfrwt>
<totfact> 0.14424821E+00</totfact>
</mgrwt>
</event>
<event>
 4    1  0.4964158E-009  0.7200925E+03  0.7818608E-02  0.9683475E-01
          1   -1    0    0  501    0  0.00000000000E+00  0.00000000000E+00  0.17770027463E+04  0.17770027463E+04  0.50400000000E-02 0. -1.
         -1   -1    0    0    0  501 -0.00000000000E+00 -0.00000000000E+00 -0.68692773416E+03  0.68692773418E+03  0.50400000000E-02 0.  1.
    8880022    1    1    2    0    0  0.69330100990E+03  0.12031315667E+03 -0.38931447655E+03  0.81859572480E+03  0.15294330000E+03 0.  0.
    8880022    1    1    2    0    0 -0.69330100990E+03 -0.12031315667E+03  0.14793894887E+04  0.16453347557E+04  0.15294330000E+03 0.  0.
<mgrwt>
<rscale>  0 0.72009249E+03</rscale>
<asrwt>0</asrwt>
<pdfrwt beam="1">  1        1 0.27338504E+00 0.72009249E+03</pdfrwt>
<pdfrwt beam="2">  1       -1 0.10568119E+00 0.72009249E+03</pdfrwt>
<totfact> 0.37306845E+00</totfact>
</mgrwt>
</event>
<event>
 4    1  0.4964158E-009  0.2111502E+03  0.7818608E-02  0.1140658E+00
         -1   -1    0    0    0  501 -0.00000000000E+00  0.00000000000E+00  0.64888832874E+03  0.64888832876E+03  0.50400000000E-02 0.  1.
          1   -1    0    0  501    0  0.00000000000E+00 -0.00000000000E+00 -0.12178842414E+03  0.12178842425E+03  0.50400000000E-02 0. -1.
    8880022    1    1    2    0    0 -0.89913049615E+02  0.11449197936E+03  0.51794148097E+03  0.55932799014E+03  0.15294330000E+03 0.  0.
    8880022    1    1    2    0    0  0.89913049615E+02 -0.11449197936E+03  0.91584236309E+01  0.21134876287E+03  0.15294330000E+03 0.  0.
<mgrwt>
<rscale>  0 0.21115024E+03</rscale>
<asrwt>0</asrwt>
<pdfrwt beam="1">  1        1 0.18736681E-01 0.21115024E+03</pdfrwt>
<pdfrwt beam="2">  1       -1 0.99828974E-01 0.21115024E+03</pdfrwt>
<totfact> 0.28341721E+02</totfact>
</mgrwt>
</event>
<event>
 4    1  0.4964158E-009  0.1887010E+03  0.7818608E-02  0.1159638E+00
          1   -1    0    0  501    0  0.00000000000E+00  0.00000000000E+00  0.70402610801E+03  0.70402610803E+03  0.50400000000E-02 0. -1.
         -1   -1    0    0    0  501 -0.00000000000E+00 -0.00000000000E+00 -0.12792295867E+03  0.12792295876E+03  0.50400000000E-02 0.  1.
    8880022    1    1    2    0    0  0.79138021182E+02  0.77159559331E+02 -0.35399889574E+02  0.19199278421E+03  0.15294330000E+03 0.  1.
    8880022    1    1    2    0    0 -0.79138021182E+02 -0.77159559331E+02  0.61150303892E+03  0.63995628258E+03  0.15294330000E+03 0.  0.
<mgrwt>
<rscale>  0 0.18870103E+03</rscale>
<asrwt>0</asrwt>
<pdfrwt beam="1">  1        1 0.10831171E+00 0.18870103E+03</pdfrwt>
<pdfrwt beam="2">  1       -1 0.19680456E-01 0.18870103E+03</pdfrwt>
<totfact> 0.58423275E+02</totfact>
</mgrwt>
</event>
<event>
 4    1  0.4964158E-009  0.9025664E+03  0.7818608E-02  0.9422379E-01
          1   -1    0    0  501    0  0.00000000000E+00  0.00000000000E+00  0.11185471700E+04  0.11185471700E+04  0.50400000000E-02 0. -1.
         -1   -1    0    0    0  501 -0.00000000000E+00 -0.00000000000E+00 -0.14470447852E+04  0.14470447852E+04  0.50400000000E-02 0.  1.
    8880022    1    1    2    0    0  0.54623857668E+03  0.70203836509E+03 -0.10683293956E+04  0.13985541817E+04  0.15294330000E+03 0.  0.
    8880022    1    1    2    0    0 -0.54623857668E+03 -0.70203836509E+03  0.73983178033E+03  0.11670377736E+04  0.15294330000E+03 0.  0.
<mgrwt>
<rscale>  0 0.90256640E+03</rscale>
<asrwt>0</asrwt>
<pdfrwt beam="1">  1        1 0.17208418E+00 0.90256640E+03</pdfrwt>
<pdfrwt beam="2">  1       -1 0.22262228E+00 0.90256640E+03</pdfrwt>
<totfact> 0.13249317E+00</totfact>
</mgrwt>
</event>
<event>
 4    1  0.4964158E-009  0.6185500E+03  0.7818608E-02  0.9867651E-01
         -1   -1    0    0    0  501 -0.00000000000E+00  0.00000000000E+00  0.55660163840E+03  0.55660163842E+03  0.50400000000E-02 0.  1.
          1   -1    0    0  501    0  0.00000000000E+00 -0.00000000000E+00 -0.93832480240E+03  0.93832480241E+03  0.50400000000E-02 0. -1.
    8880022    1    1    2    0    0 -0.48779707637E+03  0.34823333945E+03  0.19567538715E+03  0.64876263500E+03  0.15294330000E+03 0.  0.
    8880022    1    1    2    0    0  0.48779707637E+03 -0.34823333945E+03 -0.57739855114E+03  0.84616380583E+03  0.15294330000E+03 0.  0.
<mgrwt>
<rscale>  0 0.61855000E+03</rscale>
<asrwt>0</asrwt>
<pdfrwt beam="1">  1        1 0.14435766E+00 0.61855000E+03</pdfrwt>
<pdfrwt beam="2">  1       -1 0.85631021E-01 0.61855000E+03</pdfrwt>
<totfact> 0.23847193E+01</totfact>
</mgrwt>
</event>
<event>
 4    1  0.4964158E-009  0.5947945E+03  0.7818608E-02  0.9916265E-01
          1   -1    0    0  501    0  0.00000000000E+00  0.00000000000E+00  0.15276549231E+04  0.15276549231E+04  0.50400000000E-02 0. -1.
         -1   -1    0    0    0  501 -0.00000000000E+00 -0.00000000000E+00 -0.93429779280E+03  0.93429779281E+03  0.50400000000E-02 0.  1.
    8880022    1    1    2    0    0  0.56049158778E+03  0.12742866253E+03 -0.77089120951E+03  0.97368053997E+03  0.15294330000E+03 0.  0.
    8880022    1    1    2    0    0 -0.56049158778E+03 -0.12742866253E+03  0.13642483398E+04  0.14882721759E+04  0.15294330000E+03 0.  0.
<mgrwt>
<rscale>  0 0.59479453E+03</rscale>
<asrwt>0</asrwt>
<pdfrwt beam="1">  1        1 0.23502383E+00 0.59479453E+03</pdfrwt>
<pdfrwt beam="2">  1       -1 0.14373812E+00 0.59479453E+03</pdfrwt>
<totfact> 0.26439404E+00</totfact>
</mgrwt>
</event>
<event>
 4    1  0.4964158E-009  0.1245371E+04  0.7818608E-02  0.9074045E-01
         -1   -1    0    0    0  501 -0.00000000000E+00  0.00000000000E+00  0.14355723218E+04  0.14355723218E+04  0.50400000000E-02 0.  1.
          1   -1    0    0  501    0  0.00000000000E+00 -0.00000000000E+00 -0.11465776970E+04  0.11465776970E+04  0.50400000000E-02 0. -1.
    8880022    1    1    2    0    0  0.12278896113E+04  0.14086724693E+03  0.45474358279E+03  0.13257978194E+04  0.15294330000E+03 0.  1.
    8880022    1    1    2    0    0 -0.12278896113E+04 -0.14086724693E+03 -0.16574895794E+03  0.12563521994E+04  0.15294330000E+03 0.  0.
<mgrwt>
<rscale>  0 0.12453707E+04</rscale>
<asrwt>0</asrwt>
<pdfrwt beam="1">  1        1 0.17639657E+00 0.12453707E+04</pdfrwt>
<pdfrwt beam="2">  1       -1 0.22085728E+00 0.12453707E+04</pdfrwt>
<totfact> 0.12394872E+00</totfact>
</mgrwt>
</event>
<event>
 4    1  0.4964158E-009  0.4892039E+03  0.7818608E-02  0.1016636E+00
         -1   -1    0    0    0  501 -0.00000000000E+00  0.00000000000E+00  0.14349001621E+04  0.14349001621E+04  0.50400000000E-02 0.  1.
          1   -1    0    0  501    0  0.00000000000E+00 -0.00000000000E+00 -0.39488129778E+03  0.39488129781E+03  0.50400000000E-02 0. -1.
    8880022    1    1    2    0    0 -0.25347654222E+03  0.38945915290E+03 -0.17532646739E+03  0.51967279361E+03  0.15294330000E+03 0.  0.
    8880022    1    1    2    0    0  0.25347654222E+03 -0.38945915290E+03  0.12153453317E+04  0.13101086663E+04  0.15294330000E+03 0.  0.
<mgrwt>
<rscale>  0 0.48920389E+03</rscale>
<asrwt>0</asrwt>
<pdfrwt beam="1">  1        1 0.60750969E-01 0.48920389E+03</pdfrwt>
<pdfrwt beam="2">  1       -1 0.22075387E+00 0.48920389E+03</pdfrwt>
<totfact> 0.71725398E+00</totfact>
</mgrwt>
</event>
<event>
 4    1  0.4964158E-009  0.6870922E+03  0.7818608E-02  0.9739564E-01
         -1   -1    0    0    0  501 -0.00000000000E+00  0.00000000000E+00  0.54537802305E+03  0.54537802308E+03  0.50400000000E-02 0.  1.
          1   -1    0    0  501    0  0.00000000000E+00 -0.00000000000E+00 -0.15054929500E+04  0.15054929500E+04  0.50400000000E-02 0. -1.
    8880022    1    1    2    0    0  0.59305567039E+03 -0.31143066454E+03 -0.11485743176E+04  0.13384015478E+04  0.15294330000E+03 0.  0.
    8880022    1    1    2    0    0 -0.59305567039E+03  0.31143066454E+03  0.18845939070E+03  0.71246942528E+03  0.15294330000E+03 0.  0.
<mgrwt>
<rscale>  0 0.68709224E+03</rscale>
<asrwt>0</asrwt>
<pdfrwt beam="1">  1        1 0.23161430E+00 0.68709224E+03</pdfrwt>
<pdfrwt beam="2">  1       -1 0.83904312E-01 0.68709224E+03</pdfrwt>
<totfact> 0.95799586E+00</totfact>
</mgrwt>
</event>
<event>
 4    1  0.4964158E-009  0.1104413E+04  0.7818608E-02  0.9200902E-01
         -1   -1    0    0    0  501 -0.00000000000E+00  0.00000000000E+00  0.15387336956E+04  0.15387336956E+04  0.50400000000E-02 0.  1.
          1   -1    0    0  501    0  0.00000000000E+00 -0.00000000000E+00 -0.14527143969E+04  0.14527143969E+04  0.50400000000E-02 0. -1.
    8880022    1    1    2    0    0 -0.24387283914E+02 -0.10934995179E+04 -0.96518351815E+03  0.14667333814E+04  0.15294330000E+03 0.  0.
    8880022    1    1    2    0    0  0.24387283914E+02  0.10934995179E+04  0.10512028169E+04  0.15247147112E+04  0.15294330000E+03 0.  0.
<mgrwt>
<rscale>  0 0.11044128E+04</rscale>
<asrwt>0</asrwt>
<pdfrwt beam="1">  1        1 0.22349452E+00 0.11044128E+04</pdfrwt>
<pdfrwt beam="2">  1       -1 0.23672826E+00 0.11044128E+04</pdfrwt>
<totfact> 0.59732714E-01</totfact>
</mgrwt>
</event>
<event>
 4    1  0.4964158E-009  0.8359969E+03  0.7818608E-02  0.9509327E-01
         -1   -1    0    0    0  501 -0.00000000000E+00  0.00000000000E+00  0.34399337729E+03  0.34399337733E+03  0.50400000000E-02 0.  1.
          1   -1    0    0  501    0  0.00000000000E+00 -0.00000000000E+00 -0.27746058886E+04  0.27746058886E+04  0.50400000000E-02 0. -1.
    8880022    1    1    2    0    0  0.82180524518E+03 -0.11631838998E+02 -0.20221627081E+04  0.21881574056E+04  0.15294330000E+03 0.  0.
    8880022    1    1    2    0    0 -0.82180524518E+03  0.11631838998E+02 -0.40844980320E+03  0.93044186032E+03  0.15294330000E+03 0.  0.
<mgrwt>
<rscale>  0 0.83599690E+03</rscale>
<asrwt>0</asrwt>
<pdfrwt beam="1">  1        1 0.42686243E+00 0.83599690E+03</pdfrwt>
<pdfrwt beam="2">  1       -1 0.52922060E-01 0.83599690E+03</pdfrwt>
<totfact> 0.32840001E+00</totfact>
</mgrwt>
</event>
<event>
 4    1  0.4964158E-009  0.1023615E+04  0.7818608E-02  0.9283017E-01
         -1   -1    0    0    0  501 -0.00000000000E+00  0.00000000000E+00  0.11535472367E+04  0.11535472367E+04  0.50400000000E-02 0.  1.
          1   -1    0    0  501    0  0.00000000000E+00 -0.00000000000E+00 -0.12111283986E+04  0.12111283986E+04  0.50400000000E-02 0. -1.
    8880022    1    1    2    0    0  0.96537193166E+03 -0.30406076159E+03  0.56240608278E+03  0.11679418514E+04  0.15294330000E+03 0.  0.
    8880022    1    1    2    0    0 -0.96537193166E+03  0.30406076159E+03 -0.61998724467E+03  0.11967337840E+04  0.15294330000E+03 0.  0.
<mgrwt>
<rscale>  0 0.10236150E+04</rscale>
<asrwt>0</asrwt>
<pdfrwt beam="1">  1        1 0.18632745E+00 0.10236150E+04</pdfrwt>
<pdfrwt beam="2">  1       -1 0.17746881E+00 0.10236150E+04</pdfrwt>
<totfact> 0.22785477E+00</totfact>
</mgrwt>
</event>
<event>
 4    1  0.4964158E-009  0.8064630E+03  0.7818608E-02  0.9550709E-01
          1   -1    0    0  501    0  0.00000000000E+00  0.00000000000E+00  0.14451496059E+04  0.14451496059E+04  0.50400000000E-02 0. -1.
         -1   -1    0    0    0  501 -0.00000000000E+00 -0.00000000000E+00 -0.84306056607E+03  0.84306056609E+03  0.50400000000E-02 0.  1.
    8880022    1    1    2    0    0 -0.70106851959E+03  0.36809493454E+03 -0.48011784067E+03  0.93856046366E+03  0.15294330000E+03 0.  0.
    8880022    1    1    2    0    0  0.70106851959E+03 -0.36809493454E+03  0.10822068805E+04  0.13496497083E+04  0.15294330000E+03 0.  0.
<mgrwt>
<rscale>  0 0.80646302E+03</rscale>
<asrwt>0</asrwt>
<pdfrwt beam="1">  1        1 0.22233071E+00 0.80646302E+03</pdfrwt>
<pdfrwt beam="2">  1       -1 0.12970163E+00 0.80646302E+03</pdfrwt>
<totfact> 0.37637074E+00</totfact>
</mgrwt>
</event>
<event>
 4    1  0.4964158E-009  0.1913951E+03  0.7818608E-02  0.1157209E+00
         -1   -1    0    0    0  501 -0.00000000000E+00  0.00000000000E+00  0.32375961823E+03  0.32375961827E+03  0.50400000000E-02 0.  1.
          1   -1    0    0  501    0  0.00000000000E+00 -0.00000000000E+00 -0.12570494671E+03  0.12570494681E+03  0.50400000000E-02 0. -1.
    8880022    1    1    2    0    0  0.89604363552E+02  0.72190613787E+02  0.17006150094E+03  0.25603318887E+03  0.15294330000E+03 0.  0.
    8880022    1    1    2    0    0 -0.89604363552E+02 -0.72190613787E+02  0.27993170587E+02  0.19343137621E+03  0.15294330000E+03 0.  0.
<mgrwt>
<rscale>  0 0.19139509E+03</rscale>
<asrwt>0</asrwt>
<pdfrwt beam="1">  1        1 0.19339223E-01 0.19139509E+03</pdfrwt>
<pdfrwt beam="2">  1       -1 0.49809172E-01 0.19139509E+03</pdfrwt>
<totfact> 0.10974229E+03</totfact>
</mgrwt>
</event>
<event>
 4    1  0.4964158E-009  0.8228685E+03  0.7818608E-02  0.9527493E-01
         -1   -1    0    0    0  501 -0.00000000000E+00  0.00000000000E+00  0.26722814527E+03  0.26722814531E+03  0.50400000000E-02 0.  1.
          1   -1    0    0  501    0  0.00000000000E+00 -0.00000000000E+00 -0.29167605825E+04  0.29167605825E+04  0.50400000000E-02 0. -1.
    8880022    1    1    2    0    0  0.20340783982E+03  0.78252551792E+03 -0.74793715380E+03  0.11119903662E+04  0.15294330000E+03 0.  0.
    8880022    1    1    2    0    0 -0.20340783982E+03 -0.78252551792E+03 -0.19015952834E+04  0.20719983616E+04  0.15294330000E+03 0.  0.
<mgrwt>
<rscale>  0 0.82286851E+03</rscale>
<asrwt>0</asrwt>
<pdfrwt beam="1">  1        1 0.44873237E+00 0.82286851E+03</pdfrwt>
<pdfrwt beam="2">  1       -1 0.41112024E-01 0.82286851E+03</pdfrwt>
<totfact> 0.41928617E+00</totfact>
</mgrwt>
</event>
<event>
 4    1  0.4964158E-009  0.6212070E+03  0.7818608E-02  0.9862360E-01
         -1   -1    0    0    0  501 -0.00000000000E+00  0.00000000000E+00  0.31655229021E+03  0.31655229025E+03  0.50400000000E-02 0.  1.
          1   -1    0    0  501    0  0.00000000000E+00 -0.00000000000E+00 -0.29686367852E+04  0.29686367852E+04  0.50400000000E-02 0. -1.
    8880022    1    1    2    0    0 -0.71844469009E+02 -0.59778328282E+03 -0.25870495488E+04  0.26605870596E+04  0.15294330000E+03 0. -1.
    8880022    1    1    2    0    0  0.71844469009E+02  0.59778328282E+03 -0.65034946216E+02  0.62460201584E+03  0.15294330000E+03 0.  0.
<mgrwt>
<rscale>  0 0.62120700E+03</rscale>
<asrwt>0</asrwt>
<pdfrwt beam="1">  1        1 0.45671333E+00 0.62120700E+03</pdfrwt>
<pdfrwt beam="2">  1       -1 0.48700354E-01 0.62120700E+03</pdfrwt>
<totfact> 0.29308473E+00</totfact>
</mgrwt>
</event>
<event>
 4    1  0.4964158E-009  0.2067587E+04  0.7818608E-02  0.8575657E-01
         -1   -1    0    0    0  501 -0.00000000000E+00  0.00000000000E+00  0.22431777050E+04  0.22431777050E+04  0.50400000000E-02 0.  1.
          1   -1    0    0  501    0  0.00000000000E+00 -0.00000000000E+00 -0.34624004318E+04  0.34624004318E+04  0.50400000000E-02 0. -1.
    8880022    1    1    2    0    0  0.26524440131E+03 -0.20447912284E+04  0.13032245348E+04  0.24440359248E+04  0.15294330000E+03 0.  0.
    8880022    1    1    2    0    0 -0.26524440131E+03  0.20447912284E+04 -0.25224472616E+04  0.32615422120E+04  0.15294330000E+03 0.  0.
<mgrwt>
<rscale>  0 0.20675873E+04</rscale>
<asrwt>0</asrwt>
<pdfrwt beam="1">  1        1 0.53267699E+00 0.20675873E+04</pdfrwt>
<pdfrwt beam="2">  1       -1 0.34510426E+00 0.20675873E+04</pdfrwt>
<totfact> 0.39214333E-03</totfact>
</mgrwt>
</event>
<event>
 4    1  0.4964158E-009  0.1973898E+04  0.7818608E-02  0.8618923E-01
         -1   -1    0    0    0  501 -0.00000000000E+00  0.00000000000E+00  0.16494576198E+04  0.16494576198E+04  0.50400000000E-02 0.  1.
          1   -1    0    0  501    0  0.00000000000E+00 -0.00000000000E+00 -0.30092370558E+04  0.30092370558E+04  0.50400000000E-02 0. -1.
    8880022    1    1    2    0    0 -0.13782130417E+03  0.19631314599E+04 -0.17600454014E+04  0.26446230939E+04  0.15294330000E+03 0.  0.
    8880022    1    1    2    0    0  0.13782130417E+03 -0.19631314599E+04  0.40026596534E+03  0.20140715818E+04  0.15294330000E+03 0.  0.
<mgrwt>
<rscale>  0 0.19738975E+04</rscale>
<asrwt>0</asrwt>
<pdfrwt beam="1">  1        1 0.46295955E+00 0.19738975E+04</pdfrwt>
<pdfrwt beam="2">  1       -1 0.25376271E+00 0.19738975E+04</pdfrwt>
<totfact> 0.34567400E-02</totfact>
</mgrwt>
</event>
<event>
 4    1  0.4964158E-009  0.7044973E+03  0.7818608E-02  0.9709572E-01
          1   -1    0    0  501    0  0.00000000000E+00  0.00000000000E+00  0.44516545981E+03  0.44516545984E+03  0.50400000000E-02 0. -1.
         -1   -1    0    0    0  501 -0.00000000000E+00 -0.00000000000E+00 -0.21734790787E+04  0.21734790787E+04  0.50400000000E-02 0.  1.
    8880022    1    1    2    0    0  0.67020608503E+03  0.15410601512E+03  0.49598187819E+02  0.70624110158E+03  0.15294330000E+03 0.  0.
    8880022    1    1    2    0    0 -0.67020608503E+03 -0.15410601512E+03 -0.17779118067E+04  0.19124034370E+04  0.15294330000E+03 0.  0.
<mgrwt>
<rscale>  0 0.70449735E+03</rscale>
<asrwt>0</asrwt>
<pdfrwt beam="1">  1        1 0.68486995E-01 0.70449735E+03</pdfrwt>
<pdfrwt beam="2">  1       -1 0.33438139E+00 0.70449735E+03</pdfrwt>
<totfact> 0.10945001E+00</totfact>
</mgrwt>
</event>
<event>
 4    1  0.4964158E-009  0.9856808E+03  0.7818608E-02  0.9324391E-01
          1   -1    0    0  501    0  0.00000000000E+00  0.00000000000E+00  0.10799954338E+04  0.10799954338E+04  0.50400000000E-02 0. -1.
         -1   -1    0    0    0  501 -0.00000000000E+00 -0.00000000000E+00 -0.32530203001E+04  0.32530203001E+04  0.50400000000E-02 0.  1.
    8880022    1    1    2    0    0  0.81030115440E+03  0.53998804839E+03  0.75623744371E+03  0.12423613715E+04  0.15294330000E+03 0.  0.
    8880022    1    1    2    0    0 -0.81030115440E+03 -0.53998804839E+03 -0.29292623101E+04  0.30906543623E+04  0.15294330000E+03 0.  0.
<mgrwt>
<rscale>  0 0.98568083E+03</rscale>
<asrwt>0</asrwt>
<pdfrwt beam="1">  1        1 0.16615314E+00 0.98568083E+03</pdfrwt>
<pdfrwt beam="2">  1       -1 0.50046466E+00 0.98568083E+03</pdfrwt>
<totfact> 0.19855839E-02</totfact>
</mgrwt>
</event>
<event>
 4    1  0.4964158E-009  0.6238900E+03  0.7818608E-02  0.9857045E-01
         -1   -1    0    0    0  501 -0.00000000000E+00  0.00000000000E+00  0.14298791470E+04  0.14298791470E+04  0.50400000000E-02 0.  1.
          1   -1    0    0  501    0  0.00000000000E+00 -0.00000000000E+00 -0.88586371180E+03  0.88586371182E+03  0.50400000000E-02 0. -1.
    8880022    1    1    2    0    0 -0.29187982551E+03 -0.52976717298E+03 -0.69167874473E+03  0.93148173843E+03  0.15294330000E+03 0.  0.
    8880022    1    1    2    0    0  0.29187982551E+03  0.52976717298E+03  0.12356941799E+04  0.13842611204E+04  0.15294330000E+03 0.  0.
<mgrwt>
<rscale>  0 0.62389001E+03</rscale>
<asrwt>0</asrwt>
<pdfrwt beam="1">  1        1 0.13628673E+00 0.62389001E+03</pdfrwt>
<pdfrwt beam="2">  1       -1 0.21998140E+00 0.62389001E+03</pdfrwt>
<totfact> 0.22006574E+00</totfact>
</mgrwt>
</event>
<event>
 4    1  0.4964158E-009  0.8950402E+03  0.7818608E-02  0.9431803E-01
          1   -1    0    0  501    0  0.00000000000E+00  0.00000000000E+00  0.58495228248E+03  0.58495228250E+03  0.50400000000E-02 0. -1.
         -1   -1    0    0    0  501 -0.00000000000E+00 -0.00000000000E+00 -0.15084366768E+04  0.15084366768E+04  0.50400000000E-02 0.  1.
    8880022    1    1    2    0    0  0.88177778654E+03  0.13161330640E+02 -0.14408986139E+03  0.90656429812E+03  0.15294330000E+03 0.  0.
    8880022    1    1    2    0    0 -0.88177778654E+03 -0.13161330640E+02 -0.77939453295E+03  0.11868246612E+04  0.15294330000E+03 0.  0.
<mgrwt>
<rscale>  0 0.89504019E+03</rscale>
<asrwt>0</asrwt>
<pdfrwt beam="1">  1        1 0.89992659E-01 0.89504019E+03</pdfrwt>
<pdfrwt beam="2">  1       -1 0.23206718E+00 0.89504019E+03</pdfrwt>
<totfact> 0.33129412E+00</totfact>
</mgrwt>
</event>
<event>
 4    1  0.4964158E-009  0.2440087E+03  0.7818608E-02  0.1117151E+00
         -1   -1    0    0    0  501 -0.00000000000E+00  0.00000000000E+00  0.41431420409E+03  0.41431420412E+03  0.50400000000E-02 0.  1.
          1   -1    0    0  501    0  0.00000000000E+00 -0.00000000000E+00 -0.20539936455E+03  0.20539936462E+03  0.50400000000E-02 0. -1.
    8880022    1    1    2    0    0 -0.18680070759E+03  0.35412817625E+02  0.27427161653E+03  0.36710372466E+03  0.15294330000E+03 0.  1.
    8880022    1    1    2    0    0  0.18680070759E+03 -0.35412817625E+02 -0.65356777003E+02  0.25260984407E+03  0.15294330000E+03 0.  0.
<mgrwt>
<rscale>  0 0.24400866E+03</rscale>
<asrwt>0</asrwt>
<pdfrwt beam="1">  1        1 0.31599902E-01 0.24400866E+03</pdfrwt>
<pdfrwt beam="2">  1       -1 0.63740647E-01 0.24400866E+03</pdfrwt>
<totfact> 0.36845621E+02</totfact>
</mgrwt>
</event>
<event>
 4    1  0.4964158E-009  0.5028839E+03  0.7818608E-02  0.1013029E+00
          1   -1    0    0  501    0  0.00000000000E+00  0.00000000000E+00  0.10094677362E+04  0.10094677362E+04  0.50400000000E-02 0. -1.
         -1   -1    0    0    0  501 -0.00000000000E+00 -0.00000000000E+00 -0.47891129880E+03  0.47891129882E+03  0.50400000000E-02 0.  1.
    8880022    1    1    2    0    0  0.47434652135E+03 -0.67051939359E+02  0.77919810751E+03  0.92738445569E+03  0.15294330000E+03 0.  0.
    8880022    1    1    2    0    0 -0.47434652135E+03  0.67051939359E+02 -0.24864167013E+03  0.56099457933E+03  0.15294330000E+03 0.  0.
<mgrwt>
<rscale>  0 0.50288392E+03</rscale>
<asrwt>0</asrwt>
<pdfrwt beam="1">  1        1 0.15530273E+00 0.50288392E+03</pdfrwt>
<pdfrwt beam="2">  1       -1 0.73678662E-01 0.50288392E+03</pdfrwt>
<totfact> 0.29337136E+01</totfact>
</mgrwt>
</event>
<event>
 4    1  0.4964158E-009  0.6302531E+03  0.7818608E-02  0.9844555E-01
          1   -1    0    0  501    0  0.00000000000E+00  0.00000000000E+00  0.28095650046E+04  0.28095650047E+04  0.50400000000E-02 0. -1.
         -1   -1    0    0    0  501 -0.00000000000E+00 -0.00000000000E+00 -0.18939706174E+03  0.18939706181E+03  0.50400000000E-02 0.  1.
    8880022    1    1    2    0    0 -0.48909436979E+03 -0.36689774818E+03  0.20650856953E+04  0.21591196915E+04  0.15294330000E+03 0.  0.
    8880022    1    1    2    0    0  0.48909436979E+03  0.36689774818E+03  0.55508224757E+03  0.83984237495E+03  0.15294330000E+03 0.  0.
<mgrwt>
<rscale>  0 0.63025305E+03</rscale>
<asrwt>0</asrwt>
<pdfrwt beam="1">  1        1 0.43224076E+00 0.63025305E+03</pdfrwt>
<pdfrwt beam="2">  1       -1 0.29138010E-01 0.63025305E+03</pdfrwt>
<totfact> 0.95380244E+00</totfact>
</mgrwt>
</event>
<event>
 4    1  0.4964158E-009  0.1148993E+04  0.7818608E-02  0.9158713E-01
          1   -1    0    0  501    0  0.00000000000E+00  0.00000000000E+00  0.61951167601E+03  0.61951167603E+03  0.50400000000E-02 0. -1.
         -1   -1    0    0    0  501 -0.00000000000E+00 -0.00000000000E+00 -0.26475055456E+04  0.26475055456E+04  0.50400000000E-02 0.  1.
    8880022    1    1    2    0    0  0.87389779075E+03  0.73013415179E+03 -0.17354976252E+04  0.20813786029E+04  0.15294330000E+03 0.  0.
    8880022    1    1    2    0    0 -0.87389779075E+03 -0.73013415179E+03 -0.29249624434E+03  0.11856386187E+04  0.15294330000E+03 0.  0.
<mgrwt>
<rscale>  0 0.11489930E+04</rscale>
<asrwt>0</asrwt>
<pdfrwt beam="1">  1        1 0.95309490E-01 0.11489930E+04</pdfrwt>
<pdfrwt beam="2">  1       -1 0.40730854E+00 0.11489930E+04</pdfrwt>
<totfact> 0.20904020E-01</totfact>
</mgrwt>
</event>
<event>
 4    1  0.4964158E-009  0.4085138E+03  0.7818608E-02  0.1040871E+00
         -1   -1    0    0    0  501 -0.00000000000E+00  0.00000000000E+00  0.14800448448E+04  0.14800448448E+04  0.50400000000E-02 0.  1.
          1   -1    0    0  501    0  0.00000000000E+00 -0.00000000000E+00 -0.61380522319E+03  0.61380522321E+03  0.50400000000E-02 0. -1.
    8880022    1    1    2    0    0  0.10111746265E+03  0.36505770148E+03 -0.51277014434E+03  0.65560410356E+03  0.15294330000E+03 0.  0.
    8880022    1    1    2    0    0 -0.10111746265E+03 -0.36505770148E+03  0.13790097660E+04  0.14382459645E+04  0.15294330000E+03 0.  0.
<mgrwt>
<rscale>  0 0.40851379E+03</rscale>
<asrwt>0</asrwt>
<pdfrwt beam="1">  1        1 0.94431573E-01 0.40851379E+03</pdfrwt>
<pdfrwt beam="2">  1       -1 0.22769921E+00 0.40851379E+03</pdfrwt>
<totfact> 0.36247333E+00</totfact>
</mgrwt>
</event>
<event>
 4    1  0.4964158E-009  0.6112999E+03  0.7818608E-02  0.9882236E-01
         -1   -1    0    0    0  501 -0.00000000000E+00  0.00000000000E+00  0.17712077401E+03  0.17712077409E+03  0.50400000000E-02 0.  1.
          1   -1    0    0  501    0  0.00000000000E+00 -0.00000000000E+00 -0.50991908666E+04  0.50991908666E+04  0.50400000000E-02 0. -1.
    8880022    1    1    2    0    0 -0.50219803612E+03  0.31319812691E+03 -0.44809910390E+04  0.45224958020E+04  0.15294330000E+03 0.  0.
    8880022    1    1    2    0    0  0.50219803612E+03 -0.31319812691E+03 -0.44107905359E+03  0.75381583873E+03  0.15294330000E+03 0.  0.
<mgrwt>
<rscale>  0 0.61129992E+03</rscale>
<asrwt>0</asrwt>
<pdfrwt beam="1">  1        1 0.78449079E+00 0.61129992E+03</pdfrwt>
<pdfrwt beam="2">  1       -1 0.27249354E-01 0.61129992E+03</pdfrwt>
<totfact> 0.94951789E-02</totfact>
</mgrwt>
</event>
<event>
 4    1  0.4964158E-009  0.5748771E+03  0.7818608E-02  0.9958944E-01
         -1   -1    0    0    0  501 -0.00000000000E+00  0.00000000000E+00  0.42041209719E+03  0.42041209723E+03  0.50400000000E-02 0.  1.
          1   -1    0    0  501    0  0.00000000000E+00 -0.00000000000E+00 -0.18931596620E+04  0.18931596621E+04  0.50400000000E-02 0. -1.
    8880022    1    1    2    0    0  0.33209073482E+03  0.44363019002E+03 -0.16209717591E+04  0.17198933392E+04  0.15294330000E+03 0.  0.
    8880022    1    1    2    0    0 -0.33209073482E+03 -0.44363019002E+03  0.14822419422E+03  0.59367842004E+03  0.15294330000E+03 0.  0.
<mgrwt>
<rscale>  0 0.57487708E+03</rscale>
<asrwt>0</asrwt>
<pdfrwt beam="1">  1        1 0.29125533E+00 0.57487708E+03</pdfrwt>
<pdfrwt beam="2">  1       -1 0.64678785E-01 0.57487708E+03</pdfrwt>
<totfact> 0.92082912E+00</totfact>
</mgrwt>
</event>
<event>
 4    1  0.4964158E-009  0.6909283E+03  0.7818608E-02  0.9732873E-01
          1   -1    0    0  501    0  0.00000000000E+00  0.00000000000E+00  0.53273806017E+03  0.53273806020E+03  0.50400000000E-02 0. -1.
         -1   -1    0    0    0  501 -0.00000000000E+00 -0.00000000000E+00 -0.19802367736E+04  0.19802367736E+04  0.50400000000E-02 0.  1.
    8880022    1    1    2    0    0 -0.66762524317E+03  0.90922224245E+02 -0.16534504741E+04  0.17920045869E+04  0.15294330000E+03 0.  0.
    8880022    1    1    2    0    0  0.66762524317E+03 -0.90922224245E+02  0.20595176067E+03  0.72097024690E+03  0.15294330000E+03 0.  0.
<mgrwt>
<rscale>  0 0.69092834E+03</rscale>
<asrwt>0</asrwt>
<pdfrwt beam="1">  1        1 0.81959702E-01 0.69092834E+03</pdfrwt>
<pdfrwt beam="2">  1       -1 0.30465181E+00 0.69092834E+03</pdfrwt>
<totfact> 0.13334722E+00</totfact>
</mgrwt>
</event>
<event>
 4    1  0.4964158E-009  0.1149158E+04  0.7818608E-02  0.9158560E-01
          1   -1    0    0  501    0  0.00000000000E+00  0.00000000000E+00  0.35463233707E+04  0.35463233707E+04  0.50400000000E-02 0. -1.
         -1   -1    0    0    0  501 -0.00000000000E+00 -0.00000000000E+00 -0.48184868579E+03  0.48184868582E+03  0.50400000000E-02 0.  1.
    8880022    1    1    2    0    0 -0.98165639456E+02 -0.11346968952E+04  0.57222712385E+03  0.12837480559E+04  0.15294330000E+03 0.  0.
    8880022    1    1    2    0    0  0.98165639456E+02  0.11346968952E+04  0.24922475611E+04  0.27444240007E+04  0.15294330000E+03 0.  0.
<mgrwt>
<rscale>  0 0.11491585E+04</rscale>
<asrwt>0</asrwt>
<pdfrwt beam="1">  1        1 0.54558822E+00 0.11491585E+04</pdfrwt>
<pdfrwt beam="2">  1       -1 0.74130566E-01 0.11491585E+04</pdfrwt>
<totfact> 0.42718944E-01</totfact>
</mgrwt>
</event>
<event>
 4    1  0.4964158E-009  0.3329790E+03  0.7818608E-02  0.1069826E+00
          1   -1    0    0  501    0  0.00000000000E+00  0.00000000000E+00  0.21889779578E+04  0.21889779578E+04  0.50400000000E-02 0. -1.
         -1   -1    0    0    0  501 -0.00000000000E+00 -0.00000000000E+00 -0.22593924457E+03  0.22593924463E+03  0.50400000000E-02 0.  1.
    8880022    1    1    2    0    0  0.27121759438E+03  0.11800147146E+03 -0.82016676643E+02  0.34293107038E+03  0.15294330000E+03 0.  1.
    8880022    1    1    2    0    0 -0.27121759438E+03 -0.11800147146E+03  0.20450553898E+04  0.20719861320E+04  0.15294330000E+03 0.  0.
<mgrwt>
<rscale>  0 0.33297895E+03</rscale>
<asrwt>0</asrwt>
<pdfrwt beam="1">  1        1 0.33676583E+00 0.33297895E+03</pdfrwt>
<pdfrwt beam="2">  1       -1 0.34759885E-01 0.33297895E+03</pdfrwt>
<totfact> 0.19896778E+01</totfact>
</mgrwt>
</event>
<event>
 4    1  0.4964158E-009  0.1168949E+04  0.7818608E-02  0.9140478E-01
          1   -1    0    0  501    0  0.00000000000E+00  0.00000000000E+00  0.10190866418E+04  0.10190866419E+04  0.50400000000E-02 0. -1.
         -1   -1    0    0    0  501 -0.00000000000E+00 -0.00000000000E+00 -0.20692823705E+04  0.20692823705E+04  0.50400000000E-02 0.  1.
    8880022    1    1    2    0    0  0.11055111596E+04 -0.34769955104E+03 -0.14412849275E+04  0.18557326847E+04  0.15294330000E+03 0.  0.
    8880022    1    1    2    0    0 -0.11055111596E+04  0.34769955104E+03  0.39108919892E+03  0.12326363276E+04  0.15294330000E+03 0.  0.
<mgrwt>
<rscale>  0 0.11689489E+04</rscale>
<asrwt>0</asrwt>
<pdfrwt beam="1">  1        1 0.15678256E+00 0.11689489E+04</pdfrwt>
<pdfrwt beam="2">  1       -1 0.31835113E+00 0.11689489E+04</pdfrwt>
<totfact> 0.36347159E-01</totfact>
</mgrwt>
</event>
<event>
 4    1  0.4964158E-009  0.4493977E+03  0.7818608E-02  0.1027902E+00
          1   -1    0    0  501    0  0.00000000000E+00  0.00000000000E+00  0.39912911701E+03  0.39912911704E+03  0.50400000000E-02 0. -1.
         -1   -1    0    0    0  501 -0.00000000000E+00 -0.00000000000E+00 -0.10779318715E+04  0.10779318715E+04  0.50400000000E-02 0.  1.
    8880022    1    1    2    0    0 -0.41090291148E+01  0.42255147452E+03 -0.87735634396E+03  0.98575475654E+03  0.15294330000E+03 0.  0.
    8880022    1    1    2    0    0  0.41090291148E+01 -0.42255147452E+03  0.19855358945E+03  0.49130623203E+03  0.15294330000E+03 0.  0.
<mgrwt>
<rscale>  0 0.44939769E+03</rscale>
<asrwt>0</asrwt>
<pdfrwt beam="1">  1        1 0.61404480E-01 0.44939769E+03</pdfrwt>
<pdfrwt beam="2">  1       -1 0.16583567E+00 0.44939769E+03</pdfrwt>
<totfact> 0.17033036E+01</totfact>
</mgrwt>
</event>
<event>
 4    1  0.4964158E-009  0.6969869E+03  0.7818608E-02  0.9722399E-01
         -1   -1    0    0    0  501 -0.00000000000E+00  0.00000000000E+00  0.34816552670E+03  0.34816552674E+03  0.50400000000E-02 0.  1.
          1   -1    0    0  501    0  0.00000000000E+00 -0.00000000000E+00 -0.33371327537E+04  0.33371327537E+04  0.50400000000E-02 0. -1.
    8880022    1    1    2    0    0  0.62948107924E+03  0.25720164186E+03 -0.88878613664E+02  0.70263089505E+03  0.15294330000E+03 0.  0.
    8880022    1    1    2    0    0 -0.62948107924E+03 -0.25720164186E+03 -0.29000886134E+04  0.29826673854E+04  0.15294330000E+03 0.  0.
<mgrwt>
<rscale>  0 0.69698692E+03</rscale>
<asrwt>0</asrwt>
<pdfrwt beam="1">  1        1 0.51340502E+00 0.69698692E+03</pdfrwt>
<pdfrwt beam="2">  1       -1 0.53563929E-01 0.69698692E+03</pdfrwt>
<totfact> 0.12927584E+00</totfact>
</mgrwt>
</event>
<event>
 4    1  0.4964158E-009  0.7150002E+03  0.7818608E-02  0.9691918E-01
         -1   -1    0    0    0  501 -0.00000000000E+00  0.00000000000E+00  0.10120719534E+04  0.10120719534E+04  0.50400000000E-02 0.  1.
          1   -1    0    0  501    0  0.00000000000E+00 -0.00000000000E+00 -0.95097227722E+03  0.95097227723E+03  0.50400000000E-02 0. -1.
    8880022    1    1    2    0    0  0.44512621545E+03 -0.53823439419E+03  0.70260985224E+03  0.10024399574E+04  0.15294330000E+03 0.  0.
    8880022    1    1    2    0    0 -0.44512621545E+03  0.53823439419E+03 -0.64151017605E+03  0.96060427323E+03  0.15294330000E+03 0.  0.
<mgrwt>
<rscale>  0 0.71500018E+03</rscale>
<asrwt>0</asrwt>
<pdfrwt beam="1">  1        1 0.14630343E+00 0.71500018E+03</pdfrwt>
<pdfrwt beam="2">  1       -1 0.15570338E+00 0.71500018E+03</pdfrwt>
<totfact> 0.54306919E+00</totfact>
</mgrwt>
</event>
<event>
 4    1  0.4964158E-009  0.3727539E+03  0.7818608E-02  0.1053645E+00
          1   -1    0    0  501    0  0.00000000000E+00  0.00000000000E+00  0.13217687623E+04  0.13217687623E+04  0.50400000000E-02 0. -1.
         -1   -1    0    0    0  501 -0.00000000000E+00 -0.00000000000E+00 -0.27138145635E+03  0.27138145640E+03  0.50400000000E-02 0.  1.
    8880022    1    1    2    0    0 -0.32325451490E+03 -0.10516805060E+03  0.11486862912E+04  0.12076529505E+04  0.15294330000E+03 0. -1.
    8880022    1    1    2    0    0  0.32325451490E+03  0.10516805060E+03 -0.98298985248E+02  0.38549726819E+03  0.15294330000E+03 0.  0.
<mgrwt>
<rscale>  0 0.37275388E+03</rscale>
<asrwt>0</asrwt>
<pdfrwt beam="1">  1        1 0.20334904E+00 0.37275388E+03</pdfrwt>
<pdfrwt beam="2">  1       -1 0.41750994E-01 0.37275388E+03</pdfrwt>
<totfact> 0.53309102E+01</totfact>
</mgrwt>
</event>
<event>
 4    1  0.4964158E-009  0.7564716E+03  0.7818608E-02  0.9625252E-01
          1   -1    0    0  501    0  0.00000000000E+00  0.00000000000E+00  0.61983652417E+03  0.61983652419E+03  0.50400000000E-02 0. -1.
         -1   -1    0    0    0  501 -0.00000000000E+00 -0.00000000000E+00 -0.13585092361E+04  0.13585092361E+04  0.50400000000E-02 0.  1.
    8880022    1    1    2    0    0 -0.73697889958E+03  0.75629223436E+02  0.19058465495E+03  0.78011014708E+03  0.15294330000E+03 0.  0.
    8880022    1    1    2    0    0  0.73697889958E+03 -0.75629223436E+02 -0.92925736686E+03  0.11982356132E+04  0.15294330000E+03 0.  0.
<mgrwt>
<rscale>  0 0.75647163E+03</rscale>
<asrwt>0</asrwt>
<pdfrwt beam="1">  1        1 0.95359466E-01 0.75647163E+03</pdfrwt>
<pdfrwt beam="2">  1       -1 0.20900142E+00 0.75647163E+03</pdfrwt>
<totfact> 0.44210815E+00</totfact>
</mgrwt>
</event>
<event>
 4    1  0.4964158E-009  0.9136057E+03  0.7818608E-02  0.9408732E-01
          1   -1    0    0  501    0  0.00000000000E+00  0.00000000000E+00  0.19653167143E+04  0.19653167143E+04  0.50400000000E-02 0. -1.
         -1   -1    0    0    0  501 -0.00000000000E+00 -0.00000000000E+00 -0.51907204540E+03  0.51907204542E+03  0.50400000000E-02 0.  1.
    8880022    1    1    2    0    0 -0.83416837369E+03  0.33977464241E+03  0.12527750290E+04  0.15505226891E+04  0.15294330000E+03 0.  0.
    8880022    1    1    2    0    0  0.83416837369E+03 -0.33977464241E+03  0.19346963998E+03  0.93386607064E+03  0.15294330000E+03 0.  0.
<mgrwt>
<rscale>  0 0.91360568E+03</rscale>
<asrwt>0</asrwt>
<pdfrwt beam="1">  1        1 0.30235641E+00 0.91360568E+03</pdfrwt>
<pdfrwt beam="2">  1       -1 0.79857239E-01 0.91360568E+03</pdfrwt>
<totfact> 0.50379250E+00</totfact>
</mgrwt>
</event>
<event>
 4    1  0.4964158E-009  0.9294031E+03  0.7818608E-02  0.9389555E-01
         -1   -1    0    0    0  501 -0.00000000000E+00  0.00000000000E+00  0.44175198970E+03  0.44175198973E+03  0.50400000000E-02 0.  1.
          1   -1    0    0  501    0  0.00000000000E+00 -0.00000000000E+00 -0.26788983106E+04  0.26788983106E+04  0.50400000000E-02 0. -1.
    8880022    1    1    2    0    0 -0.46962344383E+03 -0.78730695989E+03 -0.19294665215E+04  0.21416421594E+04  0.15294330000E+03 0.  0.
    8880022    1    1    2    0    0  0.46962344383E+03  0.78730695989E+03 -0.30767979935E+03  0.97900814094E+03  0.15294330000E+03 0.  0.
<mgrwt>
<rscale>  0 0.92940308E+03</rscale>
<asrwt>0</asrwt>
<pdfrwt beam="1">  1        1 0.41213819E+00 0.92940308E+03</pdfrwt>
<pdfrwt beam="2">  1       -1 0.67961846E-01 0.92940308E+03</pdfrwt>
<totfact> 0.23000828E+00</totfact>
</mgrwt>
</event>
<event>
 4    1  0.4964158E-009  0.4841125E+03  0.7818608E-02  0.1018011E+00
         -1   -1    0    0    0  501 -0.00000000000E+00  0.00000000000E+00  0.17098614587E+04  0.17098614587E+04  0.50400000000E-02 0.  1.
          1   -1    0    0  501    0  0.00000000000E+00 -0.00000000000E+00 -0.67437790435E+03  0.67437790437E+03  0.50400000000E-02 0. -1.
    8880022    1    1    2    0    0  0.27223229827E+03  0.36994974328E+03 -0.54635513355E+03  0.72997864472E+03  0.15294330000E+03 0.  0.
    8880022    1    1    2    0    0 -0.27223229827E+03 -0.36994974328E+03  0.15818386879E+04  0.16542607183E+04  0.15294330000E+03 0.  0.
<mgrwt>
<rscale>  0 0.48411248E+03</rscale>
<asrwt>0</asrwt>
<pdfrwt beam="1">  1        1 0.10375045E+00 0.48411248E+03</pdfrwt>
<pdfrwt beam="2">  1       -1 0.26305561E+00 0.48411248E+03</pdfrwt>
<totfact> 0.18371497E+00</totfact>
</mgrwt>
</event>
<event>
 4    1  0.4964158E-009  0.9077929E+03  0.7818608E-02  0.9415892E-01
          1   -1    0    0  501    0  0.00000000000E+00  0.00000000000E+00  0.37487705304E+04  0.37487705304E+04  0.50400000000E-02 0. -1.
         -1   -1    0    0    0  501 -0.00000000000E+00 -0.00000000000E+00 -0.55590480663E+03  0.55590480665E+03  0.50400000000E-02 0.  1.
    8880022    1    1    2    0    0  0.88136766552E+03 -0.15455534647E+03 -0.77079420293E+02  0.91105938719E+03  0.15294330000E+03 0.  0.
    8880022    1    1    2    0    0 -0.88136766552E+03  0.15455534647E+03  0.32699451441E+04  0.33936159499E+04  0.15294330000E+03 0.  0.
<mgrwt>
<rscale>  0 0.90779291E+03</rscale>
<asrwt>0</asrwt>
<pdfrwt beam="1">  1        1 0.57673393E+00 0.90779291E+03</pdfrwt>
<pdfrwt beam="2">  1       -1 0.85523816E-01 0.90779291E+03</pdfrwt>
<totfact> 0.22661320E-01</totfact>
</mgrwt>
</event>
<event>
 4    1  0.4964158E-009  0.6478880E+03  0.7818608E-02  0.9810750E-01
         -1   -1    0    0    0  501 -0.00000000000E+00  0.00000000000E+00  0.44043359240E+03  0.44043359243E+03  0.50400000000E-02 0.  1.
          1   -1    0    0  501    0  0.00000000000E+00 -0.00000000000E+00 -0.41837144424E+04  0.41837144424E+04  0.50400000000E-02 0. -1.
    8880022    1    1    2    0    0  0.59206688223E+03 -0.21406547466E+03 -0.39033708619E+04  0.39567743124E+04  0.15294330000E+03 0. -1.
    8880022    1    1    2    0    0 -0.59206688223E+03  0.21406547466E+03  0.16009001192E+03  0.66737372245E+03  0.15294330000E+03 0.  0.
<mgrwt>
<rscale>  0 0.64788801E+03</rscale>
<asrwt>0</asrwt>
<pdfrwt beam="1">  1        1 0.64364835E+00 0.64788801E+03</pdfrwt>
<pdfrwt beam="2">  1       -1 0.67759017E-01 0.64788801E+03</pdfrwt>
<totfact> 0.16761968E-01</totfact>
</mgrwt>
</event>
<event>
 4    1  0.4964158E-009  0.1297429E+04  0.7818608E-02  0.9031607E-01
          1   -1    0    0  501    0  0.00000000000E+00  0.00000000000E+00  0.43104129786E+04  0.43104129786E+04  0.50400000000E-02 0. -1.
         -1   -1    0    0    0  501 -0.00000000000E+00 -0.00000000000E+00 -0.41215891726E+03  0.41215891729E+03  0.50400000000E-02 0.  1.
    8880022    1    1    2    0    0 -0.10541951840E+04  0.74067658193E+03  0.14081348209E+04  0.19147231162E+04  0.15294330000E+03 0.  0.
    8880022    1    1    2    0    0  0.10541951840E+04 -0.74067658193E+03  0.24901192405E+04  0.28078487797E+04  0.15294330000E+03 0.  0.
<mgrwt>
<rscale>  0 0.12974286E+04</rscale>
<asrwt>0</asrwt>
<pdfrwt beam="1">  1        1 0.66314054E+00 0.12974286E+04</pdfrwt>
<pdfrwt beam="2">  1       -1 0.63409056E-01 0.12974286E+04</pdfrwt>
<totfact> 0.12675253E-01</totfact>
</mgrwt>
</event>
<event>
 4    1  0.4964158E-009  0.4400071E+03  0.7818608E-02  0.1030745E+00
          1   -1    0    0  501    0  0.00000000000E+00  0.00000000000E+00  0.74683450660E+03  0.74683450662E+03  0.50400000000E-02 0. -1.
         -1   -1    0    0    0  501 -0.00000000000E+00 -0.00000000000E+00 -0.53382202066E+03  0.53382202069E+03  0.50400000000E-02 0.  1.
    8880022    1    1    2    0    0  0.30053270794E+03  0.28265645873E+03 -0.35273808907E+03  0.56394183627E+03  0.15294330000E+03 0.  0.
    8880022    1    1    2    0    0 -0.30053270794E+03 -0.28265645873E+03  0.56575057501E+03  0.71671469104E+03  0.15294330000E+03 0.  0.
<mgrwt>
<rscale>  0 0.44000709E+03</rscale>
<asrwt>0</asrwt>
<pdfrwt beam="1">  1        1 0.11489762E+00 0.44000709E+03</pdfrwt>
<pdfrwt beam="2">  1       -1 0.82126464E-01 0.44000709E+03</pdfrwt>
<totfact> 0.38740326E+01</totfact>
</mgrwt>
</event>
<event>
 4    1  0.4964158E-009  0.1357990E+04  0.7818608E-02  0.8984802E-01
          1   -1    0    0  501    0  0.00000000000E+00  0.00000000000E+00  0.17627801319E+04  0.17627801319E+04  0.50400000000E-02 0. -1.
         -1   -1    0    0    0  501 -0.00000000000E+00 -0.00000000000E+00 -0.25996851273E+04  0.25996851273E+04  0.50400000000E-02 0.  1.
    8880022    1    1    2    0    0  0.67582781266E+03  0.11679045146E+04 -0.21046245228E+04  0.25047116047E+04  0.15294330000E+03 0.  0.
    8880022    1    1    2    0    0 -0.67582781266E+03 -0.11679045146E+04  0.12677195274E+04  0.18577536545E+04  0.15294330000E+03 0.  0.
<mgrwt>
<rscale>  0 0.13579896E+04</rscale>
<asrwt>0</asrwt>
<pdfrwt beam="1">  1        1 0.27119694E+00 0.13579896E+04</pdfrwt>
<pdfrwt beam="2">  1       -1 0.39995156E+00 0.13579896E+04</pdfrwt>
<totfact> 0.29852128E-02</totfact>
</mgrwt>
</event>
<event>
 4    1  0.4964158E-009  0.3681139E+03  0.7818608E-02  0.1055417E+00
         -1   -1    0    0    0  501 -0.00000000000E+00  0.00000000000E+00  0.80628308335E+02  0.80628308492E+02  0.50400000000E-02 0.  1.
          1   -1    0    0  501    0  0.00000000000E+00 -0.00000000000E+00 -0.27056046581E+04  0.27056046582E+04  0.50400000000E-02 0. -1.
    8880022    1    1    2    0    0 -0.24168357969E+03 -0.23174387212E+03 -0.45503985698E+03  0.58529402817E+03  0.15294330000E+03 0.  0.
    8880022    1    1    2    0    0  0.24168357969E+03  0.23174387212E+03 -0.21699364928E+04  0.22009389385E+04  0.15294330000E+03 0. -1.
<mgrwt>
<rscale>  0 0.36811388E+03</rscale>
<asrwt>0</asrwt>
<pdfrwt beam="1">  1        1 0.41624680E+00 0.36811388E+03</pdfrwt>
<pdfrwt beam="2">  1       -1 0.12404357E-01 0.36811388E+03</pdfrwt>
<totfact> 0.48871673E+01</totfact>
</mgrwt>
</event>
<event>
 4    1  0.4964158E-009  0.1073306E+04  0.7818608E-02  0.9231608E-01
         -1   -1    0    0    0  501 -0.00000000000E+00  0.00000000000E+00  0.10548751957E+04  0.10548751957E+04  0.50400000000E-02 0.  1.
          1   -1    0    0  501    0  0.00000000000E+00 -0.00000000000E+00 -0.19782126242E+04  0.19782126242E+04  0.50400000000E-02 0. -1.
    8880022    1    1    2    0    0  0.99724471956E+03  0.36619178094E+03 -0.14766854678E+04  0.18255369279E+04  0.15294330000E+03 0.  0.
    8880022    1    1    2    0    0 -0.99724471956E+03 -0.36619178094E+03  0.55334803936E+03  0.12075508920E+04  0.15294330000E+03 0.  0.
<mgrwt>
<rscale>  0 0.10733057E+04</rscale>
<asrwt>0</asrwt>
<pdfrwt beam="1">  1        1 0.30434040E+00 0.10733057E+04</pdfrwt>
<pdfrwt beam="2">  1       -1 0.16228849E+00 0.10733057E+04</pdfrwt>
<totfact> 0.86557387E-01</totfact>
</mgrwt>
</event>
<event>
 4    1  0.4964158E-009  0.1341359E+04  0.7818608E-02  0.8997395E-01
         -1   -1    0    0    0  501 -0.00000000000E+00  0.00000000000E+00  0.12068697899E+04  0.12068697900E+04  0.50400000000E-02 0.  1.
          1   -1    0    0  501    0  0.00000000000E+00 -0.00000000000E+00 -0.37209927611E+04  0.37209927611E+04  0.50400000000E-02 0. -1.
    8880022    1    1    2    0    0 -0.31404176081E+03 -0.12950794795E+04  0.65044880163E+03  0.14907475917E+04  0.15294330000E+03 0.  0.
    8880022    1    1    2    0    0  0.31404176081E+03  0.12950794795E+04 -0.31645717728E+04  0.34371149594E+04  0.15294330000E+03 0.  0.
<mgrwt>
<rscale>  0 0.13413593E+04</rscale>
<asrwt>0</asrwt>
<pdfrwt beam="1">  1        1 0.57246042E+00 0.13413593E+04</pdfrwt>
<pdfrwt beam="2">  1       -1 0.18567228E+00 0.13413593E+04</pdfrwt>
<totfact> 0.30783183E-02</totfact>
</mgrwt>
</event>
<event>
 4    1  0.4964158E-009  0.3697195E+03  0.7818608E-02  0.1054800E+00
         -1   -1    0    0    0  501 -0.00000000000E+00  0.00000000000E+00  0.11359543446E+04  0.11359543446E+04  0.50400000000E-02 0.  1.
          1   -1    0    0  501    0  0.00000000000E+00 -0.00000000000E+00 -0.19934053476E+04  0.19934053476E+04  0.50400000000E-02 0. -1.
    8880022    1    1    2    0    0  0.22311583452E+03 -0.25203207339E+03 -0.19454440080E+04  0.19802638417E+04  0.15294330000E+03 0.  0.
    8880022    1    1    2    0    0 -0.22311583452E+03  0.25203207339E+03  0.10879930050E+04  0.11490958505E+04  0.15294330000E+03 0.  0.
<mgrwt>
<rscale>  0 0.36971948E+03</rscale>
<asrwt>0</asrwt>
<pdfrwt beam="1">  1        1 0.30667775E+00 0.36971948E+03</pdfrwt>
<pdfrwt beam="2">  1       -1 0.17476221E+00 0.36971948E+03</pdfrwt>
<totfact> 0.81939451E-01</totfact>
</mgrwt>
</event>
<event>
 4    1  0.4964158E-009  0.2510994E+04  0.7818608E-02  0.8399079E-01
         -1   -1    0    0    0  501 -0.00000000000E+00  0.00000000000E+00  0.28966955280E+04  0.28966955280E+04  0.50400000000E-02 0.  1.
          1   -1    0    0  501    0  0.00000000000E+00 -0.00000000000E+00 -0.33700180531E+04  0.33700180531E+04  0.50400000000E-02 0. -1.
    8880022    1    1    2    0    0 -0.11299775850E+04  0.22371521963E+04  0.16279187592E+04  0.29925257612E+04  0.15294330000E+03 0.  0.
    8880022    1    1    2    0    0  0.11299775850E+04 -0.22371521963E+04 -0.21012412843E+04  0.32741878199E+04  0.15294330000E+03 0.  0.
<mgrwt>
<rscale>  0 0.25109940E+04</rscale>
<asrwt>0</asrwt>
<pdfrwt beam="1">  1        1 0.51846432E+00 0.25109940E+04</pdfrwt>
<pdfrwt beam="2">  1       -1 0.44564547E+00 0.25109940E+04</pdfrwt>
<totfact> 0.90442655E-04</totfact>
</mgrwt>
</event>
<event>
 4    1  0.4964158E-009  0.4643262E+03  0.7818608E-02  0.1023534E+00
         -1   -1    0    0    0  501 -0.00000000000E+00  0.00000000000E+00  0.19176699176E+04  0.19176699176E+04  0.50400000000E-02 0.  1.
          1   -1    0    0  501    0  0.00000000000E+00 -0.00000000000E+00 -0.20104107895E+03  0.20104107902E+03  0.50400000000E-02 0. -1.
    8880022    1    1    2    0    0 -0.18961977778E+03  0.39528666980E+03  0.15616286784E+04  0.16291970396E+04  0.15294330000E+03 0.  0.
    8880022    1    1    2    0    0  0.18961977778E+03 -0.39528666980E+03  0.15500016019E+03  0.48951395702E+03  0.15294330000E+03 0.  0.
<mgrwt>
<rscale>  0 0.46432625E+03</rscale>
<asrwt>0</asrwt>
<pdfrwt beam="1">  1        1 0.30929396E-01 0.46432625E+03</pdfrwt>
<pdfrwt beam="2">  1       -1 0.29502614E+00 0.46432625E+03</pdfrwt>
<totfact> 0.57625582E+00</totfact>
</mgrwt>
</event>
<event>
 4    1  0.4964158E-009  0.1169285E+04  0.7818608E-02  0.9140175E-01
         -1   -1    0    0    0  501 -0.00000000000E+00  0.00000000000E+00  0.98557286242E+03  0.98557286243E+03  0.50400000000E-02 0.  1.
          1   -1    0    0  501    0  0.00000000000E+00 -0.00000000000E+00 -0.17224194612E+04  0.17224194613E+04  0.50400000000E-02 0. -1.
    8880022    1    1    2    0    0  0.64805571036E+03  0.96117579040E+03  0.22886806714E+03  0.11914727647E+04  0.15294330000E+03 0.  0.
    8880022    1    1    2    0    0 -0.64805571036E+03 -0.96117579040E+03 -0.96571466596E+03  0.15165195590E+04  0.15294330000E+03 0.  0.
<mgrwt>
<rscale>  0 0.11692847E+04</rscale>
<asrwt>0</asrwt>
<pdfrwt beam="1">  1        1 0.26498761E+00 0.11692847E+04</pdfrwt>
<pdfrwt beam="2">  1       -1 0.15162659E+00 0.11692847E+04</pdfrwt>
<totfact> 0.15359785E+00</totfact>
</mgrwt>
</event>
<event>
 4    1  0.4964158E-009  0.1023687E+04  0.7818608E-02  0.9282941E-01
         -1   -1    0    0    0  501 -0.00000000000E+00  0.00000000000E+00  0.10653165583E+04  0.10653165583E+04  0.50400000000E-02 0.  1.
          1   -1    0    0  501    0  0.00000000000E+00 -0.00000000000E+00 -0.15717774048E+04  0.15717774048E+04  0.50400000000E-02 0. -1.
    8880022    1    1    2    0    0  0.99789122544E+03  0.16957555509E+03  0.55330490081E+03  0.11636497467E+04  0.15294330000E+03 0.  0.
    8880022    1    1    2    0    0 -0.99789122544E+03 -0.16957555509E+03 -0.10597657473E+04  0.14734442164E+04  0.15294330000E+03 0.  0.
<mgrwt>
<rscale>  0 0.10236867E+04</rscale>
<asrwt>0</asrwt>
<pdfrwt beam="1">  1        1 0.24181191E+00 0.10236867E+04</pdfrwt>
<pdfrwt beam="2">  1       -1 0.16389486E+00 0.10236867E+04</pdfrwt>
<totfact> 0.15986977E+00</totfact>
</mgrwt>
</event>
<event>
 4    1  0.4964158E-009  0.7853540E+03  0.7818608E-02  0.9581462E-01
          1   -1    0    0  501    0  0.00000000000E+00  0.00000000000E+00  0.19551984517E+04  0.19551984517E+04  0.50400000000E-02 0. -1.
         -1   -1    0    0    0  501 -0.00000000000E+00 -0.00000000000E+00 -0.42591082737E+03  0.42591082740E+03  0.50400000000E-02 0.  1.
    8880022    1    1    2    0    0  0.10101137530E+03 -0.76366612114E+03  0.13709339716E+04  0.15799496353E+04  0.15294330000E+03 0.  0.
    8880022    1    1    2    0    0 -0.10101137530E+03  0.76366612114E+03  0.15835365269E+03  0.80115964380E+03  0.15294330000E+03 0.  0.
<mgrwt>
<rscale>  0 0.78535399E+03</rscale>
<asrwt>0</asrwt>
<pdfrwt beam="1">  1        1 0.30079977E+00 0.78535399E+03</pdfrwt>
<pdfrwt beam="2">  1       -1 0.65524742E-01 0.78535399E+03</pdfrwt>
<totfact> 0.78537120E+00</totfact>
</mgrwt>
</event>
<event>
 4    1  0.4964158E-009  0.8059839E+03  0.7818608E-02  0.9551396E-01
         -1   -1    0    0    0  501 -0.00000000000E+00  0.00000000000E+00  0.16444930101E+04  0.16444930101E+04  0.50400000000E-02 0.  1.
          1   -1    0    0  501    0  0.00000000000E+00 -0.00000000000E+00 -0.10676052897E+04  0.10676052897E+04  0.50400000000E-02 0. -1.
    8880022    1    1    2    0    0  0.77658979364E+03  0.15207435595E+03  0.13647685307E+04  0.15849930955E+04  0.15294330000E+03 0.  0.
    8880022    1    1    2    0    0 -0.77658979364E+03 -0.15207435595E+03 -0.78788081031E+03  0.11271052043E+04  0.15294330000E+03 0.  0.
<mgrwt>
<rscale>  0 0.80598385E+03</rscale>
<asrwt>0</asrwt>
<pdfrwt beam="1">  1        1 0.16424697E+00 0.80598385E+03</pdfrwt>
<pdfrwt beam="2">  1       -1 0.25299892E+00 0.80598385E+03</pdfrwt>
<totfact> 0.93159370E-01</totfact>
</mgrwt>
</event>
<event>
 4    1  0.4964158E-009  0.4983677E+03  0.7818608E-02  0.1014206E+00
         -1   -1    0    0    0  501 -0.00000000000E+00  0.00000000000E+00  0.11456655627E+04  0.11456655628E+04  0.50400000000E-02 0.  1.
          1   -1    0    0  501    0  0.00000000000E+00 -0.00000000000E+00 -0.83562685510E+03  0.83562685512E+03  0.50400000000E-02 0. -1.
    8880022    1    1    2    0    0  0.36103720017E+03 -0.30762125329E+03 -0.69749168247E+03  0.85724267014E+03  0.15294330000E+03 0.  0.
    8880022    1    1    2    0    0 -0.36103720017E+03  0.30762125329E+03  0.10075303901E+04  0.11240497477E+04  0.15294330000E+03 0.  0.
<mgrwt>
<rscale>  0 0.49836768E+03</rscale>
<asrwt>0</asrwt>
<pdfrwt beam="1">  1        1 0.12855798E+00 0.49836768E+03</pdfrwt>
<pdfrwt beam="2">  1       -1 0.17625624E+00 0.49836768E+03</pdfrwt>
<totfact> 0.49574520E+00</totfact>
</mgrwt>
</event>
<event>
 4    1  0.4964158E-009  0.7151394E+03  0.7818608E-02  0.9691686E-01
          1   -1    0    0  501    0  0.00000000000E+00  0.00000000000E+00  0.22071166651E+04  0.22071166651E+04  0.50400000000E-02 0. -1.
         -1   -1    0    0    0  501 -0.00000000000E+00 -0.00000000000E+00 -0.12386906636E+04  0.12386906636E+04  0.50400000000E-02 0.  1.
    8880022    1    1    2    0    0  0.14977431212E+03 -0.68234916957E+03  0.20376327437E+04  0.21594841016E+04  0.15294330000E+03 0. -1.
    8880022    1    1    2    0    0 -0.14977431212E+03  0.68234916957E+03 -0.10692067423E+04  0.12863232271E+04  0.15294330000E+03 0.  0.
<mgrwt>
<rscale>  0 0.71513942E+03</rscale>
<asrwt>0</asrwt>
<pdfrwt beam="1">  1        1 0.33955641E+00 0.71513942E+03</pdfrwt>
<pdfrwt beam="2">  1       -1 0.19056779E+00 0.71513942E+03</pdfrwt>
<totfact> 0.40658105E-01</totfact>
</mgrwt>
</event>
<event>
 4    1  0.4964158E-009  0.3331776E+03  0.7818608E-02  0.1069739E+00
          1   -1    0    0  501    0  0.00000000000E+00  0.00000000000E+00  0.16897388916E+04  0.16897388916E+04  0.50400000000E-02 0. -1.
         -1   -1    0    0    0  501 -0.00000000000E+00 -0.00000000000E+00 -0.12797525542E+04  0.12797525543E+04  0.50400000000E-02 0.  1.
    8880022    1    1    2    0    0  0.23264763766E+03  0.18300482512E+03 -0.12411414540E+04  0.12850834413E+04  0.15294330000E+03 0.  0.
    8880022    1    1    2    0    0 -0.23264763766E+03 -0.18300482512E+03  0.16511277914E+04  0.16844080046E+04  0.15294330000E+03 0.  0.
<mgrwt>
<rscale>  0 0.33317764E+03</rscale>
<asrwt>0</asrwt>
<pdfrwt beam="1">  1        1 0.25995983E+00 0.33317764E+03</pdfrwt>
<pdfrwt beam="2">  1       -1 0.19688501E+00 0.33317764E+03</pdfrwt>
<totfact> 0.92714829E-01</totfact>
</mgrwt>
</event>
<event>
 4    1  0.4964158E-009  0.6240667E+03  0.7818608E-02  0.9856696E-01
          1   -1    0    0  501    0  0.00000000000E+00  0.00000000000E+00  0.20787191754E+04  0.20787191754E+04  0.50400000000E-02 0. -1.
         -1   -1    0    0    0  501 -0.00000000000E+00 -0.00000000000E+00 -0.11443515320E+04  0.11443515320E+04  0.50400000000E-02 0.  1.
    8880022    1    1    2    0    0  0.54137700821E+03  0.27014540326E+03 -0.10065369391E+04  0.11843039587E+04  0.15294330000E+03 0.  0.
    8880022    1    1    2    0    0 -0.54137700821E+03 -0.27014540326E+03  0.19409045825E+04  0.20387667487E+04  0.15294330000E+03 0. -1.
<mgrwt>
<rscale>  0 0.62406671E+03</rscale>
<asrwt>0</asrwt>
<pdfrwt beam="1">  1        1 0.31980295E+00 0.62406671E+03</pdfrwt>
<pdfrwt beam="2">  1       -1 0.17605408E+00 0.62406671E+03</pdfrwt>
<totfact> 0.64266771E-01</totfact>
</mgrwt>
</event>
<event>
 4    1  0.4964158E-009  0.3232934E+03  0.7818608E-02  0.1074143E+00
         -1   -1    0    0    0  501 -0.00000000000E+00  0.00000000000E+00  0.28438281881E+03  0.28438281886E+03  0.50400000000E-02 0.  1.
          1   -1    0    0  501    0  0.00000000000E+00 -0.00000000000E+00 -0.12700760394E+04  0.12700760394E+04  0.50400000000E-02 0. -1.
    8880022    1    1    2    0    0 -0.25522097018E+03 -0.12644844787E+03 -0.11480401010E+04  0.11926921984E+04  0.15294330000E+03 0.  0.
    8880022    1    1    2    0    0  0.25522097018E+03  0.12644844787E+03  0.16234688043E+03  0.36176665986E+03  0.15294330000E+03 0.  1.
<mgrwt>
<rscale>  0 0.32329338E+03</rscale>
<asrwt>0</asrwt>
<pdfrwt beam="1">  1        1 0.19539631E+00 0.32329338E+03</pdfrwt>
<pdfrwt beam="2">  1       -1 0.43751204E-01 0.32329338E+03</pdfrwt>
<totfact> 0.53783193E+01</totfact>
</mgrwt>
</event>
<event>
 4    1  0.4964158E-009  0.1142354E+04  0.7818608E-02  0.9164867E-01
          1   -1    0    0  501    0  0.00000000000E+00  0.00000000000E+00  0.17826367710E+04  0.17826367710E+04  0.50400000000E-02 0. -1.
         -1   -1    0    0    0  501 -0.00000000000E+00 -0.00000000000E+00 -0.83580192446E+03  0.83580192447E+03  0.50400000000E-02 0.  1.
    8880022    1    1    2    0    0  0.37016684546E+03 -0.10698398230E+04  0.12135049563E+02  0.11424183353E+04  0.15294330000E+03 0.  0.
    8880022    1    1    2    0    0 -0.37016684546E+03  0.10698398230E+04  0.93469979699E+03  0.14760203602E+04  0.15294330000E+03 0.  0.
<mgrwt>
<rscale>  0 0.11423539E+04</rscale>
<asrwt>0</asrwt>
<pdfrwt beam="1">  1        1 0.27425181E+00 0.11423539E+04</pdfrwt>
<pdfrwt beam="2">  1       -1 0.12858491E+00 0.11423539E+04</pdfrwt>
<totfact> 0.21601141E+00</totfact>
</mgrwt>
</event>
<event>
 4    1  0.4964158E-009  0.1145502E+04  0.7818608E-02  0.9161943E-01
          1   -1    0    0  501    0  0.00000000000E+00  0.00000000000E+00  0.13587552708E+04  0.13587552708E+04  0.50400000000E-02 0. -1.
         -1   -1    0    0    0  501 -0.00000000000E+00 -0.00000000000E+00 -0.22361938418E+04  0.22361938418E+04  0.50400000000E-02 0.  1.
    8880022    1    1    2    0    0  0.60013468872E+03  0.96365051141E+03  0.91613030627E+03  0.14667891273E+04  0.15294330000E+03 0.  0.
    8880022    1    1    2    0    0 -0.60013468872E+03 -0.96365051141E+03 -0.17935688773E+04  0.21281599854E+04  0.15294330000E+03 0.  0.
<mgrwt>
<rscale>  0 0.11455023E+04</rscale>
<asrwt>0</asrwt>
<pdfrwt beam="1">  1        1 0.20903927E+00 0.11455023E+04</pdfrwt>
<pdfrwt beam="2">  1       -1 0.34402982E+00 0.11455023E+04</pdfrwt>
<totfact> 0.13926103E-01</totfact>
</mgrwt>
</event>
<event>
 4    1  0.4964158E-009  0.4342853E+03  0.7818608E-02  0.1032515E+00
         -1   -1    0    0    0  501 -0.00000000000E+00  0.00000000000E+00  0.35626205270E+03  0.35626205274E+03  0.50400000000E-02 0.  1.
          1   -1    0    0  501    0  0.00000000000E+00 -0.00000000000E+00 -0.26768421828E+04  0.26768421828E+04  0.50400000000E-02 0. -1.
    8880022    1    1    2    0    0 -0.25250248630E+03  0.31851936711E+03  0.19804555384E+03  0.47731099633E+03  0.15294330000E+03 0.  0.
    8880022    1    1    2    0    0  0.25250248630E+03 -0.31851936711E+03 -0.25186256840E+04  0.25557932393E+04  0.15294330000E+03 0.  0.
<mgrwt>
<rscale>  0 0.43428533E+03</rscale>
<asrwt>0</asrwt>
<pdfrwt beam="1">  1        1 0.41182186E+00 0.43428533E+03</pdfrwt>
<pdfrwt beam="2">  1       -1 0.54809548E-01 0.43428533E+03</pdfrwt>
<totfact> 0.39490822E+00</totfact>
</mgrwt>
</event>
<event>
 4    1  0.4964158E-009  0.6541471E+03  0.7818608E-02  0.9799028E-01
          1   -1    0    0  501    0  0.00000000000E+00  0.00000000000E+00  0.21383197083E+04  0.21383197083E+04  0.50400000000E-02 0. -1.
         -1   -1    0    0    0  501 -0.00000000000E+00 -0.00000000000E+00 -0.44844749848E+03  0.44844749851E+03  0.50400000000E-02 0.  1.
    8880022    1    1    2    0    0 -0.32680884524E+03  0.54563055612E+03  0.18074099318E+04  0.19221443858E+04  0.15294330000E+03 0. -1.
    8880022    1    1    2    0    0  0.32680884524E+03 -0.54563055612E+03 -0.11753772202E+03  0.66462282101E+03  0.15294330000E+03 0.  0.
<mgrwt>
<rscale>  0 0.65414706E+03</rscale>
<asrwt>0</asrwt>
<pdfrwt beam="1">  1        1 0.32897226E+00 0.65414706E+03</pdfrwt>
<pdfrwt beam="2">  1       -1 0.68991922E-01 0.65414706E+03</pdfrwt>
<totfact> 0.54638113E+00</totfact>
</mgrwt>
</event>
<event>
 4    1  0.4964158E-009  0.6713770E+03  0.7818608E-02  0.9767473E-01
         -1   -1    0    0    0  501 -0.00000000000E+00  0.00000000000E+00  0.57143402115E+03  0.57143402117E+03  0.50400000000E-02 0.  1.
          1   -1    0    0  501    0  0.00000000000E+00 -0.00000000000E+00 -0.11210692067E+04  0.11210692067E+04  0.50400000000E-02 0. -1.
    8880022    1    1    2    0    0  0.59648032876E+03  0.26751951892E+03 -0.73552837533E+03  0.99586601485E+03  0.15294330000E+03 0.  0.
    8880022    1    1    2    0    0 -0.59648032876E+03 -0.26751951892E+03  0.18589318976E+03  0.69663721306E+03  0.15294330000E+03 0.  0.
<mgrwt>
<rscale>  0 0.67137704E+03</rscale>
<asrwt>0</asrwt>
<pdfrwt beam="1">  1        1 0.17247219E+00 0.67137704E+03</pdfrwt>
<pdfrwt beam="2">  1       -1 0.87912927E-01 0.67137704E+03</pdfrwt>
<totfact> 0.16212274E+01</totfact>
</mgrwt>
</event>
<event>
 4    1  0.4964158E-009  0.2213031E+03  0.7818608E-02  0.1132915E+00
         -1   -1    0    0    0  501 -0.00000000000E+00  0.00000000000E+00  0.30218649421E+02  0.30218649841E+02  0.50400000000E-02 0.  1.
          1   -1    0    0  501    0  0.00000000000E+00 -0.00000000000E+00 -0.29425382602E+04  0.29425382602E+04  0.50400000000E-02 0. -1.
    8880022    1    1    2    0    0  0.23404412084E+02 -0.15822662363E+03 -0.45993114457E+03  0.51040350870E+03  0.15294330000E+03 0.  1.
    8880022    1    1    2    0    0 -0.23404412084E+02  0.15822662363E+03 -0.24523884662E+04  0.24623534014E+04  0.15294330000E+03 0.  0.
<mgrwt>
<rscale>  0 0.22130315E+03</rscale>
<asrwt>0</asrwt>
<pdfrwt beam="1">  1        1 0.45269797E+00 0.22130315E+03</pdfrwt>
<pdfrwt beam="2">  1       -1 0.46490253E-02 0.22130315E+03</pdfrwt>
<totfact> 0.15815097E+02</totfact>
</mgrwt>
</event>
<event>
 4    1  0.4964158E-009  0.1524186E+04  0.7818608E-02  0.8868527E-01
         -1   -1    0    0    0  501 -0.00000000000E+00  0.00000000000E+00  0.21183091151E+04  0.21183091151E+04  0.50400000000E-02 0.  1.
          1   -1    0    0  501    0  0.00000000000E+00 -0.00000000000E+00 -0.14278549151E+04  0.14278549151E+04  0.50400000000E-02 0. -1.
    8880022    1    1    2    0    0  0.12532379358E+04  0.85390093673E+03 -0.50866734552E+03  0.16068248986E+04  0.15294330000E+03 0.  0.
    8880022    1    1    2    0    0 -0.12532379358E+04 -0.85390093673E+03  0.11991215455E+04  0.19393391316E+04  0.15294330000E+03 0.  0.
<mgrwt>
<rscale>  0 0.15241863E+04</rscale>
<asrwt>0</asrwt>
<pdfrwt beam="1">  1        1 0.21966999E+00 0.15241863E+04</pdfrwt>
<pdfrwt beam="2">  1       -1 0.32589371E+00 0.15241863E+04</pdfrwt>
<totfact> 0.15527004E-01</totfact>
</mgrwt>
</event>
<event>
 4    1  0.4964158E-009  0.5273207E+03  0.7818608E-02  0.1006884E+00
         -1   -1    0    0    0  501 -0.00000000000E+00  0.00000000000E+00  0.27847312576E+03  0.27847312580E+03  0.50400000000E-02 0.  1.
          1   -1    0    0  501    0  0.00000000000E+00 -0.00000000000E+00 -0.17057555835E+04  0.17057555835E+04  0.50400000000E-02 0. -1.
    8880022    1    1    2    0    0  0.50122632987E+03 -0.58716931309E+02 -0.74821130732E+02  0.53260244685E+03  0.15294330000E+03 0.  0.
    8880022    1    1    2    0    0 -0.50122632987E+03  0.58716931309E+02 -0.13524613270E+04  0.14516262624E+04  0.15294330000E+03 0. -1.
<mgrwt>
<rscale>  0 0.52732074E+03</rscale>
<asrwt>0</asrwt>
<pdfrwt beam="1">  1        1 0.26242393E+00 0.52732074E+03</pdfrwt>
<pdfrwt beam="2">  1       -1 0.42842020E-01 0.52732074E+03</pdfrwt>
<totfact> 0.27154381E+01</totfact>
</mgrwt>
</event>
<event>
 4    1  0.4964158E-009  0.1142801E+04  0.7818608E-02  0.9164451E-01
          1   -1    0    0  501    0  0.00000000000E+00  0.00000000000E+00  0.24643585794E+04  0.24643585794E+04  0.50400000000E-02 0. -1.
         -1   -1    0    0    0  501 -0.00000000000E+00 -0.00000000000E+00 -0.97295324509E+03  0.97295324511E+03  0.50400000000E-02 0.  1.
    8880022    1    1    2    0    0 -0.10353156682E+04 -0.45904731250E+03 -0.41399519056E+03  0.12154779466E+04  0.15294330000E+03 0.  0.
    8880022    1    1    2    0    0  0.10353156682E+04  0.45904731250E+03  0.19054005248E+04  0.22218338779E+04  0.15294330000E+03 0.  0.
<mgrwt>
<rscale>  0 0.11428012E+04</rscale>
<asrwt>0</asrwt>
<pdfrwt beam="1">  1        1 0.37913209E+00 0.11428012E+04</pdfrwt>
<pdfrwt beam="2">  1       -1 0.14968511E+00 0.11428012E+04</pdfrwt>
<totfact> 0.50059131E-01</totfact>
</mgrwt>
</event>
<event>
 4    1  0.4964158E-009  0.6988608E+03  0.7818608E-02  0.9719182E-01
          1   -1    0    0  501    0  0.00000000000E+00  0.00000000000E+00  0.36208819786E+04  0.36208819786E+04  0.50400000000E-02 0. -1.
         -1   -1    0    0    0  501 -0.00000000000E+00 -0.00000000000E+00 -0.17907944479E+03  0.17907944486E+03  0.50400000000E-02 0.  1.
    8880022    1    1    2    0    0 -0.44524458668E+03 -0.51649978480E+03  0.26647557991E+04  0.27548738431E+04  0.15294330000E+03 0.  0.
    8880022    1    1    2    0    0  0.44524458668E+03  0.51649978480E+03  0.77704673476E+03  0.10450875804E+04  0.15294330000E+03 0.  0.
<mgrwt>
<rscale>  0 0.69886080E+03</rscale>
<asrwt>0</asrwt>
<pdfrwt beam="1">  1        1 0.55705875E+00 0.69886080E+03</pdfrwt>
<pdfrwt beam="2">  1       -1 0.27550685E-01 0.69886080E+03</pdfrwt>
<totfact> 0.26031567E+00</totfact>
</mgrwt>
</event>
<event>
 4    1  0.4964158E-009  0.5109618E+03  0.7818608E-02  0.1010957E+00
          1   -1    0    0  501    0  0.00000000000E+00  0.00000000000E+00  0.14766308903E+04  0.14766308903E+04  0.50400000000E-02 0. -1.
         -1   -1    0    0    0  501 -0.00000000000E+00 -0.00000000000E+00 -0.39621629016E+03  0.39621629019E+03  0.50400000000E-02 0.  1.
    8880022    1    1    2    0    0  0.31495162748E+03 -0.37215021030E+03  0.12370447596E+04  0.13384176093E+04  0.15294330000E+03 0.  0.
    8880022    1    1    2    0    0 -0.31495162748E+03  0.37215021030E+03 -0.15663015946E+03  0.53442957118E+03  0.15294330000E+03 0.  0.
<mgrwt>
<rscale>  0 0.51096180E+03</rscale>
<asrwt>0</asrwt>
<pdfrwt beam="1">  1        1 0.22717398E+00 0.51096180E+03</pdfrwt>
<pdfrwt beam="2">  1       -1 0.60956353E-01 0.51096180E+03</pdfrwt>
<totfact> 0.19928091E+01</totfact>
</mgrwt>
</event>
<event>
 4    1  0.4964158E-009  0.1475282E+04  0.7818608E-02  0.8901059E-01
         -1   -1    0    0    0  501 -0.00000000000E+00  0.00000000000E+00  0.12057807288E+04  0.12057807288E+04  0.50400000000E-02 0.  1.
          1   -1    0    0  501    0  0.00000000000E+00 -0.00000000000E+00 -0.21777998840E+04  0.21777998840E+04  0.50400000000E-02 0. -1.
    8880022    1    1    2    0    0 -0.11688612824E+04  0.88703339365E+03 -0.11859557157E+04  0.18928675473E+04  0.15294330000E+03 0.  0.
    8880022    1    1    2    0    0  0.11688612824E+04 -0.88703339365E+03  0.21393656048E+03  0.14907130656E+04  0.15294330000E+03 0.  0.
<mgrwt>
<rscale>  0 0.14752819E+04</rscale>
<asrwt>0</asrwt>
<pdfrwt beam="1">  1        1 0.33504614E+00 0.14752819E+04</pdfrwt>
<pdfrwt beam="2">  1       -1 0.18550473E+00 0.14752819E+04</pdfrwt>
<totfact> 0.40693291E-01</totfact>
</mgrwt>
</event>
<event>
 4    1  0.4964158E-009  0.6159508E+03  0.7818608E-02  0.9872855E-01
         -1   -1    0    0    0  501 -0.00000000000E+00  0.00000000000E+00  0.28017333143E+03  0.28017333147E+03  0.50400000000E-02 0.  1.
          1   -1    0    0  501    0  0.00000000000E+00 -0.00000000000E+00 -0.16171097644E+04  0.16171097644E+04  0.50400000000E-02 0. -1.
    8880022    1    1    2    0    0 -0.10244021824E+03  0.58780080998E+03 -0.10510116888E+04  0.12182040114E+04  0.15294330000E+03 0.  0.
    8880022    1    1    2    0    0  0.10244021824E+03 -0.58780080998E+03 -0.28592474414E+03  0.67907908439E+03  0.15294330000E+03 0.  0.
<mgrwt>
<rscale>  0 0.61595085E+03</rscale>
<asrwt>0</asrwt>
<pdfrwt beam="1">  1        1 0.24878611E+00 0.61595085E+03</pdfrwt>
<pdfrwt beam="2">  1       -1 0.43103591E-01 0.61595085E+03</pdfrwt>
<totfact> 0.30330094E+01</totfact>
</mgrwt>
</event>
<event>
 4    1  0.4964158E-009  0.1267441E+04  0.7818608E-02  0.9055791E-01
         -1   -1    0    0    0  501 -0.00000000000E+00  0.00000000000E+00  0.84058094878E+03  0.84058094880E+03  0.50400000000E-02 0.  1.
          1   -1    0    0  501    0  0.00000000000E+00 -0.00000000000E+00 -0.24414167127E+04  0.24414167127E+04  0.50400000000E-02 0. -1.
    8880022    1    1    2    0    0  0.10319987908E+04 -0.71971825672E+03 -0.35582465846E+02  0.12679407077E+04  0.15294330000E+03 0.  0.
    8880022    1    1    2    0    0 -0.10319987908E+04  0.71971825672E+03 -0.15652532981E+04  0.20140569539E+04  0.15294330000E+03 0.  0.
<mgrwt>
<rscale>  0 0.12674413E+04</rscale>
<asrwt>0</asrwt>
<pdfrwt beam="1">  1        1 0.37560257E+00 0.12674413E+04</pdfrwt>
<pdfrwt beam="2">  1       -1 0.12932015E+00 0.12674413E+04</pdfrwt>
<totfact> 0.74805941E-01</totfact>
</mgrwt>
</event>
<event>
 4    1  0.4964158E-009  0.3816591E+03  0.7818608E-02  0.1050322E+00
          1   -1    0    0  501    0  0.00000000000E+00  0.00000000000E+00  0.19101089826E+04  0.19101089826E+04  0.50400000000E-02 0. -1.
         -1   -1    0    0    0  501 -0.00000000000E+00 -0.00000000000E+00 -0.69521257608E+03  0.69521257610E+03  0.50400000000E-02 0.  1.
    8880022    1    1    2    0    0  0.20145916013E+03 -0.28580798998E+03  0.18365884691E+04  0.18758253805E+04  0.15294330000E+03 0.  0.
    8880022    1    1    2    0    0 -0.20145916013E+03  0.28580798998E+03 -0.62169206257E+03  0.72949617820E+03  0.15294330000E+03 0.  1.
<mgrwt>
<rscale>  0 0.38165908E+03</rscale>
<asrwt>0</asrwt>
<pdfrwt beam="1">  1        1 0.29386292E+00 0.38165908E+03</pdfrwt>
<pdfrwt beam="2">  1       -1 0.10695578E+00 0.38165908E+03</pdfrwt>
<totfact> 0.32381825E+00</totfact>
</mgrwt>
</event>
<event>
 4    1  0.4964158E-009  0.9580703E+03  0.7818608E-02  0.9355767E-01
         -1   -1    0    0    0  501 -0.00000000000E+00  0.00000000000E+00  0.74382335488E+03  0.74382335490E+03  0.50400000000E-02 0.  1.
          1   -1    0    0  501    0  0.00000000000E+00 -0.00000000000E+00 -0.16737578698E+04  0.16737578699E+04  0.50400000000E-02 0. -1.
    8880022    1    1    2    0    0  0.19362181074E+03  0.92575246396E+03 -0.10845479204E+04  0.14471153633E+04  0.15294330000E+03 0.  0.
    8880022    1    1    2    0    0 -0.19362181074E+03 -0.92575246396E+03  0.15461340539E+03  0.97046586146E+03  0.15294330000E+03 0.  0.
<mgrwt>
<rscale>  0 0.95807029E+03</rscale>
<asrwt>0</asrwt>
<pdfrwt beam="1">  1        1 0.25750121E+00 0.95807029E+03</pdfrwt>
<pdfrwt beam="2">  1       -1 0.11443436E+00 0.95807029E+03</pdfrwt>
<totfact> 0.34942032E+00</totfact>
</mgrwt>
</event>
<event>
 4    1  0.4964158E-009  0.2609422E+03  0.7818608E-02  0.1106578E+00
          1   -1    0    0  501    0  0.00000000000E+00  0.00000000000E+00  0.26016378115E+04  0.26016378115E+04  0.50400000000E-02 0. -1.
         -1   -1    0    0    0  501 -0.00000000000E+00 -0.00000000000E+00 -0.15851448860E+03  0.15851448868E+03  0.50400000000E-02 0.  1.
    8880022    1    1    2    0    0 -0.88201020855E+02 -0.19214509869E+03 -0.39446060117E+02  0.26390680875E+03  0.15294330000E+03 0.  0.
    8880022    1    1    2    0    0  0.88201020855E+02  0.19214509869E+03  0.24825693831E+04  0.24962454915E+04  0.15294330000E+03 0.  0.
<mgrwt>
<rscale>  0 0.26094216E+03</rscale>
<asrwt>0</asrwt>
<pdfrwt beam="1">  1        1 0.40025199E+00 0.26094216E+03</pdfrwt>
<pdfrwt beam="2">  1       -1 0.24386844E-01 0.26094216E+03</pdfrwt>
<totfact> 0.19961313E+01</totfact>
</mgrwt>
</event>
<event>
 4    1  0.6017516E-009  0.6724117E+03  0.7818608E-02  0.9765611E-01
         -1   -1    0    0    0  501 -0.00000000000E+00  0.00000000000E+00  0.19641361000E+04  0.19641361000E+04  0.50400000000E-02 0.  1.
          1   -1    0    0  501    0  0.00000000000E+00 -0.00000000000E+00 -0.12787537998E+04  0.12787537998E+04  0.50400000000E-02 0. -1.
    8880022    1    1    2    0    0 -0.23546522484E+01 -0.65478264780E+03 -0.11255750343E+04  0.13111280147E+04  0.15294330000E+03 0.  0.
    8880022    1    1    2    0    0  0.23546522484E+01  0.65478264780E+03  0.18109573345E+04  0.19317618850E+04  0.15294330000E+03 0.  0.
<mgrwt>
<rscale>  0 0.67241171E+03</rscale>
<asrwt>0</asrwt>
<pdfrwt beam="1">  1        1 0.19673135E+00 0.67241171E+03</pdfrwt>
<pdfrwt beam="2">  1       -1 0.30217479E+00 0.67241171E+03</pdfrwt>
<totfact> 0.32619295E-01</totfact>
</mgrwt>
</event>
<event>
 4    1  0.4964158E-009  0.7010876E+03  0.7818608E-02  0.9715374E-01
          1   -1    0    0  501    0  0.00000000000E+00  0.00000000000E+00  0.63493053483E+03  0.63493053485E+03  0.50400000000E-02 0. -1.
         -1   -1    0    0    0  501 -0.00000000000E+00 -0.00000000000E+00 -0.16790802203E+04  0.16790802203E+04  0.50400000000E-02 0.  1.
    8880022    1    1    2    0    0  0.57815322937E+03  0.36588386537E+03 -0.13714706166E+04  0.15402777233E+04  0.15294330000E+03 0.  0.
    8880022    1    1    2    0    0 -0.57815322937E+03 -0.36588386537E+03  0.32732093117E+03  0.77373303185E+03  0.15294330000E+03 0.  0.
<mgrwt>
<rscale>  0 0.70108759E+03</rscale>
<asrwt>0</asrwt>
<pdfrwt beam="1">  1        1 0.97681622E-01 0.70108759E+03</pdfrwt>
<pdfrwt beam="2">  1       -1 0.25832003E+00 0.70108759E+03</pdfrwt>
<totfact> 0.20485156E+00</totfact>
</mgrwt>
</event>
<event>
 4    1  0.4964158E-009  0.1640802E+03  0.7818608E-02  0.1184166E+00
         -1   -1    0    0    0  501 -0.00000000000E+00  0.00000000000E+00  0.13812146039E+04  0.13812146039E+04  0.50400000000E-02 0.  1.
          1   -1    0    0  501    0  0.00000000000E+00 -0.00000000000E+00 -0.18688203881E+03  0.18688203888E+03  0.50400000000E-02 0. -1.
    8880022    1    1    2    0    0  0.57049254271E+02  0.16614433758E+02 -0.14486832061E+03  0.21888156650E+03  0.15294330000E+03 0.  0.
    8880022    1    1    2    0    0 -0.57049254271E+02 -0.16614433758E+02  0.13392008857E+04  0.13492150763E+04  0.15294330000E+03 0.  1.
<mgrwt>
<rscale>  0 0.16408019E+03</rscale>
<asrwt>0</asrwt>
<pdfrwt beam="1">  1        1 0.28751084E-01 0.16408019E+03</pdfrwt>
<pdfrwt beam="2">  1       -1 0.21249454E+00 0.16408019E+03</pdfrwt>
<totfact> 0.23092261E+01</totfact>
</mgrwt>
</event>
<event>
 4    1  0.4964158E-009  0.1907276E+03  0.7818608E-02  0.1157807E+00
         -1   -1    0    0    0  501 -0.00000000000E+00  0.00000000000E+00  0.14403067591E+03  0.14403067600E+03  0.50400000000E-02 0.  1.
          1   -1    0    0  501    0  0.00000000000E+00 -0.00000000000E+00 -0.66364485992E+03  0.66364485993E+03  0.50400000000E-02 0. -1.
    8880022    1    1    2    0    0 -0.89688249142E+02 -0.70294878070E+02  0.58028509625E+02  0.19935975738E+03  0.15294330000E+03 0.  0.
    8880022    1    1    2    0    0  0.89688249142E+02  0.70294878070E+02 -0.57764269363E+03  0.60831577855E+03  0.15294330000E+03 0. -1.
<mgrwt>
<rscale>  0 0.19072757E+03</rscale>
<asrwt>0</asrwt>
<pdfrwt beam="1">  1        1 0.10209921E+00 0.19072757E+03</pdfrwt>
<pdfrwt beam="2">  1       -1 0.22158566E-01 0.19072757E+03</pdfrwt>
<totfact> 0.52434436E+02</totfact>
</mgrwt>
</event>
<event>
 4    1  0.4964158E-009  0.4292078E+03  0.7818608E-02  0.1034111E+00
         -1   -1    0    0    0  501 -0.00000000000E+00  0.00000000000E+00  0.23778963014E+03  0.23778963019E+03  0.50400000000E-02 0.  1.
          1   -1    0    0  501    0  0.00000000000E+00 -0.00000000000E+00 -0.18974971486E+04  0.18974971486E+04  0.50400000000E-02 0. -1.
    8880022    1    1    2    0    0 -0.36652197476E+03 -0.16275529539E+03 -0.85887599040E+01  0.42929368033E+03  0.15294330000E+03 0.  0.
    8880022    1    1    2    0    0  0.36652197476E+03  0.16275529539E+03 -0.16511187586E+04  0.17059930985E+04  0.15294330000E+03 0.  0.
<mgrwt>
<rscale>  0 0.42920776E+03</rscale>
<asrwt>0</asrwt>
<pdfrwt beam="1">  1        1 0.29192263E+00 0.42920776E+03</pdfrwt>
<pdfrwt beam="2">  1       -1 0.36583021E-01 0.42920776E+03</pdfrwt>
<totfact> 0.27499344E+01</totfact>
</mgrwt>
</event>
<event>
 4    1  0.4964158E-009  0.6202460E+03  0.7818608E-02  0.9864270E-01
         -1   -1    0    0    0  501 -0.00000000000E+00  0.00000000000E+00  0.21560908682E+03  0.21560908688E+03  0.50400000000E-02 0.  1.
          1   -1    0    0  501    0  0.00000000000E+00 -0.00000000000E+00 -0.23931902308E+04  0.23931902309E+04  0.50400000000E-02 0. -1.
    8880022    1    1    2    0    0  0.38939308604E+03 -0.45791535453E+03 -0.43082705594E+03  0.75519338749E+03  0.15294330000E+03 0.  0.
    8880022    1    1    2    0    0 -0.38939308604E+03  0.45791535453E+03 -0.17467540881E+04  0.18536059302E+04  0.15294330000E+03 0.  0.
<mgrwt>
<rscale>  0 0.62024600E+03</rscale>
<asrwt>0</asrwt>
<pdfrwt beam="1">  1        1 0.36818309E+00 0.62024600E+03</pdfrwt>
<pdfrwt beam="2">  1       -1 0.33170631E-01 0.62024600E+03</pdfrwt>
<totfact> 0.14707203E+01</totfact>
</mgrwt>
</event>
<event>
 4    1  0.4964158E-009  0.1415624E+04  0.7818608E-02  0.8942586E-01
          1   -1    0    0  501    0  0.00000000000E+00  0.00000000000E+00  0.18843408786E+04  0.18843408786E+04  0.50400000000E-02 0. -1.
         -1   -1    0    0    0  501 -0.00000000000E+00 -0.00000000000E+00 -0.18483488654E+04  0.18483488654E+04  0.50400000000E-02 0.  1.
    8880022    1    1    2    0    0  0.10292288494E+04 -0.95983739421E+03 -0.11981722963E+04  0.18546181150E+04  0.15294330000E+03 0.  0.
    8880022    1    1    2    0    0 -0.10292288494E+04  0.95983739421E+03  0.12341643095E+04  0.18780716290E+04  0.15294330000E+03 0.  0.
<mgrwt>
<rscale>  0 0.14156241E+04</rscale>
<asrwt>0</asrwt>
<pdfrwt beam="1">  1        1 0.28989860E+00 0.14156241E+04</pdfrwt>
<pdfrwt beam="2">  1       -1 0.28436136E+00 0.14156241E+04</pdfrwt>
<totfact> 0.14203999E-01</totfact>
</mgrwt>
</event>
<event>
 4    1  0.4964158E-009  0.7594247E+03  0.7818608E-02  0.9620679E-01
          1   -1    0    0  501    0  0.00000000000E+00  0.00000000000E+00  0.52593234382E+03  0.52593234384E+03  0.50400000000E-02 0. -1.
         -1   -1    0    0    0  501 -0.00000000000E+00 -0.00000000000E+00 -0.11315176492E+04  0.11315176492E+04  0.50400000000E-02 0.  1.
    8880022    1    1    2    0    0 -0.41921781825E+03  0.61448410248E+03 -0.44841827105E+03  0.88193247483E+03  0.15294330000E+03 0.  1.
    8880022    1    1    2    0    0  0.41921781825E+03 -0.61448410248E+03 -0.15716703431E+03  0.77551751819E+03  0.15294330000E+03 0. -1.
<mgrwt>
<rscale>  0 0.75942475E+03</rscale>
<asrwt>0</asrwt>
<pdfrwt beam="1">  1        1 0.80912668E-01 0.75942475E+03</pdfrwt>
<pdfrwt beam="2">  1       -1 0.17407964E+00 0.75942475E+03</pdfrwt>
<totfact> 0.97704100E+00</totfact>
</mgrwt>
</event>
<event>
 4    1  0.4964158E-009  0.1053897E+04  0.7818608E-02  0.9251330E-01
          1   -1    0    0  501    0  0.00000000000E+00  0.00000000000E+00  0.88767453393E+03  0.88767453395E+03  0.50400000000E-02 0. -1.
         -1   -1    0    0    0  501 -0.00000000000E+00 -0.00000000000E+00 -0.20054347383E+04  0.20054347384E+04  0.50400000000E-02 0.  1.
    8880022    1    1    2    0    0 -0.10389459040E+04 -0.88874962501E+02 -0.14459761886E+04  0.17892864895E+04  0.15294330000E+03 0.  0.
    8880022    1    1    2    0    0  0.10389459040E+04  0.88874962501E+02  0.32821598421E+03  0.11038227828E+04  0.15294330000E+03 0.  0.
<mgrwt>
<rscale>  0 0.10538971E+04</rscale>
<asrwt>0</asrwt>
<pdfrwt beam="1">  1        1 0.13656531E+00 0.10538971E+04</pdfrwt>
<pdfrwt beam="2">  1       -1 0.30852842E+00 0.10538971E+04</pdfrwt>
<totfact> 0.54511943E-01</totfact>
</mgrwt>
</event>
<event>
 4    1  0.4964158E-009  0.1108530E+04  0.7818608E-02  0.9196918E-01
          1   -1    0    0  501    0  0.00000000000E+00  0.00000000000E+00  0.22953179198E+04  0.22953179198E+04  0.50400000000E-02 0. -1.
         -1   -1    0    0    0  501 -0.00000000000E+00 -0.00000000000E+00 -0.92012650600E+03  0.92012650602E+03  0.50400000000E-02 0.  1.
    8880022    1    1    2    0    0  0.10976802236E+04 -0.23334496126E+02  0.17272328421E+04  0.20523575020E+04  0.15294330000E+03 0.  0.
    8880022    1    1    2    0    0 -0.10976802236E+04  0.23334496126E+02 -0.35204142832E+03  0.11630869238E+04  0.15294330000E+03 0.  0.
<mgrwt>
<rscale>  0 0.11085297E+04</rscale>
<asrwt>0</asrwt>
<pdfrwt beam="1">  1        1 0.35312583E+00 0.11085297E+04</pdfrwt>
<pdfrwt beam="2">  1       -1 0.14155793E+00 0.11085297E+04</pdfrwt>
<totfact> 0.76202756E-01</totfact>
</mgrwt>
</event>
<event>
 4    1  0.4964158E-009  0.1231739E+04  0.7818608E-02  0.9085520E-01
          1   -1    0    0  501    0  0.00000000000E+00  0.00000000000E+00  0.36923399496E+04  0.36923399496E+04  0.50400000000E-02 0. -1.
         -1   -1    0    0    0  501 -0.00000000000E+00 -0.00000000000E+00 -0.64375982669E+03  0.64375982671E+03  0.50400000000E-02 0.  1.
    8880022    1    1    2    0    0 -0.42461613561E+03  0.11460760266E+04  0.28282223892E+04  0.30848051247E+04  0.15294330000E+03 0.  0.
    8880022    1    1    2    0    0  0.42461613561E+03 -0.11460760266E+04  0.22035773369E+03  0.12512946516E+04  0.15294330000E+03 0.  0.
<mgrwt>
<rscale>  0 0.12317389E+04</rscale>
<asrwt>0</asrwt>
<pdfrwt beam="1">  1        1 0.56805229E+00 0.12317389E+04</pdfrwt>
<pdfrwt beam="2">  1       -1 0.99039975E-01 0.12317389E+04</pdfrwt>
<totfact> 0.17106178E-01</totfact>
</mgrwt>
</event>
<event>
 4    1  0.4964158E-009  0.4137575E+03  0.7818608E-02  0.1039117E+00
         -1   -1    0    0    0  501 -0.00000000000E+00  0.00000000000E+00  0.88071587851E+03  0.88071587852E+03  0.50400000000E-02 0.  1.
          1   -1    0    0  501    0  0.00000000000E+00 -0.00000000000E+00 -0.20768418497E+04  0.20768418497E+04  0.50400000000E-02 0. -1.
    8880022    1    1    2    0    0 -0.23251912642E+03 -0.30616742450E+03  0.80981294989E+03  0.90939117150E+03  0.15294330000E+03 0.  1.
    8880022    1    1    2    0    0  0.23251912642E+03  0.30616742450E+03 -0.20059389211E+04  0.20481665567E+04  0.15294330000E+03 0.  0.
<mgrwt>
<rscale>  0 0.41375752E+03</rscale>
<asrwt>0</asrwt>
<pdfrwt beam="1">  1        1 0.31951413E+00 0.41375752E+03</pdfrwt>
<pdfrwt beam="2">  1       -1 0.13549475E+00 0.41375752E+03</pdfrwt>
<totfact> 0.14044376E+00</totfact>
</mgrwt>
</event>
<event>
 4    1  0.4964158E-009  0.2404868E+03  0.7818608E-02  0.1119469E+00
         -1   -1    0    0    0  501 -0.00000000000E+00  0.00000000000E+00  0.35954600195E+03  0.35954600199E+03  0.50400000000E-02 0.  1.
          1   -1    0    0  501    0  0.00000000000E+00 -0.00000000000E+00 -0.18353025518E+03  0.18353025525E+03  0.50400000000E-02 0. -1.
    8880022    1    1    2    0    0 -0.96180372010E+02 -0.15871851301E+03 -0.74423062691E+01  0.24060189374E+03  0.15294330000E+03 0.  0.
    8880022    1    1    2    0    0  0.96180372010E+02  0.15871851301E+03  0.18345805304E+03  0.30247436350E+03  0.15294330000E+03 0.  0.
<mgrwt>
<rscale>  0 0.24048676E+03</rscale>
<asrwt>0</asrwt>
<pdfrwt beam="1">  1        1 0.28235424E-01 0.24048676E+03</pdfrwt>
<pdfrwt beam="2">  1       -1 0.55314769E-01 0.24048676E+03</pdfrwt>
<totfact> 0.55791945E+02</totfact>
</mgrwt>
</event>
<event>
 4    1  0.4964158E-009  0.7044985E+03  0.7818608E-02  0.9709570E-01
          1   -1    0    0  501    0  0.00000000000E+00  0.00000000000E+00  0.64828687374E+03  0.64828687376E+03  0.50400000000E-02 0. -1.
         -1   -1    0    0    0  501 -0.00000000000E+00 -0.00000000000E+00 -0.15195327647E+04  0.15195327647E+04  0.50400000000E-02 0.  1.
    8880022    1    1    2    0    0 -0.61647531411E+03  0.30476975186E+03  0.32787703252E+03  0.77705946749E+03  0.15294330000E+03 0.  0.
    8880022    1    1    2    0    0  0.61647531411E+03 -0.30476975186E+03 -0.11991229235E+04  0.13907601710E+04  0.15294330000E+03 0.  0.
<mgrwt>
<rscale>  0 0.70449845E+03</rscale>
<asrwt>0</asrwt>
<pdfrwt beam="1">  1        1 0.99736442E-01 0.70449845E+03</pdfrwt>
<pdfrwt beam="2">  1       -1 0.23377427E+00 0.70449845E+03</pdfrwt>
<totfact> 0.28613720E+00</totfact>
</mgrwt>
</event>
<event>
 4    1  0.4964158E-009  0.1267085E+04  0.7818608E-02  0.9056082E-01
          1   -1    0    0  501    0  0.00000000000E+00  0.00000000000E+00  0.19345416625E+04  0.19345416625E+04  0.50400000000E-02 0. -1.
         -1   -1    0    0    0  501 -0.00000000000E+00 -0.00000000000E+00 -0.90343320763E+03  0.90343320765E+03  0.50400000000E-02 0.  1.
    8880022    1    1    2    0    0 -0.11722475261E+04  0.45601285194E+03  0.92034469928E+03  0.15660581094E+04  0.15294330000E+03 0.  0.
    8880022    1    1    2    0    0  0.11722475261E+04 -0.45601285194E+03  0.11076375556E+03  0.12719167607E+04  0.15294330000E+03 0.  0.
<mgrwt>
<rscale>  0 0.12670847E+04</rscale>
<asrwt>0</asrwt>
<pdfrwt beam="1">  1        1 0.29762179E+00 0.12670847E+04</pdfrwt>
<pdfrwt beam="2">  1       -1 0.13898973E+00 0.12670847E+04</pdfrwt>
<totfact> 0.13750059E+00</totfact>
</mgrwt>
</event>
<event>
 4    1  0.4964158E-009  0.6955691E+03  0.7818608E-02  0.9724840E-01
          1   -1    0    0  501    0  0.00000000000E+00  0.00000000000E+00  0.83649967458E+03  0.83649967459E+03  0.50400000000E-02 0. -1.
         -1   -1    0    0    0  501 -0.00000000000E+00 -0.00000000000E+00 -0.10167148712E+04  0.10167148712E+04  0.50400000000E-02 0.  1.
    8880022    1    1    2    0    0  0.26500131213E+03 -0.62465916242E+03  0.51830486165E+03  0.86744241725E+03  0.15294330000E+03 0.  0.
    8880022    1    1    2    0    0 -0.26500131213E+03  0.62465916242E+03 -0.69852005830E+03  0.98577212858E+03  0.15294330000E+03 0.  0.
<mgrwt>
<rscale>  0 0.69556913E+03</rscale>
<asrwt>0</asrwt>
<pdfrwt beam="1">  1        1 0.12869226E+00 0.69556913E+03</pdfrwt>
<pdfrwt beam="2">  1       -1 0.15641767E+00 0.69556913E+03</pdfrwt>
<totfact> 0.66707884E+00</totfact>
</mgrwt>
</event>
<event>
 4    1  0.4964158E-009  0.5577892E+03  0.7818608E-02  0.9997069E-01
          1   -1    0    0  501    0  0.00000000000E+00  0.00000000000E+00  0.16721912092E+04  0.16721912092E+04  0.50400000000E-02 0. -1.
         -1   -1    0    0    0  501 -0.00000000000E+00 -0.00000000000E+00 -0.90698892946E+03  0.90698892947E+03  0.50400000000E-02 0.  1.
    8880022    1    1    2    0    0  0.15329107323E+03 -0.51404184776E+03 -0.76713119611E+03  0.94848252459E+03  0.15294330000E+03 0.  0.
    8880022    1    1    2    0    0 -0.15329107323E+03  0.51404184776E+03  0.15323334758E+04  0.16306976141E+04  0.15294330000E+03 0.  0.
<mgrwt>
<rscale>  0 0.55778923E+03</rscale>
<asrwt>0</asrwt>
<pdfrwt beam="1">  1        1 0.25726018E+00 0.55778923E+03</pdfrwt>
<pdfrwt beam="2">  1       -1 0.13953676E+00 0.55778923E+03</pdfrwt>
<totfact> 0.23042691E+00</totfact>
</mgrwt>
</event>
<event>
 4    1  0.4964158E-009  0.8724242E+03  0.7818608E-02  0.9460725E-01
         -1   -1    0    0    0  501 -0.00000000000E+00  0.00000000000E+00  0.21933010702E+04  0.21933010702E+04  0.50400000000E-02 0.  1.
          1   -1    0    0  501    0  0.00000000000E+00 -0.00000000000E+00 -0.11403822563E+04  0.11403822563E+04  0.50400000000E-02 0. -1.
    8880022    1    1    2    0    0  0.67400091106E+03  0.53240499490E+03  0.19167459285E+04  0.21059532080E+04  0.15294330000E+03 0.  0.
    8880022    1    1    2    0    0 -0.67400091106E+03 -0.53240499490E+03 -0.86382711469E+03  0.12277301185E+04  0.15294330000E+03 0. -1.
<mgrwt>
<rscale>  0 0.87242419E+03</rscale>
<asrwt>0</asrwt>
<pdfrwt beam="1">  1        1 0.17544342E+00 0.87242419E+03</pdfrwt>
<pdfrwt beam="2">  1       -1 0.33743093E+00 0.87242419E+03</pdfrwt>
<totfact> 0.23236768E-01</totfact>
</mgrwt>
</event>
<event>
 4    1  0.4964158E-009  0.7827175E+03  0.7818608E-02  0.9585375E-01
         -1   -1    0    0    0  501 -0.00000000000E+00  0.00000000000E+00  0.22653748467E+04  0.22653748467E+04  0.50400000000E-02 0.  1.
          1   -1    0    0  501    0  0.00000000000E+00 -0.00000000000E+00 -0.34126357726E+03  0.34126357729E+03  0.50400000000E-02 0. -1.
    8880022    1    1    2    0    0 -0.52390694059E+03  0.56104956462E+03  0.36831548993E+03  0.86504511414E+03  0.15294330000E+03 0.  0.
    8880022    1    1    2    0    0  0.52390694059E+03 -0.56104956462E+03  0.15557957795E+04  0.17415933099E+04  0.15294330000E+03 0.  0.
<mgrwt>
<rscale>  0 0.78271754E+03</rscale>
<asrwt>0</asrwt>
<pdfrwt beam="1">  1        1 0.52502090E-01 0.78271754E+03</pdfrwt>
<pdfrwt beam="2">  1       -1 0.34851920E+00 0.78271754E+03</pdfrwt>
<totfact> 0.12409524E+00</totfact>
</mgrwt>
</event>
<event>
 4    1  0.4964158E-009  0.7442136E+03  0.7818608E-02  0.9644472E-01
          1   -1    0    0  501    0  0.00000000000E+00  0.00000000000E+00  0.19645233042E+04  0.19645233042E+04  0.50400000000E-02 0. -1.
         -1   -1    0    0    0  501 -0.00000000000E+00 -0.00000000000E+00 -0.12117926504E+04  0.12117926504E+04  0.50400000000E-02 0.  1.
    8880022    1    1    2    0    0 -0.10596930106E+03 -0.72057806043E+03 -0.10148342622E+04  0.12584683018E+04  0.15294330000E+03 0.  0.
    8880022    1    1    2    0    0  0.10596930106E+03  0.72057806043E+03  0.17675649160E+04  0.19178476528E+04  0.15294330000E+03 0.  0.
<mgrwt>
<rscale>  0 0.74421360E+03</rscale>
<asrwt>0</asrwt>
<pdfrwt beam="1">  1        1 0.30223435E+00 0.74421360E+03</pdfrwt>
<pdfrwt beam="2">  1       -1 0.18642964E+00 0.74421360E+03</pdfrwt>
<totfact> 0.62708911E-01</totfact>
</mgrwt>
</event>
<event>
 4    1  0.4964158E-009  0.1321875E+04  0.7818608E-02  0.9012395E-01
          1   -1    0    0  501    0  0.00000000000E+00  0.00000000000E+00  0.21263098479E+04  0.21263098479E+04  0.50400000000E-02 0. -1.
         -1   -1    0    0    0  501 -0.00000000000E+00 -0.00000000000E+00 -0.87691590845E+03  0.87691590847E+03  0.50400000000E-02 0.  1.
    8880022    1    1    2    0    0  0.74309740642E+03  0.10824829260E+04  0.24816307119E+03  0.13449682537E+04  0.15294330000E+03 0.  0.
    8880022    1    1    2    0    0 -0.74309740642E+03 -0.10824829260E+04  0.10012308683E+04  0.16582575027E+04  0.15294330000E+03 0.  0.
<mgrwt>
<rscale>  0 0.13218754E+04</rscale>
<asrwt>0</asrwt>
<pdfrwt beam="1">  1        1 0.32712459E+00 0.13218754E+04</pdfrwt>
<pdfrwt beam="2">  1       -1 0.13491014E+00 0.13218754E+04</pdfrwt>
<totfact> 0.10945892E+00</totfact>
</mgrwt>
</event>
<event>
 4    1  0.4964158E-009  0.6702132E+03  0.7818608E-02  0.9769573E-01
         -1   -1    0    0    0  501 -0.00000000000E+00  0.00000000000E+00  0.26658454282E+04  0.26658454282E+04  0.50400000000E-02 0.  1.
          1   -1    0    0  501    0  0.00000000000E+00 -0.00000000000E+00 -0.46420531066E+03  0.46420531069E+03  0.50400000000E-02 0. -1.
    8880022    1    1    2    0    0  0.23103140395E+03 -0.61026101836E+03 -0.14828350791E+03  0.68642091451E+03  0.15294330000E+03 0.  0.
    8880022    1    1    2    0    0 -0.23103140395E+03  0.61026101836E+03  0.23499236255E+04  0.24436298244E+04  0.15294330000E+03 0.  0.
<mgrwt>
<rscale>  0 0.67021316E+03</rscale>
<asrwt>0</asrwt>
<pdfrwt beam="1">  1        1 0.71416203E-01 0.67021316E+03</pdfrwt>
<pdfrwt beam="2">  1       -1 0.41013006E+00 0.67021316E+03</pdfrwt>
<totfact> 0.32722812E-01</totfact>
</mgrwt>
</event>
<event>
 4    1  0.4964158E-009  0.8689440E+03  0.7818608E-02  0.9465258E-01
          1   -1    0    0  501    0  0.00000000000E+00  0.00000000000E+00  0.92728304830E+03  0.92728304831E+03  0.50400000000E-02 0. -1.
         -1   -1    0    0    0  501 -0.00000000000E+00 -0.00000000000E+00 -0.11124226370E+04  0.11124226371E+04  0.50400000000E-02 0.  1.
    8880022    1    1    2    0    0 -0.69066562417E+03  0.50463157610E+03 -0.62055051823E+03  0.10677764891E+04  0.15294330000E+03 0.  1.
    8880022    1    1    2    0    0  0.69066562417E+03 -0.50463157610E+03  0.43541092948E+03  0.97192919626E+03  0.15294330000E+03 0.  0.
<mgrwt>
<rscale>  0 0.86894401E+03</rscale>
<asrwt>0</asrwt>
<pdfrwt beam="1">  1        1 0.14265893E+00 0.86894401E+03</pdfrwt>
<pdfrwt beam="2">  1       -1 0.17114194E+00 0.86894401E+03</pdfrwt>
<totfact> 0.42535339E+00</totfact>
</mgrwt>
</event>
<event>
 4    1  0.4964158E-009  0.5190491E+03  0.7818608E-02  0.1008923E+00
          1   -1    0    0  501    0  0.00000000000E+00  0.00000000000E+00  0.11246580865E+04  0.11246580865E+04  0.50400000000E-02 0. -1.
         -1   -1    0    0    0  501 -0.00000000000E+00 -0.00000000000E+00 -0.46248753169E+03  0.46248753172E+03  0.50400000000E-02 0.  1.
    8880022    1    1    2    0    0  0.27369073879E+03  0.41365891932E+03 -0.21988509450E+03  0.56370331720E+03  0.15294330000E+03 0.  0.
    8880022    1    1    2    0    0 -0.27369073879E+03 -0.41365891932E+03  0.88205564928E+03  0.10234423010E+04  0.15294330000E+03 0.  0.
<mgrwt>
<rscale>  0 0.51904911E+03</rscale>
<asrwt>0</asrwt>
<pdfrwt beam="1">  1        1 0.17302432E+00 0.51904911E+03</pdfrwt>
<pdfrwt beam="2">  1       -1 0.71151929E-01 0.51904911E+03</pdfrwt>
<totfact> 0.25778889E+01</totfact>
</mgrwt>
</event>
<event>
 4    1  0.4964158E-009  0.5394125E+03  0.7818608E-02  0.1003975E+00
         -1   -1    0    0    0  501 -0.00000000000E+00  0.00000000000E+00  0.36631659428E+03  0.36631659432E+03  0.50400000000E-02 0.  1.
          1   -1    0    0  501    0  0.00000000000E+00 -0.00000000000E+00 -0.12106835011E+04  0.12106835011E+04  0.50400000000E-02 0. -1.
    8880022    1    1    2    0    0  0.51345869847E+03 -0.62724490341E+02  0.40232005144E+02  0.54091077265E+03  0.15294330000E+03 0.  0.
    8880022    1    1    2    0    0 -0.51345869847E+03  0.62724490341E+02 -0.88459891200E+03  0.10360893228E+04  0.15294330000E+03 0.  0.
<mgrwt>
<rscale>  0 0.53941250E+03</rscale>
<asrwt>0</asrwt>
<pdfrwt beam="1">  1        1 0.18625900E+00 0.53941250E+03</pdfrwt>
<pdfrwt beam="2">  1       -1 0.56356400E-01 0.53941250E+03</pdfrwt>
<totfact> 0.35353038E+01</totfact>
</mgrwt>
</event>
<event>
 4    1  0.4964158E-009  0.4264144E+03  0.7818608E-02  0.1034999E+00
          1   -1    0    0  501    0  0.00000000000E+00  0.00000000000E+00  0.86952671752E+03  0.86952671754E+03  0.50400000000E-02 0. -1.
         -1   -1    0    0    0  501 -0.00000000000E+00 -0.00000000000E+00 -0.24361553772E+03  0.24361553777E+03  0.50400000000E-02 0.  1.
    8880022    1    1    2    0    0 -0.39716111546E+03  0.26469737449E+02  0.52241233202E+03  0.67434701475E+03  0.15294330000E+03 0. -1.
    8880022    1    1    2    0    0  0.39716111546E+03 -0.26469737449E+02  0.10349884778E+03  0.43879524056E+03  0.15294330000E+03 0.  0.
<mgrwt>
<rscale>  0 0.42641441E+03</rscale>
<asrwt>0</asrwt>
<pdfrwt beam="1">  1        1 0.13377334E+00 0.42641441E+03</pdfrwt>
<pdfrwt beam="2">  1       -1 0.37479313E-01 0.42641441E+03</pdfrwt>
<totfact> 0.13843847E+02</totfact>
</mgrwt>
</event>
<event>
 4    1  0.4964158E-009  0.1176712E+04  0.7818608E-02  0.9133488E-01
          1   -1    0    0  501    0  0.00000000000E+00  0.00000000000E+00  0.18717893663E+04  0.18717893663E+04  0.50400000000E-02 0. -1.
         -1   -1    0    0    0  501 -0.00000000000E+00 -0.00000000000E+00 -0.17534625270E+04  0.17534625271E+04  0.50400000000E-02 0.  1.
    8880022    1    1    2    0    0  0.10810911426E+04  0.43875000974E+03 -0.13190545732E+04  0.17676414370E+04  0.15294330000E+03 0.  0.
    8880022    1    1    2    0    0 -0.10810911426E+04 -0.43875000974E+03  0.14373814125E+04  0.18576104564E+04  0.15294330000E+03 0.  0.
<mgrwt>
<rscale>  0 0.11767121E+04</rscale>
<asrwt>0</asrwt>
<pdfrwt beam="1">  1        1 0.28796760E+00 0.11767121E+04</pdfrwt>
<pdfrwt beam="2">  1       -1 0.26976346E+00 0.11767121E+04</pdfrwt>
<totfact> 0.18630823E-01</totfact>
</mgrwt>
</event>
<event>
 4    1  0.4964158E-009  0.9574859E+03  0.7818608E-02  0.9356443E-01
         -1   -1    0    0    0  501 -0.00000000000E+00  0.00000000000E+00  0.75355219564E+03  0.75355219565E+03  0.50400000000E-02 0.  1.
          1   -1    0    0  501    0  0.00000000000E+00 -0.00000000000E+00 -0.14849176337E+04  0.14849176337E+04  0.50400000000E-02 0. -1.
    8880022    1    1    2    0    0  0.15073357003E+03 -0.93309533331E+03 -0.84144121591E+03  0.12746774035E+04  0.15294330000E+03 0.  0.
    8880022    1    1    2    0    0 -0.15073357003E+03  0.93309533331E+03  0.11007577788E+03  0.96379242582E+03  0.15294330000E+03 0.  0.
<mgrwt>
<rscale>  0 0.95748586E+03</rscale>
<asrwt>0</asrwt>
<pdfrwt beam="1">  1        1 0.22844887E+00 0.95748586E+03</pdfrwt>
<pdfrwt beam="2">  1       -1 0.11593111E+00 0.95748586E+03</pdfrwt>
<totfact> 0.45600746E+00</totfact>
</mgrwt>
</event>
<event>
 4    1  0.4964158E-009  0.3293481E+03  0.7818608E-02  0.1071426E+00
          1   -1    0    0  501    0  0.00000000000E+00  0.00000000000E+00  0.19734384966E+04  0.19734384966E+04  0.50400000000E-02 0. -1.
         -1   -1    0    0    0  501 -0.00000000000E+00 -0.00000000000E+00 -0.23966608311E+03  0.23966608317E+03  0.50400000000E-02 0.  1.
    8880022    1    1    2    0    0  0.24412167377E+03  0.15963425223E+03  0.18382978808E+04  0.18675677331E+04  0.15294330000E+03 0.  0.
    8880022    1    1    2    0    0 -0.24412167377E+03 -0.15963425223E+03 -0.10452546731E+03  0.34553684669E+03  0.15294330000E+03 0.  0.
<mgrwt>
<rscale>  0 0.32934805E+03</rscale>
<asrwt>0</asrwt>
<pdfrwt beam="1">  1        1 0.30360593E+00 0.32934805E+03</pdfrwt>
<pdfrwt beam="2">  1       -1 0.36871704E-01 0.32934805E+03</pdfrwt>
<totfact> 0.24855264E+01</totfact>
</mgrwt>
</event>
<event>
 4    1  0.4964158E-009  0.1397080E+04  0.7818608E-02  0.8955935E-01
          1   -1    0    0  501    0  0.00000000000E+00  0.00000000000E+00  0.29192368455E+04  0.29192368456E+04  0.50400000000E-02 0. -1.
         -1   -1    0    0    0  501 -0.00000000000E+00 -0.00000000000E+00 -0.14355040012E+04  0.14355040012E+04  0.50400000000E-02 0.  1.
    8880022    1    1    2    0    0 -0.49482082007E+03  0.12975332153E+04 -0.84960083878E+03  0.16351309816E+04  0.15294330000E+03 0.  0.
    8880022    1    1    2    0    0  0.49482082007E+03 -0.12975332153E+04  0.23333336831E+04  0.27196098651E+04  0.15294330000E+03 0.  0.
<mgrwt>
<rscale>  0 0.13970797E+04</rscale>
<asrwt>0</asrwt>
<pdfrwt beam="1">  1        1 0.44911336E+00 0.13970797E+04</pdfrwt>
<pdfrwt beam="2">  1       -1 0.22084677E+00 0.13970797E+04</pdfrwt>
<totfact> 0.71352709E-02</totfact>
</mgrwt>
</event>
<event>
 4    1  0.4964158E-009  0.7605821E+03  0.7818608E-02  0.9618893E-01
         -1   -1    0    0    0  501 -0.00000000000E+00  0.00000000000E+00  0.11164632498E+04  0.11164632499E+04  0.50400000000E-02 0.  1.
          1   -1    0    0  501    0  0.00000000000E+00 -0.00000000000E+00 -0.85211867434E+03  0.85211867436E+03  0.50400000000E-02 0. -1.
    8880022    1    1    2    0    0  0.58258797344E+02 -0.74276467644E+03 -0.48404281306E+03  0.90154453574E+03  0.15294330000E+03 0.  0.
    8880022    1    1    2    0    0 -0.58258797344E+02  0.74276467644E+03  0.74838738857E+03  0.10670373885E+04  0.15294330000E+03 0.  0.
<mgrwt>
<rscale>  0 0.76058208E+03</rscale>
<asrwt>0</asrwt>
<pdfrwt beam="1">  1        1 0.13109518E+00 0.76058208E+03</pdfrwt>
<pdfrwt beam="2">  1       -1 0.17176358E+00 0.76058208E+03</pdfrwt>
<totfact> 0.49275413E+00</totfact>
</mgrwt>
</event>
<event>
 4    1  0.4964158E-009  0.9449012E+03  0.7818608E-02  0.9371130E-01
          1   -1    0    0  501    0  0.00000000000E+00  0.00000000000E+00  0.30368440926E+04  0.30368440926E+04  0.50400000000E-02 0. -1.
         -1   -1    0    0    0  501 -0.00000000000E+00 -0.00000000000E+00 -0.41359440677E+03  0.41359440680E+03  0.50400000000E-02 0.  1.
    8880022    1    1    2    0    0 -0.70978735532E+03 -0.60468872694E+03  0.22393274827E+04  0.24305196510E+04  0.15294330000E+03 0. -1.
    8880022    1    1    2    0    0  0.70978735532E+03  0.60468872694E+03  0.38392220318E+03  0.10199188484E+04  0.15294330000E+03 0.  0.
<mgrwt>
<rscale>  0 0.94490116E+03</rscale>
<asrwt>0</asrwt>
<pdfrwt beam="1">  1        1 0.46720679E+00 0.94490116E+03</pdfrwt>
<pdfrwt beam="2">  1       -1 0.63629908E-01 0.94490116E+03</pdfrwt>
<totfact> 0.14609929E+00</totfact>
</mgrwt>
</event>
<event>
 4    1  0.4964158E-009  0.3371323E+03  0.7818608E-02  0.1068024E+00
         -1   -1    0    0    0  501 -0.00000000000E+00  0.00000000000E+00  0.63057104935E+03  0.63057104937E+03  0.50400000000E-02 0.  1.
          1   -1    0    0  501    0  0.00000000000E+00 -0.00000000000E+00 -0.16264606158E+04  0.16264606158E+04  0.50400000000E-02 0. -1.
    8880022    1    1    2    0    0 -0.20058977377E+02  0.29977354620E+03  0.56620359116E+03  0.65897245863E+03  0.15294330000E+03 0.  0.
    8880022    1    1    2    0    0  0.20058977377E+02 -0.29977354620E+03 -0.15620931576E+04  0.15980592066E+04  0.15294330000E+03 0. -1.
<mgrwt>
<rscale>  0 0.33713231E+03</rscale>
<asrwt>0</asrwt>
<pdfrwt beam="1">  1        1 0.25022471E+00 0.33713231E+03</pdfrwt>
<pdfrwt beam="2">  1       -1 0.97010931E-01 0.33713231E+03</pdfrwt>
<totfact> 0.63120665E+00</totfact>
</mgrwt>
</event>
<event>
 4    1  0.5153536E-009  0.1347635E+04  0.7818608E-02  0.8992620E-01
          1   -1    0    0  501    0  0.00000000000E+00  0.00000000000E+00  0.22080720048E+04  0.22080720048E+04  0.50400000000E-02 0. -1.
         -1   -1    0    0    0  501 -0.00000000000E+00 -0.00000000000E+00 -0.14605754493E+04  0.14605754494E+04  0.50400000000E-02 0.  1.
    8880022    1    1    2    0    0  0.13233828486E+04  0.20343532366E+03  0.15861680346E+04  0.20813574373E+04  0.15294330000E+03 0. -1.
    8880022    1    1    2    0    0 -0.13233828486E+04 -0.20343532366E+03 -0.83867147911E+03  0.15872900169E+04  0.15294330000E+03 0.  0.
<mgrwt>
<rscale>  0 0.13476349E+04</rscale>
<asrwt>0</asrwt>
<pdfrwt beam="1">  1        1 0.33970338E+00 0.13476349E+04</pdfrwt>
<pdfrwt beam="2">  1       -1 0.22470392E+00 0.13476349E+04</pdfrwt>
<totfact> 0.21196844E-01</totfact>
</mgrwt>
</event>
<event>
 4    1  0.4964158E-009  0.8902102E+03  0.7818608E-02  0.9437903E-01
          1   -1    0    0  501    0  0.00000000000E+00  0.00000000000E+00  0.23622830290E+04  0.23622830290E+04  0.50400000000E-02 0. -1.
         -1   -1    0    0    0  501 -0.00000000000E+00 -0.00000000000E+00 -0.82428796409E+03  0.82428796410E+03  0.50400000000E-02 0.  1.
    8880022    1    1    2    0    0 -0.76243239055E+03 -0.43333512749E+03  0.19959504044E+04  0.21854729815E+04  0.15294330000E+03 0.  0.
    8880022    1    1    2    0    0  0.76243239055E+03  0.43333512749E+03 -0.45795533951E+03  0.10010980116E+04  0.15294330000E+03 0.  0.
<mgrwt>
<rscale>  0 0.89021016E+03</rscale>
<asrwt>0</asrwt>
<pdfrwt beam="1">  1        1 0.36342816E+00 0.89021016E+03</pdfrwt>
<pdfrwt beam="2">  1       -1 0.12681353E+00 0.89021016E+03</pdfrwt>
<totfact> 0.94283442E-01</totfact>
</mgrwt>
</event>
<event>
 4    1  0.4964158E-009  0.9648737E+03  0.7818608E-02  0.9347932E-01
         -1   -1    0    0    0  501 -0.00000000000E+00  0.00000000000E+00  0.78234798307E+03  0.78234798309E+03  0.50400000000E-02 0.  1.
          1   -1    0    0  501    0  0.00000000000E+00 -0.00000000000E+00 -0.14052142889E+04  0.14052142889E+04  0.50400000000E-02 0. -1.
    8880022    1    1    2    0    0 -0.38732760756E+03  0.87038322163E+03 -0.73949964437E+03  0.12156648408E+04  0.15294330000E+03 0.  0.
    8880022    1    1    2    0    0  0.38732760756E+03 -0.87038322163E+03  0.11663333857E+03  0.97189743119E+03  0.15294330000E+03 0.  0.
<mgrwt>
<rscale>  0 0.96487371E+03</rscale>
<asrwt>0</asrwt>
<pdfrwt beam="1">  1        1 0.21618681E+00 0.96487371E+03</pdfrwt>
<pdfrwt beam="2">  1       -1 0.12036123E+00 0.96487371E+03</pdfrwt>
<totfact> 0.47240952E+00</totfact>
</mgrwt>
</event>
<event>
 4    1  0.4964158E-009  0.3415484E+03  0.7818608E-02  0.1066138E+00
         -1   -1    0    0    0  501 -0.00000000000E+00  0.00000000000E+00  0.44806971638E+03  0.44806971641E+03  0.50400000000E-02 0.  1.
          1   -1    0    0  501    0  0.00000000000E+00 -0.00000000000E+00 -0.47617811165E+03  0.47617811168E+03  0.50400000000E-02 0. -1.
    8880022    1    1    2    0    0  0.20542478648E+03 -0.22597418706E+03 -0.32517344855E+03  0.47158573003E+03  0.15294330000E+03 0.  0.
    8880022    1    1    2    0    0 -0.20542478648E+03  0.22597418706E+03  0.29706505328E+03  0.45266209805E+03  0.15294330000E+03 0.  0.
<mgrwt>
<rscale>  0 0.34154843E+03</rscale>
<asrwt>0</asrwt>
<pdfrwt beam="1">  1        1 0.73258171E-01 0.34154843E+03</pdfrwt>
<pdfrwt beam="2">  1       -1 0.68933803E-01 0.34154843E+03</pdfrwt>
<totfact> 0.10668623E+02</totfact>
</mgrwt>
</event>
<event>
 4    1  0.4964158E-009  0.9858107E+03  0.7818608E-02  0.9324246E-01
          1   -1    0    0  501    0  0.00000000000E+00  0.00000000000E+00  0.21552754481E+04  0.21552754481E+04  0.50400000000E-02 0. -1.
         -1   -1    0    0    0  501 -0.00000000000E+00 -0.00000000000E+00 -0.46531226112E+03  0.46531226115E+03  0.50400000000E-02 0.  1.
    8880022    1    1    2    0    0 -0.67249973194E+03  0.70439705314E+03  0.61441348724E+03  0.11616052188E+04  0.15294330000E+03 0.  0.
    8880022    1    1    2    0    0  0.67249973194E+03 -0.70439705314E+03  0.10755496997E+04  0.14589824905E+04  0.15294330000E+03 0.  0.
<mgrwt>
<rscale>  0 0.98581071E+03</rscale>
<asrwt>0</asrwt>
<pdfrwt beam="1">  1        1 0.33158085E+00 0.98581071E+03</pdfrwt>
<pdfrwt beam="2">  1       -1 0.71586500E-01 0.98581071E+03</pdfrwt>
<totfact> 0.46749391E+00</totfact>
</mgrwt>
</event>
<event>
 4    1  0.4964158E-009  0.1002250E+04  0.7818608E-02  0.9306081E-01
         -1   -1    0    0    0  501 -0.00000000000E+00  0.00000000000E+00  0.11730778359E+04  0.11730778359E+04  0.50400000000E-02 0.  1.
          1   -1    0    0  501    0  0.00000000000E+00 -0.00000000000E+00 -0.16799000728E+04  0.16799000728E+04  0.50400000000E-02 0. -1.
    8880022    1    1    2    0    0  0.17444659210E+03  0.97502895475E+03 -0.12522266485E+04  0.16039252814E+04  0.15294330000E+03 0.  0.
    8880022    1    1    2    0    0 -0.17444659210E+03 -0.97502895475E+03  0.74540441149E+03  0.12490526273E+04  0.15294330000E+03 0.  0.
<mgrwt>
<rscale>  0 0.10022498E+04</rscale>
<asrwt>0</asrwt>
<pdfrwt beam="1">  1        1 0.25844617E+00 0.10022498E+04</pdfrwt>
<pdfrwt beam="2">  1       -1 0.18047351E+00 0.10022498E+04</pdfrwt>
<totfact> 0.10235427E+00</totfact>
</mgrwt>
</event>
<event>
 4    1  0.4964158E-009  0.6149914E+03  0.7818608E-02  0.9874783E-01
         -1   -1    0    0    0  501 -0.00000000000E+00  0.00000000000E+00  0.10661265549E+04  0.10661265549E+04  0.50400000000E-02 0.  1.
          1   -1    0    0  501    0  0.00000000000E+00 -0.00000000000E+00 -0.11708680032E+04  0.11708680032E+04  0.50400000000E-02 0. -1.
    8880022    1    1    2    0    0 -0.38345565152E+03  0.45583393880E+03  0.88143369775E+03  0.10747743172E+04  0.15294330000E+03 0.  0.
    8880022    1    1    2    0    0  0.38345565152E+03 -0.45583393880E+03 -0.98617514610E+03  0.11622202409E+04  0.15294330000E+03 0. -1.
<mgrwt>
<rscale>  0 0.61499144E+03</rscale>
<asrwt>0</asrwt>
<pdfrwt beam="1">  1        1 0.18013354E+00 0.61499144E+03</pdfrwt>
<pdfrwt beam="2">  1       -1 0.16401947E+00 0.61499144E+03</pdfrwt>
<totfact> 0.32673657E+00</totfact>
</mgrwt>
</event>
<event>
 4    1  0.4964158E-009  0.5097394E+03  0.7818608E-02  0.1011268E+00
          1   -1    0    0  501    0  0.00000000000E+00  0.00000000000E+00  0.10976679914E+04  0.10976679914E+04  0.50400000000E-02 0. -1.
         -1   -1    0    0    0  501 -0.00000000000E+00 -0.00000000000E+00 -0.42788493515E+03  0.42788493518E+03  0.50400000000E-02 0.  1.
    8880022    1    1    2    0    0  0.22085471716E+03 -0.43320409894E+03  0.84474316520E+03  0.98662316291E+03  0.15294330000E+03 0. -1.
    8880022    1    1    2    0    0 -0.22085471716E+03  0.43320409894E+03 -0.17496010896E+03  0.53892976367E+03  0.15294330000E+03 0.  0.
<mgrwt>
<rscale>  0 0.50973939E+03</rscale>
<asrwt>0</asrwt>
<pdfrwt beam="1">  1        1 0.16887200E+00 0.50973939E+03</pdfrwt>
<pdfrwt beam="2">  1       -1 0.65828452E-01 0.50973939E+03</pdfrwt>
<totfact> 0.31623988E+01</totfact>
</mgrwt>
</event>
<event>
 4    1  0.4964158E-009  0.1460925E+04  0.7818608E-02  0.8910861E-01
         -1   -1    0    0    0  501 -0.00000000000E+00  0.00000000000E+00  0.13507383108E+04  0.13507383108E+04  0.50400000000E-02 0.  1.
          1   -1    0    0  501    0  0.00000000000E+00 -0.00000000000E+00 -0.26595139080E+04  0.26595139080E+04  0.50400000000E-02 0. -1.
    8880022    1    1    2    0    0 -0.61575557888E+03 -0.13159615162E+04  0.62303484340E+03  0.15882297423E+04  0.15294330000E+03 0.  0.
    8880022    1    1    2    0    0  0.61575557888E+03  0.13159615162E+04 -0.19318104407E+04  0.24220224765E+04  0.15294330000E+03 0.  0.
<mgrwt>
<rscale>  0 0.14609248E+04</rscale>
<asrwt>0</asrwt>
<pdfrwt beam="1">  1        1 0.40915598E+00 0.14609248E+04</pdfrwt>
<pdfrwt beam="2">  1       -1 0.20780589E+00 0.14609248E+04</pdfrwt>
<totfact> 0.13252640E-01</totfact>
</mgrwt>
</event>
<event>
 4    1  0.4964158E-009  0.8937135E+03  0.7818608E-02  0.9433474E-01
          1   -1    0    0  501    0  0.00000000000E+00  0.00000000000E+00  0.17208018747E+04  0.17208018747E+04  0.50400000000E-02 0. -1.
         -1   -1    0    0    0  501 -0.00000000000E+00 -0.00000000000E+00 -0.93827190327E+03  0.93827190328E+03  0.50400000000E-02 0.  1.
    8880022    1    1    2    0    0 -0.87426809664E+03 -0.10482138578E+03  0.13363641990E+04  0.16076669907E+04  0.15294330000E+03 0.  0.
    8880022    1    1    2    0    0  0.87426809664E+03  0.10482138578E+03 -0.55383422753E+03  0.10514067873E+04  0.15294330000E+03 0.  0.
<mgrwt>
<rscale>  0 0.89371353E+03</rscale>
<asrwt>0</asrwt>
<pdfrwt beam="1">  1        1 0.26473875E+00 0.89371353E+03</pdfrwt>
<pdfrwt beam="2">  1       -1 0.14434952E+00 0.89371353E+03</pdfrwt>
<totfact> 0.18265155E+00</totfact>
</mgrwt>
</event>
<event>
 4    1  0.4964158E-009  0.8208062E+03  0.7818608E-02  0.9530380E-01
          1   -1    0    0  501    0  0.00000000000E+00  0.00000000000E+00  0.34326268426E+04  0.34326268426E+04  0.50400000000E-02 0. -1.
         -1   -1    0    0    0  501 -0.00000000000E+00 -0.00000000000E+00 -0.38734175944E+03  0.38734175947E+03  0.50400000000E-02 0.  1.
    8880022    1    1    2    0    0  0.64218503557E+03 -0.48778013915E+03  0.18117386792E+03  0.84056332747E+03  0.15294330000E+03 0.  0.
    8880022    1    1    2    0    0 -0.64218503557E+03  0.48778013915E+03  0.28641112152E+04  0.29794052746E+04  0.15294330000E+03 0.  0.
<mgrwt>
<rscale>  0 0.82080615E+03</rscale>
<asrwt>0</asrwt>
<pdfrwt beam="1">  1        1 0.52809645E+00 0.82080615E+03</pdfrwt>
<pdfrwt beam="2">  1       -1 0.59591039E-01 0.82080615E+03</pdfrwt>
<totfact> 0.86510308E-01</totfact>
</mgrwt>
</event>
<event>
 4    1  0.4964158E-009  0.1730963E+04  0.7818608E-02  0.8743900E-01
          1   -1    0    0  501    0  0.00000000000E+00  0.00000000000E+00  0.34121676674E+04  0.34121676674E+04  0.50400000000E-02 0. -1.
         -1   -1    0    0    0  501 -0.00000000000E+00 -0.00000000000E+00 -0.23534433582E+04  0.23534433582E+04  0.50400000000E-02 0.  1.
    8880022    1    1    2    0    0 -0.91525634184E+03 -0.14612139068E+04  0.28118564414E+04  0.33019340625E+04  0.15294330000E+03 0.  0.
    8880022    1    1    2    0    0  0.91525634184E+03  0.14612139068E+04 -0.17531321323E+04  0.24636769632E+04  0.15294330000E+03 0.  0.
<mgrwt>
<rscale>  0 0.17309627E+04</rscale>
<asrwt>0</asrwt>
<pdfrwt beam="1">  1        1 0.52494887E+00 0.17309627E+04</pdfrwt>
<pdfrwt beam="2">  1       -1 0.36206821E+00 0.17309627E+04</pdfrwt>
<totfact> 0.34602963E-03</totfact>
</mgrwt>
</event>
<event>
 4    1  0.4964158E-009  0.6459486E+03  0.7818608E-02  0.9814411E-01
         -1   -1    0    0    0  501 -0.00000000000E+00  0.00000000000E+00  0.49414870518E+03  0.49414870521E+03  0.50400000000E-02 0.  1.
          1   -1    0    0  501    0  0.00000000000E+00 -0.00000000000E+00 -0.23122427273E+04  0.23122427273E+04  0.50400000000E-02 0. -1.
    8880022    1    1    2    0    0  0.14945081008E+03  0.60952635545E+03  0.20895908892E+03  0.67890608812E+03  0.15294330000E+03 0.  0.
    8880022    1    1    2    0    0 -0.14945081008E+03 -0.60952635545E+03 -0.20270531110E+04  0.21274853444E+04  0.15294330000E+03 0.  0.
<mgrwt>
<rscale>  0 0.64594859E+03</rscale>
<asrwt>0</asrwt>
<pdfrwt beam="1">  1        1 0.35572964E+00 0.64594859E+03</pdfrwt>
<pdfrwt beam="2">  1       -1 0.76022879E-01 0.64594859E+03</pdfrwt>
<totfact> 0.34273796E+00</totfact>
</mgrwt>
</event>
<event>
 4    1  0.4964158E-009  0.3005890E+03  0.7818608E-02  0.1084947E+00
         -1   -1    0    0    0  501 -0.00000000000E+00  0.00000000000E+00  0.74642607566E+03  0.74642607568E+03  0.50400000000E-02 0.  1.
          1   -1    0    0  501    0  0.00000000000E+00 -0.00000000000E+00 -0.15412478736E+03  0.15412478744E+03  0.50400000000E-02 0. -1.
    8880022    1    1    2    0    0  0.25605670466E+03  0.37376858028E+02  0.87557168192E+02  0.31308142110E+03  0.15294330000E+03 0.  0.
    8880022    1    1    2    0    0 -0.25605670466E+03 -0.37376858028E+02  0.50474412011E+03  0.58746944203E+03  0.15294330000E+03 0.  0.
<mgrwt>
<rscale>  0 0.30058895E+03</rscale>
<asrwt>0</asrwt>
<pdfrwt beam="1">  1        1 0.23711506E-01 0.30058895E+03</pdfrwt>
<pdfrwt beam="2">  1       -1 0.11483478E+00 0.30058895E+03</pdfrwt>
<totfact> 0.15073227E+02</totfact>
</mgrwt>
</event>
<event>
 4    1  0.4964158E-009  0.8205631E+03  0.7818608E-02  0.9530721E-01
          1   -1    0    0  501    0  0.00000000000E+00  0.00000000000E+00  0.14863653738E+04  0.14863653738E+04  0.50400000000E-02 0. -1.
         -1   -1    0    0    0  501 -0.00000000000E+00 -0.00000000000E+00 -0.73147920266E+03  0.73147920268E+03  0.50400000000E-02 0.  1.
    8880022    1    1    2    0    0 -0.80465422741E+03 -0.49635747546E+02 -0.30677785537E+03  0.87603449629E+03  0.15294330000E+03 0.  0.
    8880022    1    1    2    0    0  0.80465422741E+03  0.49635747546E+02  0.10616640265E+04  0.13418100802E+04  0.15294330000E+03 0.  0.
<mgrwt>
<rscale>  0 0.82056309E+03</rscale>
<asrwt>0</asrwt>
<pdfrwt beam="1">  1        1 0.22867159E+00 0.82056309E+03</pdfrwt>
<pdfrwt beam="2">  1       -1 0.11253526E+00 0.82056309E+03</pdfrwt>
<totfact> 0.49793302E+00</totfact>
</mgrwt>
</event>
<event>
 4    1  0.4964158E-009  0.1029253E+04  0.7818608E-02  0.9277030E-01
         -1   -1    0    0    0  501 -0.00000000000E+00  0.00000000000E+00  0.10659241155E+04  0.10659241155E+04  0.50400000000E-02 0.  1.
          1   -1    0    0  501    0  0.00000000000E+00 -0.00000000000E+00 -0.18664793977E+04  0.18664793977E+04  0.50400000000E-02 0. -1.
    8880022    1    1    2    0    0  0.99023230854E+03  0.23539317732E+03 -0.14028106996E+04  0.17398964006E+04  0.15294330000E+03 0.  0.
    8880022    1    1    2    0    0 -0.99023230854E+03 -0.23539317732E+03  0.60225541742E+03  0.11925071126E+04  0.15294330000E+03 0.  0.
<mgrwt>
<rscale>  0 0.10292529E+04</rscale>
<asrwt>0</asrwt>
<pdfrwt beam="1">  1        1 0.28715068E+00 0.10292529E+04</pdfrwt>
<pdfrwt beam="2">  1       -1 0.16398833E+00 0.10292529E+04</pdfrwt>
<totfact> 0.10063099E+00</totfact>
</mgrwt>
</event>
<event>
 4    1  0.4964158E-009  0.2304978E+03  0.7818608E-02  0.1126290E+00
         -1   -1    0    0    0  501 -0.00000000000E+00  0.00000000000E+00  0.69942294981E+03  0.69942294983E+03  0.50400000000E-02 0.  1.
          1   -1    0    0  501    0  0.00000000000E+00 -0.00000000000E+00 -0.15021427427E+04  0.15021427427E+04  0.50400000000E-02 0. -1.
    8880022    1    1    2    0    0  0.13134117128E+03 -0.11174557641E+03  0.67122927570E+03  0.70970273403E+03  0.15294330000E+03 0.  0.
    8880022    1    1    2    0    0 -0.13134117128E+03  0.11174557641E+03 -0.14739490686E+04  0.14918629585E+04  0.15294330000E+03 0. -1.
<mgrwt>
<rscale>  0 0.23049779E+03</rscale>
<asrwt>0</asrwt>
<pdfrwt beam="1">  1        1 0.23109888E+00 0.23049779E+03</pdfrwt>
<pdfrwt beam="2">  1       -1 0.10760353E+00 0.23049779E+03</pdfrwt>
<totfact> 0.63475250E+00</totfact>
</mgrwt>
</event>
<event>
 4    1  0.4964158E-009  0.2369034E+03  0.7818608E-02  0.1121873E+00
          1   -1    0    0  501    0  0.00000000000E+00  0.00000000000E+00  0.15067004465E+04  0.15067004465E+04  0.50400000000E-02 0. -1.
         -1   -1    0    0    0  501 -0.00000000000E+00 -0.00000000000E+00 -0.90102234492E+02  0.90102234633E+02  0.50400000000E-02 0.  1.
    8880022    1    1    2    0    0 -0.18027572135E+03  0.15239249773E+02  0.13197884374E+04  0.13408820764E+04  0.15294330000E+03 0.  0.
    8880022    1    1    2    0    0  0.18027572135E+03 -0.15239249773E+02  0.96809774651E+02  0.25592060473E+03  0.15294330000E+03 0.  1.
<mgrwt>
<rscale>  0 0.23690341E+03</rscale>
<asrwt>0</asrwt>
<pdfrwt beam="1">  1        1 0.23180006E+00 0.23690341E+03</pdfrwt>
<pdfrwt beam="2">  1       -1 0.13861883E-01 0.23690341E+03</pdfrwt>
<totfact> 0.26120070E+02</totfact>
</mgrwt>
</event>
<event>
 4    1  0.4964158E-009  0.6383024E+03  0.7818608E-02  0.9828980E-01
         -1   -1    0    0    0  501 -0.00000000000E+00  0.00000000000E+00  0.73750380233E+03  0.73750380234E+03  0.50400000000E-02 0.  1.
          1   -1    0    0  501    0  0.00000000000E+00 -0.00000000000E+00 -0.76741380234E+03  0.76741380236E+03  0.50400000000E-02 0. -1.
    8880022    1    1    2    0    0 -0.53606737487E+02 -0.61738527317E+03  0.38329534357E+03  0.74454363959E+03  0.15294330000E+03 0.  0.
    8880022    1    1    2    0    0  0.53606737487E+02  0.61738527317E+03 -0.41320534359E+03  0.76037396511E+03  0.15294330000E+03 0.  0.
<mgrwt>
<rscale>  0 0.63830237E+03</rscale>
<asrwt>0</asrwt>
<pdfrwt beam="1">  1        1 0.11806366E+00 0.63830237E+03</pdfrwt>
<pdfrwt beam="2">  1       -1 0.11346212E+00 0.63830237E+03</pdfrwt>
<totfact> 0.17467406E+01</totfact>
</mgrwt>
</event>
<event>
 4    1  0.4964158E-009  0.2020074E+04  0.7818608E-02  0.8597293E-01
         -1   -1    0    0    0  501 -0.00000000000E+00  0.00000000000E+00  0.23773962789E+04  0.23773962789E+04  0.50400000000E-02 0.  1.
          1   -1    0    0  501    0  0.00000000000E+00 -0.00000000000E+00 -0.18062929204E+04  0.18062929204E+04  0.50400000000E-02 0. -1.
    8880022    1    1    2    0    0 -0.47550974396E+03 -0.19573442575E+04  0.75206185893E+03  0.21555265602E+04  0.15294330000E+03 0.  0.
    8880022    1    1    2    0    0  0.47550974396E+03  0.19573442575E+04 -0.18095850038E+03  0.20281626391E+04  0.15294330000E+03 0.  0.
<mgrwt>
<rscale>  0 0.20200737E+04</rscale>
<asrwt>0</asrwt>
<pdfrwt beam="1">  1        1 0.27789122E+00 0.20200737E+04</pdfrwt>
<pdfrwt beam="2">  1       -1 0.36575327E+00 0.20200737E+04</pdfrwt>
<totfact> 0.43784084E-02</totfact>
</mgrwt>
</event>
<event>
 4    1  0.4964158E-009  0.9310980E+03  0.7818608E-02  0.9387521E-01
         -1   -1    0    0    0  501 -0.00000000000E+00  0.00000000000E+00  0.30167783455E+03  0.30167783459E+03  0.50400000000E-02 0.  1.
          1   -1    0    0  501    0  0.00000000000E+00 -0.00000000000E+00 -0.33449517686E+04  0.33449517686E+04  0.50400000000E-02 0. -1.
    8880022    1    1    2    0    0 -0.88565588654E+03 -0.24323950114E+03 -0.22059819724E+04  0.23944310221E+04  0.15294330000E+03 0.  0.
    8880022    1    1    2    0    0  0.88565588654E+03  0.24323950114E+03 -0.83729196164E+03  0.12521985810E+04  0.15294330000E+03 0.  0.
<mgrwt>
<rscale>  0 0.93109798E+03</rscale>
<asrwt>0</asrwt>
<pdfrwt beam="1">  1        1 0.51460794E+00 0.93109798E+03</pdfrwt>
<pdfrwt beam="2">  1       -1 0.46411977E-01 0.93109798E+03</pdfrwt>
<totfact> 0.15967184E+00</totfact>
</mgrwt>
</event>
<event>
 4    1  0.4964158E-009  0.5422717E+03  0.7818608E-02  0.1003299E+00
         -1   -1    0    0    0  501 -0.00000000000E+00  0.00000000000E+00  0.20774239440E+03  0.20774239446E+03  0.50400000000E-02 0.  1.
          1   -1    0    0  501    0  0.00000000000E+00 -0.00000000000E+00 -0.22839431826E+04  0.22839431827E+04  0.50400000000E-02 0. -1.
    8880022    1    1    2    0    0  0.37967484974E+03  0.35568803394E+03 -0.26986875860E+03  0.60571261246E+03  0.15294330000E+03 0.  0.
    8880022    1    1    2    0    0 -0.37967484974E+03 -0.35568803394E+03 -0.18063320297E+04  0.18859729646E+04  0.15294330000E+03 0.  0.
<mgrwt>
<rscale>  0 0.54227172E+03</rscale>
<asrwt>0</asrwt>
<pdfrwt beam="1">  1        1 0.35137586E+00 0.54227172E+03</pdfrwt>
<pdfrwt beam="2">  1       -1 0.31960370E-01 0.54227172E+03</pdfrwt>
<totfact> 0.18873513E+01</totfact>
</mgrwt>
</event>
<event>
 4    1  0.4964158E-009  0.7950626E+03  0.7818608E-02  0.9567191E-01
         -1   -1    0    0    0  501 -0.00000000000E+00  0.00000000000E+00  0.92845252741E+03  0.92845252743E+03  0.50400000000E-02 0.  1.
          1   -1    0    0  501    0  0.00000000000E+00 -0.00000000000E+00 -0.19076785701E+04  0.19076785701E+04  0.50400000000E-02 0. -1.
    8880022    1    1    2    0    0  0.20101263353E+03 -0.75387451243E+03  0.64759000926E+03  0.10254254397E+04  0.15294330000E+03 0.  0.
    8880022    1    1    2    0    0 -0.20101263353E+03  0.75387451243E+03 -0.16268160520E+04  0.18107056578E+04  0.15294330000E+03 0.  0.
<mgrwt>
<rscale>  0 0.79506258E+03</rscale>
<asrwt>0</asrwt>
<pdfrwt beam="1">  1        1 0.29348901E+00 0.79506258E+03</pdfrwt>
<pdfrwt beam="2">  1       -1 0.14283885E+00 0.79506258E+03</pdfrwt>
<totfact> 0.14310696E+00</totfact>
</mgrwt>
</event>
<event>
 4    1  0.4964158E-009  0.5791472E+03  0.7818608E-02  0.9949639E-01
          1   -1    0    0  501    0  0.00000000000E+00  0.00000000000E+00  0.25582515726E+04  0.25582515726E+04  0.50400000000E-02 0. -1.
         -1   -1    0    0    0  501 -0.00000000000E+00 -0.00000000000E+00 -0.24806781204E+03  0.24806781209E+03  0.50400000000E-02 0.  1.
    8880022    1    1    2    0    0 -0.47429580875E+03  0.29506491406E+03  0.21185595769E+04  0.21962937308E+04  0.15294330000E+03 0.  0.
    8880022    1    1    2    0    0  0.47429580875E+03 -0.29506491406E+03  0.19162418362E+03  0.61002565394E+03  0.15294330000E+03 0.  1.
<mgrwt>
<rscale>  0 0.57914719E+03</rscale>
<asrwt>0</asrwt>
<pdfrwt beam="1">  1        1 0.39357717E+00 0.57914719E+03</pdfrwt>
<pdfrwt beam="2">  1       -1 0.38164278E-01 0.57914719E+03</pdfrwt>
<totfact> 0.89323339E+00</totfact>
</mgrwt>
</event>
<event>
 4    1  0.4964158E-009  0.7213245E+03  0.7818608E-02  0.9681444E-01
          1   -1    0    0  501    0  0.00000000000E+00  0.00000000000E+00  0.27124168788E+04  0.27124168788E+04  0.50400000000E-02 0. -1.
         -1   -1    0    0    0  501 -0.00000000000E+00 -0.00000000000E+00 -0.32357676471E+03  0.32357676475E+03  0.50400000000E-02 0.  1.
    8880022    1    1    2    0    0  0.22992922810E+03  0.66637070901E+03  0.21630561042E+04  0.22801580504E+04  0.15294330000E+03 0.  0.
    8880022    1    1    2    0    0 -0.22992922810E+03 -0.66637070901E+03  0.22578400987E+03  0.75583559316E+03  0.15294330000E+03 0.  0.
<mgrwt>
<rscale>  0 0.72132449E+03</rscale>
<asrwt>0</asrwt>
<pdfrwt beam="1">  1        1 0.41729492E+00 0.72132449E+03</pdfrwt>
<pdfrwt beam="2">  1       -1 0.49781039E-01 0.72132449E+03</pdfrwt>
<totfact> 0.41640006E+00</totfact>
</mgrwt>
</event>
<event>
 4    1  0.4964158E-009  0.1345160E+04  0.7818608E-02  0.8994500E-01
         -1   -1    0    0    0  501 -0.00000000000E+00  0.00000000000E+00  0.78857316649E+03  0.78857316650E+03  0.50400000000E-02 0.  1.
          1   -1    0    0  501    0  0.00000000000E+00 -0.00000000000E+00 -0.27713130523E+04  0.27713130523E+04  0.50400000000E-02 0. -1.
    8880022    1    1    2    0    0 -0.31882085197E+03  0.12978506199E+04 -0.25313440128E+03  0.13687701214E+04  0.15294330000E+03 0.  0.
    8880022    1    1    2    0    0  0.31882085197E+03 -0.12978506199E+04 -0.17296054846E+04  0.21911160974E+04  0.15294330000E+03 0.  0.
<mgrwt>
<rscale>  0 0.13451597E+04</rscale>
<asrwt>0</asrwt>
<pdfrwt beam="1">  1        1 0.42635585E+00 0.13451597E+04</pdfrwt>
<pdfrwt beam="2">  1       -1 0.12131895E+00 0.13451597E+04</pdfrwt>
<totfact> 0.51190301E-01</totfact>
</mgrwt>
</event>
<event>
 4    1  0.4964158E-009  0.5625371E+03  0.7818608E-02  0.9986330E-01
         -1   -1    0    0    0  501 -0.00000000000E+00  0.00000000000E+00  0.12788579977E+04  0.12788579977E+04  0.50400000000E-02 0.  1.
          1   -1    0    0  501    0  0.00000000000E+00 -0.00000000000E+00 -0.11437712873E+04  0.11437712873E+04  0.50400000000E-02 0. -1.
    8880022    1    1    2    0    0  0.45919549541E+03  0.28669814429E+03 -0.10047663978E+04  0.11515222516E+04  0.15294330000E+03 0.  0.
    8880022    1    1    2    0    0 -0.45919549541E+03 -0.28669814429E+03  0.11398531082E+04  0.12711070333E+04  0.15294330000E+03 0.  1.
<mgrwt>
<rscale>  0 0.56253709E+03</rscale>
<asrwt>0</asrwt>
<pdfrwt beam="1">  1        1 0.17596481E+00 0.56253709E+03</pdfrwt>
<pdfrwt beam="2">  1       -1 0.19674738E+00 0.56253709E+03</pdfrwt>
<totfact> 0.20265666E+00</totfact>
</mgrwt>
</event>
<event>
 4    1  0.4964158E-009  0.1004493E+04  0.7818608E-02  0.9303631E-01
          1   -1    0    0  501    0  0.00000000000E+00  0.00000000000E+00  0.21229296824E+04  0.21229296824E+04  0.50400000000E-02 0. -1.
         -1   -1    0    0    0  501 -0.00000000000E+00 -0.00000000000E+00 -0.64089745802E+03  0.64089745804E+03  0.50400000000E-02 0.  1.
    8880022    1    1    2    0    0  0.24598031914E+03 -0.96182557536E+03  0.14434849640E+04  0.17585946802E+04  0.15294330000E+03 0.  0.
    8880022    1    1    2    0    0 -0.24598031914E+03  0.96182557536E+03  0.38547260344E+02  0.10052324602E+04  0.15294330000E+03 0.  0.
<mgrwt>
<rscale>  0 0.10044931E+04</rscale>
<asrwt>0</asrwt>
<pdfrwt beam="1">  1        1 0.32660457E+00 0.10044931E+04</pdfrwt>
<pdfrwt beam="2">  1       -1 0.98599609E-01 0.10044931E+04</pdfrwt>
<totfact> 0.24494785E+00</totfact>
</mgrwt>
</event>
<event>
 4    1  0.4964158E-009  0.5064078E+03  0.7818608E-02  0.1012120E+00
          1   -1    0    0  501    0  0.00000000000E+00  0.00000000000E+00  0.68846134668E+03  0.68846134670E+03  0.50400000000E-02 0. -1.
         -1   -1    0    0    0  501 -0.00000000000E+00 -0.00000000000E+00 -0.58313581244E+03  0.58313581247E+03  0.50400000000E-02 0.  1.
    8880022    1    1    2    0    0  0.44027917856E+03 -0.19801871226E+03  0.43478767265E+03  0.66744972753E+03  0.15294330000E+03 0.  0.
    8880022    1    1    2    0    0 -0.44027917856E+03  0.19801871226E+03 -0.32946213842E+03  0.60414743163E+03  0.15294330000E+03 0.  0.
<mgrwt>
<rscale>  0 0.50640776E+03</rscale>
<asrwt>0</asrwt>
<pdfrwt beam="1">  1        1 0.10591713E+00 0.50640776E+03</pdfrwt>
<pdfrwt beam="2">  1       -1 0.89713202E-01 0.50640776E+03</pdfrwt>
<totfact> 0.35838177E+01</totfact>
</mgrwt>
</event>
<event>
 4    1  0.4964158E-009  0.5738320E+03  0.7818608E-02  0.9961235E-01
          1   -1    0    0  501    0  0.00000000000E+00  0.00000000000E+00  0.15891944417E+04  0.15891944417E+04  0.50400000000E-02 0. -1.
         -1   -1    0    0    0  501 -0.00000000000E+00 -0.00000000000E+00 -0.66886354218E+03  0.66886354220E+03  0.50400000000E-02 0.  1.
    8880022    1    1    2    0    0  0.52300177714E+03 -0.17989062567E+03 -0.47782520546E+03  0.74672623905E+03  0.15294330000E+03 0.  1.
    8880022    1    1    2    0    0 -0.52300177714E+03  0.17989062567E+03  0.13981561050E+04  0.15113317449E+04  0.15294330000E+03 0.  0.
<mgrwt>
<rscale>  0 0.57383199E+03</rscale>
<asrwt>0</asrwt>
<pdfrwt beam="1">  1        1 0.24449145E+00 0.57383199E+03</pdfrwt>
<pdfrwt beam="2">  1       -1 0.10290208E+00 0.57383199E+03</pdfrwt>
<totfact> 0.54638351E+00</totfact>
</mgrwt>
</event>
<event>
 4    1  0.4964158E-009  0.6152949E+03  0.7818608E-02  0.9874172E-01
         -1   -1    0    0    0  501 -0.00000000000E+00  0.00000000000E+00  0.10543486179E+04  0.10543486180E+04  0.50400000000E-02 0.  1.
          1   -1    0    0  501    0  0.00000000000E+00 -0.00000000000E+00 -0.61836603110E+03  0.61836603112E+03  0.50400000000E-02 0. -1.
    8880022    1    1    2    0    0 -0.40807470072E+03 -0.43436300132E+03  0.75957389628E+03  0.97751743473E+03  0.15294330000E+03 0.  0.
    8880022    1    1    2    0    0  0.40807470072E+03  0.43436300132E+03 -0.32359130943E+03  0.69519721435E+03  0.15294330000E+03 0. -1.
<mgrwt>
<rscale>  0 0.61529491E+03</rscale>
<asrwt>0</asrwt>
<pdfrwt beam="1">  1        1 0.95133235E-01 0.61529491E+03</pdfrwt>
<pdfrwt beam="2">  1       -1 0.16220748E+00 0.61529491E+03</pdfrwt>
<totfact> 0.96882171E+00</totfact>
</mgrwt>
</event>
<event>
 4    1  0.4964158E-009  0.1067083E+04  0.7818608E-02  0.9237882E-01
          1   -1    0    0  501    0  0.00000000000E+00  0.00000000000E+00  0.36345915035E+04  0.36345915035E+04  0.50400000000E-02 0. -1.
         -1   -1    0    0    0  501 -0.00000000000E+00 -0.00000000000E+00 -0.62241318822E+03  0.62241318824E+03  0.50400000000E-02 0.  1.
    8880022    1    1    2    0    0 -0.12014654490E+03 -0.10492091735E+04  0.60474921962E+01  0.10671004204E+04  0.15294330000E+03 0.  1.
    8880022    1    1    2    0    0  0.12014654490E+03  0.10492091735E+04  0.30061308231E+04  0.31899042714E+04  0.15294330000E+03 0.  0.
<mgrwt>
<rscale>  0 0.10670833E+04</rscale>
<asrwt>0</asrwt>
<pdfrwt beam="1">  1        1 0.55916793E+00 0.10670833E+04</pdfrwt>
<pdfrwt beam="2">  1       -1 0.95755874E-01 0.10670833E+04</pdfrwt>
<totfact> 0.21137423E-01</totfact>
</mgrwt>
</event>
<event>
 4    1  0.4964158E-009  0.1034016E+04  0.7818608E-02  0.9272004E-01
          1   -1    0    0  501    0  0.00000000000E+00  0.00000000000E+00  0.13374152889E+04  0.13374152889E+04  0.50400000000E-02 0. -1.
         -1   -1    0    0    0  501 -0.00000000000E+00 -0.00000000000E+00 -0.89759488340E+03  0.89759488341E+03  0.50400000000E-02 0.  1.
    8880022    1    1    2    0    0 -0.46105438262E+03 -0.91281204627E+03  0.58944592756E+03  0.11902248233E+04  0.15294330000E+03 0.  0.
    8880022    1    1    2    0    0  0.46105438262E+03  0.91281204627E+03 -0.14962552208E+03  0.10447853490E+04  0.15294330000E+03 0.  0.
<mgrwt>
<rscale>  0 0.10340158E+04</rscale>
<asrwt>0</asrwt>
<pdfrwt beam="1">  1        1 0.20575620E+00 0.10340158E+04</pdfrwt>
<pdfrwt beam="2">  1       -1 0.13809152E+00 0.10340158E+04</pdfrwt>
<totfact> 0.36955163E+00</totfact>
</mgrwt>
</event>
<event>
 4    1  0.4964158E-009  0.8934046E+03  0.7818608E-02  0.9433864E-01
         -1   -1    0    0    0  501 -0.00000000000E+00  0.00000000000E+00  0.99630511093E+03  0.99630511094E+03  0.50400000000E-02 0.  1.
          1   -1    0    0  501    0  0.00000000000E+00 -0.00000000000E+00 -0.11025336940E+04  0.11025336940E+04  0.50400000000E-02 0. -1.
    8880022    1    1    2    0    0 -0.94786418888E+02 -0.87509748289E+03  0.49557455381E+03  0.10216485997E+04  0.15294330000E+03 0.  0.
    8880022    1    1    2    0    0  0.94786418888E+02  0.87509748289E+03 -0.60180313684E+03  0.10771902053E+04  0.15294330000E+03 0.  0.
<mgrwt>
<rscale>  0 0.89340457E+03</rscale>
<asrwt>0</asrwt>
<pdfrwt beam="1">  1        1 0.16962057E+00 0.89340457E+03</pdfrwt>
<pdfrwt beam="2">  1       -1 0.15327771E+00 0.89340457E+03</pdfrwt>
<totfact> 0.42222756E+00</totfact>
</mgrwt>
</event>
<event>
 4    1  0.4964158E-009  0.5118731E+03  0.7818608E-02  0.1010726E+00
          1   -1    0    0  501    0  0.00000000000E+00  0.00000000000E+00  0.17946598478E+04  0.17946598478E+04  0.50400000000E-02 0. -1.
         -1   -1    0    0    0  501 -0.00000000000E+00 -0.00000000000E+00 -0.28273060559E+03  0.28273060563E+03  0.50400000000E-02 0.  1.
    8880022    1    1    2    0    0  0.48503178417E+03 -0.58022037554E+02  0.14783021256E+04  0.15644140168E+04  0.15294330000E+03 0.  0.
    8880022    1    1    2    0    0 -0.48503178417E+03  0.58022037554E+02  0.33627116588E+02  0.51297643658E+03  0.15294330000E+03 0.  0.
<mgrwt>
<rscale>  0 0.51187307E+03</rscale>
<asrwt>0</asrwt>
<pdfrwt beam="1">  1        1 0.27610152E+00 0.51187307E+03</pdfrwt>
<pdfrwt beam="2">  1       -1 0.43497016E-01 0.51187307E+03</pdfrwt>
<totfact> 0.23119435E+01</totfact>
</mgrwt>
</event>
<event>
 4    1  0.4964158E-009  0.1495685E+04  0.7818608E-02  0.8887327E-01
         -1   -1    0    0    0  501 -0.00000000000E+00  0.00000000000E+00  0.17116556033E+04  0.17116556033E+04  0.50400000000E-02 0.  1.
          1   -1    0    0  501    0  0.00000000000E+00 -0.00000000000E+00 -0.21257968606E+04  0.21257968606E+04  0.50400000000E-02 0. -1.
    8880022    1    1    2    0    0  0.77699291852E+03 -0.12688434961E+04 -0.13979001049E+04  0.20472416002E+04  0.15294330000E+03 0.  0.
    8880022    1    1    2    0    0 -0.77699291852E+03  0.12688434961E+04  0.98375884759E+03  0.17902108637E+04  0.15294330000E+03 0.  0.
<mgrwt>
<rscale>  0 0.14956849E+04</rscale>
<asrwt>0</asrwt>
<pdfrwt beam="1">  1        1 0.32704567E+00 0.14956849E+04</pdfrwt>
<pdfrwt beam="2">  1       -1 0.26333163E+00 0.14956849E+04</pdfrwt>
<totfact> 0.13183414E-01</totfact>
</mgrwt>
</event>
<event>
 4    1  0.4964158E-009  0.8502953E+03  0.7818608E-02  0.9489941E-01
         -1   -1    0    0    0  501 -0.00000000000E+00  0.00000000000E+00  0.44172821468E+03  0.44172821471E+03  0.50400000000E-02 0.  1.
          1   -1    0    0  501    0  0.00000000000E+00 -0.00000000000E+00 -0.22228070852E+04  0.22228070852E+04  0.50400000000E-02 0. -1.
    8880022    1    1    2    0    0  0.82977766053E+03 -0.10525900417E+03 -0.20645818571E+03  0.87500117676E+03  0.15294330000E+03 0.  0.
    8880022    1    1    2    0    0 -0.82977766053E+03  0.10525900417E+03 -0.15746206848E+04  0.17895341232E+04  0.15294330000E+03 0.  0.
<mgrwt>
<rscale>  0 0.85029529E+03</rscale>
<asrwt>0</asrwt>
<pdfrwt beam="1">  1        1 0.34197031E+00 0.85029529E+03</pdfrwt>
<pdfrwt beam="2">  1       -1 0.67958188E-01 0.85029529E+03</pdfrwt>
<totfact> 0.47756822E+00</totfact>
</mgrwt>
</event>
<event>
 4    1  0.4964158E-009  0.1145013E+04  0.7818608E-02  0.9162396E-01
          1   -1    0    0  501    0  0.00000000000E+00  0.00000000000E+00  0.79755882089E+03  0.79755882090E+03  0.50400000000E-02 0. -1.
         -1   -1    0    0    0  501 -0.00000000000E+00 -0.00000000000E+00 -0.21846735933E+04  0.21846735934E+04  0.50400000000E-02 0.  1.
    8880022    1    1    2    0    0 -0.81559586378E+03  0.78896611604E+03 -0.14354681961E+04  0.18361984480E+04  0.15294330000E+03 0.  0.
    8880022    1    1    2    0    0  0.81559586378E+03 -0.78896611604E+03  0.48353423659E+02  0.11460339663E+04  0.15294330000E+03 0.  0.
<mgrwt>
<rscale>  0 0.11450134E+04</rscale>
<asrwt>0</asrwt>
<pdfrwt beam="1">  1        1 0.12270136E+00 0.11450134E+04</pdfrwt>
<pdfrwt beam="2">  1       -1 0.33610363E+00 0.11450134E+04</pdfrwt>
<totfact> 0.42523975E-01</totfact>
</mgrwt>
</event>
<event>
 4    1  0.4964158E-009  0.6178734E+03  0.7818608E-02  0.9869003E-01
          1   -1    0    0  501    0  0.00000000000E+00  0.00000000000E+00  0.22155258643E+04  0.22155258643E+04  0.50400000000E-02 0. -1.
         -1   -1    0    0    0  501 -0.00000000000E+00 -0.00000000000E+00 -0.62823786778E+03  0.62823786780E+03  0.50400000000E-02 0.  1.
    8880022    1    1    2    0    0 -0.57532011855E+03 -0.16547719523E+03 -0.41764370490E+03  0.74578405601E+03  0.15294330000E+03 0.  0.
    8880022    1    1    2    0    0  0.57532011855E+03  0.16547719523E+03  0.20049317014E+04  0.20979796761E+04  0.15294330000E+03 0.  0.
<mgrwt>
<rscale>  0 0.61787344E+03</rscale>
<asrwt>0</asrwt>
<pdfrwt beam="1">  1        1 0.34085013E+00 0.61787344E+03</pdfrwt>
<pdfrwt beam="2">  1       -1 0.96651979E-01 0.61787344E+03</pdfrwt>
<totfact> 0.23836784E+00</totfact>
</mgrwt>
</event>
<event>
 4    1  0.4964158E-009  0.5188190E+03  0.7818608E-02  0.1008980E+00
          1   -1    0    0  501    0  0.00000000000E+00  0.00000000000E+00  0.11143778811E+04  0.11143778811E+04  0.50400000000E-02 0. -1.
         -1   -1    0    0    0  501 -0.00000000000E+00 -0.00000000000E+00 -0.24788995425E+03  0.24788995430E+03  0.50400000000E-02 0.  1.
    8880022    1    1    2    0    0 -0.26378817634E+03 -0.41975863788E+03  0.32427725442E+03  0.61182424502E+03  0.15294330000E+03 0.  0.
    8880022    1    1    2    0    0  0.26378817634E+03  0.41975863788E+03  0.54221067247E+03  0.75044359042E+03  0.15294330000E+03 0.  0.
<mgrwt>
<rscale>  0 0.51881901E+03</rscale>
<asrwt>0</asrwt>
<pdfrwt beam="1">  1        1 0.17144275E+00 0.51881901E+03</pdfrwt>
<pdfrwt beam="2">  1       -1 0.38136916E-01 0.51881901E+03</pdfrwt>
<totfact> 0.85969145E+01</totfact>
</mgrwt>
</event>
<event>
 4    1  0.4964158E-009  0.5633291E+03  0.7818608E-02  0.9984550E-01
         -1   -1    0    0    0  501 -0.00000000000E+00  0.00000000000E+00  0.43961864433E+03  0.43961864436E+03  0.50400000000E-02 0.  1.
          1   -1    0    0  501    0  0.00000000000E+00 -0.00000000000E+00 -0.17931723608E+04  0.17931723608E+04  0.50400000000E-02 0. -1.
    8880022    1    1    2    0    0  0.51692258825E+03  0.16352065693E+03 -0.15396892965E+04  0.16395068619E+04  0.15294330000E+03 0.  0.
    8880022    1    1    2    0    0 -0.51692258825E+03 -0.16352065693E+03  0.18613558002E+03  0.59328414326E+03  0.15294330000E+03 0.  0.
<mgrwt>
<rscale>  0 0.56332905E+03</rscale>
<asrwt>0</asrwt>
<pdfrwt beam="1">  1        1 0.27587267E+00 0.56332905E+03</pdfrwt>
<pdfrwt beam="2">  1       -1 0.67633638E-01 0.56332905E+03</pdfrwt>
<totfact> 0.98341504E+00</totfact>
</mgrwt>
</event>
<event>
 4    1  0.4964158E-009  0.5788485E+03  0.7818608E-02  0.9950287E-01
         -1   -1    0    0    0  501 -0.00000000000E+00  0.00000000000E+00  0.38541244339E+03  0.38541244342E+03  0.50400000000E-02 0.  1.
          1   -1    0    0  501    0  0.00000000000E+00 -0.00000000000E+00 -0.10916011180E+04  0.10916011181E+04  0.50400000000E-02 0. -1.
    8880022    1    1    2    0    0  0.24357532592E+03  0.50233957204E+03 -0.19878300300E+02  0.57918976586E+03  0.15294330000E+03 0.  0.
    8880022    1    1    2    0    0 -0.24357532592E+03 -0.50233957204E+03 -0.68631037436E+03  0.89782379563E+03  0.15294330000E+03 0.  0.
<mgrwt>
<rscale>  0 0.57884855E+03</rscale>
<asrwt>0</asrwt>
<pdfrwt beam="1">  1        1 0.16793863E+00 0.57884855E+03</pdfrwt>
<pdfrwt beam="2">  1       -1 0.59294223E-01 0.57884855E+03</pdfrwt>
<totfact> 0.38877900E+01</totfact>
</mgrwt>
</event>
<event>
 4    1  0.4964158E-009  0.1082007E+04  0.7818608E-02  0.9222909E-01
         -1   -1    0    0    0  501 -0.00000000000E+00  0.00000000000E+00  0.67407155358E+03  0.67407155360E+03  0.50400000000E-02 0.  1.
          1   -1    0    0  501    0  0.00000000000E+00 -0.00000000000E+00 -0.21120910707E+04  0.21120910707E+04  0.50400000000E-02 0. -1.
    8880022    1    1    2    0    0 -0.89152497138E+03 -0.59374312201E+03 -0.13062206351E+04  0.16961579142E+04  0.15294330000E+03 0.  0.
    8880022    1    1    2    0    0  0.89152497138E+03  0.59374312201E+03 -0.13179888200E+03  0.10900047100E+04  0.15294330000E+03 0.  0.
<mgrwt>
<rscale>  0 0.10820071E+04</rscale>
<asrwt>0</asrwt>
<pdfrwt beam="1">  1        1 0.32493709E+00 0.10820071E+04</pdfrwt>
<pdfrwt beam="2">  1       -1 0.10370332E+00 0.10820071E+04</pdfrwt>
<totfact> 0.21941671E+00</totfact>
</mgrwt>
</event>
<event>
 4    1  0.4964158E-009  0.8370401E+03  0.7818608E-02  0.9507898E-01
         -1   -1    0    0    0  501 -0.00000000000E+00  0.00000000000E+00  0.72734761183E+03  0.72734761185E+03  0.50400000000E-02 0.  1.
          1   -1    0    0  501    0  0.00000000000E+00 -0.00000000000E+00 -0.12130288198E+04  0.12130288198E+04  0.50400000000E-02 0. -1.
    8880022    1    1    2    0    0 -0.72178060879E+03 -0.39531909301E+03 -0.68306705032E+03  0.10803780268E+04  0.15294330000E+03 0.  0.
    8880022    1    1    2    0    0  0.72178060879E+03  0.39531909301E+03  0.19738584240E+03  0.85999840483E+03  0.15294330000E+03 0.  0.
<mgrwt>
<rscale>  0 0.83704007E+03</rscale>
<asrwt>0</asrwt>
<pdfrwt beam="1">  1        1 0.18661982E+00 0.83704007E+03</pdfrwt>
<pdfrwt beam="2">  1       -1 0.11189963E+00 0.83704007E+03</pdfrwt>
<totfact> 0.78392844E+00</totfact>
</mgrwt>
</event>
<event>
 4    1  0.4964158E-009  0.1339695E+04  0.7818608E-02  0.8998666E-01
          1   -1    0    0  501    0  0.00000000000E+00  0.00000000000E+00  0.13200884370E+04  0.13200884370E+04  0.50400000000E-02 0. -1.
         -1   -1    0    0    0  501 -0.00000000000E+00 -0.00000000000E+00 -0.15153325964E+04  0.15153325964E+04  0.50400000000E-02 0.  1.
    8880022    1    1    2    0    0  0.73305885980E+03  0.11108626448E+04  0.35687735969E+03  0.13864141554E+04  0.15294330000E+03 0.  0.
    8880022    1    1    2    0    0 -0.73305885980E+03 -0.11108626448E+04 -0.55212151913E+03  0.14490068780E+04  0.15294330000E+03 0.  0.
<mgrwt>
<rscale>  0 0.13396950E+04</rscale>
<asrwt>0</asrwt>
<pdfrwt beam="1">  1        1 0.20309053E+00 0.13396950E+04</pdfrwt>
<pdfrwt beam="2">  1       -1 0.23312809E+00 0.13396950E+04</pdfrwt>
<totfact> 0.75936560E-01</totfact>
</mgrwt>
</event>
<event>
 4    1  0.4964158E-009  0.1324181E+04  0.7818608E-02  0.9010606E-01
          1   -1    0    0  501    0  0.00000000000E+00  0.00000000000E+00  0.12135738484E+04  0.12135738484E+04  0.50400000000E-02 0. -1.
         -1   -1    0    0    0  501 -0.00000000000E+00 -0.00000000000E+00 -0.16706708173E+04  0.16706708173E+04  0.50400000000E-02 0.  1.
    8880022    1    1    2    0    0 -0.10367150921E+04 -0.80949766368E+03  0.30162686055E+03  0.13580997996E+04  0.15294330000E+03 0.  0.
    8880022    1    1    2    0    0  0.10367150921E+04  0.80949766368E+03 -0.75872382944E+03  0.15261448660E+04  0.15294330000E+03 0.  0.
<mgrwt>
<rscale>  0 0.13241814E+04</rscale>
<asrwt>0</asrwt>
<pdfrwt beam="1">  1        1 0.18670367E+00 0.13241814E+04</pdfrwt>
<pdfrwt beam="2">  1       -1 0.25702628E+00 0.13241814E+04</pdfrwt>
<totfact> 0.63348257E-01</totfact>
</mgrwt>
</event>
<event>
 4    1  0.4964158E-009  0.1031315E+04  0.7818608E-02  0.9274851E-01
         -1   -1    0    0    0  501 -0.00000000000E+00  0.00000000000E+00  0.33757551037E+03  0.33757551041E+03  0.50400000000E-02 0.  1.
          1   -1    0    0  501    0  0.00000000000E+00 -0.00000000000E+00 -0.40319150703E+04  0.40319150703E+04  0.50400000000E-02 0. -1.
    8880022    1    1    2    0    0  0.57719067982E+03 -0.84087424720E+03 -0.28685277896E+04  0.30482883579E+04  0.15294330000E+03 0.  0.
    8880022    1    1    2    0    0 -0.57719067982E+03  0.84087424720E+03 -0.82581177040E+03  0.13212022228E+04  0.15294330000E+03 0.  0.
<mgrwt>
<rscale>  0 0.10313148E+04</rscale>
<asrwt>0</asrwt>
<pdfrwt beam="1">  1        1 0.62029459E+00 0.10313148E+04</pdfrwt>
<pdfrwt beam="2">  1       -1 0.51934697E-01 0.10313148E+04</pdfrwt>
<totfact> 0.35212498E-01</totfact>
</mgrwt>
</event>
<event>
 4    1  0.4964158E-009  0.1050936E+04  0.7818608E-02  0.9254378E-01
         -1   -1    0    0    0  501 -0.00000000000E+00  0.00000000000E+00  0.13132214986E+04  0.13132214986E+04  0.50400000000E-02 0.  1.
          1   -1    0    0  501    0  0.00000000000E+00 -0.00000000000E+00 -0.13897937644E+04  0.13897937645E+04  0.50400000000E-02 0. -1.
    8880022    1    1    2    0    0  0.10397465340E+04  0.15839002843E+01 -0.88753215892E+03  0.13755654655E+04  0.15294330000E+03 0.  0.
    8880022    1    1    2    0    0 -0.10397465340E+04 -0.15839002843E+01  0.81095989304E+03  0.13274497975E+04  0.15294330000E+03 0.  0.
<mgrwt>
<rscale>  0 0.10509363E+04</rscale>
<asrwt>0</asrwt>
<pdfrwt beam="1">  1        1 0.21381443E+00 0.10509363E+04</pdfrwt>
<pdfrwt beam="2">  1       -1 0.20203408E+00 0.10509363E+04</pdfrwt>
<totfact> 0.11371366E+00</totfact>
</mgrwt>
</event>
<event>
 4    1  0.4964158E-009  0.7420220E+03  0.7818608E-02  0.9647950E-01
         -1   -1    0    0    0  501 -0.00000000000E+00  0.00000000000E+00  0.59171161786E+03  0.59171161788E+03  0.50400000000E-02 0.  1.
          1   -1    0    0  501    0  0.00000000000E+00 -0.00000000000E+00 -0.20930507092E+04  0.20930507092E+04  0.50400000000E-02 0. -1.
    8880022    1    1    2    0    0 -0.34455950007E+03 -0.63912735831E+03  0.24976591982E+03  0.78293019928E+03  0.15294330000E+03 0.  0.
    8880022    1    1    2    0    0  0.34455950007E+03  0.63912735831E+03 -0.17511050112E+04  0.19018321278E+04  0.15294330000E+03 0.  0.
<mgrwt>
<rscale>  0 0.74202202E+03</rscale>
<asrwt>0</asrwt>
<pdfrwt beam="1">  1        1 0.32200780E+00 0.74202202E+03</pdfrwt>
<pdfrwt beam="2">  1       -1 0.91032558E-01 0.74202202E+03</pdfrwt>
<totfact> 0.32025128E+00</totfact>
</mgrwt>
</event>
<event>
 4    1  0.4964158E-009  0.1338489E+04  0.7818608E-02  0.8999588E-01
          1   -1    0    0  501    0  0.00000000000E+00  0.00000000000E+00  0.29516753482E+04  0.29516753482E+04  0.50400000000E-02 0. -1.
         -1   -1    0    0    0  501 -0.00000000000E+00 -0.00000000000E+00 -0.69981363557E+03  0.69981363558E+03  0.50400000000E-02 0.  1.
    8880022    1    1    2    0    0 -0.13053614379E+04  0.25336343459E+03  0.46089532305E+03  0.14156191809E+04  0.15294330000E+03 0.  0.
    8880022    1    1    2    0    0  0.13053614379E+04 -0.25336343459E+03  0.17909663895E+04  0.22358698028E+04  0.15294330000E+03 0.  0.
<mgrwt>
<rscale>  0 0.13384891E+04</rscale>
<asrwt>0</asrwt>
<pdfrwt beam="1">  1        1 0.45410390E+00 0.13384891E+04</pdfrwt>
<pdfrwt beam="2">  1       -1 0.10766364E+00 0.13384891E+04</pdfrwt>
<totfact> 0.50808200E-01</totfact>
</mgrwt>
</event>
<event>
 4    1  0.4964158E-009  0.9432372E+03  0.7818608E-02  0.9373090E-01
          1   -1    0    0  501    0  0.00000000000E+00  0.00000000000E+00  0.13616036037E+04  0.13616036037E+04  0.50400000000E-02 0. -1.
         -1   -1    0    0    0  501 -0.00000000000E+00 -0.00000000000E+00 -0.13915817460E+04  0.13915817460E+04  0.50400000000E-02 0.  1.
    8880022    1    1    2    0    0  0.53093573286E+03  0.76446848000E+03  0.98761026815E+03  0.13656758415E+04  0.15294330000E+03 0.  0.
    8880022    1    1    2    0    0 -0.53093573286E+03 -0.76446848000E+03 -0.10175884104E+04  0.13875095082E+04  0.15294330000E+03 0.  0.
<mgrwt>
<rscale>  0 0.94323722E+03</rscale>
<asrwt>0</asrwt>
<pdfrwt beam="1">  1        1 0.20947748E+00 0.94323722E+03</pdfrwt>
<pdfrwt beam="2">  1       -1 0.21408950E+00 0.94323722E+03</pdfrwt>
<totfact> 0.10019668E+00</totfact>
</mgrwt>
</event>
<event>
 4    1  0.4964158E-009  0.8864123E+03  0.7818608E-02  0.9442728E-01
          1   -1    0    0  501    0  0.00000000000E+00  0.00000000000E+00  0.17159005544E+04  0.17159005544E+04  0.50400000000E-02 0. -1.
         -1   -1    0    0    0  501 -0.00000000000E+00 -0.00000000000E+00 -0.62056587270E+03  0.62056587273E+03  0.50400000000E-02 0.  1.
    8880022    1    1    2    0    0  0.57484633694E+03 -0.65718093050E+03  0.11457641393E+04  0.14486207931E+04  0.15294330000E+03 0.  0.
    8880022    1    1    2    0    0 -0.57484633694E+03  0.65718093050E+03 -0.50429457604E+02  0.88784563395E+03  0.15294330000E+03 0.  0.
<mgrwt>
<rscale>  0 0.88641229E+03</rscale>
<asrwt>0</asrwt>
<pdfrwt beam="1">  1        1 0.26398470E+00 0.88641229E+03</pdfrwt>
<pdfrwt beam="2">  1       -1 0.95471672E-01 0.88641229E+03</pdfrwt>
<totfact> 0.50358989E+00</totfact>
</mgrwt>
</event>
<event>
 4    1  0.4964158E-009  0.8596357E+03  0.7818608E-02  0.9477495E-01
         -1   -1    0    0    0  501 -0.00000000000E+00  0.00000000000E+00  0.45011201916E+03  0.45011201919E+03  0.50400000000E-02 0.  1.
          1   -1    0    0  501    0  0.00000000000E+00 -0.00000000000E+00 -0.18249743011E+04  0.18249743011E+04  0.50400000000E-02 0. -1.
    8880022    1    1    2    0    0  0.54800561514E+03 -0.64441584333E+03 -0.10478647717E+04  0.13553575787E+04  0.15294330000E+03 0. -1.
    8880022    1    1    2    0    0 -0.54800561514E+03  0.64441584333E+03 -0.32699751021E+03  0.91972874157E+03  0.15294330000E+03 0.  1.
<mgrwt>
<rscale>  0 0.85963573E+03</rscale>
<asrwt>0</asrwt>
<pdfrwt beam="1">  1        1 0.28076527E+00 0.85963573E+03</pdfrwt>
<pdfrwt beam="2">  1       -1 0.69248004E-01 0.85963573E+03</pdfrwt>
<totfact> 0.84901553E+00</totfact>
</mgrwt>
</event>
<event>
 4    1  0.4964158E-009  0.1036818E+04  0.7818608E-02  0.9269060E-01
          1   -1    0    0  501    0  0.00000000000E+00  0.00000000000E+00  0.20945069217E+04  0.20945069217E+04  0.50400000000E-02 0. -1.
         -1   -1    0    0    0  501 -0.00000000000E+00 -0.00000000000E+00 -0.64645275897E+03  0.64645275899E+03  0.50400000000E-02 0.  1.
    8880022    1    1    2    0    0 -0.10234439514E+04  0.64520903453E+02  0.13461431455E+04  0.16991449290E+04  0.15294330000E+03 0.  0.
    8880022    1    1    2    0    0  0.10234439514E+04 -0.64520903453E+02  0.10191101732E+03  0.10418147518E+04  0.15294330000E+03 0.  0.
<mgrwt>
<rscale>  0 0.10368183E+04</rscale>
<asrwt>0</asrwt>
<pdfrwt beam="1">  1        1 0.32223183E+00 0.10368183E+04</pdfrwt>
<pdfrwt beam="2">  1       -1 0.99454272E-01 0.10368183E+04</pdfrwt>
<totfact> 0.24987610E+00</totfact>
</mgrwt>
</event>
<event>
 4    1  0.4964158E-009  0.9390914E+03  0.7818608E-02  0.9377993E-01
         -1   -1    0    0    0  501 -0.00000000000E+00  0.00000000000E+00  0.88925587940E+03  0.88925587942E+03  0.50400000000E-02 0.  1.
          1   -1    0    0  501    0  0.00000000000E+00 -0.00000000000E+00 -0.28771941090E+04  0.28771941090E+04  0.50400000000E-02 0. -1.
    8880022    1    1    2    0    0 -0.57749483003E+02  0.92475182534E+03  0.53053270380E+03  0.10785905359E+04  0.15294330000E+03 0.  0.
    8880022    1    1    2    0    0  0.57749483003E+02 -0.92475182534E+03 -0.25184709334E+04  0.26878594525E+04  0.15294330000E+03 0.  0.
<mgrwt>
<rscale>  0 0.93909137E+03</rscale>
<asrwt>0</asrwt>
<pdfrwt beam="1">  1        1 0.44264524E+00 0.93909137E+03</pdfrwt>
<pdfrwt beam="2">  1       -1 0.13680860E+00 0.93909137E+03</pdfrwt>
<totfact> 0.33875683E-01</totfact>
</mgrwt>
</event>
<event>
 4    1  0.4964158E-009  0.6060776E+03  0.7818608E-02  0.9892877E-01
         -1   -1    0    0    0  501 -0.00000000000E+00  0.00000000000E+00  0.95404545067E+03  0.95404545069E+03  0.50400000000E-02 0.  1.
          1   -1    0    0  501    0  0.00000000000E+00 -0.00000000000E+00 -0.12939824077E+04  0.12939824077E+04  0.50400000000E-02 0. -1.
    8880022    1    1    2    0    0 -0.38829645763E+03 -0.43950450069E+03 -0.11120307526E+04  0.12664684729E+04  0.15294330000E+03 0.  0.
    8880022    1    1    2    0    0  0.38829645763E+03  0.43950450069E+03  0.77209379555E+03  0.98155938550E+03  0.15294330000E+03 0.  1.
<mgrwt>
<rscale>  0 0.60607755E+03</rscale>
<asrwt>0</asrwt>
<pdfrwt beam="1">  1        1 0.19907422E+00 0.60607755E+03</pdfrwt>
<pdfrwt beam="2">  1       -1 0.14677622E+00 0.60607755E+03</pdfrwt>
<totfact> 0.36169019E+00</totfact>
</mgrwt>
</event>
<event>
 4    1  0.4964158E-009  0.3957740E+03  0.7818608E-02  0.1045253E+00
         -1   -1    0    0    0  501 -0.00000000000E+00  0.00000000000E+00  0.95103051880E+03  0.95103051881E+03  0.50400000000E-02 0.  1.
          1   -1    0    0  501    0  0.00000000000E+00 -0.00000000000E+00 -0.11356424504E+04  0.11356424504E+04  0.50400000000E-02 0. -1.
    8880022    1    1    2    0    0 -0.36062334306E+03  0.56534808981E+02 -0.10570226460E+04  0.11286868065E+04  0.15294330000E+03 0.  0.
    8880022    1    1    2    0    0  0.36062334306E+03 -0.56534808981E+02  0.87241071440E+03  0.95798616264E+03  0.15294330000E+03 0.  0.
<mgrwt>
<rscale>  0 0.39577397E+03</rscale>
<asrwt>0</asrwt>
<pdfrwt beam="1">  1        1 0.17471422E+00 0.39577397E+03</pdfrwt>
<pdfrwt beam="2">  1       -1 0.14631239E+00 0.39577397E+03</pdfrwt>
<totfact> 0.49939590E+00</totfact>
</mgrwt>
</event>
<event>
 4    1  0.4964158E-009  0.1127320E+04  0.7818608E-02  0.9178965E-01
         -1   -1    0    0    0  501 -0.00000000000E+00  0.00000000000E+00  0.13612024000E+04  0.13612024000E+04  0.50400000000E-02 0.  1.
          1   -1    0    0  501    0  0.00000000000E+00 -0.00000000000E+00 -0.14947783815E+04  0.14947783816E+04  0.50400000000E-02 0. -1.
    8880022    1    1    2    0    0  0.10548799619E+04  0.36699755418E+03 -0.94172792941E+03  0.14689118710E+04  0.15294330000E+03 0.  0.
    8880022    1    1    2    0    0 -0.10548799619E+04 -0.36699755418E+03  0.80815194786E+03  0.13870689106E+04  0.15294330000E+03 0.  0.
<mgrwt>
<rscale>  0 0.11273201E+04</rscale>
<asrwt>0</asrwt>
<pdfrwt beam="1">  1        1 0.22996590E+00 0.11273201E+04</pdfrwt>
<pdfrwt beam="2">  1       -1 0.20941576E+00 0.11273201E+04</pdfrwt>
<totfact> 0.84670130E-01</totfact>
</mgrwt>
</event>
<event>
 4    1  0.4964158E-009  0.1143388E+04  0.7818608E-02  0.9163905E-01
          1   -1    0    0  501    0  0.00000000000E+00  0.00000000000E+00  0.11721637623E+04  0.11721637624E+04  0.50400000000E-02 0. -1.
         -1   -1    0    0    0  501 -0.00000000000E+00 -0.00000000000E+00 -0.17758066920E+04  0.17758066920E+04  0.50400000000E-02 0.  1.
    8880022    1    1    2    0    0 -0.13196752300E+02  0.11330361046E+04  0.59711215136E+03  0.12899145487E+04  0.15294330000E+03 0.  0.
    8880022    1    1    2    0    0  0.13196752300E+02 -0.11330361046E+04 -0.12007550810E+04  0.16580559057E+04  0.15294330000E+03 0.  0.
<mgrwt>
<rscale>  0 0.11433882E+04</rscale>
<asrwt>0</asrwt>
<pdfrwt beam="1">  1        1 0.18033289E+00 0.11433882E+04</pdfrwt>
<pdfrwt beam="2">  1       -1 0.27320103E+00 0.11433882E+04</pdfrwt>
<totfact> 0.54632400E-01</totfact>
</mgrwt>
</event>
<event>
 4    1  0.5660463E-009  0.1518642E+04  0.7818608E-02  0.8872150E-01
         -1   -1    0    0    0  501 -0.00000000000E+00  0.00000000000E+00  0.24418096783E+04  0.24418096783E+04  0.50400000000E-02 0.  1.
          1   -1    0    0  501    0  0.00000000000E+00 -0.00000000000E+00 -0.24051363927E+04  0.24051363927E+04  0.50400000000E-02 0. -1.
    8880022    1    1    2    0    0 -0.25551469483E+03  0.14891584356E+04 -0.18702652891E+04  0.24091833700E+04  0.15294330000E+03 0.  0.
    8880022    1    1    2    0    0  0.25551469483E+03 -0.14891584356E+04  0.19069385747E+04  0.24377627010E+04  0.15294330000E+03 0.  0.
<mgrwt>
<rscale>  0 0.15186416E+04</rscale>
<asrwt>0</asrwt>
<pdfrwt beam="1">  1        1 0.37002098E+00 0.15186416E+04</pdfrwt>
<pdfrwt beam="2">  1       -1 0.37566303E+00 0.15186416E+04</pdfrwt>
<totfact> 0.15531176E-02</totfact>
</mgrwt>
</event>
<event>
 4    1  0.4964158E-009  0.1309373E+04  0.7818608E-02  0.9022165E-01
         -1   -1    0    0    0  501 -0.00000000000E+00  0.00000000000E+00  0.16358652630E+04  0.16358652630E+04  0.50400000000E-02 0.  1.
          1   -1    0    0  501    0  0.00000000000E+00 -0.00000000000E+00 -0.14813348520E+04  0.14813348520E+04  0.50400000000E-02 0. -1.
    8880022    1    1    2    0    0  0.28119330170E+03  0.12696442993E+04 -0.76567753131E+03  0.15168124652E+04  0.15294330000E+03 0. -1.
    8880022    1    1    2    0    0 -0.28119330170E+03 -0.12696442993E+04  0.92020794232E+03  0.16003876499E+04  0.15294330000E+03 0.  0.
<mgrwt>
<rscale>  0 0.13093731E+04</rscale>
<asrwt>0</asrwt>
<pdfrwt beam="1">  1        1 0.22789767E+00 0.13093731E+04</pdfrwt>
<pdfrwt beam="2">  1       -1 0.25167158E+00 0.13093731E+04</pdfrwt>
<totfact> 0.44315966E-01</totfact>
</mgrwt>
</event>
<event>
 4    1  0.4964158E-009  0.1026596E+04  0.7818608E-02  0.9279847E-01
         -1   -1    0    0    0  501 -0.00000000000E+00  0.00000000000E+00  0.33739892359E+04  0.33739892359E+04  0.50400000000E-02 0.  1.
          1   -1    0    0  501    0  0.00000000000E+00 -0.00000000000E+00 -0.64468736631E+03  0.64468736632E+03  0.50400000000E-02 0. -1.
    8880022    1    1    2    0    0  0.85364890114E+03  0.54935459231E+03 -0.78001367919E+02  0.10295546517E+04  0.15294330000E+03 0.  0.
    8880022    1    1    2    0    0 -0.85364890114E+03 -0.54935459231E+03  0.28073032375E+04  0.29891219505E+04  0.15294330000E+03 0.  0.
<mgrwt>
<rscale>  0 0.10265956E+04</rscale>
<asrwt>0</asrwt>
<pdfrwt beam="1">  1        1 0.99182671E-01 0.10265956E+04</pdfrwt>
<pdfrwt beam="2">  1       -1 0.51907527E+00 0.10265956E+04</pdfrwt>
<totfact> 0.35135928E-02</totfact>
</mgrwt>
</event>
<event>
 4    1  0.4964158E-009  0.1375700E+04  0.7818608E-02  0.8971598E-01
         -1   -1    0    0    0  501 -0.00000000000E+00  0.00000000000E+00  0.17945470885E+04  0.17945470885E+04  0.50400000000E-02 0.  1.
          1   -1    0    0  501    0  0.00000000000E+00 -0.00000000000E+00 -0.17264851803E+04  0.17264851803E+04  0.50400000000E-02 0. -1.
    8880022    1    1    2    0    0 -0.81673062510E+03  0.10964080263E+04 -0.10642215264E+04  0.17392868034E+04  0.15294330000E+03 0.  0.
    8880022    1    1    2    0    0  0.81673062510E+03 -0.10964080263E+04  0.11322834346E+04  0.17817454654E+04  0.15294330000E+03 0.  0.
<mgrwt>
<rscale>  0 0.13757002E+04</rscale>
<asrwt>0</asrwt>
<pdfrwt beam="1">  1        1 0.26561310E+00 0.13757002E+04</pdfrwt>
<pdfrwt beam="2">  1       -1 0.27608417E+00 0.13757002E+04</pdfrwt>
<totfact> 0.20685818E-01</totfact>
</mgrwt>
</event>
<event>
 4    1  0.7163783E-009  0.8671708E+03  0.7818608E-02  0.9467576E-01
          1   -1    0    0  501    0  0.00000000000E+00  0.00000000000E+00  0.19206131942E+04  0.19206131942E+04  0.50400000000E-02 0. -1.
         -1   -1    0    0    0  501 -0.00000000000E+00 -0.00000000000E+00 -0.13758965058E+04  0.13758965058E+04  0.50400000000E-02 0.  1.
    8880022    1    1    2    0    0 -0.68398959430E+03 -0.51063867864E+03  0.16665067940E+04  0.18786245428E+04  0.15294330000E+03 0.  0.
    8880022    1    1    2    0    0  0.68398959430E+03  0.51063867864E+03 -0.11217901056E+04  0.14178851573E+04  0.15294330000E+03 0.  0.
<mgrwt>
<rscale>  0 0.86717085E+03</rscale>
<asrwt>0</asrwt>
<pdfrwt beam="1">  1        1 0.29547895E+00 0.86717085E+03</pdfrwt>
<pdfrwt beam="2">  1       -1 0.21167639E+00 0.86717085E+03</pdfrwt>
<totfact> 0.43843547E-01</totfact>
</mgrwt>
</event>
<event>
 4    1  0.4964158E-009  0.4494921E+03  0.7818608E-02  0.1027874E+00
         -1   -1    0    0    0  501 -0.00000000000E+00  0.00000000000E+00  0.51880211269E+03  0.51880211271E+03  0.50400000000E-02 0.  1.
          1   -1    0    0  501    0  0.00000000000E+00 -0.00000000000E+00 -0.64644855258E+03  0.64644855260E+03  0.50400000000E-02 0. -1.
    8880022    1    1    2    0    0 -0.48799908398E+02  0.41984529488E+03 -0.43118567268E+03  0.62286775485E+03  0.15294330000E+03 0. -1.
    8880022    1    1    2    0    0  0.48799908398E+02 -0.41984529488E+03  0.30353923279E+03  0.54238291045E+03  0.15294330000E+03 0.  0.
<mgrwt>
<rscale>  0 0.44949211E+03</rscale>
<asrwt>0</asrwt>
<pdfrwt beam="1">  1        1 0.99453623E-01 0.44949211E+03</pdfrwt>
<pdfrwt beam="2">  1       -1 0.79815710E-01 0.44949211E+03</pdfrwt>
<totfact> 0.50907560E+01</totfact>
</mgrwt>
</event>
<event>
 4    1  0.4964158E-009  0.7635220E+03  0.7818608E-02  0.9614372E-01
          1   -1    0    0  501    0  0.00000000000E+00  0.00000000000E+00  0.11953808708E+04  0.11953808708E+04  0.50400000000E-02 0. -1.
         -1   -1    0    0    0  501 -0.00000000000E+00 -0.00000000000E+00 -0.10266113931E+04  0.10266113931E+04  0.50400000000E-02 0.  1.
    8880022    1    1    2    0    0 -0.72365286503E+03 -0.18947473805E+03 -0.72057733817E+03  0.10498559419E+04  0.15294330000E+03 0.  0.
    8880022    1    1    2    0    0  0.72365286503E+03  0.18947473805E+03  0.88934681587E+03  0.11721363220E+04  0.15294330000E+03 0.  0.
<mgrwt>
<rscale>  0 0.76352197E+03</rscale>
<asrwt>0</asrwt>
<pdfrwt beam="1">  1        1 0.18390475E+00 0.76352197E+03</pdfrwt>
<pdfrwt beam="2">  1       -1 0.15794022E+00 0.76352197E+03</pdfrwt>
<totfact> 0.33878105E+00</totfact>
</mgrwt>
</event>
<event>
 4    1  0.4964158E-009  0.3683778E+03  0.7818608E-02  0.1055315E+00
          1   -1    0    0  501    0  0.00000000000E+00  0.00000000000E+00  0.25839237420E+04  0.25839237420E+04  0.50400000000E-02 0. -1.
         -1   -1    0    0    0  501 -0.00000000000E+00 -0.00000000000E+00 -0.15496771550E+03  0.15496771558E+03  0.50400000000E-02 0.  1.
    8880022    1    1    2    0    0 -0.32010844895E+03 -0.99202660163E+02  0.23279513144E+04  0.23569173855E+04  0.15294330000E+03 0.  0.
    8880022    1    1    2    0    0  0.32010844895E+03  0.99202660163E+02  0.10100471213E+03  0.38197407211E+03  0.15294330000E+03 0.  0.
<mgrwt>
<rscale>  0 0.36837785E+03</rscale>
<asrwt>0</asrwt>
<pdfrwt beam="1">  1        1 0.39752670E+00 0.36837785E+03</pdfrwt>
<pdfrwt beam="2">  1       -1 0.23841189E-01 0.36837785E+03</pdfrwt>
<totfact> 0.20463875E+01</totfact>
</mgrwt>
</event>
<event>
 4    1  0.5609090E-009  0.1213279E+04  0.7818608E-02  0.9101312E-01
         -1   -1    0    0    0  501 -0.00000000000E+00  0.00000000000E+00  0.12559983462E+04  0.12559983462E+04  0.50400000000E-02 0.  1.
          1   -1    0    0  501    0  0.00000000000E+00 -0.00000000000E+00 -0.39487281678E+04  0.39487281678E+04  0.50400000000E-02 0. -1.
    8880022    1    1    2    0    0  0.85243615138E+03  0.84971026046E+03  0.83588736246E+03  0.14733479747E+04  0.15294330000E+03 0.  0.
    8880022    1    1    2    0    0 -0.85243615138E+03 -0.84971026046E+03 -0.35286171841E+04  0.37313785393E+04  0.15294330000E+03 0.  0.
<mgrwt>
<rscale>  0 0.12132793E+04</rscale>
<asrwt>0</asrwt>
<pdfrwt beam="1">  1        1 0.60749663E+00 0.12132793E+04</pdfrwt>
<pdfrwt beam="2">  1       -1 0.19323052E+00 0.12132793E+04</pdfrwt>
<totfact> 0.17960616E-02</totfact>
</mgrwt>
</event>
<event>
 4    1  0.4964158E-009  0.8604794E+03  0.7818608E-02  0.9476379E-01
         -1   -1    0    0    0  501 -0.00000000000E+00  0.00000000000E+00  0.86424367171E+03  0.86424367173E+03  0.50400000000E-02 0.  1.
          1   -1    0    0  501    0  0.00000000000E+00 -0.00000000000E+00 -0.13820120307E+04  0.13820120307E+04  0.50400000000E-02 0. -1.
    8880022    1    1    2    0    0  0.13269865327E+03  0.83631583585E+03 -0.95130312788E+03  0.12827323977E+04  0.15294330000E+03 0.  0.
    8880022    1    1    2    0    0 -0.13269865327E+03 -0.83631583585E+03  0.43353476894E+03  0.96352330473E+03  0.15294330000E+03 0.  0.
<mgrwt>
<rscale>  0 0.86047938E+03</rscale>
<asrwt>0</asrwt>
<pdfrwt beam="1">  1        1 0.21261724E+00 0.86047938E+03</pdfrwt>
<pdfrwt beam="2">  1       -1 0.13296057E+00 0.86047938E+03</pdfrwt>
<totfact> 0.38779356E+00</totfact>
</mgrwt>
</event>
<event>
 4    1  0.4964158E-009  0.1278010E+04  0.7818608E-02  0.9047188E-01
          1   -1    0    0  501    0  0.00000000000E+00  0.00000000000E+00  0.10965501263E+04  0.10965501263E+04  0.50400000000E-02 0. -1.
         -1   -1    0    0    0  501 -0.00000000000E+00 -0.00000000000E+00 -0.19544427889E+04  0.19544427889E+04  0.50400000000E-02 0.  1.
    8880022    1    1    2    0    0  0.12521546285E+04 -0.20500242833E+03 -0.11729936689E+04  0.17347112179E+04  0.15294330000E+03 0.  0.
    8880022    1    1    2    0    0 -0.12521546285E+04  0.20500242833E+03  0.31510100634E+03  0.13162816972E+04  0.15294330000E+03 0.  0.
<mgrwt>
<rscale>  0 0.12780097E+04</rscale>
<asrwt>0</asrwt>
<pdfrwt beam="1">  1        1 0.16870002E+00 0.12780097E+04</pdfrwt>
<pdfrwt beam="2">  1       -1 0.30068351E+00 0.12780097E+04</pdfrwt>
<totfact> 0.40644119E-01</totfact>
</mgrwt>
</event>
<event>
 4    1  0.4964158E-009  0.4420254E+03  0.7818608E-02  0.1030127E+00
         -1   -1    0    0    0  501 -0.00000000000E+00  0.00000000000E+00  0.45586415694E+03  0.45586415696E+03  0.50400000000E-02 0.  1.
          1   -1    0    0  501    0  0.00000000000E+00 -0.00000000000E+00 -0.75716006385E+03  0.75716006387E+03  0.50400000000E-02 0. -1.
    8880022    1    1    2    0    0 -0.13778549575E+03  0.39116483900E+03  0.24888130887E+03  0.50727540156E+03  0.15294330000E+03 0.  0.
    8880022    1    1    2    0    0  0.13778549575E+03 -0.39116483900E+03 -0.55017721579E+03  0.70574881927E+03  0.15294330000E+03 0.  0.
<mgrwt>
<rscale>  0 0.44202537E+03</rscale>
<asrwt>0</asrwt>
<pdfrwt beam="1">  1        1 0.11648616E+00 0.44202537E+03</pdfrwt>
<pdfrwt beam="2">  1       -1 0.70132947E-01 0.44202537E+03</pdfrwt>
<totfact> 0.52583234E+01</totfact>
</mgrwt>
</event>
<event>
 4    1  0.4964158E-009  0.2634833E+03  0.7818608E-02  0.1105068E+00
          1   -1    0    0  501    0  0.00000000000E+00  0.00000000000E+00  0.24555956296E+04  0.24555956296E+04  0.50400000000E-02 0. -1.
         -1   -1    0    0    0  501 -0.00000000000E+00 -0.00000000000E+00 -0.64713286742E+03  0.64713286744E+03  0.50400000000E-02 0.  1.
    8880022    1    1    2    0    0 -0.38425146542E+02 -0.21108132138E+03  0.24213296831E+04  0.24356233090E+04  0.15294330000E+03 0.  0.
    8880022    1    1    2    0    0  0.38425146542E+02  0.21108132138E+03 -0.61286692092E+03  0.66710518803E+03  0.15294330000E+03 0.  1.
<mgrwt>
<rscale>  0 0.26348334E+03</rscale>
<asrwt>0</asrwt>
<pdfrwt beam="1">  1        1 0.37778395E+00 0.26348334E+03</pdfrwt>
<pdfrwt beam="2">  1       -1 0.99558901E-01 0.26348334E+03</pdfrwt>
<totfact> 0.17704193E+00</totfact>
</mgrwt>
</event>
<event>
 4    1  0.4964158E-009  0.5853116E+03  0.7818608E-02  0.9936357E-01
          1   -1    0    0  501    0  0.00000000000E+00  0.00000000000E+00  0.81922896558E+03  0.81922896559E+03  0.50400000000E-02 0. -1.
         -1   -1    0    0    0  501 -0.00000000000E+00 -0.00000000000E+00 -0.58643889424E+03  0.58643889427E+03  0.50400000000E-02 0.  1.
    8880022    1    1    2    0    0  0.23439509693E+03 -0.51405927775E+03  0.49285888913E+03  0.76517941694E+03  0.15294330000E+03 0.  0.
    8880022    1    1    2    0    0 -0.23439509693E+03  0.51405927775E+03 -0.26006881780E+03  0.64048844292E+03  0.15294330000E+03 0.  0.
<mgrwt>
<rscale>  0 0.58531159E+03</rscale>
<asrwt>0</asrwt>
<pdfrwt beam="1">  1        1 0.12603523E+00 0.58531159E+03</pdfrwt>
<pdfrwt beam="2">  1       -1 0.90221368E-01 0.58531159E+03</pdfrwt>
<totfact> 0.26774440E+01</totfact>
</mgrwt>
</event>
<event>
 4    1  0.4964158E-009  0.4772361E+03  0.7818608E-02  0.1019898E+00
          1   -1    0    0  501    0  0.00000000000E+00  0.00000000000E+00  0.23457414716E+04  0.23457414716E+04  0.50400000000E-02 0. -1.
         -1   -1    0    0    0  501 -0.00000000000E+00 -0.00000000000E+00 -0.69504856493E+03  0.69504856495E+03  0.50400000000E-02 0.  1.
    8880022    1    1    2    0    0 -0.64439853161E+02 -0.44744846568E+03  0.22355553241E+04  0.22859269202E+04  0.15294330000E+03 0.  0.
    8880022    1    1    2    0    0  0.64439853161E+02  0.44744846568E+03 -0.58486241746E+03  0.75486311639E+03  0.15294330000E+03 0.  0.
<mgrwt>
<rscale>  0 0.47723608E+03</rscale>
<asrwt>0</asrwt>
<pdfrwt beam="1">  1        1 0.36088330E+00 0.47723608E+03</pdfrwt>
<pdfrwt beam="2">  1       -1 0.10693055E+00 0.47723608E+03</pdfrwt>
<totfact> 0.16129609E+00</totfact>
</mgrwt>
</event>
<event>
 4    1  0.4964158E-009  0.1145022E+04  0.7818608E-02  0.9162389E-01
         -1   -1    0    0    0  501 -0.00000000000E+00  0.00000000000E+00  0.20516377230E+04  0.20516377231E+04  0.50400000000E-02 0.  1.
          1   -1    0    0  501    0  0.00000000000E+00 -0.00000000000E+00 -0.18945546723E+04  0.18945546723E+04  0.50400000000E-02 0. -1.
    8880022    1    1    2    0    0 -0.22537891924E+02 -0.11345373685E+04 -0.15276817508E+04  0.19091585010E+04  0.15294330000E+03 0.  0.
    8880022    1    1    2    0    0  0.22537891924E+02  0.11345373685E+04  0.16847648015E+04  0.20370338944E+04  0.15294330000E+03 0.  0.
<mgrwt>
<rscale>  0 0.11450217E+04</rscale>
<asrwt>0</asrwt>
<pdfrwt beam="1">  1        1 0.29146995E+00 0.11450217E+04</pdfrwt>
<pdfrwt beam="2">  1       -1 0.31563657E+00 0.11450217E+04</pdfrwt>
<totfact> 0.91445297E-02</totfact>
</mgrwt>
</event>
<event>
 4    1  0.4964158E-009  0.4140146E+03  0.7818608E-02  0.1039032E+00
          1   -1    0    0  501    0  0.00000000000E+00  0.00000000000E+00  0.44524944248E+03  0.44524944251E+03  0.50400000000E-02 0. -1.
         -1   -1    0    0    0  501 -0.00000000000E+00 -0.00000000000E+00 -0.74715963694E+03  0.74715963695E+03  0.50400000000E-02 0.  1.
    8880022    1    1    2    0    0 -0.38428077324E+03  0.18567458367E+02  0.26414802234E+03  0.49110313979E+03  0.15294330000E+03 0.  0.
    8880022    1    1    2    0    0  0.38428077324E+03 -0.18567458367E+02 -0.56605821680E+03  0.70130593967E+03  0.15294330000E+03 0.  0.
<mgrwt>
<rscale>  0 0.41401463E+03</rscale>
<asrwt>0</asrwt>
<pdfrwt beam="1">  1        1 0.68499914E-01 0.41401463E+03</pdfrwt>
<pdfrwt beam="2">  1       -1 0.11494764E+00 0.41401463E+03</pdfrwt>
<totfact> 0.38003003E+01</totfact>
</mgrwt>
</event>
<event>
 4    1  0.4964158E-009  0.7246391E+03  0.7818608E-02  0.9676000E-01
          1   -1    0    0  501    0  0.00000000000E+00  0.00000000000E+00  0.10125414254E+04  0.10125414254E+04  0.50400000000E-02 0. -1.
         -1   -1    0    0    0  501 -0.00000000000E+00 -0.00000000000E+00 -0.12493214729E+04  0.12493214729E+04  0.50400000000E-02 0.  1.
    8880022    1    1    2    0    0  0.37886453938E+03 -0.59847461655E+03 -0.98330962057E+03  0.12214743832E+04  0.15294330000E+03 0.  0.
    8880022    1    1    2    0    0 -0.37886453938E+03  0.59847461655E+03  0.74652957304E+03  0.10403885151E+04  0.15294330000E+03 0.  0.
<mgrwt>
<rscale>  0 0.72463912E+03</rscale>
<asrwt>0</asrwt>
<pdfrwt beam="1">  1        1 0.15577560E+00 0.72463912E+03</pdfrwt>
<pdfrwt beam="2">  1       -1 0.19220330E+00 0.72463912E+03</pdfrwt>
<totfact> 0.26393817E+00</totfact>
</mgrwt>
</event>
<event>
 4    1  0.4964158E-009  0.8902554E+03  0.7818608E-02  0.9437845E-01
          1   -1    0    0  501    0  0.00000000000E+00  0.00000000000E+00  0.88411366004E+03  0.88411366005E+03  0.50400000000E-02 0. -1.
         -1   -1    0    0    0  501 -0.00000000000E+00 -0.00000000000E+00 -0.11929553052E+04  0.11929553053E+04  0.50400000000E-02 0.  1.
    8880022    1    1    2    0    0  0.50547251304E+03  0.71670116968E+03  0.36334398923E+03  0.96154746923E+03  0.15294330000E+03 0.  0.
    8880022    1    1    2    0    0 -0.50547251304E+03 -0.71670116968E+03 -0.67218563444E+03  0.11155214961E+04  0.15294330000E+03 0.  0.
<mgrwt>
<rscale>  0 0.89025540E+03</rscale>
<asrwt>0</asrwt>
<pdfrwt beam="1">  1        1 0.13601749E+00 0.89025540E+03</pdfrwt>
<pdfrwt beam="2">  1       -1 0.18353158E+00 0.89025540E+03</pdfrwt>
<totfact> 0.37452921E+00</totfact>
</mgrwt>
</event>
<event>
 4    1  0.4964158E-009  0.9753767E+03  0.7818608E-02  0.9335971E-01
          1   -1    0    0  501    0  0.00000000000E+00  0.00000000000E+00  0.94688377490E+03  0.94688377491E+03  0.50400000000E-02 0. -1.
         -1   -1    0    0    0  501 -0.00000000000E+00 -0.00000000000E+00 -0.44567522910E+04  0.44567522910E+04  0.50400000000E-02 0.  1.
    8880022    1    1    2    0    0 -0.56457526377E+03 -0.78052730742E+03  0.62291230928E+03  0.11573156459E+04  0.15294330000E+03 0.  0.
    8880022    1    1    2    0    0  0.56457526377E+03  0.78052730742E+03 -0.41327808254E+04  0.42463204201E+04  0.15294330000E+03 0.  0.
<mgrwt>
<rscale>  0 0.97537673E+03</rscale>
<asrwt>0</asrwt>
<pdfrwt beam="1">  1        1 0.14567443E+00 0.97537673E+03</pdfrwt>
<pdfrwt beam="2">  1       -1 0.68565419E+00 0.97537673E+03</pdfrwt>
<totfact> 0.37678520E-03</totfact>
</mgrwt>
</event>
<event>
 4    1  0.4964158E-009  0.5434644E+03  0.7818608E-02  0.1003018E+00
         -1   -1    0    0    0  501 -0.00000000000E+00  0.00000000000E+00  0.22727975064E+04  0.22727975064E+04  0.50400000000E-02 0.  1.
          1   -1    0    0  501    0  0.00000000000E+00 -0.00000000000E+00 -0.29594387768E+03  0.29594387772E+03  0.50400000000E-02 0. -1.
    8880022    1    1    2    0    0  0.50710811192E+03 -0.12166887585E+03  0.19503262889E+04  0.20246299017E+04  0.15294330000E+03 0.  0.
    8880022    1    1    2    0    0 -0.50710811192E+03  0.12166887585E+03  0.26527339780E+02  0.54411148242E+03  0.15294330000E+03 0.  0.
<mgrwt>
<rscale>  0 0.54346445E+03</rscale>
<asrwt>0</asrwt>
<pdfrwt beam="1">  1        1 0.45529826E-01 0.54346445E+03</pdfrwt>
<pdfrwt beam="2">  1       -1 0.34966117E+00 0.54346445E+03</pdfrwt>
<totfact> 0.15400018E+00</totfact>
</mgrwt>
</event>
<event>
 4    1  0.4964158E-009  0.7982296E+03  0.7818608E-02  0.9562583E-01
         -1   -1    0    0    0  501 -0.00000000000E+00  0.00000000000E+00  0.15334023659E+04  0.15334023659E+04  0.50400000000E-02 0.  1.
          1   -1    0    0  501    0  0.00000000000E+00 -0.00000000000E+00 -0.48132249238E+03  0.48132249241E+03  0.50400000000E-02 0. -1.
    8880022    1    1    2    0    0 -0.75029897759E+03 -0.22545576918E+03  0.15359264477E+03  0.81287219977E+03  0.15294330000E+03 0.  0.
    8880022    1    1    2    0    0  0.75029897759E+03  0.22545576918E+03  0.89848722878E+03  0.12018526586E+04  0.15294330000E+03 0.  0.
<mgrwt>
<rscale>  0 0.79822961E+03</rscale>
<asrwt>0</asrwt>
<pdfrwt beam="1">  1        1 0.74049614E-01 0.79822961E+03</pdfrwt>
<pdfrwt beam="2">  1       -1 0.23590806E+00 0.79822961E+03</pdfrwt>
<totfact> 0.41604462E+00</totfact>
</mgrwt>
</event>
<event>
 4    1  0.4964158E-009  0.1594221E+04  0.7818608E-02  0.8824106E-01
         -1   -1    0    0    0  501 -0.00000000000E+00  0.00000000000E+00  0.31865461615E+04  0.31865461615E+04  0.50400000000E-02 0.  1.
          1   -1    0    0  501    0  0.00000000000E+00 -0.00000000000E+00 -0.89232463925E+03  0.89232463927E+03  0.50400000000E-02 0. -1.
    8880022    1    1    2    0    0  0.15683995789E+04 -0.24139586805E+03  0.18116410481E+04  0.24132103398E+04  0.15294330000E+03 0.  0.
    8880022    1    1    2    0    0 -0.15683995789E+04  0.24139586805E+03  0.48258047421E+03  0.16656604610E+04  0.15294330000E+03 0.  0.
<mgrwt>
<rscale>  0 0.15942211E+04</rscale>
<asrwt>0</asrwt>
<pdfrwt beam="1">  1        1 0.13728072E+00 0.15942211E+04</pdfrwt>
<pdfrwt beam="2">  1       -1 0.49023786E+00 0.15942211E+04</pdfrwt>
<totfact> 0.29882192E-02</totfact>
</mgrwt>
</event>
<event>
 4    1  0.4964158E-009  0.1148176E+04  0.7818608E-02  0.9159468E-01
         -1   -1    0    0    0  501 -0.00000000000E+00  0.00000000000E+00  0.83248165075E+03  0.83248165077E+03  0.50400000000E-02 0.  1.
          1   -1    0    0  501    0  0.00000000000E+00 -0.00000000000E+00 -0.39276376224E+04  0.39276376224E+04  0.50400000000E-02 0. -1.
    8880022    1    1    2    0    0 -0.41396158187E+03  0.10599774376E+04 -0.33862553410E+04  0.35756164849E+04  0.15294330000E+03 0.  0.
    8880022    1    1    2    0    0  0.41396158187E+03 -0.10599774376E+04  0.29109936937E+03  0.11845027883E+04  0.15294330000E+03 0.  0.
<mgrwt>
<rscale>  0 0.11481760E+04</rscale>
<asrwt>0</asrwt>
<pdfrwt beam="1">  1        1 0.60425193E+00 0.11481760E+04</pdfrwt>
<pdfrwt beam="2">  1       -1 0.12807410E+00 0.11481760E+04</pdfrwt>
<totfact> 0.59651209E-02</totfact>
</mgrwt>
</event>
<event>
 4    1  0.4964158E-009  0.8161465E+03  0.7818608E-02  0.9536935E-01
          1   -1    0    0  501    0  0.00000000000E+00  0.00000000000E+00  0.51002598835E+03  0.51002598837E+03  0.50400000000E-02 0. -1.
         -1   -1    0    0    0  501 -0.00000000000E+00 -0.00000000000E+00 -0.13642224228E+04  0.13642224228E+04  0.50400000000E-02 0.  1.
    8880022    1    1    2    0    0 -0.75415161858E+03  0.27195379635E+03 -0.62069164460E+03  0.10253552076E+04  0.15294330000E+03 0.  0.
    8880022    1    1    2    0    0  0.75415161858E+03 -0.27195379635E+03 -0.23350478988E+03  0.84889320357E+03  0.15294330000E+03 0.  0.
<mgrwt>
<rscale>  0 0.81614655E+03</rscale>
<asrwt>0</asrwt>
<pdfrwt beam="1">  1        1 0.78465537E-01 0.81614655E+03</pdfrwt>
<pdfrwt beam="2">  1       -1 0.20988037E+00 0.81614655E+03</pdfrwt>
<totfact> 0.57012419E+00</totfact>
</mgrwt>
</event>
<event>
 4    1  0.4964158E-009  0.1195506E+04  0.7818608E-02  0.9116799E-01
          1   -1    0    0  501    0  0.00000000000E+00  0.00000000000E+00  0.51953713193E+04  0.51953713193E+04  0.50400000000E-02 0. -1.
         -1   -1    0    0    0  501 -0.00000000000E+00 -0.00000000000E+00 -0.72884454590E+03  0.72884454592E+03  0.50400000000E-02 0.  1.
    8880022    1    1    2    0    0  0.11791690739E+04  0.12410874840E+03 -0.10390642441E+03  0.12000128684E+04  0.15294330000E+03 0.  0.
    8880022    1    1    2    0    0 -0.11791690739E+04 -0.12410874840E+03  0.45704331978E+04  0.47242029968E+04  0.15294330000E+03 0.  0.
<mgrwt>
<rscale>  0 0.11955059E+04</rscale>
<asrwt>0</asrwt>
<pdfrwt beam="1">  1        1 0.79928788E+00 0.11955059E+04</pdfrwt>
<pdfrwt beam="2">  1       -1 0.11212993E+00 0.11955059E+04</pdfrwt>
<totfact> 0.36262214E-03</totfact>
</mgrwt>
</event>
<event>
 4    1  0.4964158E-009  0.7528887E+03  0.7818608E-02  0.9630829E-01
         -1   -1    0    0    0  501 -0.00000000000E+00  0.00000000000E+00  0.98750857600E+03  0.98750857601E+03  0.50400000000E-02 0.  1.
          1   -1    0    0  501    0  0.00000000000E+00 -0.00000000000E+00 -0.17595582057E+04  0.17595582057E+04  0.50400000000E-02 0. -1.
    8880022    1    1    2    0    0 -0.66554159507E+03  0.31702383263E+03 -0.15134733286E+04  0.16903972594E+04  0.15294330000E+03 0.  0.
    8880022    1    1    2    0    0  0.66554159507E+03 -0.31702383263E+03  0.74142369885E+03  0.10566695223E+04  0.15294330000E+03 0.  0.
<mgrwt>
<rscale>  0 0.75288869E+03</rscale>
<asrwt>0</asrwt>
<pdfrwt beam="1">  1        1 0.27070126E+00 0.75288869E+03</pdfrwt>
<pdfrwt beam="2">  1       -1 0.15192440E+00 0.75288869E+03</pdfrwt>
<totfact> 0.15386691E+00</totfact>
</mgrwt>
</event>
<event>
 4    1  0.4964158E-009  0.4944739E+03  0.7818608E-02  0.1015231E+00
         -1   -1    0    0    0  501 -0.00000000000E+00  0.00000000000E+00  0.42838891054E+03  0.42838891057E+03  0.50400000000E-02 0.  1.
          1   -1    0    0  501    0  0.00000000000E+00 -0.00000000000E+00 -0.14446051938E+04  0.14446051939E+04  0.50400000000E-02 0. -1.
    8880022    1    1    2    0    0  0.36095064223E+03 -0.30137585961E+03  0.22025962700E+03  0.54131204604E+03  0.15294330000E+03 0.  1.
    8880022    1    1    2    0    0 -0.36095064223E+03  0.30137585961E+03 -0.12364759103E+04  0.13316820584E+04  0.15294330000E+03 0.  0.
<mgrwt>
<rscale>  0 0.49447389E+03</rscale>
<asrwt>0</asrwt>
<pdfrwt beam="1">  1        1 0.22224695E+00 0.49447389E+03</pdfrwt>
<pdfrwt beam="2">  1       -1 0.65905987E-01 0.49447389E+03</pdfrwt>
<totfact> 0.18010080E+01</totfact>
</mgrwt>
</event>
<event>
 4    1  0.4964158E-009  0.6797076E+03  0.7818608E-02  0.9752578E-01
         -1   -1    0    0    0  501 -0.00000000000E+00  0.00000000000E+00  0.92746251021E+03  0.92746251022E+03  0.50400000000E-02 0.  1.
          1   -1    0    0  501    0  0.00000000000E+00 -0.00000000000E+00 -0.14794755022E+04  0.14794755022E+04  0.50400000000E-02 0. -1.
    8880022    1    1    2    0    0  0.56222305418E+02 -0.65988621021E+03 -0.12561522757E+04  0.14282580127E+04  0.15294330000E+03 0.  0.
    8880022    1    1    2    0    0 -0.56222305418E+02  0.65988621021E+03  0.70413928370E+03  0.97867999975E+03  0.15294330000E+03 0.  0.
<mgrwt>
<rscale>  0 0.67970759E+03</rscale>
<asrwt>0</asrwt>
<pdfrwt beam="1">  1        1 0.22761162E+00 0.67970759E+03</pdfrwt>
<pdfrwt beam="2">  1       -1 0.14268654E+00 0.67970759E+03</pdfrwt>
<totfact> 0.28540536E+00</totfact>
</mgrwt>
</event>
<event>
 4    1  0.4964158E-009  0.1171149E+04  0.7818608E-02  0.9138491E-01
         -1   -1    0    0    0  501 -0.00000000000E+00  0.00000000000E+00  0.19794052354E+04  0.19794052354E+04  0.50400000000E-02 0.  1.
          1   -1    0    0  501    0  0.00000000000E+00 -0.00000000000E+00 -0.11042024003E+04  0.11042024003E+04  0.50400000000E-02 0. -1.
    8880022    1    1    2    0    0 -0.63822469626E+03  0.96998377821E+03  0.13785569696E+04  0.18088698860E+04  0.15294330000E+03 0.  0.
    8880022    1    1    2    0    0  0.63822469626E+03 -0.96998377821E+03 -0.50335413447E+03  0.12747377497E+04  0.15294330000E+03 0.  0.
<mgrwt>
<rscale>  0 0.11711494E+04</rscale>
<asrwt>0</asrwt>
<pdfrwt beam="1">  1        1 0.16987730E+00 0.11711494E+04</pdfrwt>
<pdfrwt beam="2">  1       -1 0.30452388E+00 0.11711494E+04</pdfrwt>
<totfact> 0.38423181E-01</totfact>
</mgrwt>
</event>
<event>
 4    1  0.4964158E-009  0.5773774E+03  0.7818608E-02  0.9953485E-01
         -1   -1    0    0    0  501 -0.00000000000E+00  0.00000000000E+00  0.61614475628E+03  0.61614475630E+03  0.50400000000E-02 0.  1.
          1   -1    0    0  501    0  0.00000000000E+00 -0.00000000000E+00 -0.17373037052E+04  0.17373037052E+04  0.50400000000E-02 0. -1.
    8880022    1    1    2    0    0 -0.54812881890E+03 -0.97610683855E+02 -0.15370262937E+04  0.16418935801E+04  0.15294330000E+03 0.  0.
    8880022    1    1    2    0    0  0.54812881890E+03  0.97610683855E+02  0.41586734484E+03  0.71155488139E+03  0.15294330000E+03 0.  1.
<mgrwt>
<rscale>  0 0.57737743E+03</rscale>
<asrwt>0</asrwt>
<pdfrwt beam="1">  1        1 0.26727749E+00 0.57737743E+03</pdfrwt>
<pdfrwt beam="2">  1       -1 0.94791502E-01 0.57737743E+03</pdfrwt>
<totfact> 0.52298016E+00</totfact>
</mgrwt>
</event>
<event>
 4    1  0.4964158E-009  0.9949609E+03  0.7818608E-02  0.9314089E-01
         -1   -1    0    0    0  501 -0.00000000000E+00  0.00000000000E+00  0.64161115662E+03  0.64161115664E+03  0.50400000000E-02 0.  1.
          1   -1    0    0  501    0  0.00000000000E+00 -0.00000000000E+00 -0.31251825682E+04  0.31251825682E+04  0.50400000000E-02 0. -1.
    8880022    1    1    2    0    0  0.31660455852E+03 -0.93076155089E+03 -0.25819098505E+04  0.27669849368E+04  0.15294330000E+03 0.  0.
    8880022    1    1    2    0    0 -0.31660455852E+03  0.93076155089E+03  0.98338438961E+02  0.99980878806E+03  0.15294330000E+03 0.  0.
<mgrwt>
<rscale>  0 0.99496089E+03</rscale>
<asrwt>0</asrwt>
<pdfrwt beam="1">  1        1 0.48079731E+00 0.99496089E+03</pdfrwt>
<pdfrwt beam="2">  1       -1 0.98709410E-01 0.99496089E+03</pdfrwt>
<totfact> 0.48964550E-01</totfact>
</mgrwt>
</event>
<event>
 4    1  0.4964158E-009  0.8288868E+03  0.7818608E-02  0.9519121E-01
         -1   -1    0    0    0  501 -0.00000000000E+00  0.00000000000E+00  0.76613015009E+03  0.76613015011E+03  0.50400000000E-02 0.  1.
          1   -1    0    0  501    0  0.00000000000E+00 -0.00000000000E+00 -0.11002071256E+04  0.11002071256E+04  0.50400000000E-02 0. -1.
    8880022    1    1    2    0    0  0.49655052328E+03 -0.64583216296E+03 -0.56829590463E+03  0.10049942752E+04  0.15294330000E+03 0.  0.
    8880022    1    1    2    0    0 -0.49655052328E+03  0.64583216296E+03  0.23421892910E+03  0.86134300058E+03  0.15294330000E+03 0.  0.
<mgrwt>
<rscale>  0 0.82888676E+03</rscale>
<asrwt>0</asrwt>
<pdfrwt beam="1">  1        1 0.16926264E+00 0.82888676E+03</pdfrwt>
<pdfrwt beam="2">  1       -1 0.11786618E+00 0.82888676E+03</pdfrwt>
<totfact> 0.83885177E+00</totfact>
</mgrwt>
</event>
<event>
 4    1  0.4964158E-009  0.6978235E+03  0.7818608E-02  0.9720962E-01
          1   -1    0    0  501    0  0.00000000000E+00  0.00000000000E+00  0.66055988542E+03  0.66055988544E+03  0.50400000000E-02 0. -1.
         -1   -1    0    0    0  501 -0.00000000000E+00 -0.00000000000E+00 -0.20874447520E+04  0.20874447520E+04  0.50400000000E-02 0.  1.
    8880022    1    1    2    0    0  0.14302784021E+03  0.66566435095E+03 -0.18185077514E+04  0.19478008333E+04  0.15294330000E+03 0.  0.
    8880022    1    1    2    0    0 -0.14302784021E+03 -0.66566435095E+03  0.39162288486E+03  0.80020380413E+03  0.15294330000E+03 0.  0.
<mgrwt>
<rscale>  0 0.69782351E+03</rscale>
<asrwt>0</asrwt>
<pdfrwt beam="1">  1        1 0.10162460E+00 0.69782351E+03</pdfrwt>
<pdfrwt beam="2">  1       -1 0.32114534E+00 0.69782351E+03</pdfrwt>
<totfact> 0.76716108E-01</totfact>
</mgrwt>
</event>
<event>
 4    1  0.4964158E-009  0.1157683E+04  0.7818608E-02  0.9150725E-01
         -1   -1    0    0    0  501 -0.00000000000E+00  0.00000000000E+00  0.46796213654E+03  0.46796213657E+03  0.50400000000E-02 0.  1.
          1   -1    0    0  501    0  0.00000000000E+00 -0.00000000000E+00 -0.31390842370E+04  0.31390842370E+04  0.50400000000E-02 0. -1.
    8880022    1    1    2    0    0 -0.10477649420E+04 -0.46800370885E+03 -0.18694797459E+04  0.21989054137E+04  0.15294330000E+03 0.  0.
    8880022    1    1    2    0    0  0.10477649420E+04  0.46800370885E+03 -0.80164235456E+03  0.14081409599E+04  0.15294330000E+03 0.  0.
<mgrwt>
<rscale>  0 0.11576832E+04</rscale>
<asrwt>0</asrwt>
<pdfrwt beam="1">  1        1 0.48293602E+00 0.11576832E+04</pdfrwt>
<pdfrwt beam="2">  1       -1 0.71994177E-01 0.11576832E+04</pdfrwt>
<totfact> 0.92520631E-01</totfact>
</mgrwt>
</event>
<event>
 4    1  0.4964158E-009  0.1355614E+04  0.7818608E-02  0.8986589E-01
         -1   -1    0    0    0  501 -0.00000000000E+00  0.00000000000E+00  0.11531707432E+04  0.11531707432E+04  0.50400000000E-02 0.  1.
          1   -1    0    0  501    0  0.00000000000E+00 -0.00000000000E+00 -0.16644616180E+04  0.16644616180E+04  0.50400000000E-02 0. -1.
    8880022    1    1    2    0    0 -0.13455820036E+04  0.60889973344E+02 -0.54633551976E+03  0.14615651441E+04  0.15294330000E+03 0.  0.
    8880022    1    1    2    0    0  0.13455820036E+04 -0.60889973344E+02  0.35044645025E+02  0.13560672171E+04  0.15294330000E+03 0.  0.
<mgrwt>
<rscale>  0 0.13556143E+04</rscale>
<asrwt>0</asrwt>
<pdfrwt beam="1">  1        1 0.25607102E+00 0.13556143E+04</pdfrwt>
<pdfrwt beam="2">  1       -1 0.17741088E+00 0.13556143E+04</pdfrwt>
<totfact> 0.10542226E+00</totfact>
</mgrwt>
</event>
<event>
 4    1  0.4964158E-009  0.5217790E+03  0.7818608E-02  0.1008246E+00
          1   -1    0    0  501    0  0.00000000000E+00  0.00000000000E+00  0.12671589421E+04  0.12671589421E+04  0.50400000000E-02 0. -1.
         -1   -1    0    0    0  501 -0.00000000000E+00 -0.00000000000E+00 -0.73369829651E+03  0.73369829652E+03  0.50400000000E-02 0.  1.
    8880022    1    1    2    0    0  0.49718669935E+03  0.40829908711E+02 -0.57456048893E+03  0.77612698955E+03  0.15294330000E+03 0.  0.
    8880022    1    1    2    0    0 -0.49718669935E+03 -0.40829908711E+02  0.11080211345E+04  0.12247302491E+04  0.15294330000E+03 0. -1.
<mgrwt>
<rscale>  0 0.52177902E+03</rscale>
<asrwt>0</asrwt>
<pdfrwt beam="1">  1        1 0.19494753E+00 0.52177902E+03</pdfrwt>
<pdfrwt beam="2">  1       -1 0.11287666E+00 0.52177902E+03</pdfrwt>
<totfact> 0.74145394E+00</totfact>
</mgrwt>
</event>
<event>
 4    1  0.4964158E-009  0.3530107E+03  0.7818608E-02  0.1061386E+00
          1   -1    0    0  501    0  0.00000000000E+00  0.00000000000E+00  0.21264605955E+04  0.21264605956E+04  0.50400000000E-02 0. -1.
         -1   -1    0    0    0  501 -0.00000000000E+00 -0.00000000000E+00 -0.18765538697E+03  0.18765538704E+03  0.50400000000E-02 0.  1.
    8880022    1    1    2    0    0 -0.21327141538E+03 -0.23609370689E+03  0.98739877916E+01  0.35314881240E+03  0.15294330000E+03 0.  1.
    8880022    1    1    2    0    0  0.21327141538E+03  0.23609370689E+03  0.19289312208E+04  0.19609671702E+04  0.15294330000E+03 0.  0.
<mgrwt>
<rscale>  0 0.35301075E+03</rscale>
<asrwt>0</asrwt>
<pdfrwt beam="1">  1        1 0.32714778E+00 0.35301075E+03</pdfrwt>
<pdfrwt beam="2">  1       -1 0.28870060E-01 0.35301075E+03</pdfrwt>
<totfact> 0.29959319E+01</totfact>
</mgrwt>
</event>
<event>
 4    1  0.4964158E-009  0.6123219E+03  0.7818608E-02  0.9880167E-01
          1   -1    0    0  501    0  0.00000000000E+00  0.00000000000E+00  0.12077719725E+04  0.12077719725E+04  0.50400000000E-02 0. -1.
         -1   -1    0    0    0  501 -0.00000000000E+00 -0.00000000000E+00 -0.66754382470E+03  0.66754382472E+03  0.50400000000E-02 0.  1.
    8880022    1    1    2    0    0 -0.54658803607E+03 -0.22975632692E+03  0.95592294512E+03  0.11352210274E+04  0.15294330000E+03 0.  0.
    8880022    1    1    2    0    0  0.54658803607E+03  0.22975632692E+03 -0.41569479729E+03  0.74009476990E+03  0.15294330000E+03 0.  0.
<mgrwt>
<rscale>  0 0.61232190E+03</rscale>
<asrwt>0</asrwt>
<pdfrwt beam="1">  1        1 0.18581107E+00 0.61232190E+03</pdfrwt>
<pdfrwt beam="2">  1       -1 0.10269905E+00 0.61232190E+03</pdfrwt>
<totfact> 0.10000003E+01</totfact>
</mgrwt>
</event>
<event>
 4    1  0.4964158E-009  0.1145945E+04  0.7818608E-02  0.9161533E-01
         -1   -1    0    0    0  501 -0.00000000000E+00  0.00000000000E+00  0.90733967637E+03  0.90733967638E+03  0.50400000000E-02 0.  1.
          1   -1    0    0  501    0  0.00000000000E+00 -0.00000000000E+00 -0.15257468532E+04  0.15257468532E+04  0.50400000000E-02 0. -1.
    8880022    1    1    2    0    0  0.11203940117E+04  0.18578094215E+03 -0.33345607325E+02  0.11464296239E+04  0.15294330000E+03 0.  0.
    8880022    1    1    2    0    0 -0.11203940117E+04 -0.18578094215E+03 -0.58506156952E+03  0.12866569057E+04  0.15294330000E+03 0.  0.
<mgrwt>
<rscale>  0 0.11459446E+04</rscale>
<asrwt>0</asrwt>
<pdfrwt beam="1">  1        1 0.23473028E+00 0.11459446E+04</pdfrwt>
<pdfrwt beam="2">  1       -1 0.13959072E+00 0.11459446E+04</pdfrwt>
<totfact> 0.26190456E+00</totfact>
</mgrwt>
</event>
<event>
 4    1  0.4964158E-009  0.4789897E+03  0.7818608E-02  0.1019413E+00
         -1   -1    0    0    0  501 -0.00000000000E+00  0.00000000000E+00  0.10395348712E+04  0.10395348712E+04  0.50400000000E-02 0.  1.
          1   -1    0    0  501    0  0.00000000000E+00 -0.00000000000E+00 -0.12802426426E+04  0.12802426426E+04  0.50400000000E-02 0. -1.
    8880022    1    1    2    0    0 -0.32771361072E+03 -0.31407523831E+03 -0.11755380778E+04  0.12693781514E+04  0.15294330000E+03 0.  0.
    8880022    1    1    2    0    0  0.32771361072E+03  0.31407523831E+03  0.93483030634E+03  0.10503993625E+04  0.15294330000E+03 0.  0.
<mgrwt>
<rscale>  0 0.47898969E+03</rscale>
<asrwt>0</asrwt>
<pdfrwt beam="1">  1        1 0.19696041E+00 0.47898969E+03</pdfrwt>
<pdfrwt beam="2">  1       -1 0.15992844E+00 0.47898969E+03</pdfrwt>
<totfact> 0.30276896E+00</totfact>
</mgrwt>
</event>
<event>
 4    1  0.4964158E-009  0.8498075E+03  0.7818608E-02  0.9490595E-01
         -1   -1    0    0    0  501 -0.00000000000E+00  0.00000000000E+00  0.64794880988E+03  0.64794880989E+03  0.50400000000E-02 0.  1.
          1   -1    0    0  501    0  0.00000000000E+00 -0.00000000000E+00 -0.26493275014E+04  0.26493275014E+04  0.50400000000E-02 0. -1.
    8880022    1    1    2    0    0  0.80952975798E+03 -0.20842924215E+03 -0.22555049502E+04  0.24102853381E+04  0.15294330000E+03 0.  0.
    8880022    1    1    2    0    0 -0.80952975798E+03  0.20842924215E+03  0.25412625867E+03  0.88699097312E+03  0.15294330000E+03 0.  0.
<mgrwt>
<rscale>  0 0.84980753E+03</rscale>
<asrwt>0</asrwt>
<pdfrwt beam="1">  1        1 0.40758884E+00 0.84980753E+03</pdfrwt>
<pdfrwt beam="2">  1       -1 0.99684433E-01 0.84980753E+03</pdfrwt>
<totfact> 0.10725413E+00</totfact>
</mgrwt>
</event>
<event>
 4    1  0.4964158E-009  0.1070647E+04  0.7818608E-02  0.9234284E-01
          1   -1    0    0  501    0  0.00000000000E+00  0.00000000000E+00  0.10604534171E+04  0.10604534171E+04  0.50400000000E-02 0. -1.
         -1   -1    0    0    0  501 -0.00000000000E+00 -0.00000000000E+00 -0.19889858515E+04  0.19889858515E+04  0.50400000000E-02 0.  1.
    8880022    1    1    2    0    0  0.68787360927E+02  0.10574311788E+04  0.56595049594E+03  0.12110260178E+04  0.15294330000E+03 0.  0.
    8880022    1    1    2    0    0 -0.68787360927E+02 -0.10574311788E+04 -0.14944829303E+04  0.18384132509E+04  0.15294330000E+03 0.  0.
<mgrwt>
<rscale>  0 0.10706466E+04</rscale>
<asrwt>0</asrwt>
<pdfrwt beam="1">  1        1 0.16314668E+00 0.10706466E+04</pdfrwt>
<pdfrwt beam="2">  1       -1 0.30599782E+00 0.10706466E+04</pdfrwt>
<totfact> 0.41175760E-01</totfact>
</mgrwt>
</event>
<event>
 4    1  0.4964158E-009  0.9652340E+03  0.7818608E-02  0.9347519E-01
         -1   -1    0    0    0  501 -0.00000000000E+00  0.00000000000E+00  0.88502895355E+03  0.88502895357E+03  0.50400000000E-02 0.  1.
          1   -1    0    0  501    0  0.00000000000E+00 -0.00000000000E+00 -0.13956590826E+04  0.13956590826E+04  0.50400000000E-02 0. -1.
    8880022    1    1    2    0    0  0.87281008057E+03  0.38273698252E+03  0.30996356986E+03  0.10137820783E+04  0.15294330000E+03 0.  0.
    8880022    1    1    2    0    0 -0.87281008057E+03 -0.38273698252E+03 -0.82059369892E+03  0.12669059579E+04  0.15294330000E+03 0.  0.
<mgrwt>
<rscale>  0 0.96523401E+03</rscale>
<asrwt>0</asrwt>
<pdfrwt beam="1">  1        1 0.21471678E+00 0.96523401E+03</pdfrwt>
<pdfrwt beam="2">  1       -1 0.13615830E+00 0.96523401E+03</pdfrwt>
<totfact> 0.35183139E+00</totfact>
</mgrwt>
</event>
<event>
 4    1  0.4964158E-009  0.4004020E+03  0.7818608E-02  0.1043641E+00
         -1   -1    0    0    0  501 -0.00000000000E+00  0.00000000000E+00  0.65594406461E+03  0.65594406463E+03  0.50400000000E-02 0.  1.
          1   -1    0    0  501    0  0.00000000000E+00 -0.00000000000E+00 -0.11599315942E+04  0.11599315942E+04  0.50400000000E-02 0. -1.
    8880022    1    1    2    0    0 -0.86303832930E+02 -0.35983576291E+03  0.55463428022E+03  0.68406210658E+03  0.15294330000E+03 0.  0.
    8880022    1    1    2    0    0  0.86303832930E+02  0.35983576291E+03 -0.10586218098E+04  0.11318135523E+04  0.15294330000E+03 0.  0.
<mgrwt>
<rscale>  0 0.40040202E+03</rscale>
<asrwt>0</asrwt>
<pdfrwt beam="1">  1        1 0.17845101E+00 0.40040202E+03</pdfrwt>
<pdfrwt beam="2">  1       -1 0.10091447E+00 0.40040202E+03</pdfrwt>
<totfact> 0.11795795E+01</totfact>
</mgrwt>
</event>
<event>
 4    1  0.4964158E-009  0.5149755E+03  0.7818608E-02  0.1009942E+00
         -1   -1    0    0    0  501 -0.00000000000E+00  0.00000000000E+00  0.84168362132E+03  0.84168362133E+03  0.50400000000E-02 0.  1.
          1   -1    0    0  501    0  0.00000000000E+00 -0.00000000000E+00 -0.64071191631E+03  0.64071191633E+03  0.50400000000E-02 0. -1.
    8880022    1    1    2    0    0 -0.13353880363E+03 -0.47326049241E+03 -0.42791624705E+03  0.66956110495E+03  0.15294330000E+03 0.  0.
    8880022    1    1    2    0    0  0.13353880363E+03  0.47326049241E+03  0.62888795206E+03  0.81283443272E+03  0.15294330000E+03 0.  1.
<mgrwt>
<rscale>  0 0.51497549E+03</rscale>
<asrwt>0</asrwt>
<pdfrwt beam="1">  1        1 0.98571064E-01 0.51497549E+03</pdfrwt>
<pdfrwt beam="2">  1       -1 0.12948979E+00 0.51497549E+03</pdfrwt>
<totfact> 0.16924955E+01</totfact>
</mgrwt>
</event>
<event>
 4    1  0.4964158E-009  0.1316660E+04  0.7818608E-02  0.9016457E-01
         -1   -1    0    0    0  501 -0.00000000000E+00  0.00000000000E+00  0.82290199300E+03  0.82290199302E+03  0.50400000000E-02 0.  1.
          1   -1    0    0  501    0  0.00000000000E+00 -0.00000000000E+00 -0.33930921843E+04  0.33930921843E+04  0.50400000000E-02 0. -1.
    8880022    1    1    2    0    0 -0.13073828601E+04 -0.30846107135E+02  0.12866547286E+02  0.13167226838E+04  0.15294330000E+03 0.  0.
    8880022    1    1    2    0    0  0.13073828601E+04  0.30846107135E+02 -0.25830567386E+04  0.28992714935E+04  0.15294330000E+03 0.  0.
<mgrwt>
<rscale>  0 0.13166598E+04</rscale>
<asrwt>0</asrwt>
<pdfrwt beam="1">  1        1 0.52201417E+00 0.13166598E+04</pdfrwt>
<pdfrwt beam="2">  1       -1 0.12660031E+00 0.13166598E+04</pdfrwt>
<totfact> 0.16132193E-01</totfact>
</mgrwt>
</event>
<event>
 4    1  0.4964158E-009  0.3686416E+03  0.7818608E-02  0.1055214E+00
         -1   -1    0    0    0  501 -0.00000000000E+00  0.00000000000E+00  0.59098646254E+03  0.59098646257E+03  0.50400000000E-02 0.  1.
          1   -1    0    0  501    0  0.00000000000E+00 -0.00000000000E+00 -0.71364815116E+03  0.71364815118E+03  0.50400000000E-02 0. -1.
    8880022    1    1    2    0    0  0.19379776506E+03 -0.27376526861E+03 -0.59836828553E+03  0.70280954332E+03  0.15294330000E+03 0.  0.
    8880022    1    1    2    0    0 -0.19379776506E+03  0.27376526861E+03  0.47570659691E+03  0.60182507043E+03  0.15294330000E+03 0.  0.
<mgrwt>
<rscale>  0 0.36864163E+03</rscale>
<asrwt>0</asrwt>
<pdfrwt beam="1">  1        1 0.10979202E+00 0.36864163E+03</pdfrwt>
<pdfrwt beam="2">  1       -1 0.90920994E-01 0.36864163E+03</pdfrwt>
<totfact> 0.33801368E+01</totfact>
</mgrwt>
</event>
<event>
 4    1  0.4964158E-009  0.3150197E+03  0.7818608E-02  0.1077964E+00
         -1   -1    0    0    0  501 -0.00000000000E+00  0.00000000000E+00  0.60578340019E+03  0.60578340021E+03  0.50400000000E-02 0.  1.
          1   -1    0    0  501    0  0.00000000000E+00 -0.00000000000E+00 -0.30261943896E+04  0.30261943896E+04  0.50400000000E-02 0. -1.
    8880022    1    1    2    0    0  0.21304944339E+03 -0.17451558638E+03 -0.29763581976E+04  0.29929827144E+04  0.15294330000E+03 0.  0.
    8880022    1    1    2    0    0 -0.21304944339E+03  0.17451558638E+03  0.55594720815E+03  0.63899507547E+03  0.15294330000E+03 0.  1.
<mgrwt>
<rscale>  0 0.31501969E+03</rscale>
<asrwt>0</asrwt>
<pdfrwt beam="1">  1        1 0.46556836E+00 0.31501969E+03</pdfrwt>
<pdfrwt beam="2">  1       -1 0.93197448E-01 0.31501969E+03</pdfrwt>
<totfact> 0.80962577E-01</totfact>
</mgrwt>
</event>
<event>
 4    1  0.4964158E-009  0.7996189E+03  0.7818608E-02  0.9560569E-01
         -1   -1    0    0    0  501 -0.00000000000E+00  0.00000000000E+00  0.61145725684E+03  0.61145725686E+03  0.50400000000E-02 0.  1.
          1   -1    0    0  501    0  0.00000000000E+00 -0.00000000000E+00 -0.22061557044E+04  0.22061557044E+04  0.50400000000E-02 0. -1.
    8880022    1    1    2    0    0 -0.18430240681E+02  0.78463946110E+03  0.22441511284E+03  0.83051342769E+03  0.15294330000E+03 0.  0.
    8880022    1    1    2    0    0  0.18430240681E+02 -0.78463946110E+03 -0.18191135603E+04  0.19870995335E+04  0.15294330000E+03 0. -1.
<mgrwt>
<rscale>  0 0.79961892E+03</rscale>
<asrwt>0</asrwt>
<pdfrwt beam="1">  1        1 0.33940857E+00 0.79961892E+03</pdfrwt>
<pdfrwt beam="2">  1       -1 0.94070348E-01 0.79961892E+03</pdfrwt>
<totfact> 0.24736914E+00</totfact>
</mgrwt>
</event>
<event>
 4    1  0.4964158E-009  0.5681543E+03  0.7818608E-02  0.9973771E-01
         -1   -1    0    0    0  501 -0.00000000000E+00  0.00000000000E+00  0.39490403769E+03  0.39490403772E+03  0.50400000000E-02 0.  1.
          1   -1    0    0  501    0  0.00000000000E+00 -0.00000000000E+00 -0.13836480269E+04  0.13836480269E+04  0.50400000000E-02 0. -1.
    8880022    1    1    2    0    0 -0.47637660214E+03 -0.26920816487E+03 -0.10632543544E+04  0.12055327363E+04  0.15294330000E+03 0.  0.
    8880022    1    1    2    0    0  0.47637660214E+03  0.26920816487E+03  0.74510365201E+02  0.57301932833E+03  0.15294330000E+03 0.  0.
<mgrwt>
<rscale>  0 0.56815434E+03</rscale>
<asrwt>0</asrwt>
<pdfrwt beam="1">  1        1 0.21286893E+00 0.56815434E+03</pdfrwt>
<pdfrwt beam="2">  1       -1 0.60754468E-01 0.56815434E+03</pdfrwt>
<totfact> 0.22983437E+01</totfact>
</mgrwt>
</event>
<event>
 4    1  0.4964158E-009  0.4816797E+03  0.7818608E-02  0.1018675E+00
         -1   -1    0    0    0  501 -0.00000000000E+00  0.00000000000E+00  0.50150039188E+03  0.50150039191E+03  0.50400000000E-02 0.  1.
          1   -1    0    0  501    0  0.00000000000E+00 -0.00000000000E+00 -0.12921965456E+04  0.12921965456E+04  0.50400000000E-02 0. -1.
    8880022    1    1    2    0    0  0.45646807846E+03 -0.16143165985E+02  0.32323526213E+03  0.58008309419E+03  0.15294330000E+03 0.  0.
    8880022    1    1    2    0    0 -0.45646807846E+03  0.16143165985E+02 -0.11139314158E+04  0.12136138433E+04  0.15294330000E+03 0.  0.
<mgrwt>
<rscale>  0 0.48167973E+03</rscale>
<asrwt>0</asrwt>
<pdfrwt beam="1">  1        1 0.19879947E+00 0.48167973E+03</pdfrwt>
<pdfrwt beam="2">  1       -1 0.77153907E-01 0.48167973E+03</pdfrwt>
<totfact> 0.16679680E+01</totfact>
</mgrwt>
</event>
<event>
 4    1  0.4964158E-009  0.1227828E+04  0.7818608E-02  0.9088842E-01
          1   -1    0    0  501    0  0.00000000000E+00  0.00000000000E+00  0.27097574627E+04  0.27097574627E+04  0.50400000000E-02 0. -1.
         -1   -1    0    0    0  501 -0.00000000000E+00 -0.00000000000E+00 -0.17645882149E+04  0.17645882149E+04  0.50400000000E-02 0.  1.
    8880022    1    1    2    0    0 -0.23138105361E+03 -0.11960901530E+04 -0.13786224502E+04  0.18461203534E+04  0.15294330000E+03 0.  0.
    8880022    1    1    2    0    0  0.23138105361E+03  0.11960901530E+04  0.23237916980E+04  0.26282253242E+04  0.15294330000E+03 0.  0.
<mgrwt>
<rscale>  0 0.12278276E+04</rscale>
<asrwt>0</asrwt>
<pdfrwt beam="1">  1        1 0.41688576E+00 0.12278276E+04</pdfrwt>
<pdfrwt beam="2">  1       -1 0.27147511E+00 0.12278276E+04</pdfrwt>
<totfact> 0.48102449E-02</totfact>
</mgrwt>
</event>
<event>
 4    1  0.4964158E-009  0.8888084E+03  0.7818608E-02  0.9439681E-01
          1   -1    0    0  501    0  0.00000000000E+00  0.00000000000E+00  0.10495708988E+04  0.10495708988E+04  0.50400000000E-02 0. -1.
         -1   -1    0    0    0  501 -0.00000000000E+00 -0.00000000000E+00 -0.99497332200E+03  0.99497332202E+03  0.50400000000E-02 0.  1.
    8880022    1    1    2    0    0  0.86624248232E+03 -0.12732903879E+03  0.53177490389E+03  0.10357436573E+04  0.15294330000E+03 0.  0.
    8880022    1    1    2    0    0 -0.86624248232E+03  0.12732903879E+03 -0.47717732713E+03  0.10088005635E+04  0.15294330000E+03 0.  0.
<mgrwt>
<rscale>  0 0.88880840E+03</rscale>
<asrwt>0</asrwt>
<pdfrwt beam="1">  1        1 0.16147245E+00 0.88880840E+03</pdfrwt>
<pdfrwt beam="2">  1       -1 0.15307282E+00 0.88880840E+03</pdfrwt>
<totfact> 0.46499493E+00</totfact>
</mgrwt>
</event>
<event>
 4    1  0.4964158E-009  0.8571264E+03  0.7818608E-02  0.9480822E-01
         -1   -1    0    0    0  501 -0.00000000000E+00  0.00000000000E+00  0.15466031353E+04  0.15466031353E+04  0.50400000000E-02 0.  1.
          1   -1    0    0  501    0  0.00000000000E+00 -0.00000000000E+00 -0.86875589648E+03  0.86875589649E+03  0.50400000000E-02 0. -1.
    8880022    1    1    2    0    0  0.13868819830E+02 -0.84325663448E+03  0.11519523994E+04  0.14358482090E+04  0.15294330000E+03 0.  0.
    8880022    1    1    2    0    0 -0.13868819830E+02  0.84325663448E+03 -0.47410516056E+03  0.97951082283E+03  0.15294330000E+03 0.  0.
<mgrwt>
<rscale>  0 0.85712645E+03</rscale>
<asrwt>0</asrwt>
<pdfrwt beam="1">  1        1 0.13365475E+00 0.85712645E+03</pdfrwt>
<pdfrwt beam="2">  1       -1 0.23793894E+00 0.85712645E+03</pdfrwt>
<totfact> 0.16606134E+00</totfact>
</mgrwt>
</event>
<event>
 4    1  0.4964158E-009  0.3579263E+03  0.7818608E-02  0.1059408E+00
         -1   -1    0    0    0  501 -0.00000000000E+00  0.00000000000E+00  0.24104082402E+03  0.24104082407E+03  0.50400000000E-02 0.  1.
          1   -1    0    0  501    0  0.00000000000E+00 -0.00000000000E+00 -0.98919399052E+03  0.98919399053E+03  0.50400000000E-02 0. -1.
    8880022    1    1    2    0    0 -0.31924493008E+03  0.52936092373E+02 -0.79249308496E+03  0.86957259500E+03  0.15294330000E+03 0.  0.
    8880022    1    1    2    0    0  0.31924493008E+03 -0.52936092373E+02  0.44339918460E+02  0.36066221960E+03  0.15294330000E+03 0.  0.
<mgrwt>
<rscale>  0 0.35792626E+03</rscale>
<asrwt>0</asrwt>
<pdfrwt beam="1">  1        1 0.15218369E+00 0.35792626E+03</pdfrwt>
<pdfrwt beam="2">  1       -1 0.37083204E-01 0.35792626E+03</pdfrwt>
<totfact> 0.11468625E+02</totfact>
</mgrwt>
</event>
<event>
 4    1  0.4964158E-009  0.7823439E+03  0.7818608E-02  0.9585931E-01
          1   -1    0    0  501    0  0.00000000000E+00  0.00000000000E+00  0.84332089672E+03  0.84332089674E+03  0.50400000000E-02 0. -1.
         -1   -1    0    0    0  501 -0.00000000000E+00 -0.00000000000E+00 -0.12441916268E+04  0.12441916268E+04  0.50400000000E-02 0.  1.
    8880022    1    1    2    0    0  0.68433230588E+03  0.34692882964E+03  0.47330807053E+03  0.91437547011E+03  0.15294330000E+03 0.  0.
    8880022    1    1    2    0    0 -0.68433230588E+03 -0.34692882964E+03 -0.87417880060E+03  0.11731370534E+04  0.15294330000E+03 0.  0.
<mgrwt>
<rscale>  0 0.78234390E+03</rscale>
<asrwt>0</asrwt>
<pdfrwt beam="1">  1        1 0.12974168E+00 0.78234390E+03</pdfrwt>
<pdfrwt beam="2">  1       -1 0.19141410E+00 0.78234390E+03</pdfrwt>
<totfact> 0.36211031E+00</totfact>
</mgrwt>
</event>
<event>
 4    1  0.4964158E-009  0.3339653E+03  0.7818608E-02  0.1069396E+00
          1   -1    0    0  501    0  0.00000000000E+00  0.00000000000E+00  0.92733336026E+03  0.92733336028E+03  0.50400000000E-02 0. -1.
         -1   -1    0    0    0  501 -0.00000000000E+00 -0.00000000000E+00 -0.29912033233E+03  0.29912033237E+03  0.50400000000E-02 0.  1.
    8880022    1    1    2    0    0  0.15977653693E+03  0.25022515144E+03  0.78828284937E+03  0.85610903032E+03  0.15294330000E+03 0.  0.
    8880022    1    1    2    0    0 -0.15977653693E+03 -0.25022515144E+03 -0.16006982143E+03  0.37034466233E+03  0.15294330000E+03 0.  0.
<mgrwt>
<rscale>  0 0.33396530E+03</rscale>
<asrwt>0</asrwt>
<pdfrwt beam="1">  1        1 0.14266667E+00 0.33396530E+03</pdfrwt>
<pdfrwt beam="2">  1       -1 0.46018513E-01 0.33396530E+03</pdfrwt>
<totfact> 0.87123390E+01</totfact>
</mgrwt>
</event>
<event>
 4    1  0.4964158E-009  0.7732521E+03  0.7818608E-02  0.9599561E-01
         -1   -1    0    0    0  501 -0.00000000000E+00  0.00000000000E+00  0.19121413348E+04  0.19121413348E+04  0.50400000000E-02 0.  1.
          1   -1    0    0  501    0  0.00000000000E+00 -0.00000000000E+00 -0.56901564716E+03  0.56901564718E+03  0.50400000000E-02 0. -1.
    8880022    1    1    2    0    0 -0.36210252883E+02 -0.75711032205E+03 -0.16106920377E+03  0.78984945628E+03  0.15294330000E+03 0.  0.
    8880022    1    1    2    0    0  0.36210252883E+02  0.75711032205E+03  0.15041948914E+04  0.16913075257E+04  0.15294330000E+03 0.  0.
<mgrwt>
<rscale>  0 0.77325214E+03</rscale>
<asrwt>0</asrwt>
<pdfrwt beam="1">  1        1 0.87540869E-01 0.77325214E+03</pdfrwt>
<pdfrwt beam="2">  1       -1 0.29417559E+00 0.77325214E+03</pdfrwt>
<totfact> 0.13967150E+00</totfact>
</mgrwt>
</event>
<event>
 4    1  0.4964158E-009  0.3885491E+03  0.7818608E-02  0.1047818E+00
         -1   -1    0    0    0  501 -0.00000000000E+00  0.00000000000E+00  0.28620753608E+03  0.28620753613E+03  0.50400000000E-02 0.  1.
          1   -1    0    0  501    0  0.00000000000E+00 -0.00000000000E+00 -0.17880325852E+04  0.17880325852E+04  0.50400000000E-02 0. -1.
    8880022    1    1    2    0    0  0.27775786841E+02  0.35610001334E+03  0.11989230985E+03  0.40662578965E+03  0.15294330000E+03 0.  0.
    8880022    1    1    2    0    0 -0.27775786841E+02 -0.35610001334E+03 -0.16217173590E+04  0.16676143317E+04  0.15294330000E+03 0. -1.
<mgrwt>
<rscale>  0 0.38854905E+03</rscale>
<asrwt>0</asrwt>
<pdfrwt beam="1">  1        1 0.27508193E+00 0.38854905E+03</pdfrwt>
<pdfrwt beam="2">  1       -1 0.44031930E-01 0.38854905E+03</pdfrwt>
<totfact> 0.23497920E+01</totfact>
</mgrwt>
</event>
<event>
 4    1  0.4964158E-009  0.6177443E+03  0.7818608E-02  0.9869261E-01
         -1   -1    0    0    0  501 -0.00000000000E+00  0.00000000000E+00  0.10573533399E+04  0.10573533399E+04  0.50400000000E-02 0.  1.
          1   -1    0    0  501    0  0.00000000000E+00 -0.00000000000E+00 -0.81719901427E+03  0.81719901428E+03  0.50400000000E-02 0. -1.
    8880022    1    1    2    0    0 -0.55434342352E+03  0.22565408055E+03  0.82044190323E+03  0.10270019303E+04  0.15294330000E+03 0.  0.
    8880022    1    1    2    0    0  0.55434342352E+03 -0.22565408055E+03 -0.58028757761E+03  0.84755042387E+03  0.15294330000E+03 0.  0.
<mgrwt>
<rscale>  0 0.61774432E+03</rscale>
<asrwt>0</asrwt>
<pdfrwt beam="1">  1        1 0.12572293E+00 0.61774432E+03</pdfrwt>
<pdfrwt beam="2">  1       -1 0.16266974E+00 0.61774432E+03</pdfrwt>
<totfact> 0.62968542E+00</totfact>
</mgrwt>
</event>
<event>
 4    1  0.4964158E-009  0.8049866E+03  0.7818608E-02  0.9552827E-01
         -1   -1    0    0    0  501 -0.00000000000E+00  0.00000000000E+00  0.93582983828E+03  0.93582983830E+03  0.50400000000E-02 0.  1.
          1   -1    0    0  501    0  0.00000000000E+00 -0.00000000000E+00 -0.29077191354E+04  0.29077191354E+04  0.50400000000E-02 0. -1.
    8880022    1    1    2    0    0 -0.29346407071E+03 -0.73381916870E+03  0.69147103753E+03  0.10611953552E+04  0.15294330000E+03 0.  1.
    8880022    1    1    2    0    0  0.29346407071E+03  0.73381916870E+03 -0.26633603346E+04  0.27823536184E+04  0.15294330000E+03 0.  0.
<mgrwt>
<rscale>  0 0.80498658E+03</rscale>
<asrwt>0</asrwt>
<pdfrwt beam="1">  1        1 0.44734140E+00 0.80498658E+03</pdfrwt>
<pdfrwt beam="2">  1       -1 0.14397382E+00 0.80498658E+03</pdfrwt>
<totfact> 0.29024904E-01</totfact>
</mgrwt>
</event>
<event>
 4    1  0.4964158E-009  0.9784748E+03  0.7818608E-02  0.9332474E-01
         -1   -1    0    0    0  501 -0.00000000000E+00  0.00000000000E+00  0.93482553063E+03  0.93482553064E+03  0.50400000000E-02 0.  1.
          1   -1    0    0  501    0  0.00000000000E+00 -0.00000000000E+00 -0.11481978528E+04  0.11481978528E+04  0.50400000000E-02 0. -1.
    8880022    1    1    2    0    0  0.96137102938E+03 -0.98929089479E+02  0.23563144519E+03  0.10064467457E+04  0.15294330000E+03 0.  0.
    8880022    1    1    2    0    0 -0.96137102938E+03  0.98929089479E+02 -0.44900376731E+03  0.10765766378E+04  0.15294330000E+03 0.  0.
<mgrwt>
<rscale>  0 0.97847477E+03</rscale>
<asrwt>0</asrwt>
<pdfrwt beam="1">  1        1 0.17664582E+00 0.97847477E+03</pdfrwt>
<pdfrwt beam="2">  1       -1 0.14381931E+00 0.97847477E+03</pdfrwt>
<totfact> 0.45819569E+00</totfact>
</mgrwt>
</event>
<event>
 4    1  0.4964158E-009  0.3167870E+03  0.7818608E-02  0.1077138E+00
         -1   -1    0    0    0  501 -0.00000000000E+00  0.00000000000E+00  0.95591100034E+03  0.95591100036E+03  0.50400000000E-02 0.  1.
          1   -1    0    0  501    0  0.00000000000E+00 -0.00000000000E+00 -0.24695058054E+03  0.24695058059E+03  0.50400000000E-02 0. -1.
    8880022    1    1    2    0    0 -0.27137203052E+03  0.57615608070E+02 -0.10153138543E+03  0.33265990513E+03  0.15294330000E+03 0.  0.
    8880022    1    1    2    0    0  0.27137203052E+03 -0.57615608070E+02  0.81049180523E+03  0.87020167582E+03  0.15294330000E+03 0.  0.
<mgrwt>
<rscale>  0 0.31678698E+03</rscale>
<asrwt>0</asrwt>
<pdfrwt beam="1">  1        1 0.37992398E-01 0.31678698E+03</pdfrwt>
<pdfrwt beam="2">  1       -1 0.14706323E+00 0.31678698E+03</pdfrwt>
<totfact> 0.44692907E+01</totfact>
</mgrwt>
</event>
<event>
 4    1  0.4964158E-009  0.3900592E+03  0.7818608E-02  0.1047277E+00
         -1   -1    0    0    0  501 -0.00000000000E+00  0.00000000000E+00  0.29161957282E+03  0.29161957286E+03  0.50400000000E-02 0.  1.
          1   -1    0    0  501    0  0.00000000000E+00 -0.00000000000E+00 -0.84379446126E+03  0.84379446127E+03  0.50400000000E-02 0. -1.
    8880022    1    1    2    0    0  0.35406111985E+03 -0.58268701293E+02 -0.62682195869E+03  0.73827632974E+03  0.15294330000E+03 0.  0.
    8880022    1    1    2    0    0 -0.35406111985E+03  0.58268701293E+02  0.74647070257E+02  0.39713770440E+03  0.15294330000E+03 0.  0.
<mgrwt>
<rscale>  0 0.39005919E+03</rscale>
<asrwt>0</asrwt>
<pdfrwt beam="1">  1        1 0.12981453E+00 0.39005919E+03</pdfrwt>
<pdfrwt beam="2">  1       -1 0.44864550E-01 0.39005919E+03</pdfrwt>
<totfact> 0.10553569E+02</totfact>
</mgrwt>
</event>
<event>
 4    1  0.4964158E-009  0.4930865E+03  0.7818608E-02  0.1015599E+00
         -1   -1    0    0    0  501 -0.00000000000E+00  0.00000000000E+00  0.58872751345E+03  0.58872751347E+03  0.50400000000E-02 0.  1.
          1   -1    0    0  501    0  0.00000000000E+00 -0.00000000000E+00 -0.18450022253E+04  0.18450022254E+04  0.50400000000E-02 0. -1.
    8880022    1    1    2    0    0  0.33528362489E+03 -0.32760879904E+03 -0.17001955819E+04  0.17702540225E+04  0.15294330000E+03 0.  0.
    8880022    1    1    2    0    0 -0.33528362489E+03  0.32760879904E+03  0.44392087001E+03  0.66347571634E+03  0.15294330000E+03 0.  0.
<mgrwt>
<rscale>  0 0.49308649E+03</rscale>
<asrwt>0</asrwt>
<pdfrwt beam="1">  1        1 0.28384649E+00 0.49308649E+03</pdfrwt>
<pdfrwt beam="2">  1       -1 0.90573465E-01 0.49308649E+03</pdfrwt>
<totfact> 0.50072306E+00</totfact>
</mgrwt>
</event>
<event>
 4    1  0.4964158E-009  0.2942493E+03  0.7818608E-02  0.1088151E+00
         -1   -1    0    0    0  501 -0.00000000000E+00  0.00000000000E+00  0.31141108350E+03  0.31141108354E+03  0.50400000000E-02 0.  1.
          1   -1    0    0  501    0  0.00000000000E+00 -0.00000000000E+00 -0.48595039781E+03  0.48595039784E+03  0.50400000000E-02 0. -1.
    8880022    1    1    2    0    0  0.15708747624E+03  0.19625116948E+03  0.17351040991E+03  0.34159700244E+03  0.15294330000E+03 0.  0.
    8880022    1    1    2    0    0 -0.15708747624E+03 -0.19625116948E+03 -0.34804972422E+03  0.45576447894E+03  0.15294330000E+03 0.  0.
<mgrwt>
<rscale>  0 0.29424930E+03</rscale>
<asrwt>0</asrwt>
<pdfrwt beam="1">  1        1 0.74761600E-01 0.29424930E+03</pdfrwt>
<pdfrwt beam="2">  1       -1 0.47909397E-01 0.29424930E+03</pdfrwt>
<totfact> 0.21006539E+02</totfact>
</mgrwt>
</event>
<event>
 4    1  0.4964158E-009  0.3074857E+03  0.7818608E-02  0.1081557E+00
          1   -1    0    0  501    0  0.00000000000E+00  0.00000000000E+00  0.56290304791E+03  0.56290304794E+03  0.50400000000E-02 0. -1.
         -1   -1    0    0    0  501 -0.00000000000E+00 -0.00000000000E+00 -0.24435651196E+03  0.24435651201E+03  0.50400000000E-02 0.  1.
    8880022    1    1    2    0    0  0.77503244145E+02  0.25524308322E+03 -0.66408611147E+02  0.31457517549E+03  0.15294330000E+03 0.  1.
    8880022    1    1    2    0    0 -0.77503244145E+02 -0.25524308322E+03  0.38495514710E+03  0.49268438445E+03  0.15294330000E+03 0.  0.
<mgrwt>
<rscale>  0 0.30748567E+03</rscale>
<asrwt>0</asrwt>
<pdfrwt beam="1">  1        1 0.86600468E-01 0.30748567E+03</pdfrwt>
<pdfrwt beam="2">  1       -1 0.37593310E-01 0.30748567E+03</pdfrwt>
<totfact> 0.26635524E+02</totfact>
</mgrwt>
</event>
<event>
 4    1  0.4964158E-009  0.9442809E+03  0.7818608E-02  0.9371860E-01
         -1   -1    0    0    0  501 -0.00000000000E+00  0.00000000000E+00  0.25919019082E+04  0.25919019082E+04  0.50400000000E-02 0.  1.
          1   -1    0    0  501    0  0.00000000000E+00 -0.00000000000E+00 -0.95630234201E+03  0.95630234202E+03  0.50400000000E-02 0. -1.
    8880022    1    1    2    0    0 -0.65691863033E+03  0.66085759652E+03  0.22373697999E+04  0.24284748556E+04  0.15294330000E+03 0.  0.
    8880022    1    1    2    0    0  0.65691863033E+03 -0.66085759652E+03 -0.60177023378E+03  0.11197293946E+04  0.15294330000E+03 0.  0.
<mgrwt>
<rscale>  0 0.94428094E+03</rscale>
<asrwt>0</asrwt>
<pdfrwt beam="1">  1        1 0.14712344E+00 0.94428094E+03</pdfrwt>
<pdfrwt beam="2">  1       -1 0.39875414E+00 0.94428094E+03</pdfrwt>
<totfact> 0.12387475E-01</totfact>
</mgrwt>
</event>
<event>
 4    1  0.4964158E-009  0.8296948E+03  0.7818608E-02  0.9518003E-01
          1   -1    0    0  501    0  0.00000000000E+00  0.00000000000E+00  0.13819712168E+04  0.13819712168E+04  0.50400000000E-02 0. -1.
         -1   -1    0    0    0  501 -0.00000000000E+00 -0.00000000000E+00 -0.10438005104E+04  0.10438005104E+04  0.50400000000E-02 0.  1.
    8880022    1    1    2    0    0  0.81540379061E+03 -0.10886869970E+02 -0.70787239756E+03  0.10906313997E+04  0.15294330000E+03 0.  0.
    8880022    1    1    2    0    0 -0.81540379061E+03  0.10886869970E+02  0.10460431040E+04  0.13351403275E+04  0.15294330000E+03 0.  0.
<mgrwt>
<rscale>  0 0.82969483E+03</rscale>
<asrwt>0</asrwt>
<pdfrwt beam="1">  1        1 0.21261096E+00 0.82969483E+03</pdfrwt>
<pdfrwt beam="2">  1       -1 0.16058469E+00 0.82969483E+03</pdfrwt>
<totfact> 0.23581205E+00</totfact>
</mgrwt>
</event>
<event>
 4    1  0.4964158E-009  0.7102373E+03  0.7818608E-02  0.9699884E-01
         -1   -1    0    0    0  501 -0.00000000000E+00  0.00000000000E+00  0.11053588429E+04  0.11053588429E+04  0.50400000000E-02 0.  1.
          1   -1    0    0  501    0  0.00000000000E+00 -0.00000000000E+00 -0.18014874537E+04  0.18014874537E+04  0.50400000000E-02 0. -1.
    8880022    1    1    2    0    0 -0.54381364044E+03  0.43047887841E+03 -0.16039752276E+04  0.17541874256E+04  0.15294330000E+03 0.  0.
    8880022    1    1    2    0    0  0.54381364044E+03 -0.43047887841E+03  0.90784661682E+03  0.11526588710E+04  0.15294330000E+03 0.  0.
<mgrwt>
<rscale>  0 0.71023728E+03</rscale>
<asrwt>0</asrwt>
<pdfrwt beam="1">  1        1 0.27715192E+00 0.71023728E+03</pdfrwt>
<pdfrwt beam="2">  1       -1 0.17005521E+00 0.71023728E+03</pdfrwt>
<totfact> 0.10637984E+00</totfact>
</mgrwt>
</event>
<event>
 4    1  0.4964158E-009  0.1330875E+04  0.7818608E-02  0.9005433E-01
         -1   -1    0    0    0  501 -0.00000000000E+00  0.00000000000E+00  0.12017473834E+04  0.12017473835E+04  0.50400000000E-02 0.  1.
          1   -1    0    0  501    0  0.00000000000E+00 -0.00000000000E+00 -0.15634217405E+04  0.15634217405E+04  0.50400000000E-02 0. -1.
    8880022    1    1    2    0    0  0.10639843870E+04  0.78471192286E+03  0.15004614323E+03  0.13393061919E+04  0.15294330000E+03 0.  0.
    8880022    1    1    2    0    0 -0.10639843870E+04 -0.78471192286E+03 -0.51172050032E+03  0.14258629321E+04  0.15294330000E+03 0.  0.
<mgrwt>
<rscale>  0 0.13308746E+04</rscale>
<asrwt>0</asrwt>
<pdfrwt beam="1">  1        1 0.24052642E+00 0.13308746E+04</pdfrwt>
<pdfrwt beam="2">  1       -1 0.18488421E+00 0.13308746E+04</pdfrwt>
<totfact> 0.10960384E+00</totfact>
</mgrwt>
</event>
<event>
 4    1  0.4964158E-009  0.7981406E+03  0.7818608E-02  0.9562712E-01
         -1   -1    0    0    0  501 -0.00000000000E+00  0.00000000000E+00  0.14189948231E+04  0.14189948232E+04  0.50400000000E-02 0.  1.
          1   -1    0    0  501    0  0.00000000000E+00 -0.00000000000E+00 -0.87951044013E+03  0.87951044015E+03  0.50400000000E-02 0. -1.
    8880022    1    1    2    0    0  0.72843162028E+03 -0.28813898225E+03 -0.53438085521E+03  0.96051613727E+03  0.15294330000E+03 0.  0.
    8880022    1    1    2    0    0 -0.72843162028E+03  0.28813898225E+03  0.10738652382E+04  0.13379891260E+04  0.15294330000E+03 0.  0.
<mgrwt>
<rscale>  0 0.79814056E+03</rscale>
<asrwt>0</asrwt>
<pdfrwt beam="1">  1        1 0.13530930E+00 0.79814056E+03</pdfrwt>
<pdfrwt beam="2">  1       -1 0.21830689E+00 0.79814056E+03</pdfrwt>
<totfact> 0.22121084E+00</totfact>
</mgrwt>
</event>
<event>
 4    1  0.4964158E-009  0.1614994E+04  0.7818608E-02  0.8811389E-01
          1   -1    0    0  501    0  0.00000000000E+00  0.00000000000E+00  0.21361047100E+04  0.21361047100E+04  0.50400000000E-02 0. -1.
         -1   -1    0    0    0  501 -0.00000000000E+00 -0.00000000000E+00 -0.15120386870E+04  0.15120386870E+04  0.50400000000E-02 0.  1.
    8880022    1    1    2    0    0  0.14743787022E+04 -0.64110896821E+03 -0.48822209779E+03  0.16871768539E+04  0.15294330000E+03 0.  0.
    8880022    1    1    2    0    0 -0.14743787022E+04  0.64110896821E+03  0.11122881208E+04  0.19609665431E+04  0.15294330000E+03 0.  0.
<mgrwt>
<rscale>  0 0.16149938E+04</rscale>
<asrwt>0</asrwt>
<pdfrwt beam="1">  1        1 0.32863149E+00 0.16149938E+04</pdfrwt>
<pdfrwt beam="2">  1       -1 0.23262134E+00 0.16149938E+04</pdfrwt>
<totfact> 0.20338917E-01</totfact>
</mgrwt>
</event>
<event>
 4    1  0.4964158E-009  0.5296178E+03  0.7818608E-02  0.1006325E+00
          1   -1    0    0  501    0  0.00000000000E+00  0.00000000000E+00  0.13664027696E+04  0.13664027697E+04  0.50400000000E-02 0. -1.
         -1   -1    0    0    0  501 -0.00000000000E+00 -0.00000000000E+00 -0.62610076516E+03  0.62610076518E+03  0.50400000000E-02 0.  1.
    8880022    1    1    2    0    0  0.37375589085E+03 -0.34265130551E+03  0.11869131744E+04  0.12997145531E+04  0.15294330000E+03 0.  0.
    8880022    1    1    2    0    0 -0.37375589085E+03  0.34265130551E+03 -0.44661116988E+03  0.69278898172E+03  0.15294330000E+03 0.  0.
<mgrwt>
<rscale>  0 0.52961782E+03</rscale>
<asrwt>0</asrwt>
<pdfrwt beam="1">  1        1 0.21021581E+00 0.52961782E+03</pdfrwt>
<pdfrwt beam="2">  1       -1 0.96323196E-01 0.52961782E+03</pdfrwt>
<totfact> 0.90872348E+00</totfact>
</mgrwt>
</event>
<event>
 4    1  0.4964158E-009  0.4936931E+03  0.7818608E-02  0.1015438E+00
          1   -1    0    0  501    0  0.00000000000E+00  0.00000000000E+00  0.21454914701E+04  0.21454914701E+04  0.50400000000E-02 0. -1.
         -1   -1    0    0    0  501 -0.00000000000E+00 -0.00000000000E+00 -0.29148384235E+03  0.29148384240E+03  0.50400000000E-02 0.  1.
    8880022    1    1    2    0    0 -0.20609518477E+03  0.42174162946E+03 -0.24869758026E+02  0.49431911261E+03  0.15294330000E+03 0.  0.
    8880022    1    1    2    0    0  0.20609518477E+03 -0.42174162946E+03  0.18788773857E+04  0.19426561999E+04  0.15294330000E+03 0.  0.
<mgrwt>
<rscale>  0 0.49369310E+03</rscale>
<asrwt>0</asrwt>
<pdfrwt beam="1">  1        1 0.33007560E+00 0.49369310E+03</pdfrwt>
<pdfrwt beam="2">  1       -1 0.44843670E-01 0.49369310E+03</pdfrwt>
<totfact> 0.12857713E+01</totfact>
</mgrwt>
</event>
<event>
 4    1  0.4964158E-009  0.1362952E+04  0.7818608E-02  0.8981081E-01
         -1   -1    0    0    0  501 -0.00000000000E+00  0.00000000000E+00  0.13078236109E+04  0.13078236109E+04  0.50400000000E-02 0.  1.
          1   -1    0    0  501    0  0.00000000000E+00 -0.00000000000E+00 -0.25276889015E+04  0.25276889015E+04  0.50400000000E-02 0. -1.
    8880022    1    1    2    0    0  0.13538066126E+04  0.38130322411E+02  0.65935859199E+03  0.15140646194E+04  0.15294330000E+03 0.  0.
    8880022    1    1    2    0    0 -0.13538066126E+04 -0.38130322411E+02 -0.18792238826E+04  0.23214478930E+04  0.15294330000E+03 0.  0.
<mgrwt>
<rscale>  0 0.13629519E+04</rscale>
<asrwt>0</asrwt>
<pdfrwt beam="1">  1        1 0.38887521E+00 0.13629519E+04</pdfrwt>
<pdfrwt beam="2">  1       -1 0.20120363E+00 0.13629519E+04</pdfrwt>
<totfact> 0.18421398E-01</totfact>
</mgrwt>
</event>
<event>
 4    1  0.4964158E-009  0.5329001E+03  0.7818608E-02  0.1005531E+00
          1   -1    0    0  501    0  0.00000000000E+00  0.00000000000E+00  0.61491596753E+03  0.61491596755E+03  0.50400000000E-02 0. -1.
         -1   -1    0    0    0  501 -0.00000000000E+00 -0.00000000000E+00 -0.12922484553E+04  0.12922484554E+04  0.50400000000E-02 0.  1.
    8880022    1    1    2    0    0  0.39745223738E+03 -0.32034765224E+03  0.42575960662E+03  0.68209515094E+03  0.15294330000E+03 0.  0.
    8880022    1    1    2    0    0 -0.39745223738E+03  0.32034765224E+03 -0.11030920944E+04  0.12250692720E+04  0.15294330000E+03 0.  0.
<mgrwt>
<rscale>  0 0.53290013E+03</rscale>
<asrwt>0</asrwt>
<pdfrwt beam="1">  1        1 0.94602457E-01 0.53290013E+03</pdfrwt>
<pdfrwt beam="2">  1       -1 0.19880745E+00 0.53290013E+03</pdfrwt>
<totfact> 0.54507860E+00</totfact>
</mgrwt>
</event>
<event>
 4    1  0.4964158E-009  0.2027325E+04  0.7818608E-02  0.8593951E-01
         -1   -1    0    0    0  501 -0.00000000000E+00  0.00000000000E+00  0.19614642281E+04  0.19614642281E+04  0.50400000000E-02 0.  1.
          1   -1    0    0  501    0  0.00000000000E+00 -0.00000000000E+00 -0.24482525369E+04  0.24482525369E+04  0.50400000000E-02 0. -1.
    8880022    1    1    2    0    0 -0.30120213548E+03  0.19989824044E+04  0.59365593403E+03  0.21124564849E+04  0.15294330000E+03 0.  0.
    8880022    1    1    2    0    0  0.30120213548E+03 -0.19989824044E+04 -0.10804442428E+04  0.22972602801E+04  0.15294330000E+03 0.  0.
<mgrwt>
<rscale>  0 0.20273246E+04</rscale>
<asrwt>0</asrwt>
<pdfrwt beam="1">  1        1 0.37665424E+00 0.20273246E+04</pdfrwt>
<pdfrwt beam="2">  1       -1 0.30176373E+00 0.20273246E+04</pdfrwt>
<totfact> 0.41920179E-02</totfact>
</mgrwt>
</event>
<event>
 4    1  0.4964158E-009  0.5936205E+03  0.7818608E-02  0.9918731E-01
         -1   -1    0    0    0  501 -0.00000000000E+00  0.00000000000E+00  0.66209735245E+03  0.66209735247E+03  0.50400000000E-02 0.  1.
          1   -1    0    0  501    0  0.00000000000E+00 -0.00000000000E+00 -0.19053682990E+04  0.19053682990E+04  0.50400000000E-02 0. -1.
    8880022    1    1    2    0    0 -0.54908425873E+03  0.16583161350E+03 -0.17114258826E+04  0.18114535191E+04  0.15294330000E+03 0.  0.
    8880022    1    1    2    0    0  0.54908425873E+03 -0.16583161350E+03  0.46815493601E+03  0.75601213241E+03  0.15294330000E+03 0.  0.
<mgrwt>
<rscale>  0 0.59362050E+03</rscale>
<asrwt>0</asrwt>
<pdfrwt beam="1">  1        1 0.29313358E+00 0.59362050E+03</pdfrwt>
<pdfrwt beam="2">  1       -1 0.10186113E+00 0.59362050E+03</pdfrwt>
<totfact> 0.34242496E+00</totfact>
</mgrwt>
</event>
<event>
 4    1  0.4964158E-009  0.1684648E+04  0.7818608E-02  0.8770169E-01
          1   -1    0    0  501    0  0.00000000000E+00  0.00000000000E+00  0.20263488140E+04  0.20263488140E+04  0.50400000000E-02 0. -1.
         -1   -1    0    0    0  501 -0.00000000000E+00 -0.00000000000E+00 -0.15565310527E+04  0.15565310528E+04  0.50400000000E-02 0.  1.
    8880022    1    1    2    0    0 -0.15800617938E+04  0.56395963547E+03 -0.33215963114E+03  0.17170810744E+04  0.15294330000E+03 0.  0.
    8880022    1    1    2    0    0  0.15800617938E+04 -0.56395963547E+03  0.80197739234E+03  0.18657987923E+04  0.15294330000E+03 0.  0.
<mgrwt>
<rscale>  0 0.16846476E+04</rscale>
<asrwt>0</asrwt>
<pdfrwt beam="1">  1        1 0.31174597E+00 0.16846476E+04</pdfrwt>
<pdfrwt beam="2">  1       -1 0.23946631E+00 0.16846476E+04</pdfrwt>
<totfact> 0.21604597E-01</totfact>
</mgrwt>
</event>
<event>
 4    1  0.4964158E-009  0.1599024E+04  0.7818608E-02  0.8821148E-01
         -1   -1    0    0    0  501 -0.00000000000E+00  0.00000000000E+00  0.18725421880E+04  0.18725421880E+04  0.50400000000E-02 0.  1.
          1   -1    0    0  501    0  0.00000000000E+00 -0.00000000000E+00 -0.17215204441E+04  0.17215204441E+04  0.50400000000E-02 0. -1.
    8880022    1    1    2    0    0 -0.12515973471E+03  0.15867642757E+04 -0.74175377559E+03  0.17626900302E+04  0.15294330000E+03 0.  0.
    8880022    1    1    2    0    0  0.12515973471E+03 -0.15867642757E+04  0.89277551950E+03  0.18313726019E+04  0.15294330000E+03 0.  0.
<mgrwt>
<rscale>  0 0.15990239E+04</rscale>
<asrwt>0</asrwt>
<pdfrwt beam="1">  1        1 0.26484930E+00 0.15990239E+04</pdfrwt>
<pdfrwt beam="2">  1       -1 0.28808342E+00 0.15990239E+04</pdfrwt>
<totfact> 0.16965835E-01</totfact>
</mgrwt>
</event>
<event>
 4    1  0.4964158E-009  0.1062868E+04  0.7818608E-02  0.9242158E-01
         -1   -1    0    0    0  501 -0.00000000000E+00  0.00000000000E+00  0.69804618380E+03  0.69804618381E+03  0.50400000000E-02 0.  1.
          1   -1    0    0  501    0  0.00000000000E+00 -0.00000000000E+00 -0.16911283236E+04  0.16911283236E+04  0.50400000000E-02 0. -1.
    8880022    1    1    2    0    0  0.10440464591E+04 -0.12753107393E+03 -0.74434366329E+03  0.12975886582E+04  0.15294330000E+03 0.  0.
    8880022    1    1    2    0    0 -0.10440464591E+04  0.12753107393E+03 -0.24873847655E+03  0.10915858493E+04  0.15294330000E+03 0.  0.
<mgrwt>
<rscale>  0 0.10628682E+04</rscale>
<asrwt>0</asrwt>
<pdfrwt beam="1">  1        1 0.26017359E+00 0.10628682E+04</pdfrwt>
<pdfrwt beam="2">  1       -1 0.10739172E+00 0.10628682E+04</pdfrwt>
<totfact> 0.39013102E+00</totfact>
</mgrwt>
</event>
<event>
 4    1  0.4964158E-009  0.1518578E+04  0.7818608E-02  0.8872192E-01
         -1   -1    0    0    0  501 -0.00000000000E+00  0.00000000000E+00  0.16973508678E+04  0.16973508678E+04  0.50400000000E-02 0.  1.
          1   -1    0    0  501    0  0.00000000000E+00 -0.00000000000E+00 -0.26434335124E+04  0.26434335124E+04  0.50400000000E-02 0. -1.
    8880022    1    1    2    0    0  0.44141536768E+03 -0.14449364481E+04 -0.19861548452E+04  0.25001783112E+04  0.15294330000E+03 0.  0.
    8880022    1    1    2    0    0 -0.44141536768E+03  0.14449364481E+04  0.10400722005E+04  0.18406060690E+04  0.15294330000E+03 0.  0.
<mgrwt>
<rscale>  0 0.15185785E+04</rscale>
<asrwt>0</asrwt>
<pdfrwt beam="1">  1        1 0.40668208E+00 0.15185785E+04</pdfrwt>
<pdfrwt beam="2">  1       -1 0.26113090E+00 0.15185785E+04</pdfrwt>
<totfact> 0.59735343E-02</totfact>
</mgrwt>
</event>
<event>
 4    1  0.4964158E-009  0.1210763E+04  0.7818608E-02  0.9103487E-01
          1   -1    0    0  501    0  0.00000000000E+00  0.00000000000E+00  0.24055489986E+04  0.24055489986E+04  0.50400000000E-02 0. -1.
         -1   -1    0    0    0  501 -0.00000000000E+00 -0.00000000000E+00 -0.99185861904E+03  0.99185861905E+03  0.50400000000E-02 0.  1.
    8880022    1    1    2    0    0  0.10742338869E+04 -0.53719412866E+03 -0.34798747164E+03  0.12597789128E+04  0.15294330000E+03 0.  0.
    8880022    1    1    2    0    0 -0.10742338869E+04  0.53719412866E+03  0.17616778512E+04  0.21376287049E+04  0.15294330000E+03 0.  0.
<mgrwt>
<rscale>  0 0.12107632E+04</rscale>
<asrwt>0</asrwt>
<pdfrwt beam="1">  1        1 0.37008446E+00 0.12107632E+04</pdfrwt>
<pdfrwt beam="2">  1       -1 0.15259363E+00 0.12107632E+04</pdfrwt>
<totfact> 0.51627385E-01</totfact>
</mgrwt>
</event>
<event>
 4    1  0.4964158E-009  0.1018471E+04  0.7818608E-02  0.9288515E-01
          1   -1    0    0  501    0  0.00000000000E+00  0.00000000000E+00  0.19713651225E+04  0.19713651225E+04  0.50400000000E-02 0. -1.
         -1   -1    0    0    0  501 -0.00000000000E+00 -0.00000000000E+00 -0.11081320111E+04  0.11081320112E+04  0.50400000000E-02 0.  1.
    8880022    1    1    2    0    0 -0.93242801873E+03 -0.38009068415E+03 -0.68421745884E+03  0.12269621519E+04  0.15294330000E+03 0.  0.
    8880022    1    1    2    0    0  0.93242801873E+03  0.38009068415E+03  0.15474505702E+04  0.18525349817E+04  0.15294330000E+03 0.  0.
<mgrwt>
<rscale>  0 0.10184707E+04</rscale>
<asrwt>0</asrwt>
<pdfrwt beam="1">  1        1 0.30328694E+00 0.10184707E+04</pdfrwt>
<pdfrwt beam="2">  1       -1 0.17048185E+00 0.10184707E+04</pdfrwt>
<totfact> 0.76677087E-01</totfact>
</mgrwt>
</event>
<event>
 4    1  0.4964158E-009  0.1032757E+04  0.7818608E-02  0.9273330E-01
          1   -1    0    0  501    0  0.00000000000E+00  0.00000000000E+00  0.20557280203E+04  0.20557280203E+04  0.50400000000E-02 0. -1.
         -1   -1    0    0    0  501 -0.00000000000E+00 -0.00000000000E+00 -0.98844542663E+03  0.98844542664E+03  0.50400000000E-02 0.  1.
    8880022    1    1    2    0    0 -0.23219504337E+03  0.99462589727E+03  0.15827758505E+04  0.18899117068E+04  0.15294330000E+03 0.  0.
    8880022    1    1    2    0    0  0.23219504337E+03 -0.99462589727E+03 -0.51549325687E+03  0.11542617401E+04  0.15294330000E+03 0.  1.
<mgrwt>
<rscale>  0 0.10327569E+04</rscale>
<asrwt>0</asrwt>
<pdfrwt beam="1">  1        1 0.31626585E+00 0.10327569E+04</pdfrwt>
<pdfrwt beam="2">  1       -1 0.15206853E+00 0.10327569E+04</pdfrwt>
<totfact> 0.92433045E-01</totfact>
</mgrwt>
</event>
<event>
 4    1  0.4964158E-009  0.3106574E+03  0.7818608E-02  0.1080031E+00
          1   -1    0    0  501    0  0.00000000000E+00  0.00000000000E+00  0.67087228446E+03  0.67087228448E+03  0.50400000000E-02 0. -1.
         -1   -1    0    0    0  501 -0.00000000000E+00 -0.00000000000E+00 -0.38540879033E+03  0.38540879037E+03  0.50400000000E-02 0.  1.
    8880022    1    1    2    0    0 -0.97933009426E+02 -0.25204265614E+03  0.56084701989E+03  0.64113758866E+03  0.15294330000E+03 0.  0.
    8880022    1    1    2    0    0  0.97933009426E+02  0.25204265614E+03 -0.27538352576E+03  0.41514348619E+03  0.15294330000E+03 0.  0.
<mgrwt>
<rscale>  0 0.31065741E+03</rscale>
<asrwt>0</asrwt>
<pdfrwt beam="1">  1        1 0.10321112E+00 0.31065741E+03</pdfrwt>
<pdfrwt beam="2">  1       -1 0.59293661E-01 0.31065741E+03</pdfrwt>
<totfact> 0.89727649E+01</totfact>
</mgrwt>
</event>
<event>
 4    1  0.4964158E-009  0.1239215E+04  0.7818608E-02  0.9079208E-01
          1   -1    0    0  501    0  0.00000000000E+00  0.00000000000E+00  0.93149780953E+03  0.93149780954E+03  0.50400000000E-02 0. -1.
         -1   -1    0    0    0  501 -0.00000000000E+00 -0.00000000000E+00 -0.17411316985E+04  0.17411316985E+04  0.50400000000E-02 0.  1.
    8880022    1    1    2    0    0  0.52134629556E+03  0.11137592769E+04 -0.96729954790E+02  0.12429843216E+04  0.15294330000E+03 0.  0.
    8880022    1    1    2    0    0 -0.52134629556E+03 -0.11137592769E+04 -0.71290393421E+03  0.14296451864E+04  0.15294330000E+03 0.  0.
<mgrwt>
<rscale>  0 0.12392148E+04</rscale>
<asrwt>0</asrwt>
<pdfrwt beam="1">  1        1 0.14330736E+00 0.12392148E+04</pdfrwt>
<pdfrwt beam="2">  1       -1 0.26786641E+00 0.12392148E+04</pdfrwt>
<totfact> 0.89579648E-01</totfact>
</mgrwt>
</event>
<event>
 4    1  0.4964158E-009  0.4008319E+03  0.7818608E-02  0.1043492E+00
         -1   -1    0    0    0  501 -0.00000000000E+00  0.00000000000E+00  0.84583288681E+03  0.84583288683E+03  0.50400000000E-02 0.  1.
          1   -1    0    0  501    0  0.00000000000E+00 -0.00000000000E+00 -0.55281638188E+03  0.55281638190E+03  0.50400000000E-02 0. -1.
    8880022    1    1    2    0    0  0.36846883454E+03 -0.38797489350E+02 -0.42007219624E+03  0.58062623974E+03  0.15294330000E+03 0.  0.
    8880022    1    1    2    0    0 -0.36846883454E+03  0.38797489350E+02  0.71308870117E+03  0.81802302899E+03  0.15294330000E+03 0.  0.
<mgrwt>
<rscale>  0 0.40083186E+03</rscale>
<asrwt>0</asrwt>
<pdfrwt beam="1">  1        1 0.85048675E-01 0.40083186E+03</pdfrwt>
<pdfrwt beam="2">  1       -1 0.13012814E+00 0.40083186E+03</pdfrwt>
<totfact> 0.21046855E+01</totfact>
</mgrwt>
</event>
<event>
 4    1  0.4964158E-009  0.7777052E+03  0.7818608E-02  0.9592861E-01
          1   -1    0    0  501    0  0.00000000000E+00  0.00000000000E+00  0.14746532135E+04  0.14746532135E+04  0.50400000000E-02 0. -1.
         -1   -1    0    0    0  501 -0.00000000000E+00 -0.00000000000E+00 -0.85036340414E+03  0.85036340415E+03  0.50400000000E-02 0.  1.
    8880022    1    1    2    0    0 -0.27386048901E+03  0.71164187511E+03  0.11485691870E+04  0.13870964480E+04  0.15294330000E+03 0.  0.
    8880022    1    1    2    0    0  0.27386048901E+03 -0.71164187511E+03 -0.52427937759E+03  0.93792016965E+03  0.15294330000E+03 0.  0.
<mgrwt>
<rscale>  0 0.77770520E+03</rscale>
<asrwt>0</asrwt>
<pdfrwt beam="1">  1        1 0.22686972E+00 0.77770520E+03</pdfrwt>
<pdfrwt beam="2">  1       -1 0.13082514E+00 0.77770520E+03</pdfrwt>
<totfact> 0.35308504E+00</totfact>
</mgrwt>
</event>
<event>
 4    1  0.4964158E-009  0.1204352E+04  0.7818608E-02  0.9109055E-01
          1   -1    0    0  501    0  0.00000000000E+00  0.00000000000E+00  0.21345489803E+04  0.21345489803E+04  0.50400000000E-02 0. -1.
         -1   -1    0    0    0  501 -0.00000000000E+00 -0.00000000000E+00 -0.10216276628E+04  0.10216276628E+04  0.50400000000E-02 0.  1.
    8880022    1    1    2    0    0  0.75834648230E+02 -0.11921921662E+04  0.14696641831E+04  0.19000993445E+04  0.15294330000E+03 0.  0.
    8880022    1    1    2    0    0 -0.75834648230E+02  0.11921921662E+04 -0.35674286556E+03  0.12560772986E+04  0.15294330000E+03 0.  0.
<mgrwt>
<rscale>  0 0.12043524E+04</rscale>
<asrwt>0</asrwt>
<pdfrwt beam="1">  1        1 0.32839215E+00 0.12043524E+04</pdfrwt>
<pdfrwt beam="2">  1       -1 0.15717349E+00 0.12043524E+04</pdfrwt>
<totfact> 0.72867753E-01</totfact>
</mgrwt>
</event>
<event>
 4    1  0.4964158E-009  0.6286458E+03  0.7818608E-02  0.9847695E-01
         -1   -1    0    0    0  501 -0.00000000000E+00  0.00000000000E+00  0.71865945323E+03  0.71865945324E+03  0.50400000000E-02 0.  1.
          1   -1    0    0  501    0  0.00000000000E+00 -0.00000000000E+00 -0.20619636562E+04  0.20619636562E+04  0.50400000000E-02 0. -1.
    8880022    1    1    2    0    0 -0.44862790147E+03  0.41296110862E+03 -0.18622242784E+04  0.19654706274E+04  0.15294330000E+03 0.  0.
    8880022    1    1    2    0    0  0.44862790147E+03 -0.41296110862E+03  0.51892007544E+03  0.81515248201E+03  0.15294330000E+03 0.  0.
<mgrwt>
<rscale>  0 0.62864579E+03</rscale>
<asrwt>0</asrwt>
<pdfrwt beam="1">  1        1 0.31722517E+00 0.62864579E+03</pdfrwt>
<pdfrwt beam="2">  1       -1 0.11056299E+00 0.62864579E+03</pdfrwt>
<totfact> 0.22093314E+00</totfact>
</mgrwt>
</event>
<event>
 4    1  0.4964158E-009  0.7724577E+03  0.7818608E-02  0.9600762E-01
         -1   -1    0    0    0  501 -0.00000000000E+00  0.00000000000E+00  0.51650824663E+03  0.51650824666E+03  0.50400000000E-02 0.  1.
          1   -1    0    0  501    0  0.00000000000E+00 -0.00000000000E+00 -0.13045657114E+04  0.13045657114E+04  0.50400000000E-02 0. -1.
    8880022    1    1    2    0    0  0.28995238572E+03  0.69944754624E+03 -0.85970993049E+02  0.77722707145E+03  0.15294330000E+03 0.  0.
    8880022    1    1    2    0    0 -0.28995238572E+03 -0.69944754624E+03 -0.70208647174E+03  0.10438468866E+04  0.15294330000E+03 0.  0.
<mgrwt>
<rscale>  0 0.77245771E+03</rscale>
<asrwt>0</asrwt>
<pdfrwt beam="1">  1        1 0.20070242E+00 0.77245771E+03</pdfrwt>
<pdfrwt beam="2">  1       -1 0.79462807E-01 0.77245771E+03</pdfrwt>
<totfact> 0.14645441E+01</totfact>
</mgrwt>
</event>
<event>
 4    1  0.4964158E-009  0.9721578E+03  0.7818608E-02  0.9339620E-01
         -1   -1    0    0    0  501 -0.00000000000E+00  0.00000000000E+00  0.98973749042E+03  0.98973749043E+03  0.50400000000E-02 0.  1.
          1   -1    0    0  501    0  0.00000000000E+00 -0.00000000000E+00 -0.19072698771E+04  0.19072698772E+04  0.50400000000E-02 0. -1.
    8880022    1    1    2    0    0 -0.72508283007E+03 -0.62924874925E+03  0.56480619236E+03  0.11243205890E+04  0.15294330000E+03 0.  0.
    8880022    1    1    2    0    0  0.72508283007E+03  0.62924874925E+03 -0.14823385791E+04  0.17726867786E+04  0.15294330000E+03 0.  0.
<mgrwt>
<rscale>  0 0.97215778E+03</rscale>
<asrwt>0</asrwt>
<pdfrwt beam="1">  1        1 0.29342613E+00 0.97215778E+03</pdfrwt>
<pdfrwt beam="2">  1       -1 0.15226731E+00 0.97215778E+03</pdfrwt>
<totfact> 0.11705294E+00</totfact>
</mgrwt>
</event>
<event>
 4    1  0.4964158E-009  0.9939146E+03  0.7818608E-02  0.9315244E-01
         -1   -1    0    0    0  501 -0.00000000000E+00  0.00000000000E+00  0.10921232386E+04  0.10921232387E+04  0.50400000000E-02 0.  1.
          1   -1    0    0  501    0  0.00000000000E+00 -0.00000000000E+00 -0.15864277317E+04  0.15864277317E+04  0.50400000000E-02 0. -1.
    8880022    1    1    2    0    0 -0.18439072637E+02 -0.98190356095E+03 -0.11251978174E+04  0.15013115545E+04  0.15294330000E+03 0.  0.
    8880022    1    1    2    0    0  0.18439072637E+02  0.98190356095E+03  0.63089332438E+03  0.11772394158E+04  0.15294330000E+03 0.  0.
<mgrwt>
<rscale>  0 0.99391461E+03</rscale>
<asrwt>0</asrwt>
<pdfrwt beam="1">  1        1 0.24406580E+00 0.99391461E+03</pdfrwt>
<pdfrwt beam="2">  1       -1 0.16801896E+00 0.99391461E+03</pdfrwt>
<totfact> 0.14619547E+00</totfact>
</mgrwt>
</event>
<event>
 4    1  0.4964158E-009  0.8183238E+03  0.7818608E-02  0.9533866E-01
         -1   -1    0    0    0  501 -0.00000000000E+00  0.00000000000E+00  0.90297680521E+03  0.90297680523E+03  0.50400000000E-02 0.  1.
          1   -1    0    0  501    0  0.00000000000E+00 -0.00000000000E+00 -0.10944311951E+04  0.10944311951E+04  0.50400000000E-02 0. -1.
    8880022    1    1    2    0    0 -0.76420340132E+03 -0.24951014039E+03  0.47132340950E+03  0.94435139546E+03  0.15294330000E+03 0.  0.
    8880022    1    1    2    0    0  0.76420340132E+03  0.24951014039E+03 -0.66277779942E+03  0.10530566049E+04  0.15294330000E+03 0.  0.
<mgrwt>
<rscale>  0 0.81832378E+03</rscale>
<asrwt>0</asrwt>
<pdfrwt beam="1">  1        1 0.16837403E+00 0.81832378E+03</pdfrwt>
<pdfrwt beam="2">  1       -1 0.13891951E+00 0.81832378E+03</pdfrwt>
<totfact> 0.56190875E+00</totfact>
</mgrwt>
</event>
<event>
 4    1  0.4964158E-009  0.3210437E+03  0.7818608E-02  0.1075170E+00
          1   -1    0    0  501    0  0.00000000000E+00  0.00000000000E+00  0.33838850701E+03  0.33838850704E+03  0.50400000000E-02 0. -1.
         -1   -1    0    0    0  501 -0.00000000000E+00 -0.00000000000E+00 -0.13821624352E+04  0.13821624352E+04  0.50400000000E-02 0.  1.
    8880022    1    1    2    0    0 -0.19130367619E+03  0.20755798541E+03  0.23770724321E+03  0.39946689515E+03  0.15294330000E+03 0. -1.
    8880022    1    1    2    0    0  0.19130367619E+03 -0.20755798541E+03 -0.12814811714E+04  0.13210840471E+04  0.15294330000E+03 0.  0.
<mgrwt>
<rscale>  0 0.32104371E+03</rscale>
<asrwt>0</asrwt>
<pdfrwt beam="1">  1        1 0.52059771E-01 0.32104371E+03</pdfrwt>
<pdfrwt beam="2">  1       -1 0.21264037E+00 0.32104371E+03</pdfrwt>
<totfact> 0.10316790E+01</totfact>
</mgrwt>
</event>
<event>
 4    1  0.4964158E-009  0.4395391E+03  0.7818608E-02  0.1030888E+00
         -1   -1    0    0    0  501 -0.00000000000E+00  0.00000000000E+00  0.60782516653E+03  0.60782516655E+03  0.50400000000E-02 0.  1.
          1   -1    0    0  501    0  0.00000000000E+00 -0.00000000000E+00 -0.19516815128E+04  0.19516815128E+04  0.50400000000E-02 0. -1.
    8880022    1    1    2    0    0 -0.40378764638E+03  0.82210187161E+02 -0.18428448719E+04  0.18945373718E+04  0.15294330000E+03 0. -1.
    8880022    1    1    2    0    0  0.40378764638E+03 -0.82210187161E+02  0.49898852564E+03  0.66496930754E+03  0.15294330000E+03 0.  0.
<mgrwt>
<rscale>  0 0.43953911E+03</rscale>
<asrwt>0</asrwt>
<pdfrwt beam="1">  1        1 0.30025869E+00 0.43953911E+03</pdfrwt>
<pdfrwt beam="2">  1       -1 0.93511565E-01 0.43953911E+03</pdfrwt>
<totfact> 0.40331625E+00</totfact>
</mgrwt>
</event>
<event>
 4    1  0.4964158E-009  0.8865618E+03  0.7818608E-02  0.9442537E-01
          1   -1    0    0  501    0  0.00000000000E+00  0.00000000000E+00  0.23292527021E+04  0.23292527021E+04  0.50400000000E-02 0. -1.
         -1   -1    0    0    0  501 -0.00000000000E+00 -0.00000000000E+00 -0.43099922815E+03  0.43099922818E+03  0.50400000000E-02 0.  1.
    8880022    1    1    2    0    0  0.81714779252E+03  0.30800932567E+03  0.30612085416E+03  0.93792424528E+03  0.15294330000E+03 0.  0.
    8880022    1    1    2    0    0 -0.81714779252E+03 -0.30800932567E+03  0.15921326198E+04  0.18223276850E+04  0.15294330000E+03 0.  0.
<mgrwt>
<rscale>  0 0.88656185E+03</rscale>
<asrwt>0</asrwt>
<pdfrwt beam="1">  1        1 0.35834657E+00 0.88656185E+03</pdfrwt>
<pdfrwt beam="2">  1       -1 0.66307574E-01 0.88656185E+03</pdfrwt>
<totfact> 0.42299075E+00</totfact>
</mgrwt>
</event>
<event>
 4    1  0.4964158E-009  0.1412895E+04  0.7818608E-02  0.8944537E-01
          1   -1    0    0  501    0  0.00000000000E+00  0.00000000000E+00  0.21163351997E+04  0.21163351997E+04  0.50400000000E-02 0. -1.
         -1   -1    0    0    0  501 -0.00000000000E+00 -0.00000000000E+00 -0.12427898449E+04  0.12427898449E+04  0.50400000000E-02 0.  1.
    8880022    1    1    2    0    0 -0.11504116734E+04  0.80587527437E+03 -0.38776550312E+03  0.14651401689E+04  0.15294330000E+03 0.  0.
    8880022    1    1    2    0    0  0.11504116734E+04 -0.80587527437E+03  0.12613108579E+04  0.18939848757E+04  0.15294330000E+03 0.  0.
<mgrwt>
<rscale>  0 0.14128955E+04</rscale>
<asrwt>0</asrwt>
<pdfrwt beam="1">  1        1 0.32559003E+00 0.14128955E+04</pdfrwt>
<pdfrwt beam="2">  1       -1 0.19119844E+00 0.14128955E+04</pdfrwt>
<totfact> 0.41137848E-01</totfact>
</mgrwt>
</event>
<event>
 4    1  0.4964158E-009  0.1332962E+04  0.7818608E-02  0.9003827E-01
         -1   -1    0    0    0  501 -0.00000000000E+00  0.00000000000E+00  0.89506171100E+03  0.89506171101E+03  0.50400000000E-02 0.  1.
          1   -1    0    0  501    0  0.00000000000E+00 -0.00000000000E+00 -0.24116810293E+04  0.24116810293E+04  0.50400000000E-02 0. -1.
    8880022    1    1    2    0    0 -0.12479546674E+04 -0.44272402178E+03 -0.62947243649E+02  0.13344472338E+04  0.15294330000E+03 0.  0.
    8880022    1    1    2    0    0  0.12479546674E+04  0.44272402178E+03 -0.14536720747E+04  0.19722955065E+04  0.15294330000E+03 0.  0.
<mgrwt>
<rscale>  0 0.13329618E+04</rscale>
<asrwt>0</asrwt>
<pdfrwt beam="1">  1        1 0.37102785E+00 0.13329618E+04</pdfrwt>
<pdfrwt beam="2">  1       -1 0.13770180E+00 0.13329618E+04</pdfrwt>
<totfact> 0.66189440E-01</totfact>
</mgrwt>
</event>
<event>
 4    1  0.4964158E-009  0.7355494E+03  0.7818608E-02  0.9658298E-01
         -1   -1    0    0    0  501 -0.00000000000E+00  0.00000000000E+00  0.13615518129E+04  0.13615518129E+04  0.50400000000E-02 0.  1.
          1   -1    0    0  501    0  0.00000000000E+00 -0.00000000000E+00 -0.74728399885E+03  0.74728399887E+03  0.50400000000E-02 0. -1.
    8880022    1    1    2    0    0 -0.52206435837E+03  0.49506573647E+03  0.10286628229E+04  0.12645869421E+04  0.15294330000E+03 0.  0.
    8880022    1    1    2    0    0  0.52206435837E+03 -0.49506573647E+03 -0.41439500885E+03  0.84424886976E+03  0.15294330000E+03 0.  0.
<mgrwt>
<rscale>  0 0.73554941E+03</rscale>
<asrwt>0</asrwt>
<pdfrwt beam="1">  1        1 0.11496677E+00 0.73554941E+03</pdfrwt>
<pdfrwt beam="2">  1       -1 0.20946951E+00 0.73554941E+03</pdfrwt>
<totfact> 0.33274461E+00</totfact>
</mgrwt>
</event>
<event>
 4    1  0.4964158E-009  0.1132623E+04  0.7818608E-02  0.9173966E-01
         -1   -1    0    0    0  501 -0.00000000000E+00  0.00000000000E+00  0.77542880201E+03  0.77542880203E+03  0.50400000000E-02 0.  1.
          1   -1    0    0  501    0  0.00000000000E+00 -0.00000000000E+00 -0.27006094040E+04  0.27006094040E+04  0.50400000000E-02 0. -1.
    8880022    1    1    2    0    0  0.33593856531E+03 -0.10707886413E+04  0.11919795268E+03  0.11388778859E+04  0.15294330000E+03 0.  0.
    8880022    1    1    2    0    0 -0.33593856531E+03  0.10707886413E+04 -0.20443785546E+04  0.23371603201E+04  0.15294330000E+03 0.  0.
<mgrwt>
<rscale>  0 0.11326229E+04</rscale>
<asrwt>0</asrwt>
<pdfrwt beam="1">  1        1 0.41547837E+00 0.11326229E+04</pdfrwt>
<pdfrwt beam="2">  1       -1 0.11929674E+00 0.11326229E+04</pdfrwt>
<totfact> 0.61610926E-01</totfact>
</mgrwt>
</event>
<event>
 4    1  0.4964158E-009  0.8649817E+03  0.7818608E-02  0.9470447E-01
          1   -1    0    0  501    0  0.00000000000E+00  0.00000000000E+00  0.18966064061E+04  0.18966064061E+04  0.50400000000E-02 0. -1.
         -1   -1    0    0    0  501 -0.00000000000E+00 -0.00000000000E+00 -0.53523584308E+03  0.53523584310E+03  0.50400000000E-02 0.  1.
    8880022    1    1    2    0    0  0.26205071509E+03 -0.81001923855E+03  0.13042042551E+04  0.15649735257E+04  0.15294330000E+03 0.  0.
    8880022    1    1    2    0    0 -0.26205071509E+03  0.81001923855E+03  0.57166307972E+02  0.86686872356E+03  0.15294330000E+03 0.  0.
<mgrwt>
<rscale>  0 0.86498173E+03</rscale>
<asrwt>0</asrwt>
<pdfrwt beam="1">  1        1 0.29178560E+00 0.86498173E+03</pdfrwt>
<pdfrwt beam="2">  1       -1 0.82343977E-01 0.86498173E+03</pdfrwt>
<totfact> 0.52835723E+00</totfact>
</mgrwt>
</event>
<event>
 4    1  0.4964158E-009  0.1725846E+04  0.7818608E-02  0.8746759E-01
         -1   -1    0    0    0  501 -0.00000000000E+00  0.00000000000E+00  0.16258187736E+04  0.16258187736E+04  0.50400000000E-02 0.  1.
          1   -1    0    0  501    0  0.00000000000E+00 -0.00000000000E+00 -0.22224919640E+04  0.22224919640E+04  0.50400000000E-02 0. -1.
    8880022    1    1    2    0    0  0.12933800571E+04 -0.11323952867E+04  0.50817659859E+03  0.17991070468E+04  0.15294330000E+03 0.  0.
    8880022    1    1    2    0    0 -0.12933800571E+04  0.11323952867E+04 -0.11048497890E+04  0.20492036909E+04  0.15294330000E+03 0.  0.
<mgrwt>
<rscale>  0 0.17258455E+04</rscale>
<asrwt>0</asrwt>
<pdfrwt beam="1">  1        1 0.34192184E+00 0.17258455E+04</pdfrwt>
<pdfrwt beam="2">  1       -1 0.25012596E+00 0.17258455E+04</pdfrwt>
<totfact> 0.13443068E-01</totfact>
</mgrwt>
</event>
<event>
 4    1  0.4964158E-009  0.2315898E+03  0.7818608E-02  0.1125526E+00
         -1   -1    0    0    0  501 -0.00000000000E+00  0.00000000000E+00  0.50322596003E+03  0.50322596006E+03  0.50400000000E-02 0.  1.
          1   -1    0    0  501    0  0.00000000000E+00 -0.00000000000E+00 -0.75196354757E+03  0.75196354759E+03  0.50400000000E-02 0. -1.
    8880022    1    1    2    0    0 -0.17390282493E+03 -0.41395499445E-01 -0.70578862294E+03  0.74281318481E+03  0.15294330000E+03 0. -1.
    8880022    1    1    2    0    0  0.17390282493E+03  0.41395499445E-01  0.45705103540E+03  0.51237632284E+03  0.15294330000E+03 0.  0.
<mgrwt>
<rscale>  0 0.23158983E+03</rscale>
<asrwt>0</asrwt>
<pdfrwt beam="1">  1        1 0.11568670E+00 0.23158983E+03</pdfrwt>
<pdfrwt beam="2">  1       -1 0.77419378E-01 0.23158983E+03</pdfrwt>
<totfact> 0.45467832E+01</totfact>
</mgrwt>
</event>
<event>
 4    1  0.4964158E-009  0.7890914E+03  0.7818608E-02  0.9575942E-01
          1   -1    0    0  501    0  0.00000000000E+00  0.00000000000E+00  0.36116780255E+03  0.36116780259E+03  0.50400000000E-02 0. -1.
         -1   -1    0    0    0  501 -0.00000000000E+00 -0.00000000000E+00 -0.24775364938E+04  0.24775364938E+04  0.50400000000E-02 0.  1.
    8880022    1    1    2    0    0 -0.35723310636E+03 -0.68677370037E+03 -0.18409337108E+04  0.20029234105E+04  0.15294330000E+03 0.  0.
    8880022    1    1    2    0    0  0.35723310636E+03  0.68677370037E+03 -0.27543498049E+03  0.83578088593E+03  0.15294330000E+03 0.  0.
<mgrwt>
<rscale>  0 0.78909141E+03</rscale>
<asrwt>0</asrwt>
<pdfrwt beam="1">  1        1 0.55564279E-01 0.78909141E+03</pdfrwt>
<pdfrwt beam="2">  1       -1 0.38115945E+00 0.78909141E+03</pdfrwt>
<totfact> 0.69967356E-01</totfact>
</mgrwt>
</event>
<event>
 4    1  0.4964158E-009  0.5864819E+03  0.7818608E-02  0.9933856E-01
         -1   -1    0    0    0  501 -0.00000000000E+00  0.00000000000E+00  0.36607786242E+03  0.36607786245E+03  0.50400000000E-02 0.  1.
          1   -1    0    0  501    0  0.00000000000E+00 -0.00000000000E+00 -0.23894975892E+04  0.23894975892E+04  0.50400000000E-02 0. -1.
    8880022    1    1    2    0    0  0.56614349725E+03 -0.71313927564E+01  0.61538032894E+02  0.58970153361E+03  0.15294330000E+03 0.  0.
    8880022    1    1    2    0    0 -0.56614349725E+03  0.71313927564E+01 -0.20849577597E+04  0.21658739181E+04  0.15294330000E+03 0.  0.
<mgrwt>
<rscale>  0 0.58648186E+03</rscale>
<asrwt>0</asrwt>
<pdfrwt beam="1">  1        1 0.36761500E+00 0.58648186E+03</pdfrwt>
<pdfrwt beam="2">  1       -1 0.56319673E-01 0.58648186E+03</pdfrwt>
<totfact> 0.56256005E+00</totfact>
</mgrwt>
</event>
<event>
 4    1  0.4964158E-009  0.1196154E+04  0.7818608E-02  0.9116229E-01
          1   -1    0    0  501    0  0.00000000000E+00  0.00000000000E+00  0.10233640333E+04  0.10233640334E+04  0.50400000000E-02 0. -1.
         -1   -1    0    0    0  501 -0.00000000000E+00 -0.00000000000E+00 -0.16801278580E+04  0.16801278580E+04  0.50400000000E-02 0.  1.
    8880022    1    1    2    0    0 -0.10199673722E+04  0.60585462908E+03  0.22542084554E+03  0.12172097118E+04  0.15294330000E+03 0.  0.
    8880022    1    1    2    0    0  0.10199673722E+04 -0.60585462908E+03 -0.88218467015E+03  0.14862821795E+04  0.15294330000E+03 0.  0.
<mgrwt>
<rscale>  0 0.11961542E+04</rscale>
<asrwt>0</asrwt>
<pdfrwt beam="1">  1        1 0.15744062E+00 0.11961542E+04</pdfrwt>
<pdfrwt beam="2">  1       -1 0.25848121E+00 0.11961542E+04</pdfrwt>
<totfact> 0.87548065E-01</totfact>
</mgrwt>
</event>
<event>
 4    1  0.4964158E-009  0.4751254E+03  0.7818608E-02  0.1020484E+00
         -1   -1    0    0    0  501 -0.00000000000E+00  0.00000000000E+00  0.42479250380E+03  0.42479250383E+03  0.50400000000E-02 0.  1.
          1   -1    0    0  501    0  0.00000000000E+00 -0.00000000000E+00 -0.14978607354E+04  0.14978607354E+04  0.50400000000E-02 0. -1.
    8880022    1    1    2    0    0 -0.29951688615E+03  0.33562199066E+03  0.23565270356E+03  0.53035491458E+03  0.15294330000E+03 0.  0.
    8880022    1    1    2    0    0  0.29951688615E+03 -0.33562199066E+03 -0.13087209351E+04  0.13922983246E+04  0.15294330000E+03 0.  0.
<mgrwt>
<rscale>  0 0.47512539E+03</rscale>
<asrwt>0</asrwt>
<pdfrwt beam="1">  1        1 0.23044011E+00 0.47512539E+03</pdfrwt>
<pdfrwt beam="2">  1       -1 0.65352693E-01 0.47512539E+03</pdfrwt>
<totfact> 0.16924068E+01</totfact>
</mgrwt>
</event>
<event>
 4    1  0.4964158E-009  0.7657204E+03  0.7818608E-02  0.9611005E-01
          1   -1    0    0  501    0  0.00000000000E+00  0.00000000000E+00  0.29264679921E+04  0.29264679921E+04  0.50400000000E-02 0. -1.
         -1   -1    0    0    0  501 -0.00000000000E+00 -0.00000000000E+00 -0.61595140253E+03  0.61595140255E+03  0.50400000000E-02 0.  1.
    8880022    1    1    2    0    0  0.60146874428E+03  0.44852132046E+03  0.26101595104E+04  0.27201581476E+04  0.15294330000E+03 0.  0.
    8880022    1    1    2    0    0 -0.60146874428E+03 -0.44852132046E+03 -0.29964292089E+03  0.82226124699E+03  0.15294330000E+03 0.  0.
<mgrwt>
<rscale>  0 0.76572037E+03</rscale>
<asrwt>0</asrwt>
<pdfrwt beam="1">  1        1 0.45022586E+00 0.76572037E+03</pdfrwt>
<pdfrwt beam="2">  1       -1 0.94761752E-01 0.76572037E+03</pdfrwt>
<totfact> 0.78217647E-01</totfact>
</mgrwt>
</event>
<event>
 4    1  0.4964158E-009  0.7838785E+03  0.7818608E-02  0.9583650E-01
         -1   -1    0    0    0  501 -0.00000000000E+00  0.00000000000E+00  0.18831961139E+04  0.18831961139E+04  0.50400000000E-02 0.  1.
          1   -1    0    0  501    0  0.00000000000E+00 -0.00000000000E+00 -0.55354282959E+03  0.55354282961E+03  0.50400000000E-02 0. -1.
    8880022    1    1    2    0    0  0.39344273162E+03 -0.66051239945E+03  0.14454820270E+04  0.16443490372E+04  0.15294330000E+03 0.  0.
    8880022    1    1    2    0    0 -0.39344273162E+03  0.66051239945E+03 -0.11582874270E+03  0.79238990626E+03  0.15294330000E+03 0.  0.
<mgrwt>
<rscale>  0 0.78387848E+03</rscale>
<asrwt>0</asrwt>
<pdfrwt beam="1">  1        1 0.85160435E-01 0.78387848E+03</pdfrwt>
<pdfrwt beam="2">  1       -1 0.28972248E+00 0.78387848E+03</pdfrwt>
<totfact> 0.15478160E+00</totfact>
</mgrwt>
</event>
<event>
 4    1  0.4964158E-009  0.3770196E+03  0.7818608E-02  0.1052041E+00
         -1   -1    0    0    0  501 -0.00000000000E+00  0.00000000000E+00  0.14589137893E+03  0.14589137901E+03  0.50400000000E-02 0.  1.
          1   -1    0    0  501    0  0.00000000000E+00 -0.00000000000E+00 -0.23770354949E+04  0.23770354949E+04  0.50400000000E-02 0. -1.
    8880022    1    1    2    0    0 -0.33518044452E+03 -0.80038910225E+02 -0.20846144463E+04  0.21184336668E+04  0.15294330000E+03 0.  0.
    8880022    1    1    2    0    0  0.33518044452E+03  0.80038910225E+02 -0.14652966963E+03  0.40449320716E+03  0.15294330000E+03 0.  0.
<mgrwt>
<rscale>  0 0.37701964E+03</rscale>
<asrwt>0</asrwt>
<pdfrwt beam="1">  1        1 0.36569774E+00 0.37701964E+03</pdfrwt>
<pdfrwt beam="2">  1       -1 0.22444829E-01 0.37701964E+03</pdfrwt>
<totfact> 0.31062839E+01</totfact>
</mgrwt>
</event>
<event>
 4    1  0.8391862E-009  0.9280390E+03  0.7818608E-02  0.9391194E-01
          1   -1    0    0  501    0  0.00000000000E+00  0.00000000000E+00  0.12483355834E+04  0.12483355834E+04  0.50400000000E-02 0. -1.
         -1   -1    0    0    0  501 -0.00000000000E+00 -0.00000000000E+00 -0.21112120729E+04  0.21112120729E+04  0.50400000000E-02 0.  1.
    8880022    1    1    2    0    0 -0.56401326603E+03  0.72093946045E+03 -0.18096818287E+04  0.20337661233E+04  0.15294330000E+03 0.  0.
    8880022    1    1    2    0    0  0.56401326603E+03 -0.72093946045E+03  0.94680533924E+03  0.13257815330E+04  0.15294330000E+03 0.  0.
<mgrwt>
<rscale>  0 0.92803897E+03</rscale>
<asrwt>0</asrwt>
<pdfrwt beam="1">  1        1 0.19205163E+00 0.92803897E+03</pdfrwt>
<pdfrwt beam="2">  1       -1 0.32480186E+00 0.92803897E+03</pdfrwt>
<totfact> 0.23158512E-01</totfact>
</mgrwt>
</event>
<event>
 4    1  0.4964158E-009  0.1462797E+04  0.7818608E-02  0.8909576E-01
          1   -1    0    0  501    0  0.00000000000E+00  0.00000000000E+00  0.20870321295E+04  0.20870321295E+04  0.50400000000E-02 0. -1.
         -1   -1    0    0    0  501 -0.00000000000E+00 -0.00000000000E+00 -0.12850302280E+04  0.12850302280E+04  0.50400000000E-02 0.  1.
    8880022    1    1    2    0    0 -0.13553691546E+04 -0.52854323883E+03  0.11590438207E+04  0.18663219796E+04  0.15294330000E+03 0.  0.
    8880022    1    1    2    0    0  0.13553691546E+04  0.52854323883E+03 -0.35704191920E+03  0.15057403779E+04  0.15294330000E+03 0.  0.
<mgrwt>
<rscale>  0 0.14627970E+04</rscale>
<asrwt>0</asrwt>
<pdfrwt beam="1">  1        1 0.32108186E+00 0.14627970E+04</pdfrwt>
<pdfrwt beam="2">  1       -1 0.19769696E+00 0.14627970E+04</pdfrwt>
<totfact> 0.38555696E-01</totfact>
</mgrwt>
</event>
<event>
 4    1  0.4964158E-009  0.4855781E+03  0.7818608E-02  0.1017613E+00
          1   -1    0    0  501    0  0.00000000000E+00  0.00000000000E+00  0.16851145772E+04  0.16851145772E+04  0.50400000000E-02 0. -1.
         -1   -1    0    0    0  501 -0.00000000000E+00 -0.00000000000E+00 -0.20413545504E+03  0.20413545510E+03  0.50400000000E-02 0.  1.
    8880022    1    1    2    0    0 -0.44611421746E+03 -0.11565689090E+03  0.12702875507E+04  0.13599325447E+04  0.15294330000E+03 0.  0.
    8880022    1    1    2    0    0  0.44611421746E+03  0.11565689090E+03  0.21069157140E+03  0.52931748763E+03  0.15294330000E+03 0.  0.
<mgrwt>
<rscale>  0 0.48557807E+03</rscale>
<asrwt>0</asrwt>
<pdfrwt beam="1">  1        1 0.25924841E+00 0.48557807E+03</pdfrwt>
<pdfrwt beam="2">  1       -1 0.31405454E-01 0.48557807E+03</pdfrwt>
<totfact> 0.49105452E+01</totfact>
</mgrwt>
</event>
<event>
 4    1  0.4964158E-009  0.1170511E+04  0.7818608E-02  0.9139067E-01
          1   -1    0    0  501    0  0.00000000000E+00  0.00000000000E+00  0.34693819583E+04  0.34693819583E+04  0.50400000000E-02 0. -1.
         -1   -1    0    0    0  501 -0.00000000000E+00 -0.00000000000E+00 -0.96435570492E+03  0.96435570493E+03  0.50400000000E-02 0.  1.
    8880022    1    1    2    0    0 -0.48164008770E+03  0.10558061866E+04 -0.45100720856E+03  0.12543934921E+04  0.15294330000E+03 0.  0.
    8880022    1    1    2    0    0  0.48164008770E+03 -0.10558061866E+04  0.29560334619E+04  0.31793441712E+04  0.15294330000E+03 0.  0.
<mgrwt>
<rscale>  0 0.11705108E+04</rscale>
<asrwt>0</asrwt>
<pdfrwt beam="1">  1        1 0.53375106E+00 0.11705108E+04</pdfrwt>
<pdfrwt beam="2">  1       -1 0.14836242E+00 0.11705108E+04</pdfrwt>
<totfact> 0.95453112E-02</totfact>
</mgrwt>
</event>
<event>
 4    1  0.4964158E-009  0.4001771E+03  0.7818608E-02  0.1043718E+00
          1   -1    0    0  501    0  0.00000000000E+00  0.00000000000E+00  0.57665156941E+03  0.57665156944E+03  0.50400000000E-02 0. -1.
         -1   -1    0    0    0  501 -0.00000000000E+00 -0.00000000000E+00 -0.53282340291E+03  0.53282340294E+03  0.50400000000E-02 0.  1.
    8880022    1    1    2    0    0 -0.35839778162E+03  0.91110369019E+02 -0.36193700781E+03  0.53957401702E+03  0.15294330000E+03 0.  0.
    8880022    1    1    2    0    0  0.35839778162E+03 -0.91110369019E+02  0.40576517431E+03  0.56990095535E+03  0.15294330000E+03 0.  0.
<mgrwt>
<rscale>  0 0.40017711E+03</rscale>
<asrwt>0</asrwt>
<pdfrwt beam="1">  1        1 0.88715626E-01 0.40017711E+03</pdfrwt>
<pdfrwt beam="2">  1       -1 0.81972831E-01 0.40017711E+03</pdfrwt>
<totfact> 0.57047620E+01</totfact>
</mgrwt>
</event>
<event>
 4    1  0.4964158E-009  0.7478341E+03  0.7818608E-02  0.9638755E-01
         -1   -1    0    0    0  501 -0.00000000000E+00  0.00000000000E+00  0.45065849820E+03  0.45065849823E+03  0.50400000000E-02 0.  1.
          1   -1    0    0  501    0  0.00000000000E+00 -0.00000000000E+00 -0.21403104338E+04  0.21403104338E+04  0.50400000000E-02 0. -1.
    8880022    1    1    2    0    0 -0.24042765042E+03  0.69141786348E+03 -0.50667811563E+01  0.74785121670E+03  0.15294330000E+03 0.  0.
    8880022    1    1    2    0    0  0.24042765042E+03 -0.69141786348E+03 -0.16845851544E+04  0.18431177153E+04  0.15294330000E+03 0.  0.
<mgrwt>
<rscale>  0 0.74783405E+03</rscale>
<asrwt>0</asrwt>
<pdfrwt beam="1">  1        1 0.32927852E+00 0.74783405E+03</pdfrwt>
<pdfrwt beam="2">  1       -1 0.69332078E-01 0.74783405E+03</pdfrwt>
<totfact> 0.52982052E+00</totfact>
</mgrwt>
</event>
<event>
 4    1  0.4964158E-009  0.9367778E+03  0.7818608E-02  0.9380740E-01
         -1   -1    0    0    0  501 -0.00000000000E+00  0.00000000000E+00  0.90517014734E+03  0.90517014736E+03  0.50400000000E-02 0.  1.
          1   -1    0    0  501    0  0.00000000000E+00 -0.00000000000E+00 -0.25439035516E+04  0.25439035516E+04  0.50400000000E-02 0. -1.
    8880022    1    1    2    0    0  0.64129186528E+03 -0.66551162306E+03 -0.21760600194E+04  0.23691327185E+04  0.15294330000E+03 0.  0.
    8880022    1    1    2    0    0 -0.64129186528E+03  0.66551162306E+03  0.53732661514E+03  0.10799409805E+04  0.15294330000E+03 0.  0.
<mgrwt>
<rscale>  0 0.93677779E+03</rscale>
<asrwt>0</asrwt>
<pdfrwt beam="1">  1        1 0.39136977E+00 0.93677779E+03</pdfrwt>
<pdfrwt beam="2">  1       -1 0.13925695E+00 0.93677779E+03</pdfrwt>
<totfact> 0.55323487E-01</totfact>
</mgrwt>
</event>
<event>
 4    1  0.4964158E-009  0.1099811E+04  0.7818608E-02  0.9205376E-01
          1   -1    0    0  501    0  0.00000000000E+00  0.00000000000E+00  0.21428567835E+04  0.21428567835E+04  0.50400000000E-02 0. -1.
         -1   -1    0    0    0  501 -0.00000000000E+00 -0.00000000000E+00 -0.10204871755E+04  0.10204871755E+04  0.50400000000E-02 0.  1.
    8880022    1    1    2    0    0 -0.10673709237E+04 -0.21659199501E+03  0.16184937273E+04  0.19568102563E+04  0.15294330000E+03 0.  0.
    8880022    1    1    2    0    0  0.10673709237E+04  0.21659199501E+03 -0.49612411934E+03  0.12065337027E+04  0.15294330000E+03 0.  0.
<mgrwt>
<rscale>  0 0.10998111E+04</rscale>
<asrwt>0</asrwt>
<pdfrwt beam="1">  1        1 0.32967027E+00 0.10998111E+04</pdfrwt>
<pdfrwt beam="2">  1       -1 0.15699803E+00 0.10998111E+04</pdfrwt>
<totfact> 0.73222608E-01</totfact>
</mgrwt>
</event>
<event>
 4    1  0.4964158E-009  0.1139877E+04  0.7818608E-02  0.9167173E-01
         -1   -1    0    0    0  501 -0.00000000000E+00  0.00000000000E+00  0.17111744147E+04  0.17111744147E+04  0.50400000000E-02 0.  1.
          1   -1    0    0  501    0  0.00000000000E+00 -0.00000000000E+00 -0.11504767130E+04  0.11504767130E+04  0.50400000000E-02 0. -1.
    8880022    1    1    2    0    0 -0.10374322898E+04 -0.44683610445E+03  0.11146562640E+04  0.15942956125E+04  0.15294330000E+03 0.  0.
    8880022    1    1    2    0    0  0.10374322898E+04  0.44683610445E+03 -0.55395856229E+03  0.12673555152E+04  0.15294330000E+03 0.  0.
<mgrwt>
<rscale>  0 0.11398771E+04</rscale>
<asrwt>0</asrwt>
<pdfrwt beam="1">  1        1 0.17699642E+00 0.11398771E+04</pdfrwt>
<pdfrwt beam="2">  1       -1 0.26325760E+00 0.11398771E+04</pdfrwt>
<totfact> 0.65755124E-01</totfact>
</mgrwt>
</event>
<event>
 4    1  0.4964158E-009  0.7303323E+03  0.7818608E-02  0.9666721E-01
          1   -1    0    0  501    0  0.00000000000E+00  0.00000000000E+00  0.25226968350E+04  0.25226968350E+04  0.50400000000E-02 0. -1.
         -1   -1    0    0    0  501 -0.00000000000E+00 -0.00000000000E+00 -0.44766281062E+03  0.44766281065E+03  0.50400000000E-02 0.  1.
    8880022    1    1    2    0    0 -0.67603993222E+03 -0.23013834827E+03  0.21163878303E+04  0.22388574655E+04  0.15294330000E+03 0.  0.
    8880022    1    1    2    0    0  0.67603993222E+03  0.23013834827E+03 -0.41353805974E+02  0.73150218016E+03  0.15294330000E+03 0.  0.
<mgrwt>
<rscale>  0 0.73033232E+03</rscale>
<asrwt>0</asrwt>
<pdfrwt beam="1">  1        1 0.38810721E+00 0.73033232E+03</pdfrwt>
<pdfrwt beam="2">  1       -1 0.68871200E-01 0.73033232E+03</pdfrwt>
<totfact> 0.29721440E+00</totfact>
</mgrwt>
</event>
<event>
 4    1  0.4964158E-009  0.3596966E+03  0.7818608E-02  0.1058704E+00
         -1   -1    0    0    0  501 -0.00000000000E+00  0.00000000000E+00  0.77329251653E+03  0.77329251655E+03  0.50400000000E-02 0.  1.
          1   -1    0    0  501    0  0.00000000000E+00 -0.00000000000E+00 -0.30786571888E+04  0.30786571888E+04  0.50400000000E-02 0. -1.
    8880022    1    1    2    0    0  0.28104062162E+02 -0.32434570776E+03  0.72022696889E+03  0.80505187174E+03  0.15294330000E+03 0.  1.
    8880022    1    1    2    0    0 -0.28104062162E+02  0.32434570776E+03 -0.30255916411E+04  0.30468978336E+04  0.15294330000E+03 0.  0.
<mgrwt>
<rscale>  0 0.35969658E+03</rscale>
<asrwt>0</asrwt>
<pdfrwt beam="1">  1        1 0.47363956E+00 0.35969658E+03</pdfrwt>
<pdfrwt beam="2">  1       -1 0.11896808E+00 0.35969658E+03</pdfrwt>
<totfact> 0.41450343E-01</totfact>
</mgrwt>
</event>
<event>
 4    1  0.4964158E-009  0.1100620E+04  0.7818608E-02  0.9204588E-01
          1   -1    0    0  501    0  0.00000000000E+00  0.00000000000E+00  0.23735260079E+04  0.23735260079E+04  0.50400000000E-02 0. -1.
         -1   -1    0    0    0  501 -0.00000000000E+00 -0.00000000000E+00 -0.51783641065E+03  0.51783641067E+03  0.50400000000E-02 0.  1.
    8880022    1    1    2    0    0  0.10269749778E+04  0.36509678521E+03  0.75419525979E+03  0.13342321427E+04  0.15294330000E+03 0.  0.
    8880022    1    1    2    0    0 -0.10269749778E+04 -0.36509678521E+03  0.11014943375E+04  0.15571302759E+04  0.15294330000E+03 0.  0.
<mgrwt>
<rscale>  0 0.11006202E+04</rscale>
<asrwt>0</asrwt>
<pdfrwt beam="1">  1        1 0.36515785E+00 0.11006202E+04</pdfrwt>
<pdfrwt beam="2">  1       -1 0.79667140E-01 0.11006202E+04</pdfrwt>
<totfact> 0.26154108E+00</totfact>
</mgrwt>
</event>
<event>
 4    1  0.4964158E-009  0.1496825E+04  0.7818608E-02  0.8886567E-01
         -1   -1    0    0    0  501 -0.00000000000E+00  0.00000000000E+00  0.24407014181E+04  0.24407014181E+04  0.50400000000E-02 0.  1.
          1   -1    0    0  501    0  0.00000000000E+00 -0.00000000000E+00 -0.11877014664E+04  0.11877014664E+04  0.50400000000E-02 0. -1.
    8880022    1    1    2    0    0  0.12411666448E+04 -0.82255698054E+03  0.14910679021E+04  0.21127635381E+04  0.15294330000E+03 0.  0.
    8880022    1    1    2    0    0 -0.12411666448E+04  0.82255698054E+03 -0.23806795045E+03  0.15156393464E+04  0.15294330000E+03 0.  0.
<mgrwt>
<rscale>  0 0.14968254E+04</rscale>
<asrwt>0</asrwt>
<pdfrwt beam="1">  1        1 0.18272331E+00 0.14968254E+04</pdfrwt>
<pdfrwt beam="2">  1       -1 0.37549252E+00 0.14968254E+04</pdfrwt>
<totfact> 0.10881149E-01</totfact>
</mgrwt>
</event>
<event>
 4    1  0.4964158E-009  0.7057610E+03  0.7818608E-02  0.9707431E-01
         -1   -1    0    0    0  501 -0.00000000000E+00  0.00000000000E+00  0.17193813709E+04  0.17193813709E+04  0.50400000000E-02 0.  1.
          1   -1    0    0  501    0  0.00000000000E+00 -0.00000000000E+00 -0.17158615848E+04  0.17158615848E+04  0.50400000000E-02 0. -1.
    8880022    1    1    2    0    0 -0.41923802634E+03  0.54675992428E+03 -0.15641661677E+04  0.17160170136E+04  0.15294330000E+03 0.  0.
    8880022    1    1    2    0    0  0.41923802634E+03 -0.54675992428E+03  0.15676859538E+04  0.17192259422E+04  0.15294330000E+03 0.  0.
<mgrwt>
<rscale>  0 0.70576100E+03</rscale>
<asrwt>0</asrwt>
<pdfrwt beam="1">  1        1 0.26397871E+00 0.70576100E+03</pdfrwt>
<pdfrwt beam="2">  1       -1 0.26452021E+00 0.70576100E+03</pdfrwt>
<totfact> 0.28198655E-01</totfact>
</mgrwt>
</event>
<event>
 4    1  0.4983570E-009  0.1064540E+04  0.7818608E-02  0.9240460E-01
         -1   -1    0    0    0  501 -0.00000000000E+00  0.00000000000E+00  0.19965566561E+04  0.19965566561E+04  0.50400000000E-02 0.  1.
          1   -1    0    0  501    0  0.00000000000E+00 -0.00000000000E+00 -0.33537289531E+04  0.33537289531E+04  0.50400000000E-02 0. -1.
    8880022    1    1    2    0    0  0.26236102040E+03 -0.10203041258E+04  0.17596939879E+04  0.20566400750E+04  0.15294330000E+03 0.  0.
    8880022    1    1    2    0    0 -0.26236102040E+03  0.10203041258E+04 -0.31168662849E+04  0.32936455342E+04  0.15294330000E+03 0.  0.
<mgrwt>
<rscale>  0 0.10645400E+04</rscale>
<asrwt>0</asrwt>
<pdfrwt beam="1">  1        1 0.51595830E+00 0.10645400E+04</pdfrwt>
<pdfrwt beam="2">  1       -1 0.30716256E+00 0.10645400E+04</pdfrwt>
<totfact> 0.99491298E-03</totfact>
</mgrwt>
</event>
<event>
 4    1  0.4964158E-009  0.1648130E+04  0.7818608E-02  0.8791513E-01
         -1   -1    0    0    0  501 -0.00000000000E+00  0.00000000000E+00  0.17897499778E+04  0.17897499778E+04  0.50400000000E-02 0.  1.
          1   -1    0    0  501    0  0.00000000000E+00 -0.00000000000E+00 -0.16759813138E+04  0.16759813138E+04  0.50400000000E-02 0. -1.
    8880022    1    1    2    0    0 -0.16206803064E+04 -0.25756131961E+03 -0.47561819278E+03  0.17153853232E+04  0.15294330000E+03 0.  0.
    8880022    1    1    2    0    0  0.16206803064E+04  0.25756131961E+03  0.58938685677E+03  0.17503459683E+04  0.15294330000E+03 0.  0.
<mgrwt>
<rscale>  0 0.16481305E+04</rscale>
<asrwt>0</asrwt>
<pdfrwt beam="1">  1        1 0.25784328E+00 0.16481305E+04</pdfrwt>
<pdfrwt beam="2">  1       -1 0.27534615E+00 0.16481305E+04</pdfrwt>
<totfact> 0.21933752E-01</totfact>
</mgrwt>
</event>
<event>
 4    1  0.4964158E-009  0.1137216E+04  0.7818608E-02  0.9169659E-01
          1   -1    0    0  501    0  0.00000000000E+00  0.00000000000E+00  0.22572398095E+04  0.22572398095E+04  0.50400000000E-02 0. -1.
         -1   -1    0    0    0  501 -0.00000000000E+00 -0.00000000000E+00 -0.89105459539E+03  0.89105459540E+03  0.50400000000E-02 0.  1.
    8880022    1    1    2    0    0  0.97366542898E+03  0.56731238585E+03 -0.25746646117E+03  0.11659967163E+04  0.15294330000E+03 0.  0.
    8880022    1    1    2    0    0 -0.97366542898E+03 -0.56731238585E+03  0.16236516753E+04  0.19822976886E+04  0.15294330000E+03 0.  0.
<mgrwt>
<rscale>  0 0.11372156E+04</rscale>
<asrwt>0</asrwt>
<pdfrwt beam="1">  1        1 0.34726766E+00 0.11372156E+04</pdfrwt>
<pdfrwt beam="2">  1       -1 0.13708532E+00 0.11372156E+04</pdfrwt>
<totfact> 0.87616444E-01</totfact>
</mgrwt>
</event>
<event>
 4    1  0.6556188E-009  0.1229856E+04  0.7818608E-02  0.9087118E-01
         -1   -1    0    0    0  501 -0.00000000000E+00  0.00000000000E+00  0.12219527792E+04  0.12219527792E+04  0.50400000000E-02 0.  1.
          1   -1    0    0  501    0  0.00000000000E+00 -0.00000000000E+00 -0.23580330732E+04  0.23580330732E+04  0.50400000000E-02 0. -1.
    8880022    1    1    2    0    0 -0.17823770063E+03 -0.12072217043E+04 -0.18017946524E+04  0.21815151944E+04  0.15294330000E+03 0.  0.
    8880022    1    1    2    0    0  0.17823770063E+03  0.12072217043E+04  0.66571435840E+03  0.13984706580E+04  0.15294330000E+03 0.  0.
<mgrwt>
<rscale>  0 0.12298555E+04</rscale>
<asrwt>0</asrwt>
<pdfrwt beam="1">  1        1 0.36277432E+00 0.12298555E+04</pdfrwt>
<pdfrwt beam="2">  1       -1 0.18799274E+00 0.12298555E+04</pdfrwt>
<totfact> 0.30378178E-01</totfact>
</mgrwt>
</event>
<event>
 4    1  0.4964158E-009  0.5328340E+03  0.7818608E-02  0.1005547E+00
          1   -1    0    0  501    0  0.00000000000E+00  0.00000000000E+00  0.11944864112E+04  0.11944864112E+04  0.50400000000E-02 0. -1.
         -1   -1    0    0    0  501 -0.00000000000E+00 -0.00000000000E+00 -0.41173039632E+03  0.41173039635E+03  0.50400000000E-02 0.  1.
    8880022    1    1    2    0    0  0.48267708122E+03 -0.16596155000E+03 -0.13077574053E+03  0.54864774504E+03  0.15294330000E+03 0.  0.
    8880022    1    1    2    0    0 -0.48267708122E+03  0.16596155000E+03  0.91353175537E+03  0.10575690625E+04  0.15294330000E+03 0.  0.
<mgrwt>
<rscale>  0 0.53283398E+03</rscale>
<asrwt>0</asrwt>
<pdfrwt beam="1">  1        1 0.18376714E+00 0.53283398E+03</pdfrwt>
<pdfrwt beam="2">  1       -1 0.63343139E-01 0.53283398E+03</pdfrwt>
<totfact> 0.28919545E+01</totfact>
</mgrwt>
</event>
<event>
 4    1  0.4964158E-009  0.7873500E+03  0.7818608E-02  0.9578510E-01
         -1   -1    0    0    0  501 -0.00000000000E+00  0.00000000000E+00  0.64916737149E+03  0.64916737150E+03  0.50400000000E-02 0.  1.
          1   -1    0    0  501    0  0.00000000000E+00 -0.00000000000E+00 -0.21785726175E+04  0.21785726175E+04  0.50400000000E-02 0. -1.
    8880022    1    1    2    0    0  0.54085543840E+03 -0.55136532156E+03 -0.18243170507E+04  0.19869707289E+04  0.15294330000E+03 0.  0.
    8880022    1    1    2    0    0 -0.54085543840E+03  0.55136532156E+03  0.29491180473E+03  0.84076926006E+03  0.15294330000E+03 0.  0.
<mgrwt>
<rscale>  0 0.78734997E+03</rscale>
<asrwt>0</asrwt>
<pdfrwt beam="1">  1        1 0.33516501E+00 0.78734997E+03</pdfrwt>
<pdfrwt beam="2">  1       -1 0.99871905E-01 0.78734997E+03</pdfrwt>
<totfact> 0.22606284E+00</totfact>
</mgrwt>
</event>
<event>
 4    1  0.4964158E-009  0.1100049E+04  0.7818608E-02  0.9205144E-01
         -1   -1    0    0    0  501 -0.00000000000E+00  0.00000000000E+00  0.10028997021E+04  0.10028997021E+04  0.50400000000E-02 0.  1.
          1   -1    0    0  501    0  0.00000000000E+00 -0.00000000000E+00 -0.21878819329E+04  0.21878819329E+04  0.50400000000E-02 0. -1.
    8880022    1    1    2    0    0 -0.10589909044E+04  0.25545144583E+03  0.47594812803E+03  0.11985972845E+04  0.15294330000E+03 0.  0.
    8880022    1    1    2    0    0  0.10589909044E+04 -0.25545144583E+03 -0.16609303588E+04  0.19921843505E+04  0.15294330000E+03 0.  0.
<mgrwt>
<rscale>  0 0.11000495E+04</rscale>
<asrwt>0</asrwt>
<pdfrwt beam="1">  1        1 0.33659722E+00 0.11000495E+04</pdfrwt>
<pdfrwt beam="2">  1       -1 0.15429226E+00 0.11000495E+04</pdfrwt>
<totfact> 0.71607766E-01</totfact>
</mgrwt>
</event>
<event>
 4    1  0.4964158E-009  0.5525306E+03  0.7818608E-02  0.1000910E+00
         -1   -1    0    0    0  501 -0.00000000000E+00  0.00000000000E+00  0.29795915978E+03  0.29795915982E+03  0.50400000000E-02 0.  1.
          1   -1    0    0  501    0  0.00000000000E+00 -0.00000000000E+00 -0.11622467314E+04  0.11622467314E+04  0.50400000000E-02 0. -1.
    8880022    1    1    2    0    0 -0.11418918139E+03 -0.51851639232E+03 -0.18089036932E+03  0.58138747576E+03  0.15294330000E+03 0.  0.
    8880022    1    1    2    0    0  0.11418918139E+03  0.51851639232E+03 -0.68339720234E+03  0.87881841550E+03  0.15294330000E+03 0.  0.
<mgrwt>
<rscale>  0 0.55253061E+03</rscale>
<asrwt>0</asrwt>
<pdfrwt beam="1">  1        1 0.17880719E+00 0.55253061E+03</pdfrwt>
<pdfrwt beam="2">  1       -1 0.45839871E-01 0.55253061E+03</pdfrwt>
<totfact> 0.56487442E+01</totfact>
</mgrwt>
</event>
<event>
 4    1  0.4964158E-009  0.3830611E+03  0.7818608E-02  0.1049808E+00
          1   -1    0    0  501    0  0.00000000000E+00  0.00000000000E+00  0.24351033614E+04  0.24351033614E+04  0.50400000000E-02 0. -1.
         -1   -1    0    0    0  501 -0.00000000000E+00 -0.00000000000E+00 -0.21198310925E+03  0.21198310931E+03  0.50400000000E-02 0.  1.
    8880022    1    1    2    0    0  0.32124736400E+03  0.14193050874E+03 -0.81753806163E+01  0.38314831078E+03  0.15294330000E+03 0.  0.
    8880022    1    1    2    0    0 -0.32124736400E+03 -0.14193050874E+03  0.22312956327E+04  0.22639381599E+04  0.15294330000E+03 0.  0.
<mgrwt>
<rscale>  0 0.38306108E+03</rscale>
<asrwt>0</asrwt>
<pdfrwt beam="1">  1        1 0.37463126E+00 0.38306108E+03</pdfrwt>
<pdfrwt beam="2">  1       -1 0.32612788E-01 0.38306108E+03</pdfrwt>
<totfact> 0.15032021E+01</totfact>
</mgrwt>
</event>
<event>
 4    1  0.4964158E-009  0.1095376E+04  0.7818608E-02  0.9209710E-01
         -1   -1    0    0    0  501 -0.00000000000E+00  0.00000000000E+00  0.10004078499E+04  0.10004078499E+04  0.50400000000E-02 0.  1.
          1   -1    0    0  501    0  0.00000000000E+00 -0.00000000000E+00 -0.17649553163E+04  0.17649553163E+04  0.50400000000E-02 0. -1.
    8880022    1    1    2    0    0  0.10820125465E+04 -0.75537536971E+02  0.40044979789E+03  0.11662798823E+04  0.15294330000E+03 0.  0.
    8880022    1    1    2    0    0 -0.10820125465E+04  0.75537536971E+02 -0.11649972643E+04  0.15990832840E+04  0.15294330000E+03 0.  0.
<mgrwt>
<rscale>  0 0.10953761E+04</rscale>
<asrwt>0</asrwt>
<pdfrwt beam="1">  1        1 0.27153159E+00 0.10953761E+04</pdfrwt>
<pdfrwt beam="2">  1       -1 0.15390890E+00 0.10953761E+04</pdfrwt>
<totfact> 0.13929812E+00</totfact>
</mgrwt>
</event>
<event>
 4    1  0.4964158E-009  0.5875992E+03  0.7818608E-02  0.9931473E-01
          1   -1    0    0  501    0  0.00000000000E+00  0.00000000000E+00  0.22438226809E+04  0.22438226809E+04  0.50400000000E-02 0. -1.
         -1   -1    0    0    0  501 -0.00000000000E+00 -0.00000000000E+00 -0.42638747057E+03  0.42638747060E+03  0.50400000000E-02 0.  1.
    8880022    1    1    2    0    0 -0.88583011110E+02  0.56038757502E+03  0.19760625041E+04  0.20615760615E+04  0.15294330000E+03 0.  0.
    8880022    1    1    2    0    0  0.88583011110E+02 -0.56038757502E+03 -0.15862729385E+03  0.60863408996E+03  0.15294330000E+03 0.  0.
<mgrwt>
<rscale>  0 0.58759921E+03</rscale>
<asrwt>0</asrwt>
<pdfrwt beam="1">  1        1 0.34520348E+00 0.58759921E+03</pdfrwt>
<pdfrwt beam="2">  1       -1 0.65598074E-01 0.58759921E+03</pdfrwt>
<totfact> 0.52173797E+00</totfact>
</mgrwt>
</event>
<event>
 4    1  0.4964158E-009  0.4682347E+03  0.7818608E-02  0.1022420E+00
          1   -1    0    0  501    0  0.00000000000E+00  0.00000000000E+00  0.69607273663E+03  0.69607273665E+03  0.50400000000E-02 0. -1.
         -1   -1    0    0    0  501 -0.00000000000E+00 -0.00000000000E+00 -0.86961957569E+03  0.86961957571E+03  0.50400000000E-02 0.  1.
    8880022    1    1    2    0    0  0.27196396668E+02 -0.44171538195E+03  0.53842825192E+03  0.71354660543E+03  0.15294330000E+03 0.  0.
    8880022    1    1    2    0    0 -0.27196396668E+02  0.44171538195E+03 -0.71197509098E+03  0.85214570693E+03  0.15294330000E+03 0.  0.
<mgrwt>
<rscale>  0 0.46823474E+03</rscale>
<asrwt>0</asrwt>
<pdfrwt beam="1">  1        1 0.10708811E+00 0.46823474E+03</pdfrwt>
<pdfrwt beam="2">  1       -1 0.13378763E+00 0.46823474E+03</pdfrwt>
<totfact> 0.13926145E+01</totfact>
</mgrwt>
</event>
<event>
 4    1  0.4964158E-009  0.9592594E+03  0.7818608E-02  0.9354393E-01
         -1   -1    0    0    0  501 -0.00000000000E+00  0.00000000000E+00  0.12855412663E+04  0.12855412663E+04  0.50400000000E-02 0.  1.
          1   -1    0    0  501    0  0.00000000000E+00 -0.00000000000E+00 -0.12997293118E+04  0.12997293118E+04  0.50400000000E-02 0. -1.
    8880022    1    1    2    0    0  0.93109794417E+03 -0.17275287346E+03  0.85933525043E+03  0.12878802982E+04  0.15294330000E+03 0.  0.
    8880022    1    1    2    0    0 -0.93109794417E+03  0.17275287346E+03 -0.87352329589E+03  0.12973902799E+04  0.15294330000E+03 0.  0.
<mgrwt>
<rscale>  0 0.95925940E+03</rscale>
<asrwt>0</asrwt>
<pdfrwt beam="1">  1        1 0.19995835E+00 0.95925940E+03</pdfrwt>
<pdfrwt beam="2">  1       -1 0.19777558E+00 0.95925940E+03</pdfrwt>
<totfact> 0.14274913E+00</totfact>
</mgrwt>
</event>
<event>
 4    1  0.4964158E-009  0.2666528E+03  0.7818608E-02  0.1103211E+00
          1   -1    0    0  501    0  0.00000000000E+00  0.00000000000E+00  0.57438636894E+03  0.57438636897E+03  0.50400000000E-02 0. -1.
         -1   -1    0    0    0  501 -0.00000000000E+00 -0.00000000000E+00 -0.50010100006E+03  0.50010100009E+03  0.50400000000E-02 0.  1.
    8880022    1    1    2    0    0  0.11088963772E+03  0.18819023598E+03 -0.42888902861E+03  0.50502428511E+03  0.15294330000E+03 0.  0.
    8880022    1    1    2    0    0 -0.11088963772E+03 -0.18819023598E+03  0.50317439749E+03  0.56946308395E+03  0.15294330000E+03 0.  0.
<mgrwt>
<rscale>  0 0.26665283E+03</rscale>
<asrwt>0</asrwt>
<pdfrwt beam="1">  1        1 0.88367134E-01 0.26665283E+03</pdfrwt>
<pdfrwt beam="2">  1       -1 0.76938615E-01 0.26665283E+03</pdfrwt>
<totfact> 0.67108136E+01</totfact>
</mgrwt>
</event>
<event>
 4    1  0.4964158E-009  0.5388236E+03  0.7818608E-02  0.1004114E+00
          1   -1    0    0  501    0  0.00000000000E+00  0.00000000000E+00  0.12601455348E+04  0.12601455348E+04  0.50400000000E-02 0. -1.
         -1   -1    0    0    0  501 -0.00000000000E+00 -0.00000000000E+00 -0.14477278793E+04  0.14477278793E+04  0.50400000000E-02 0.  1.
    8880022    1    1    2    0    0 -0.40568228301E+03  0.31993923239E+03  0.11477456924E+04  0.12679318020E+04  0.15294330000E+03 0.  0.
    8880022    1    1    2    0    0  0.40568228301E+03 -0.31993923239E+03 -0.13353280369E+04  0.14399416121E+04  0.15294330000E+03 0.  0.
<mgrwt>
<rscale>  0 0.53882361E+03</rscale>
<asrwt>0</asrwt>
<pdfrwt beam="1">  1        1 0.19386854E+00 0.53882361E+03</pdfrwt>
<pdfrwt beam="2">  1       -1 0.22272737E+00 0.53882361E+03</pdfrwt>
<totfact> 0.11276593E+00</totfact>
</mgrwt>
</event>
<event>
 4    1  0.4964158E-009  0.1023613E+04  0.7818608E-02  0.9283019E-01
         -1   -1    0    0    0  501 -0.00000000000E+00  0.00000000000E+00  0.95230367077E+03  0.95230367078E+03  0.50400000000E-02 0.  1.
          1   -1    0    0  501    0  0.00000000000E+00 -0.00000000000E+00 -0.18967202295E+04  0.18967202295E+04  0.50400000000E-02 0. -1.
    8880022    1    1    2    0    0 -0.65023494446E+03  0.77561982362E+03 -0.13953025281E+04  0.17305063975E+04  0.15294330000E+03 0.  0.
    8880022    1    1    2    0    0  0.65023494446E+03 -0.77561982362E+03  0.45088596933E+03  0.11185175028E+04  0.15294330000E+03 0.  0.
<mgrwt>
<rscale>  0 0.10236128E+04</rscale>
<asrwt>0</asrwt>
<pdfrwt beam="1">  1        1 0.29180311E+00 0.10236128E+04</pdfrwt>
<pdfrwt beam="2">  1       -1 0.14650826E+00 0.10236128E+04</pdfrwt>
<totfact> 0.13096229E+00</totfact>
</mgrwt>
</event>
<event>
 4    1  0.4964158E-009  0.8236426E+03  0.7818608E-02  0.9526412E-01
          1   -1    0    0  501    0  0.00000000000E+00  0.00000000000E+00  0.10223083546E+04  0.10223083546E+04  0.50400000000E-02 0. -1.
         -1   -1    0    0    0  501 -0.00000000000E+00 -0.00000000000E+00 -0.11980859000E+04  0.11980859001E+04  0.50400000000E-02 0.  1.
    8880022    1    1    2    0    0  0.72542965006E+03 -0.35881374600E+03  0.65364490452E+03  0.10514936023E+04  0.15294330000E+03 0.  0.
    8880022    1    1    2    0    0 -0.72542965006E+03  0.35881374600E+03 -0.82942244998E+03  0.11689006523E+04  0.15294330000E+03 0.  0.
<mgrwt>
<rscale>  0 0.82364260E+03</rscale>
<asrwt>0</asrwt>
<pdfrwt beam="1">  1        1 0.15727821E+00 0.82364260E+03</pdfrwt>
<pdfrwt beam="2">  1       -1 0.18432091E+00 0.82364260E+03</pdfrwt>
<totfact> 0.28976255E+00</totfact>
</mgrwt>
</event>
<event>
 4    1  0.4964158E-009  0.7859888E+03  0.7818608E-02  0.9580522E-01
          1   -1    0    0  501    0  0.00000000000E+00  0.00000000000E+00  0.29091598368E+04  0.29091598368E+04  0.50400000000E-02 0. -1.
         -1   -1    0    0    0  501 -0.00000000000E+00 -0.00000000000E+00 -0.58599438623E+03  0.58599438626E+03  0.50400000000E-02 0.  1.
    8880022    1    1    2    0    0 -0.31952693613E+03 -0.70163325314E+03  0.25570357005E+04  0.26751093270E+04  0.15294330000E+03 0.  0.
    8880022    1    1    2    0    0  0.31952693613E+03  0.70163325314E+03 -0.23387024988E+03  0.82004489610E+03  0.15294330000E+03 0.  0.
<mgrwt>
<rscale>  0 0.78598876E+03</rscale>
<asrwt>0</asrwt>
<pdfrwt beam="1">  1        1 0.44756306E+00 0.78598876E+03</pdfrwt>
<pdfrwt beam="2">  1       -1 0.90152981E-01 0.78598876E+03</pdfrwt>
<totfact> 0.89483360E-01</totfact>
</mgrwt>
</event>
<event>
 4    1  0.4964158E-009  0.5120923E+03  0.7818608E-02  0.1010670E+00
          1   -1    0    0  501    0  0.00000000000E+00  0.00000000000E+00  0.12409641105E+04  0.12409641105E+04  0.50400000000E-02 0. -1.
         -1   -1    0    0    0  501 -0.00000000000E+00 -0.00000000000E+00 -0.11921245282E+04  0.11921245282E+04  0.50400000000E-02 0.  1.
    8880022    1    1    2    0    0 -0.33132236782E+03 -0.35926645887E+03  0.11278851609E+04  0.12386942678E+04  0.15294330000E+03 0.  0.
    8880022    1    1    2    0    0  0.33132236782E+03  0.35926645887E+03 -0.10790455785E+04  0.11943943709E+04  0.15294330000E+03 0.  0.
<mgrwt>
<rscale>  0 0.51209233E+03</rscale>
<asrwt>0</asrwt>
<pdfrwt beam="1">  1        1 0.19091755E+00 0.51209233E+03</pdfrwt>
<pdfrwt beam="2">  1       -1 0.18340378E+00 0.51209233E+03</pdfrwt>
<totfact> 0.21630964E+00</totfact>
</mgrwt>
</event>
<event>
 4    1  0.4964158E-009  0.6542743E+03  0.7818608E-02  0.9798792E-01
         -1   -1    0    0    0  501 -0.00000000000E+00  0.00000000000E+00  0.16036323822E+04  0.16036323822E+04  0.50400000000E-02 0.  1.
          1   -1    0    0  501    0  0.00000000000E+00 -0.00000000000E+00 -0.12623270159E+04  0.12623270159E+04  0.50400000000E-02 0. -1.
    8880022    1    1    2    0    0 -0.30583225952E+02  0.63541155679E+03  0.14431296242E+04  0.15845182061E+04  0.15294330000E+03 0.  0.
    8880022    1    1    2    0    0  0.30583225952E+02 -0.63541155679E+03 -0.11018242579E+04  0.12814411920E+04  0.15294330000E+03 0.  0.
<mgrwt>
<rscale>  0 0.65427428E+03</rscale>
<asrwt>0</asrwt>
<pdfrwt beam="1">  1        1 0.19420416E+00 0.65427428E+03</pdfrwt>
<pdfrwt beam="2">  1       -1 0.24671267E+00 0.65427428E+03</pdfrwt>
<totfact> 0.76113845E-01</totfact>
</mgrwt>
</event>
<event>
 4    1  0.4964158E-009  0.3079204E+03  0.7818608E-02  0.1081347E+00
         -1   -1    0    0    0  501 -0.00000000000E+00  0.00000000000E+00  0.90697912022E+03  0.90697912024E+03  0.50400000000E-02 0.  1.
          1   -1    0    0  501    0  0.00000000000E+00 -0.00000000000E+00 -0.89429623319E+03  0.89429623320E+03  0.50400000000E-02 0. -1.
    8880022    1    1    2    0    0  0.26512951675E+03 -0.33610811720E+02 -0.84002049062E+03  0.89467839194E+03  0.15294330000E+03 0. -1.
    8880022    1    1    2    0    0 -0.26512951675E+03  0.33610811720E+02  0.85270337766E+03  0.90659696150E+03  0.15294330000E+03 0.  0.
<mgrwt>
<rscale>  0 0.30792044E+03</rscale>
<asrwt>0</asrwt>
<pdfrwt beam="1">  1        1 0.13758404E+00 0.30792044E+03</pdfrwt>
<pdfrwt beam="2">  1       -1 0.13953525E+00 0.30792044E+03</pdfrwt>
<totfact> 0.88450977E+00</totfact>
</mgrwt>
</event>
<event>
 4    1  0.4964158E-009  0.2629582E+03  0.7818608E-02  0.1105379E+00
          1   -1    0    0  501    0  0.00000000000E+00  0.00000000000E+00  0.18276494690E+03  0.18276494697E+03  0.50400000000E-02 0. -1.
         -1   -1    0    0    0  501 -0.00000000000E+00 -0.00000000000E+00 -0.46871140469E+03  0.46871140471E+03  0.50400000000E-02 0.  1.
    8880022    1    1    2    0    0  0.74032698573E+02  0.20068514857E+03  0.59338916965E-01  0.26295822074E+03  0.15294330000E+03 0.  0.
    8880022    1    1    2    0    0 -0.74032698573E+02 -0.20068514857E+03 -0.28600579670E+03  0.38851813095E+03  0.15294330000E+03 0.  0.
<mgrwt>
<rscale>  0 0.26295821E+03</rscale>
<asrwt>0</asrwt>
<pdfrwt beam="1">  1        1 0.28117684E-01 0.26295821E+03</pdfrwt>
<pdfrwt beam="2">  1       -1 0.72109446E-01 0.26295821E+03</pdfrwt>
<totfact> 0.33403602E+02</totfact>
</mgrwt>
</event>
<event>
 4    1  0.4964158E-009  0.3691681E+03  0.7818608E-02  0.1055012E+00
         -1   -1    0    0    0  501 -0.00000000000E+00  0.00000000000E+00  0.13016575897E+03  0.13016575907E+03  0.50400000000E-02 0.  1.
          1   -1    0    0  501    0  0.00000000000E+00 -0.00000000000E+00 -0.14889510649E+04  0.14889510649E+04  0.50400000000E-02 0. -1.
    8880022    1    1    2    0    0 -0.16662277694E+03  0.29177097119E+03 -0.23834124929E+03  0.43942195389E+03  0.15294330000E+03 0.  0.
    8880022    1    1    2    0    0  0.16662277694E+03 -0.29177097119E+03 -0.11204440566E+04  0.11796948700E+04  0.15294330000E+03 0.  0.
<mgrwt>
<rscale>  0 0.36916812E+03</rscale>
<asrwt>0</asrwt>
<pdfrwt beam="1">  1        1 0.22906938E+00 0.36916812E+03</pdfrwt>
<pdfrwt beam="2">  1       -1 0.20025502E-01 0.36916812E+03</pdfrwt>
<totfact> 0.14485638E+02</totfact>
</mgrwt>
</event>
<event>
 4    1  0.4964158E-009  0.7547633E+03  0.7818608E-02  0.9627907E-01
          1   -1    0    0  501    0  0.00000000000E+00  0.00000000000E+00  0.69866063991E+03  0.69866063992E+03  0.50400000000E-02 0. -1.
         -1   -1    0    0    0  501 -0.00000000000E+00 -0.00000000000E+00 -0.17947811649E+04  0.17947811649E+04  0.50400000000E-02 0.  1.
    8880022    1    1    2    0    0 -0.13236073271E+03 -0.72715656983E+03 -0.14690308718E+04  0.16515808778E+04  0.15294330000E+03 0.  1.
    8880022    1    1    2    0    0  0.13236073271E+03  0.72715656983E+03  0.37291034684E+03  0.84186092700E+03  0.15294330000E+03 0.  0.
<mgrwt>
<rscale>  0 0.75476334E+03</rscale>
<asrwt>0</asrwt>
<pdfrwt beam="1">  1        1 0.10748625E+00 0.75476334E+03</pdfrwt>
<pdfrwt beam="2">  1       -1 0.27612018E+00 0.75476334E+03</pdfrwt>
<totfact> 0.13537749E+00</totfact>
</mgrwt>
</event>
<event>
 4    1  0.4964158E-009  0.8671609E+03  0.7818608E-02  0.9467589E-01
          1   -1    0    0  501    0  0.00000000000E+00  0.00000000000E+00  0.25872547154E+04  0.25872547154E+04  0.50400000000E-02 0. -1.
         -1   -1    0    0    0  501 -0.00000000000E+00 -0.00000000000E+00 -0.37017641863E+03  0.37017641867E+03  0.50400000000E-02 0.  1.
    8880022    1    1    2    0    0 -0.21980034386E+03 -0.82478132535E+03  0.42312280565E+03  0.96488392436E+03  0.15294330000E+03 0.  0.
    8880022    1    1    2    0    0  0.21980034386E+03  0.82478132535E+03  0.17939554911E+04  0.19925472097E+04  0.15294330000E+03 0.  0.
<mgrwt>
<rscale>  0 0.86716093E+03</rscale>
<asrwt>0</asrwt>
<pdfrwt beam="1">  1        1 0.39803917E+00 0.86716093E+03</pdfrwt>
<pdfrwt beam="2">  1       -1 0.56950221E-01 0.86716093E+03</pdfrwt>
<totfact> 0.38253638E+00</totfact>
</mgrwt>
</event>
<event>
 4    1  0.4964158E-009  0.8149225E+03  0.7818608E-02  0.9538665E-01
          1   -1    0    0  501    0  0.00000000000E+00  0.00000000000E+00  0.37486682262E+03  0.37486682265E+03  0.50400000000E-02 0. -1.
         -1   -1    0    0    0  501 -0.00000000000E+00 -0.00000000000E+00 -0.20072578380E+04  0.20072578380E+04  0.50400000000E-02 0.  1.
    8880022    1    1    2    0    0 -0.88323841865E+02  0.79555388882E+03 -0.12243377109E+04  0.14707486442E+04  0.15294330000E+03 0.  0.
    8880022    1    1    2    0    0  0.88323841865E+02 -0.79555388882E+03 -0.40805330446E+03  0.91137601645E+03  0.15294330000E+03 0.  0.
<mgrwt>
<rscale>  0 0.81492254E+03</rscale>
<asrwt>0</asrwt>
<pdfrwt beam="1">  1        1 0.57671820E-01 0.81492254E+03</pdfrwt>
<pdfrwt beam="2">  1       -1 0.30880889E+00 0.81492254E+03</pdfrwt>
<totfact> 0.19725082E+00</totfact>
</mgrwt>
</event>
<event>
 4    1  0.4964158E-009  0.5965507E+03  0.7818608E-02  0.9912588E-01
         -1   -1    0    0    0  501 -0.00000000000E+00  0.00000000000E+00  0.11700775759E+04  0.11700775759E+04  0.50400000000E-02 0.  1.
          1   -1    0    0  501    0  0.00000000000E+00 -0.00000000000E+00 -0.43528141289E+03  0.43528141292E+03  0.50400000000E-02 0. -1.
    8880022    1    1    2    0    0  0.17485230706E+03  0.54946134997E+03 -0.73176508925E+02  0.60102209516E+03  0.15294330000E+03 0.  0.
    8880022    1    1    2    0    0 -0.17485230706E+03 -0.54946134997E+03  0.80797267193E+03  0.10043368937E+04  0.15294330000E+03 0.  0.
<mgrwt>
<rscale>  0 0.59655072E+03</rscale>
<asrwt>0</asrwt>
<pdfrwt beam="1">  1        1 0.66966371E-01 0.59655072E+03</pdfrwt>
<pdfrwt beam="2">  1       -1 0.18001194E+00 0.59655072E+03</pdfrwt>
<totfact> 0.11715390E+01</totfact>
</mgrwt>
</event>
<event>
 4    1  0.4964158E-009  0.1050619E+04  0.7818608E-02  0.9254705E-01
          1   -1    0    0  501    0  0.00000000000E+00  0.00000000000E+00  0.10941646936E+04  0.10941646936E+04  0.50400000000E-02 0. -1.
         -1   -1    0    0    0  501 -0.00000000000E+00 -0.00000000000E+00 -0.11114823986E+04  0.11114823986E+04  0.50400000000E-02 0.  1.
    8880022    1    1    2    0    0 -0.28821791931E+03  0.99866854726E+03  0.32653010164E+03  0.11001917999E+04  0.15294330000E+03 0.  0.
    8880022    1    1    2    0    0  0.28821791931E+03 -0.99866854726E+03 -0.34384780665E+03  0.11054552924E+04  0.15294330000E+03 0.  0.
<mgrwt>
<rscale>  0 0.10506189E+04</rscale>
<asrwt>0</asrwt>
<pdfrwt beam="1">  1        1 0.16833303E+00 0.10506189E+04</pdfrwt>
<pdfrwt beam="2">  1       -1 0.17099729E+00 0.10506189E+04</pdfrwt>
<totfact> 0.30900949E+00</totfact>
</mgrwt>
</event>
<event>
 4    1  0.4964158E-009  0.2102818E+03  0.7818608E-02  0.1141343E+00
         -1   -1    0    0    0  501 -0.00000000000E+00  0.00000000000E+00  0.45389791989E+02  0.45389792268E+02  0.50400000000E-02 0.  1.
          1   -1    0    0  501    0  0.00000000000E+00 -0.00000000000E+00 -0.24253410227E+04  0.24253410227E+04  0.50400000000E-02 0. -1.
    8880022    1    1    2    0    0 -0.14356661498E+03 -0.14677429673E+02 -0.23440063265E+03  0.31490015795E+03  0.15294330000E+03 0.  0.
    8880022    1    1    2    0    0  0.14356661498E+03  0.14677429673E+02 -0.21455505981E+04  0.21558306570E+04  0.15294330000E+03 0. -1.
<mgrwt>
<rscale>  0 0.21028184E+03</rscale>
<asrwt>0</asrwt>
<pdfrwt beam="1">  1        1 0.37312929E+00 0.21028184E+03</pdfrwt>
<pdfrwt beam="2">  1       -1 0.69830468E-02 0.21028184E+03</pdfrwt>
<totfact> 0.19179160E+02</totfact>
</mgrwt>
</event>
<event>
 4    1  0.4964158E-009  0.1017511E+04  0.7818608E-02  0.9289545E-01
         -1   -1    0    0    0  501 -0.00000000000E+00  0.00000000000E+00  0.62286443912E+03  0.62286443914E+03  0.50400000000E-02 0.  1.
          1   -1    0    0  501    0  0.00000000000E+00 -0.00000000000E+00 -0.20271535399E+04  0.20271535399E+04  0.50400000000E-02 0. -1.
    8880022    1    1    2    0    0 -0.13924002832E+03 -0.99626717388E+03 -0.12643459896E+04  0.16229289885E+04  0.15294330000E+03 0.  0.
    8880022    1    1    2    0    0  0.13924002832E+03  0.99626717388E+03 -0.13994311125E+03  0.10270889906E+04  0.15294330000E+03 0.  0.
<mgrwt>
<rscale>  0 0.10175106E+04</rscale>
<asrwt>0</asrwt>
<pdfrwt beam="1">  1        1 0.31186977E+00 0.10175106E+04</pdfrwt>
<pdfrwt beam="2">  1       -1 0.95825299E-01 0.10175106E+04</pdfrwt>
<totfact> 0.30266174E+00</totfact>
</mgrwt>
</event>
<event>
 4    1  0.4964158E-009  0.3682812E+03  0.7818608E-02  0.1055352E+00
         -1   -1    0    0    0  501 -0.00000000000E+00  0.00000000000E+00  0.39959379689E+03  0.39959379692E+03  0.50400000000E-02 0.  1.
          1   -1    0    0  501    0  0.00000000000E+00 -0.00000000000E+00 -0.74775860725E+03  0.74775860726E+03  0.50400000000E-02 0. -1.
    8880022    1    1    2    0    0  0.16321338675E+03  0.29257613285E+03  0.24984852930E+03  0.44503409277E+03  0.15294330000E+03 0.  1.
    8880022    1    1    2    0    0 -0.16321338675E+03 -0.29257613285E+03 -0.59801333965E+03  0.70231831141E+03  0.15294330000E+03 0.  0.
<mgrwt>
<rscale>  0 0.36828122E+03</rscale>
<asrwt>0</asrwt>
<pdfrwt beam="1">  1        1 0.11503978E+00 0.36828122E+03</pdfrwt>
<pdfrwt beam="2">  1       -1 0.61475969E-01 0.36828122E+03</pdfrwt>
<totfact> 0.70498934E+01</totfact>
</mgrwt>
</event>
<event>
 4    1  0.4964158E-009  0.9799967E+03  0.7818608E-02  0.9330760E-01
         -1   -1    0    0    0  501 -0.00000000000E+00  0.00000000000E+00  0.12914651543E+04  0.12914651543E+04  0.50400000000E-02 0.  1.
          1   -1    0    0  501    0  0.00000000000E+00 -0.00000000000E+00 -0.88249844111E+03  0.88249844112E+03  0.50400000000E-02 0. -1.
    8880022    1    1    2    0    0 -0.96649572026E+03 -0.53738477082E+02  0.63564625427E+03  0.11680922972E+04  0.15294330000E+03 0.  0.
    8880022    1    1    2    0    0  0.96649572026E+03  0.53738477082E+02 -0.22667954109E+03  0.10058712982E+04  0.15294330000E+03 0.  0.
<mgrwt>
<rscale>  0 0.97999666E+03</rscale>
<asrwt>0</asrwt>
<pdfrwt beam="1">  1        1 0.13576899E+00 0.97999666E+03</pdfrwt>
<pdfrwt beam="2">  1       -1 0.19868695E+00 0.97999666E+03</pdfrwt>
<totfact> 0.29098542E+00</totfact>
</mgrwt>
</event>
<event>
 4    1  0.4964158E-009  0.1878891E+03  0.7818608E-02  0.1160379E+00
         -1   -1    0    0    0  501 -0.00000000000E+00  0.00000000000E+00  0.12650680169E+03  0.12650680179E+03  0.50400000000E-02 0.  1.
          1   -1    0    0  501    0  0.00000000000E+00 -0.00000000000E+00 -0.15235102620E+04  0.15235102620E+04  0.50400000000E-02 0. -1.
    8880022    1    1    2    0    0 -0.39080035666E+02  0.10189910729E+03 -0.14441352562E+04  0.14563066190E+04  0.15294330000E+03 0.  0.
    8880022    1    1    2    0    0  0.39080035666E+02 -0.10189910729E+03  0.47131795847E+02  0.19371044486E+03  0.15294330000E+03 0.  1.
<mgrwt>
<rscale>  0 0.18788914E+03</rscale>
<asrwt>0</asrwt>
<pdfrwt beam="1">  1        1 0.23438618E+00 0.18788914E+03</pdfrwt>
<pdfrwt beam="2">  1       -1 0.19462586E-01 0.18788914E+03</pdfrwt>
<totfact> 0.15005246E+02</totfact>
</mgrwt>
</event>
<event>
 4    1  0.4964158E-009  0.2122698E+03  0.7818608E-02  0.1139781E+00
         -1   -1    0    0    0  501 -0.00000000000E+00  0.00000000000E+00  0.71115539068E+03  0.71115539070E+03  0.50400000000E-02 0.  1.
          1   -1    0    0  501    0  0.00000000000E+00 -0.00000000000E+00 -0.28943384441E+04  0.28943384441E+04  0.50400000000E-02 0. -1.
    8880022    1    1    2    0    0  0.13680549294E+03  0.54323934861E+02  0.69131436767E+03  0.72316944125E+03  0.15294330000E+03 0.  0.
    8880022    1    1    2    0    0 -0.13680549294E+03 -0.54323934861E+02 -0.28744974211E+04  0.28823243935E+04  0.15294330000E+03 0. -1.
<mgrwt>
<rscale>  0 0.21226984E+03</rscale>
<asrwt>0</asrwt>
<pdfrwt beam="1">  1        1 0.44528283E+00 0.21226984E+03</pdfrwt>
<pdfrwt beam="2">  1       -1 0.10940852E+00 0.21226984E+03</pdfrwt>
<totfact> 0.75363444E-01</totfact>
</mgrwt>
</event>
<event>
 4    1  0.4964158E-009  0.5152141E+03  0.7818608E-02  0.1009882E+00
         -1   -1    0    0    0  501 -0.00000000000E+00  0.00000000000E+00  0.37609663307E+03  0.37609663310E+03  0.50400000000E-02 0.  1.
          1   -1    0    0  501    0  0.00000000000E+00 -0.00000000000E+00 -0.22164386992E+04  0.22164386992E+04  0.50400000000E-02 0. -1.
    8880022    1    1    2    0    0 -0.18198870321E+02 -0.49165303601E+03 -0.19903303709E+04  0.20559330109E+04  0.15294330000E+03 0. -1.
    8880022    1    1    2    0    0  0.18198870321E+02  0.49165303601E+03  0.14998830487E+03  0.53660232138E+03  0.15294330000E+03 0.  0.
<mgrwt>
<rscale>  0 0.51521409E+03</rscale>
<asrwt>0</asrwt>
<pdfrwt beam="1">  1        1 0.34099056E+00 0.51521409E+03</pdfrwt>
<pdfrwt beam="2">  1       -1 0.57861022E-01 0.51521409E+03</pdfrwt>
<totfact> 0.70925394E+00</totfact>
</mgrwt>
</event>
<event>
 4    1  0.4964158E-009  0.2988370E+03  0.7818608E-02  0.1085823E+00
          1   -1    0    0  501    0  0.00000000000E+00  0.00000000000E+00  0.16576994122E+03  0.16576994129E+03  0.50400000000E-02 0. -1.
         -1   -1    0    0    0  501 -0.00000000000E+00 -0.00000000000E+00 -0.17715286062E+04  0.17715286062E+04  0.50400000000E-02 0.  1.
    8880022    1    1    2    0    0 -0.24274782132E+03 -0.83578724354E+02 -0.16109332207E+04  0.16384167365E+04  0.15294330000E+03 0.  0.
    8880022    1    1    2    0    0  0.24274782132E+03  0.83578724354E+02  0.51745556774E+01  0.29888181103E+03  0.15294330000E+03 0. -1.
<mgrwt>
<rscale>  0 0.29883701E+03</rscale>
<asrwt>0</asrwt>
<pdfrwt beam="1">  1        1 0.25503069E-01 0.29883701E+03</pdfrwt>
<pdfrwt beam="2">  1       -1 0.27254285E+00 0.29883701E+03</pdfrwt>
<totfact> 0.10668540E+01</totfact>
</mgrwt>
</event>
<event>
 4    1  0.4964158E-009  0.3029638E+03  0.7818608E-02  0.1083768E+00
         -1   -1    0    0    0  501 -0.00000000000E+00  0.00000000000E+00  0.11170394451E+03  0.11170394463E+03  0.50400000000E-02 0.  1.
          1   -1    0    0  501    0  0.00000000000E+00 -0.00000000000E+00 -0.15415286402E+04  0.15415286402E+04  0.50400000000E-02 0. -1.
    8880022    1    1    2    0    0  0.11212577770E+03  0.23626942931E+03 -0.12797749787E+04  0.13151467912E+04  0.15294330000E+03 0.  0.
    8880022    1    1    2    0    0 -0.11212577770E+03 -0.23626942931E+03 -0.15004971690E+03  0.33808579356E+03  0.15294330000E+03 0.  0.
<mgrwt>
<rscale>  0 0.30296384E+03</rscale>
<asrwt>0</asrwt>
<pdfrwt beam="1">  1        1 0.23715824E+00 0.30296384E+03</pdfrwt>
<pdfrwt beam="2">  1       -1 0.17185223E-01 0.30296384E+03</pdfrwt>
<totfact> 0.17346259E+02</totfact>
</mgrwt>
</event>
<event>
 4    1  0.4964158E-009  0.1065706E+04  0.7818608E-02  0.9239277E-01
         -1   -1    0    0    0  501 -0.00000000000E+00  0.00000000000E+00  0.12078329110E+04  0.12078329110E+04  0.50400000000E-02 0.  1.
          1   -1    0    0  501    0  0.00000000000E+00 -0.00000000000E+00 -0.12676512383E+04  0.12676512383E+04  0.50400000000E-02 0. -1.
    8880022    1    1    2    0    0 -0.10506005153E+04 -0.92604583873E+02  0.59906872495E+03  0.12225432679E+04  0.15294330000E+03 0.  0.
    8880022    1    1    2    0    0  0.10506005153E+04  0.92604583873E+02 -0.65888705227E+03  0.12529408814E+04  0.15294330000E+03 0.  0.
<mgrwt>
<rscale>  0 0.10657057E+04</rscale>
<asrwt>0</asrwt>
<pdfrwt beam="1">  1        1 0.19502327E+00 0.10657057E+04</pdfrwt>
<pdfrwt beam="2">  1       -1 0.18582045E+00 0.10657057E+04</pdfrwt>
<totfact> 0.17975274E+00</totfact>
</mgrwt>
</event>
<event>
 4    1  0.4964158E-009  0.7063061E+03  0.7818608E-02  0.9706508E-01
         -1   -1    0    0    0  501 -0.00000000000E+00  0.00000000000E+00  0.30285184060E+03  0.30285184064E+03  0.50400000000E-02 0.  1.
          1   -1    0    0  501    0  0.00000000000E+00 -0.00000000000E+00 -0.22571662573E+04  0.22571662573E+04  0.50400000000E-02 0. -1.
    8880022    1    1    2    0    0  0.66990526297E+03  0.16341213726E+03 -0.31177435446E+03  0.77205666183E+03  0.15294330000E+03 0.  0.
    8880022    1    1    2    0    0 -0.66990526297E+03 -0.16341213726E+03 -0.16425400623E+04  0.17879614362E+04  0.15294330000E+03 0.  0.
<mgrwt>
<rscale>  0 0.70630605E+03</rscale>
<asrwt>0</asrwt>
<pdfrwt beam="1">  1        1 0.34725634E+00 0.70630605E+03</pdfrwt>
<pdfrwt beam="2">  1       -1 0.46592592E-01 0.70630605E+03</pdfrwt>
<totfact> 0.96635268E+00</totfact>
</mgrwt>
</event>
<event>
 4    1  0.4964158E-009  0.6902038E+03  0.7818608E-02  0.9734133E-01
         -1   -1    0    0    0  501 -0.00000000000E+00  0.00000000000E+00  0.58157432451E+03  0.58157432453E+03  0.50400000000E-02 0.  1.
          1   -1    0    0  501    0  0.00000000000E+00 -0.00000000000E+00 -0.17233500781E+04  0.17233500781E+04  0.50400000000E-02 0. -1.
    8880022    1    1    2    0    0 -0.32031084704E+03 -0.59193799016E+03  0.26390462073E+03  0.73893634691E+03  0.15294330000E+03 0.  0.
    8880022    1    1    2    0    0  0.32031084704E+03  0.59193799016E+03 -0.14056803743E+04  0.15659880557E+04  0.15294330000E+03 0.  0.
<mgrwt>
<rscale>  0 0.69020379E+03</rscale>
<asrwt>0</asrwt>
<pdfrwt beam="1">  1        1 0.26513078E+00 0.69020379E+03</pdfrwt>
<pdfrwt beam="2">  1       -1 0.89472974E-01 0.69020379E+03</pdfrwt>
<totfact> 0.59335115E+00</totfact>
</mgrwt>
</event>
<event>
 4    1  0.4964158E-009  0.4077231E+03  0.7818608E-02  0.1041138E+00
         -1   -1    0    0    0  501 -0.00000000000E+00  0.00000000000E+00  0.91502938895E+03  0.91502938896E+03  0.50400000000E-02 0.  1.
          1   -1    0    0  501    0  0.00000000000E+00 -0.00000000000E+00 -0.17058837614E+04  0.17058837614E+04  0.50400000000E-02 0. -1.
    8880022    1    1    2    0    0 -0.37527584863E+03 -0.44883296461E+02  0.84328416783E+03  0.93667834052E+03  0.15294330000E+03 0.  0.
    8880022    1    1    2    0    0  0.37527584863E+03  0.44883296461E+02 -0.16341385402E+04  0.16842348098E+04  0.15294330000E+03 0. -1.
<mgrwt>
<rscale>  0 0.40772310E+03</rscale>
<asrwt>0</asrwt>
<pdfrwt beam="1">  1        1 0.26244366E+00 0.40772310E+03</pdfrwt>
<pdfrwt beam="2">  1       -1 0.14077375E+00 0.40772310E+03</pdfrwt>
<totfact> 0.22405488E+00</totfact>
</mgrwt>
</event>
<event>
 4    1  0.4964158E-009  0.1239943E+04  0.7818608E-02  0.9078595E-01
          1   -1    0    0  501    0  0.00000000000E+00  0.00000000000E+00  0.12622838558E+04  0.12622838558E+04  0.50400000000E-02 0. -1.
         -1   -1    0    0    0  501 -0.00000000000E+00 -0.00000000000E+00 -0.18789085100E+04  0.18789085100E+04  0.50400000000E-02 0.  1.
    8880022    1    1    2    0    0  0.41390488803E+03 -0.11587709435E+04 -0.12398128497E+04  0.17534522836E+04  0.15294330000E+03 0.  0.
    8880022    1    1    2    0    0 -0.41390488803E+03  0.11587709435E+04  0.62318819546E+03  0.13877400822E+04  0.15294330000E+03 0.  0.
<mgrwt>
<rscale>  0 0.12399431E+04</rscale>
<asrwt>0</asrwt>
<pdfrwt beam="1">  1        1 0.19419752E+00 0.12399431E+04</pdfrwt>
<pdfrwt beam="2">  1       -1 0.28906285E+00 0.12399431E+04</pdfrwt>
<totfact> 0.36612323E-01</totfact>
</mgrwt>
</event>
<event>
 4    1  0.5607116E-009  0.1099660E+04  0.7818608E-02  0.9205523E-01
          1   -1    0    0  501    0  0.00000000000E+00  0.00000000000E+00  0.20834164853E+04  0.20834164853E+04  0.50400000000E-02 0. -1.
         -1   -1    0    0    0  501 -0.00000000000E+00 -0.00000000000E+00 -0.26252132780E+04  0.26252132780E+04  0.50400000000E-02 0.  1.
    8880022    1    1    2    0    0  0.10312903563E+04  0.34971455693E+03  0.18069181696E+04  0.21152316647E+04  0.15294330000E+03 0.  0.
    8880022    1    1    2    0    0 -0.10312903563E+04 -0.34971455693E+03 -0.23487149624E+04  0.25933980986E+04  0.15294330000E+03 0.  0.
<mgrwt>
<rscale>  0 0.10996598E+04</rscale>
<asrwt>0</asrwt>
<pdfrwt beam="1">  1        1 0.32052561E+00 0.10996598E+04</pdfrwt>
<pdfrwt beam="2">  1       -1 0.40387896E+00 0.10996598E+04</pdfrwt>
<totfact> 0.17835496E-02</totfact>
</mgrwt>
</event>
<event>
 4    1  0.4964158E-009  0.9903214E+03  0.7818608E-02  0.9319224E-01
         -1   -1    0    0    0  501 -0.00000000000E+00  0.00000000000E+00  0.19552450993E+04  0.19552450993E+04  0.50400000000E-02 0.  1.
          1   -1    0    0  501    0  0.00000000000E+00 -0.00000000000E+00 -0.86663371240E+03  0.86663371241E+03  0.50400000000E-02 0. -1.
    8880022    1    1    2    0    0 -0.53125726728E+03 -0.82165114566E+03  0.14600230415E+04  0.17642006190E+04  0.15294330000E+03 0.  0.
    8880022    1    1    2    0    0  0.53125726728E+03  0.82165114566E+03 -0.37141165462E+03  0.10576781927E+04  0.15294330000E+03 0.  0.
<mgrwt>
<rscale>  0 0.99032143E+03</rscale>
<asrwt>0</asrwt>
<pdfrwt beam="1">  1        1 0.13332827E+00 0.99032143E+03</pdfrwt>
<pdfrwt beam="2">  1       -1 0.30080693E+00 0.99032143E+03</pdfrwt>
<totfact> 0.64258816E-01</totfact>
</mgrwt>
</event>
<event>
 4    1  0.4964158E-009  0.1066461E+04  0.7818608E-02  0.9238512E-01
          1   -1    0    0  501    0  0.00000000000E+00  0.00000000000E+00  0.16912259677E+04  0.16912259677E+04  0.50400000000E-02 0. -1.
         -1   -1    0    0    0  501 -0.00000000000E+00 -0.00000000000E+00 -0.11936571182E+04  0.11936571183E+04  0.50400000000E-02 0.  1.
    8880022    1    1    2    0    0  0.14632168130E+03  0.10452452809E+04 -0.70433044617E+03  0.12780535052E+04  0.15294330000E+03 0.  0.
    8880022    1    1    2    0    0 -0.14632168130E+03 -0.10452452809E+04  0.12018992956E+04  0.16068295808E+04  0.15294330000E+03 0.  0.
<mgrwt>
<rscale>  0 0.10664612E+04</rscale>
<asrwt>0</asrwt>
<pdfrwt beam="1">  1        1 0.26018861E+00 0.10664612E+04</pdfrwt>
<pdfrwt beam="2">  1       -1 0.18363956E+00 0.10664612E+04</pdfrwt>
<totfact> 0.94544011E-01</totfact>
</mgrwt>
</event>
<event>
 4    1  0.4964158E-009  0.8576454E+03  0.7818608E-02  0.9480133E-01
         -1   -1    0    0    0  501 -0.00000000000E+00  0.00000000000E+00  0.82650071371E+03  0.82650071373E+03  0.50400000000E-02 0.  1.
          1   -1    0    0  501    0  0.00000000000E+00 -0.00000000000E+00 -0.10846459695E+04  0.10846459695E+04  0.50400000000E-02 0. -1.
    8880022    1    1    2    0    0  0.15800517098E+02 -0.84375011785E+03  0.27576726990E+03  0.90089020301E+03  0.15294330000E+03 0.  0.
    8880022    1    1    2    0    0 -0.15800517098E+02  0.84375011785E+03 -0.53391252564E+03  0.10102564802E+04  0.15294330000E+03 0.  0.
<mgrwt>
<rscale>  0 0.85764536E+03</rscale>
<asrwt>0</asrwt>
<pdfrwt beam="1">  1        1 0.16686861E+00 0.85764536E+03</pdfrwt>
<pdfrwt beam="2">  1       -1 0.12715396E+00 0.85764536E+03</pdfrwt>
<totfact> 0.71211432E+00</totfact>
</mgrwt>
</event>
<event>
 4    1  0.4964158E-009  0.4236358E+03  0.7818608E-02  0.1035889E+00
         -1   -1    0    0    0  501 -0.00000000000E+00  0.00000000000E+00  0.98389086784E+03  0.98389086785E+03  0.50400000000E-02 0.  1.
          1   -1    0    0  501    0  0.00000000000E+00 -0.00000000000E+00 -0.15117435331E+04  0.15117435331E+04  0.50400000000E-02 0. -1.
    8880022    1    1    2    0    0 -0.34836973832E+03  0.18631729360E+03  0.90619149827E+03  0.10003250937E+04  0.15294330000E+03 0.  0.
    8880022    1    1    2    0    0  0.34836973832E+03 -0.18631729360E+03 -0.14340441635E+04  0.14953093073E+04  0.15294330000E+03 0.  0.
<mgrwt>
<rscale>  0 0.42363577E+03</rscale>
<asrwt>0</asrwt>
<pdfrwt beam="1">  1        1 0.23257593E+00 0.42363577E+03</pdfrwt>
<pdfrwt beam="2">  1       -1 0.15136783E+00 0.42363577E+03</pdfrwt>
<totfact> 0.24812828E+00</totfact>
</mgrwt>
</event>
<event>
 4    1  0.4964158E-009  0.4558785E+03  0.7818608E-02  0.1025983E+00
          1   -1    0    0  501    0  0.00000000000E+00  0.00000000000E+00  0.19228676952E+04  0.19228676952E+04  0.50400000000E-02 0. -1.
         -1   -1    0    0    0  501 -0.00000000000E+00 -0.00000000000E+00 -0.23562071435E+03  0.23562071441E+03  0.50400000000E-02 0.  1.
    8880022    1    1    2    0    0  0.41265777803E+03  0.11894156497E+03  0.49595243078E+02  0.45856829241E+03  0.15294330000E+03 0.  1.
    8880022    1    1    2    0    0 -0.41265777803E+03 -0.11894156497E+03  0.16376517378E+04  0.16999201172E+04  0.15294330000E+03 0.  0.
<mgrwt>
<rscale>  0 0.45587848E+03</rscale>
<asrwt>0</asrwt>
<pdfrwt beam="1">  1        1 0.29582581E+00 0.45587848E+03</pdfrwt>
<pdfrwt beam="2">  1       -1 0.36249339E-01 0.45587848E+03</pdfrwt>
<totfact> 0.26730094E+01</totfact>
</mgrwt>
</event>
<event>
 4    1  0.4964158E-009  0.1491503E+04  0.7818608E-02  0.8890123E-01
          1   -1    0    0  501    0  0.00000000000E+00  0.00000000000E+00  0.22507300673E+04  0.22507300673E+04  0.50400000000E-02 0. -1.
         -1   -1    0    0    0  501 -0.00000000000E+00 -0.00000000000E+00 -0.17356012001E+04  0.17356012001E+04  0.50400000000E-02 0.  1.
    8880022    1    1    2    0    0 -0.14823987583E+04  0.60682324948E+02 -0.10502392649E+04  0.18241662725E+04  0.15294330000E+03 0.  0.
    8880022    1    1    2    0    0  0.14823987583E+04 -0.60682324948E+02  0.15653681321E+04  0.21621649949E+04  0.15294330000E+03 0.  0.
<mgrwt>
<rscale>  0 0.14915026E+04</rscale>
<asrwt>0</asrwt>
<pdfrwt beam="1">  1        1 0.34626616E+00 0.14915026E+04</pdfrwt>
<pdfrwt beam="2">  1       -1 0.26701557E+00 0.14915026E+04</pdfrwt>
<totfact> 0.10259188E-01</totfact>
</mgrwt>
</event>
<event>
 4    1  0.4964158E-009  0.1920601E+03  0.7818608E-02  0.1156616E+00
          1   -1    0    0  501    0  0.00000000000E+00  0.00000000000E+00  0.36564815010E+03  0.36564815014E+03  0.50400000000E-02 0. -1.
         -1   -1    0    0    0  501 -0.00000000000E+00 -0.00000000000E+00 -0.18087290920E+03  0.18087290927E+03  0.50400000000E-02 0.  1.
    8880022    1    1    2    0    0 -0.11614786827E+03 -0.22609464238E+01 -0.89336312386E+02  0.21182084153E+03  0.15294330000E+03 0.  0.
    8880022    1    1    2    0    0  0.11614786827E+03  0.22609464238E+01  0.27411155329E+03  0.33470021787E+03  0.15294330000E+03 0.  0.
<mgrwt>
<rscale>  0 0.19206013E+03</rscale>
<asrwt>0</asrwt>
<pdfrwt beam="1">  1        1 0.56253561E-01 0.19206013E+03</pdfrwt>
<pdfrwt beam="2">  1       -1 0.27826602E-01 0.19206013E+03</pdfrwt>
<totfact> 0.79211160E+02</totfact>
</mgrwt>
</event>
<event>
 4    1  0.4964158E-009  0.8167593E+03  0.7818608E-02  0.9536071E-01
         -1   -1    0    0    0  501 -0.00000000000E+00  0.00000000000E+00  0.18637653612E+04  0.18637653612E+04  0.50400000000E-02 0.  1.
          1   -1    0    0  501    0  0.00000000000E+00 -0.00000000000E+00 -0.63960793821E+03  0.63960793823E+03  0.50400000000E-02 0. -1.
    8880022    1    1    2    0    0  0.65849078161E+02 -0.79960486951E+03 -0.21856708733E+03  0.84549823957E+03  0.15294330000E+03 0.  0.
    8880022    1    1    2    0    0 -0.65849078161E+02  0.79960486951E+03  0.14427245103E+04  0.16578750599E+04  0.15294330000E+03 0.  0.
<mgrwt>
<rscale>  0 0.81675927E+03</rscale>
<asrwt>0</asrwt>
<pdfrwt beam="1">  1        1 0.98401223E-01 0.81675927E+03</pdfrwt>
<pdfrwt beam="2">  1       -1 0.28673313E+00 0.81675927E+03</pdfrwt>
<totfact> 0.13066528E+00</totfact>
</mgrwt>
</event>
<event>
 4    1  0.4964158E-009  0.6438321E+03  0.7818608E-02  0.9818422E-01
         -1   -1    0    0    0  501 -0.00000000000E+00  0.00000000000E+00  0.41126216454E+03  0.41126216458E+03  0.50400000000E-02 0.  1.
          1   -1    0    0  501    0  0.00000000000E+00 -0.00000000000E+00 -0.27059689704E+04  0.27059689704E+04  0.50400000000E-02 0. -1.
    8880022    1    1    2    0    0  0.22722605451E+03 -0.58266318375E+03  0.87321435668E+02  0.64972667460E+03  0.15294330000E+03 0.  0.
    8880022    1    1    2    0    0 -0.22722605451E+03  0.58266318375E+03 -0.23820282415E+04  0.24675044604E+04  0.15294330000E+03 0. -1.
<mgrwt>
<rscale>  0 0.64383206E+03</rscale>
<asrwt>0</asrwt>
<pdfrwt beam="1">  1        1 0.41630291E+00 0.64383206E+03</pdfrwt>
<pdfrwt beam="2">  1       -1 0.63271104E-01 0.64383206E+03</pdfrwt>
<totfact> 0.26875832E+00</totfact>
</mgrwt>
</event>
<event>
 4    1  0.4964158E-009  0.1010667E+04  0.7818608E-02  0.9296922E-01
          1   -1    0    0  501    0  0.00000000000E+00  0.00000000000E+00  0.12958579400E+04  0.12958579400E+04  0.50400000000E-02 0. -1.
         -1   -1    0    0    0  501 -0.00000000000E+00 -0.00000000000E+00 -0.10498462521E+04  0.10498462521E+04  0.50400000000E-02 0.  1.
    8880022    1    1    2    0    0 -0.48920568762E+03 -0.87105353944E+03 -0.46246298179E+03  0.11114495652E+04  0.15294330000E+03 0.  0.
    8880022    1    1    2    0    0  0.48920568762E+03  0.87105353944E+03  0.70847466974E+03  0.12342546269E+04  0.15294330000E+03 0.  0.
<mgrwt>
<rscale>  0 0.10106672E+04</rscale>
<asrwt>0</asrwt>
<pdfrwt beam="1">  1        1 0.19936276E+00 0.10106672E+04</pdfrwt>
<pdfrwt beam="2">  1       -1 0.16151481E+00 0.10106672E+04</pdfrwt>
<totfact> 0.25995085E+00</totfact>
</mgrwt>
</event>
<event>
 4    1  0.4964158E-009  0.5619317E+03  0.7818608E-02  0.9987693E-01
         -1   -1    0    0    0  501 -0.00000000000E+00  0.00000000000E+00  0.62233529431E+03  0.62233529433E+03  0.50400000000E-02 0.  1.
          1   -1    0    0  501    0  0.00000000000E+00 -0.00000000000E+00 -0.16974380310E+04  0.16974380310E+04  0.50400000000E-02 0. -1.
    8880022    1    1    2    0    0  0.12711892046E+02  0.54056821951E+03  0.43363074923E+03  0.70979072397E+03  0.15294330000E+03 0.  0.
    8880022    1    1    2    0    0 -0.12711892046E+02 -0.54056821951E+03 -0.15087334859E+04  0.16099826014E+04  0.15294330000E+03 0.  0.
<mgrwt>
<rscale>  0 0.56193171E+03</rscale>
<asrwt>0</asrwt>
<pdfrwt beam="1">  1        1 0.26114431E+00 0.56193171E+03</pdfrwt>
<pdfrwt beam="2">  1       -1 0.95743892E-01 0.56193171E+03</pdfrwt>
<totfact> 0.54569277E+00</totfact>
</mgrwt>
</event>
<event>
 4    1  0.4964158E-009  0.3725962E+03  0.7818608E-02  0.1053705E+00
          1   -1    0    0  501    0  0.00000000000E+00  0.00000000000E+00  0.40329954728E+04  0.40329954728E+04  0.50400000000E-02 0. -1.
         -1   -1    0    0    0  501 -0.00000000000E+00 -0.00000000000E+00 -0.59341178544E+02  0.59341178758E+02  0.50400000000E-02 0.  1.
    8880022    1    1    2    0    0 -0.11270147065E+03 -0.32052244003E+03  0.33127589649E+04  0.33336466322E+04  0.15294330000E+03 0.  0.
    8880022    1    1    2    0    0  0.11270147065E+03  0.32052244003E+03  0.66089532933E+03  0.75869001930E+03  0.15294330000E+03 0.  0.
<mgrwt>
<rscale>  0 0.37259617E+03</rscale>
<asrwt>0</asrwt>
<pdfrwt beam="1">  1        1 0.62046092E+00 0.37259617E+03</pdfrwt>
<pdfrwt beam="2">  1       -1 0.91294109E-02 0.37259617E+03</pdfrwt>
<totfact> 0.79082568E+00</totfact>
</mgrwt>
</event>
<event>
 4    1  0.4964158E-009  0.1052950E+04  0.7818608E-02  0.9252304E-01
          1   -1    0    0  501    0  0.00000000000E+00  0.00000000000E+00  0.17242613784E+04  0.17242613784E+04  0.50400000000E-02 0. -1.
         -1   -1    0    0    0  501 -0.00000000000E+00 -0.00000000000E+00 -0.67784219837E+03  0.67784219839E+03  0.50400000000E-02 0.  1.
    8880022    1    1    2    0    0  0.10206812555E+04 -0.20861911747E+03  0.79550270485E+03  0.13196697950E+04  0.15294330000E+03 0.  0.
    8880022    1    1    2    0    0 -0.10206812555E+04  0.20861911747E+03  0.25091647522E+03  0.10824337818E+04  0.15294330000E+03 0.  0.
<mgrwt>
<rscale>  0 0.10529501E+04</rscale>
<asrwt>0</asrwt>
<pdfrwt beam="1">  1        1 0.26527098E+00 0.10529501E+04</pdfrwt>
<pdfrwt beam="2">  1       -1 0.10428342E+00 0.10529501E+04</pdfrwt>
<totfact> 0.39728938E+00</totfact>
</mgrwt>
</event>
<event>
 4    1  0.4964158E-009  0.2446863E+03  0.7818608E-02  0.1116710E+00
          1   -1    0    0  501    0  0.00000000000E+00  0.00000000000E+00  0.65591818255E+03  0.65591818257E+03  0.50400000000E-02 0. -1.
         -1   -1    0    0    0  501 -0.00000000000E+00 -0.00000000000E+00 -0.62065335850E+03  0.62065335852E+03  0.50400000000E-02 0.  1.
    8880022    1    1    2    0    0 -0.18201115744E+03  0.57893704861E+02  0.60711659790E+03  0.65457005656E+03  0.15294330000E+03 0. -1.
    8880022    1    1    2    0    0  0.18201115744E+03 -0.57893704861E+02 -0.57185177385E+03  0.62200148453E+03  0.15294330000E+03 0.  0.
<mgrwt>
<rscale>  0 0.24468632E+03</rscale>
<asrwt>0</asrwt>
<pdfrwt beam="1">  1        1 0.10091049E+00 0.24468632E+03</pdfrwt>
<pdfrwt beam="2">  1       -1 0.95485133E-01 0.24468632E+03</pdfrwt>
<totfact> 0.35444051E+01</totfact>
</mgrwt>
</event>
<event>
 4    1  0.4964158E-009  0.1520446E+04  0.7818608E-02  0.8870970E-01
          1   -1    0    0  501    0  0.00000000000E+00  0.00000000000E+00  0.18227881220E+04  0.18227881220E+04  0.50400000000E-02 0. -1.
         -1   -1    0    0    0  501 -0.00000000000E+00 -0.00000000000E+00 -0.17930501958E+04  0.17930501958E+04  0.50400000000E-02 0.  1.
    8880022    1    1    2    0    0  0.11591429786E+04 -0.97198284125E+03  0.99295922786E+03  0.18159633173E+04  0.15294330000E+03 0.  0.
    8880022    1    1    2    0    0 -0.11591429786E+04  0.97198284125E+03 -0.96322130163E+03  0.17998750005E+04  0.15294330000E+03 0.  0.
<mgrwt>
<rscale>  0 0.15204456E+04</rscale>
<asrwt>0</asrwt>
<pdfrwt beam="1">  1        1 0.28042894E+00 0.15204456E+04</pdfrwt>
<pdfrwt beam="2">  1       -1 0.27585388E+00 0.15204456E+04</pdfrwt>
<totfact> 0.17520954E-01</totfact>
</mgrwt>
</event>
<event>
 4    1  0.4964158E-009  0.1138381E+04  0.7818608E-02  0.9168570E-01
          1   -1    0    0  501    0  0.00000000000E+00  0.00000000000E+00  0.28045193244E+04  0.28045193244E+04  0.50400000000E-02 0. -1.
         -1   -1    0    0    0  501 -0.00000000000E+00 -0.00000000000E+00 -0.90842445779E+03  0.90842445780E+03  0.50400000000E-02 0.  1.
    8880022    1    1    2    0    0  0.15621023846E+02  0.11279519208E+04 -0.35325796127E+03  0.11919322096E+04  0.15294330000E+03 0.  0.
    8880022    1    1    2    0    0 -0.15621023846E+02 -0.11279519208E+04  0.22493528279E+04  0.25210115726E+04  0.15294330000E+03 0.  0.
<mgrwt>
<rscale>  0 0.11383810E+04</rscale>
<asrwt>0</asrwt>
<pdfrwt beam="1">  1        1 0.43146450E+00 0.11383810E+04</pdfrwt>
<pdfrwt beam="2">  1       -1 0.13975761E+00 0.11383810E+04</pdfrwt>
<totfact> 0.34838727E-01</totfact>
</mgrwt>
</event>
<event>
 4    1  0.4964158E-009  0.5230308E+03  0.7818608E-02  0.1007936E+00
          1   -1    0    0  501    0  0.00000000000E+00  0.00000000000E+00  0.37604990686E+03  0.37604990689E+03  0.50400000000E-02 0. -1.
         -1   -1    0    0    0  501 -0.00000000000E+00 -0.00000000000E+00 -0.10066468660E+04  0.10066468660E+04  0.50400000000E-02 0.  1.
    8880022    1    1    2    0    0 -0.19997409397E+03 -0.45845386991E+03  0.48789147486E+02  0.52530145919E+03  0.15294330000E+03 0.  0.
    8880022    1    1    2    0    0  0.19997409397E+03  0.45845386991E+03 -0.67938610661E+03  0.85739531370E+03  0.15294330000E+03 0.  0.
<mgrwt>
<rscale>  0 0.52303082E+03</rscale>
<asrwt>0</asrwt>
<pdfrwt beam="1">  1        1 0.57853832E-01 0.52303082E+03</pdfrwt>
<pdfrwt beam="2">  1       -1 0.15486875E+00 0.52303082E+03</pdfrwt>
<totfact> 0.21960050E+01</totfact>
</mgrwt>
</event>
<event>
 4    1  0.4964158E-009  0.6258839E+03  0.7818608E-02  0.9853114E-01
         -1   -1    0    0    0  501 -0.00000000000E+00  0.00000000000E+00  0.65206411946E+03  0.65206411948E+03  0.50400000000E-02 0.  1.
          1   -1    0    0  501    0  0.00000000000E+00 -0.00000000000E+00 -0.11772105850E+04  0.11772105850E+04  0.50400000000E-02 0. -1.
    8880022    1    1    2    0    0 -0.11687355609E+02 -0.60679685785E+03  0.37746341359E+03  0.73089623244E+03  0.15294330000E+03 0.  0.
    8880022    1    1    2    0    0  0.11687355609E+02  0.60679685785E+03 -0.90260987915E+03  0.10983784721E+04  0.15294330000E+03 0.  0.
<mgrwt>
<rscale>  0 0.62588391E+03</rscale>
<asrwt>0</asrwt>
<pdfrwt beam="1">  1        1 0.18110932E+00 0.62588391E+03</pdfrwt>
<pdfrwt beam="2">  1       -1 0.10031756E+00 0.62588391E+03</pdfrwt>
<totfact> 0.11074887E+01</totfact>
</mgrwt>
</event>
<event>
 4    1  0.4964158E-009  0.8942041E+03  0.7818608E-02  0.9432856E-01
          1   -1    0    0  501    0  0.00000000000E+00  0.00000000000E+00  0.16551868393E+04  0.16551868393E+04  0.50400000000E-02 0. -1.
         -1   -1    0    0    0  501 -0.00000000000E+00 -0.00000000000E+00 -0.15466313644E+04  0.15466313644E+04  0.50400000000E-02 0.  1.
    8880022    1    1    2    0    0  0.77258350319E+03  0.42346675928E+03  0.13818276356E+04  0.16459187809E+04  0.15294330000E+03 0.  0.
    8880022    1    1    2    0    0 -0.77258350319E+03 -0.42346675928E+03 -0.12732721607E+04  0.15558994228E+04  0.15294330000E+03 0.  0.
<mgrwt>
<rscale>  0 0.89420413E+03</rscale>
<asrwt>0</asrwt>
<pdfrwt beam="1">  1        1 0.25464413E+00 0.89420413E+03</pdfrwt>
<pdfrwt beam="2">  1       -1 0.23794329E+00 0.89420413E+03</pdfrwt>
<totfact> 0.44103184E-01</totfact>
</mgrwt>
</event>
<event>
 4    1  0.4964158E-009  0.3438365E+03  0.7818608E-02  0.1065174E+00
         -1   -1    0    0    0  501 -0.00000000000E+00  0.00000000000E+00  0.21173083773E+03  0.21173083779E+03  0.50400000000E-02 0.  1.
          1   -1    0    0  501    0  0.00000000000E+00 -0.00000000000E+00 -0.32669391145E+04  0.32669391145E+04  0.50400000000E-02 0. -1.
    8880022    1    1    2    0    0  0.50469372898E+02 -0.30378397862E+03 -0.31113405805E+04  0.31302817324E+04  0.15294330000E+03 0.  0.
    8880022    1    1    2    0    0 -0.50469372898E+02  0.30378397862E+03  0.56132303673E+02  0.34838821995E+03  0.15294330000E+03 0.  0.
<mgrwt>
<rscale>  0 0.34383647E+03</rscale>
<asrwt>0</asrwt>
<pdfrwt beam="1">  1        1 0.50260598E+00 0.34383647E+03</pdfrwt>
<pdfrwt beam="2">  1       -1 0.32573977E-01 0.34383647E+03</pdfrwt>
<totfact> 0.40366306E+00</totfact>
</mgrwt>
</event>
<event>
 4    1  0.4964158E-009  0.3632279E+03  0.7818608E-02  0.1057313E+00
         -1   -1    0    0    0  501 -0.00000000000E+00  0.00000000000E+00  0.20206003609E+03  0.20206003615E+03  0.50400000000E-02 0.  1.
          1   -1    0    0  501    0  0.00000000000E+00 -0.00000000000E+00 -0.22952869688E+04  0.22952869688E+04  0.50400000000E-02 0. -1.
    8880022    1    1    2    0    0  0.92549914863E+02 -0.31619202112E+03 -0.21028517525E+04  0.21339915714E+04  0.15294330000E+03 0. -1.
    8880022    1    1    2    0    0 -0.92549914863E+02  0.31619202112E+03  0.96248197053E+01  0.36335543360E+03  0.15294330000E+03 0.  0.
<mgrwt>
<rscale>  0 0.36322794E+03</rscale>
<asrwt>0</asrwt>
<pdfrwt beam="1">  1        1 0.35312105E+00 0.36322794E+03</pdfrwt>
<pdfrwt beam="2">  1       -1 0.31086161E-01 0.36322794E+03</pdfrwt>
<totfact> 0.20359611E+01</totfact>
</mgrwt>
</event>
<event>
 4    1  0.4964158E-009  0.7226871E+03  0.7818608E-02  0.9679202E-01
         -1   -1    0    0    0  501 -0.00000000000E+00  0.00000000000E+00  0.95969808925E+03  0.95969808926E+03  0.50400000000E-02 0.  1.
          1   -1    0    0  501    0  0.00000000000E+00 -0.00000000000E+00 -0.14236726362E+04  0.14236726362E+04  0.50400000000E-02 0. -1.
    8880022    1    1    2    0    0 -0.63248799817E+01 -0.70628958011E+03  0.70463699178E+03  0.10093512363E+04  0.15294330000E+03 0.  1.
    8880022    1    1    2    0    0  0.63248799817E+01  0.70628958011E+03 -0.11686115387E+04  0.13740194892E+04  0.15294330000E+03 0.  0.
<mgrwt>
<rscale>  0 0.72268709E+03</rscale>
<asrwt>0</asrwt>
<pdfrwt beam="1">  1        1 0.21902656E+00 0.72268709E+03</pdfrwt>
<pdfrwt beam="2">  1       -1 0.14764586E+00 0.72268709E+03</pdfrwt>
<totfact> 0.28249287E+00</totfact>
</mgrwt>
</event>
<event>
 4    1  0.4964158E-009  0.3549436E+03  0.7818608E-02  0.1060604E+00
         -1   -1    0    0    0  501 -0.00000000000E+00  0.00000000000E+00  0.78472300942E+03  0.78472300944E+03  0.50400000000E-02 0.  1.
          1   -1    0    0  501    0  0.00000000000E+00 -0.00000000000E+00 -0.30946134458E+03  0.30946134462E+03  0.50400000000E-02 0. -1.
    8880022    1    1    2    0    0 -0.30864545173E+03  0.85622887033E+02  0.61714284550E+03  0.71193415315E+03  0.15294330000E+03 0.  0.
    8880022    1    1    2    0    0  0.30864545173E+03 -0.85622887033E+02 -0.14188118066E+03  0.38225020091E+03  0.15294330000E+03 0.  0.
<mgrwt>
<rscale>  0 0.35494358E+03</rscale>
<asrwt>0</asrwt>
<pdfrwt beam="1">  1        1 0.47609438E-01 0.35494358E+03</pdfrwt>
<pdfrwt beam="2">  1       -1 0.12072662E+00 0.35494358E+03</pdfrwt>
<totfact> 0.54674437E+01</totfact>
</mgrwt>
</event>
<event>
 4    1  0.4964158E-009  0.8231969E+03  0.7818608E-02  0.9527035E-01
          1   -1    0    0  501    0  0.00000000000E+00  0.00000000000E+00  0.17939533436E+04  0.17939533436E+04  0.50400000000E-02 0. -1.
         -1   -1    0    0    0  501 -0.00000000000E+00 -0.00000000000E+00 -0.39543001441E+03  0.39543001445E+03  0.50400000000E-02 0.  1.
    8880022    1    1    2    0    0 -0.68502838673E+03 -0.43011339597E+03  0.46774304995E+03  0.94680337865E+03  0.15294330000E+03 0.  0.
    8880022    1    1    2    0    0  0.68502838673E+03  0.43011339597E+03  0.93078027926E+03  0.12425799794E+04  0.15294330000E+03 0.  0.
<mgrwt>
<rscale>  0 0.82319686E+03</rscale>
<asrwt>0</asrwt>
<pdfrwt beam="1">  1        1 0.27599282E+00 0.82319686E+03</pdfrwt>
<pdfrwt beam="2">  1       -1 0.60835386E-01 0.82319686E+03</pdfrwt>
<totfact> 0.11618684E+01</totfact>
</mgrwt>
</event>
<event>
 4    1  0.4964158E-009  0.6604796E+03  0.7818608E-02  0.9787311E-01
          1   -1    0    0  501    0  0.00000000000E+00  0.00000000000E+00  0.17278682061E+04  0.17278682061E+04  0.50400000000E-02 0. -1.
         -1   -1    0    0    0  501 -0.00000000000E+00 -0.00000000000E+00 -0.33573465652E+03  0.33573465656E+03  0.50400000000E-02 0.  1.
    8880022    1    1    2    0    0 -0.26733263691E+03 -0.58427296683E+03  0.12099101870E+04  0.13784469349E+04  0.15294330000E+03 0.  0.
    8880022    1    1    2    0    0  0.26733263691E+03  0.58427296683E+03  0.18222336254E+03  0.68515592780E+03  0.15294330000E+03 0.  0.
<mgrwt>
<rscale>  0 0.66047959E+03</rscale>
<asrwt>0</asrwt>
<pdfrwt beam="1">  1        1 0.26582587E+00 0.66047959E+03</pdfrwt>
<pdfrwt beam="2">  1       -1 0.51651487E-01 0.66047959E+03</pdfrwt>
<totfact> 0.18103108E+01</totfact>
</mgrwt>
</event>
<event>
 4    1  0.4964158E-009  0.3746726E+03  0.7818608E-02  0.1052921E+00
          1   -1    0    0  501    0  0.00000000000E+00  0.00000000000E+00  0.22694431858E+04  0.22694431858E+04  0.50400000000E-02 0. -1.
         -1   -1    0    0    0  501 -0.00000000000E+00 -0.00000000000E+00 -0.11790367346E+03  0.11790367357E+03  0.50400000000E-02 0.  1.
    8880022    1    1    2    0    0  0.23734697494E+03  0.24628093823E+03  0.25277099499E+03  0.45196539245E+03  0.15294330000E+03 0.  1.
    8880022    1    1    2    0    0 -0.23734697494E+03 -0.24628093823E+03  0.18987685173E+04  0.19353814669E+04  0.15294330000E+03 0.  0.
<mgrwt>
<rscale>  0 0.37467258E+03</rscale>
<asrwt>0</asrwt>
<pdfrwt beam="1">  1        1 0.34914509E+00 0.37467258E+03</pdfrwt>
<pdfrwt beam="2">  1       -1 0.18139028E-01 0.37467258E+03</pdfrwt>
<totfact> 0.52012863E+01</totfact>
</mgrwt>
</event>
<event>
 4    1  0.4964158E-009  0.5965135E+03  0.7818608E-02  0.9912666E-01
          1   -1    0    0  501    0  0.00000000000E+00  0.00000000000E+00  0.23279713361E+04  0.23279713361E+04  0.50400000000E-02 0. -1.
         -1   -1    0    0    0  501 -0.00000000000E+00 -0.00000000000E+00 -0.83636139649E+03  0.83636139650E+03  0.50400000000E-02 0.  1.
    8880022    1    1    2    0    0  0.30719401815E+03  0.48792271003E+03 -0.68449890636E+03  0.90794666229E+03  0.15294330000E+03 0.  0.
    8880022    1    1    2    0    0 -0.30719401815E+03 -0.48792271003E+03  0.21761088459E+04  0.22563860703E+04  0.15294330000E+03 0.  0.
<mgrwt>
<rscale>  0 0.59651353E+03</rscale>
<asrwt>0</asrwt>
<pdfrwt beam="1">  1        1 0.35814944E+00 0.59651353E+03</pdfrwt>
<pdfrwt beam="2">  1       -1 0.12867098E+00 0.59651353E+03</pdfrwt>
<totfact> 0.10245687E+00</totfact>
</mgrwt>
</event>
<event>
 4    1  0.4964158E-009  0.4138881E+03  0.7818608E-02  0.1039074E+00
          1   -1    0    0  501    0  0.00000000000E+00  0.00000000000E+00  0.18458380641E+04  0.18458380641E+04  0.50400000000E-02 0. -1.
         -1   -1    0    0    0  501 -0.00000000000E+00 -0.00000000000E+00 -0.51115843500E+03  0.51115843502E+03  0.50400000000E-02 0.  1.
    8880022    1    1    2    0    0 -0.19035610969E+03  0.33417995079E+03  0.17335007115E+04  0.17822255911E+04  0.15294330000E+03 0.  0.
    8880022    1    1    2    0    0  0.19035610969E+03 -0.33417995079E+03 -0.39882108232E+03  0.57477090804E+03  0.15294330000E+03 0.  1.
<mgrwt>
<rscale>  0 0.41388808E+03</rscale>
<asrwt>0</asrwt>
<pdfrwt beam="1">  1        1 0.28397509E+00 0.41388808E+03</pdfrwt>
<pdfrwt beam="2">  1       -1 0.78639758E-01 0.41388808E+03</pdfrwt>
<totfact> 0.69204876E+00</totfact>
</mgrwt>
</event>
<event>
 4    1  0.4964158E-009  0.5538379E+03  0.7818608E-02  0.1000609E+00
          1   -1    0    0  501    0  0.00000000000E+00  0.00000000000E+00  0.61544236413E+03  0.61544236416E+03  0.50400000000E-02 0. -1.
         -1   -1    0    0    0  501 -0.00000000000E+00 -0.00000000000E+00 -0.11968124048E+04  0.11968124048E+04  0.50400000000E-02 0.  1.
    8880022    1    1    2    0    0 -0.30190863950E+03 -0.43840158450E+03  0.40151595962E+03  0.68406980254E+03  0.15294330000E+03 0.  0.
    8880022    1    1    2    0    0  0.30190863950E+03  0.43840158450E+03 -0.98288600030E+03  0.11281849664E+04  0.15294330000E+03 0.  0.
<mgrwt>
<rscale>  0 0.55383791E+03</rscale>
<asrwt>0</asrwt>
<pdfrwt beam="1">  1        1 0.94683441E-01 0.55383791E+03</pdfrwt>
<pdfrwt beam="2">  1       -1 0.18412498E+00 0.55383791E+03</pdfrwt>
<totfact> 0.68478908E+00</totfact>
</mgrwt>
</event>
<event>
 4    1  0.4964158E-009  0.4380336E+03  0.7818608E-02  0.1031352E+00
         -1   -1    0    0    0  501 -0.00000000000E+00  0.00000000000E+00  0.22470566631E+03  0.22470566636E+03  0.50400000000E-02 0.  1.
          1   -1    0    0  501    0  0.00000000000E+00 -0.00000000000E+00 -0.29743610512E+04  0.29743610512E+04  0.50400000000E-02 0. -1.
    8880022    1    1    2    0    0  0.38510572571E+03  0.14204004159E+03 -0.27253844788E+04  0.27603612090E+04  0.15294330000E+03 0.  0.
    8880022    1    1    2    0    0 -0.38510572571E+03 -0.14204004159E+03 -0.24270906055E+02  0.43870550861E+03  0.15294330000E+03 0.  0.
<mgrwt>
<rscale>  0 0.43803361E+03</rscale>
<asrwt>0</asrwt>
<pdfrwt beam="1">  1        1 0.45759398E+00 0.43803361E+03</pdfrwt>
<pdfrwt beam="2">  1       -1 0.34570105E-01 0.43803361E+03</pdfrwt>
<totfact> 0.56941983E+00</totfact>
</mgrwt>
</event>
<event>
 4    1  0.4964158E-009  0.3773617E+03  0.7818608E-02  0.1051913E+00
          1   -1    0    0  501    0  0.00000000000E+00  0.00000000000E+00  0.29048052520E+03  0.29048052524E+03  0.50400000000E-02 0. -1.
         -1   -1    0    0    0  501 -0.00000000000E+00 -0.00000000000E+00 -0.60340188545E+03  0.60340188547E+03  0.50400000000E-02 0.  1.
    8880022    1    1    2    0    0 -0.30089564384E+03  0.16873650208E+03  0.37100878036E+02  0.37918112266E+03  0.15294330000E+03 0.  0.
    8880022    1    1    2    0    0  0.30089564384E+03 -0.16873650208E+03 -0.35002223829E+03  0.51470128805E+03  0.15294330000E+03 0.  0.
<mgrwt>
<rscale>  0 0.37736169E+03</rscale>
<asrwt>0</asrwt>
<pdfrwt beam="1">  1        1 0.44689312E-01 0.37736169E+03</pdfrwt>
<pdfrwt beam="2">  1       -1 0.92831059E-01 0.37736169E+03</pdfrwt>
<totfact> 0.10798303E+02</totfact>
</mgrwt>
</event>
<event>
 4    1  0.4964158E-009  0.3621577E+03  0.7818608E-02  0.1057733E+00
         -1   -1    0    0    0  501 -0.00000000000E+00  0.00000000000E+00  0.21909265085E+03  0.21909265091E+03  0.50400000000E-02 0.  1.
          1   -1    0    0  501    0  0.00000000000E+00 -0.00000000000E+00 -0.17545205016E+04  0.17545205016E+04  0.50400000000E-02 0. -1.
    8880022    1    1    2    0    0 -0.21898520601E+03 -0.24456496359E+03 -0.15686701691E+04  0.16099330092E+04  0.15294330000E+03 0.  0.
    8880022    1    1    2    0    0  0.21898520601E+03  0.24456496359E+03  0.33242318329E+02  0.36368014327E+03  0.15294330000E+03 0.  0.
<mgrwt>
<rscale>  0 0.36215769E+03</rscale>
<asrwt>0</asrwt>
<pdfrwt beam="1">  1        1 0.26992622E+00 0.36215769E+03</pdfrwt>
<pdfrwt beam="2">  1       -1 0.33706563E-01 0.36215769E+03</pdfrwt>
<totfact> 0.40098449E+01</totfact>
</mgrwt>
</event>
<event>
 4    1  0.4964158E-009  0.6349642E+03  0.7818608E-02  0.9835409E-01
         -1   -1    0    0    0  501 -0.00000000000E+00  0.00000000000E+00  0.87507066892E+03  0.87507066893E+03  0.50400000000E-02 0.  1.
          1   -1    0    0  501    0  0.00000000000E+00 -0.00000000000E+00 -0.14593518980E+04  0.14593518980E+04  0.50400000000E-02 0. -1.
    8880022    1    1    2    0    0 -0.61539787038E+03  0.32761771136E+02 -0.12576754883E+04  0.14088744299E+04  0.15294330000E+03 0.  0.
    8880022    1    1    2    0    0  0.61539787038E+03 -0.32761771136E+02  0.67339425921E+03  0.92554813698E+03  0.15294330000E+03 0.  0.
<mgrwt>
<rscale>  0 0.63496419E+03</rscale>
<asrwt>0</asrwt>
<pdfrwt beam="1">  1        1 0.22451568E+00 0.63496419E+03</pdfrwt>
<pdfrwt beam="2">  1       -1 0.13462626E+00 0.63496419E+03</pdfrwt>
<totfact> 0.34551955E+00</totfact>
</mgrwt>
</event>
<event>
 4    1  0.4964158E-009  0.5019405E+03  0.7818608E-02  0.1013274E+00
         -1   -1    0    0    0  501 -0.00000000000E+00  0.00000000000E+00  0.53160802926E+03  0.53160802929E+03  0.50400000000E-02 0.  1.
          1   -1    0    0  501    0  0.00000000000E+00 -0.00000000000E+00 -0.14532391087E+04  0.14532391087E+04  0.50400000000E-02 0. -1.
    8880022    1    1    2    0    0  0.40699707722E+03 -0.25081056897E+03  0.35386764566E+03  0.61413884915E+03  0.15294330000E+03 0.  0.
    8880022    1    1    2    0    0 -0.40699707722E+03  0.25081056897E+03 -0.12754987251E+04  0.13707082889E+04  0.15294330000E+03 0.  0.
<mgrwt>
<rscale>  0 0.50194045E+03</rscale>
<asrwt>0</asrwt>
<pdfrwt beam="1">  1        1 0.22357525E+00 0.50194045E+03</pdfrwt>
<pdfrwt beam="2">  1       -1 0.81785851E-01 0.50194045E+03</pdfrwt>
<totfact> 0.11378012E+01</totfact>
</mgrwt>
</event>
<event>
 4    1  0.4964158E-009  0.1274018E+04  0.7818608E-02  0.9050426E-01
         -1   -1    0    0    0  501 -0.00000000000E+00  0.00000000000E+00  0.25981820550E+04  0.25981820550E+04  0.50400000000E-02 0.  1.
          1   -1    0    0  501    0  0.00000000000E+00 -0.00000000000E+00 -0.81960731009E+03  0.81960731010E+03  0.50400000000E-02 0. -1.
    8880022    1    1    2    0    0 -0.48176721718E+03 -0.11694576869E+04  0.55970748340E+02  0.12752471567E+04  0.15294330000E+03 0.  0.
    8880022    1    1    2    0    0  0.48176721718E+03  0.11694576869E+04  0.17226039966E+04  0.21425422084E+04  0.15294330000E+03 0.  0.
<mgrwt>
<rscale>  0 0.12740183E+04</rscale>
<asrwt>0</asrwt>
<pdfrwt beam="1">  1        1 0.12609343E+00 0.12740183E+04</pdfrwt>
<pdfrwt beam="2">  1       -1 0.39972031E+00 0.12740183E+04</pdfrwt>
<totfact> 0.15018647E-01</totfact>
</mgrwt>
</event>
<event>
 4    1  0.4964158E-009  0.6789235E+03  0.7818608E-02  0.9753970E-01
         -1   -1    0    0    0  501 -0.00000000000E+00  0.00000000000E+00  0.24573463045E+04  0.24573463046E+04  0.50400000000E-02 0.  1.
          1   -1    0    0  501    0  0.00000000000E+00 -0.00000000000E+00 -0.15128367231E+04  0.15128367231E+04  0.50400000000E-02 0. -1.
    8880022    1    1    2    0    0 -0.46561789318E+03  0.46983560143E+03 -0.13857006839E+04  0.15430824842E+04  0.15294330000E+03 0.  0.
    8880022    1    1    2    0    0  0.46561789318E+03 -0.46983560143E+03  0.23302102653E+04  0.24271005435E+04  0.15294330000E+03 0.  0.
<mgrwt>
<rscale>  0 0.67892354E+03</rscale>
<asrwt>0</asrwt>
<pdfrwt beam="1">  1        1 0.23274411E+00 0.67892354E+03</pdfrwt>
<pdfrwt beam="2">  1       -1 0.37805328E+00 0.67892354E+03</pdfrwt>
<totfact> 0.71921366E-02</totfact>
</mgrwt>
</event>
<event>
 4    1  0.4964158E-009  0.1135607E+04  0.7818608E-02  0.9171166E-01
         -1   -1    0    0    0  501 -0.00000000000E+00  0.00000000000E+00  0.13178002215E+04  0.13178002215E+04  0.50400000000E-02 0.  1.
          1   -1    0    0  501    0  0.00000000000E+00 -0.00000000000E+00 -0.11887026854E+04  0.11887026854E+04  0.50400000000E-02 0. -1.
    8880022    1    1    2    0    0 -0.61425399711E+03 -0.94281643802E+03  0.59143265156E+03  0.12803886297E+04  0.15294330000E+03 0.  0.
    8880022    1    1    2    0    0  0.61425399711E+03  0.94281643802E+03 -0.46233511551E+03  0.12261142772E+04  0.15294330000E+03 0.  0.
<mgrwt>
<rscale>  0 0.11356066E+04</rscale>
<asrwt>0</asrwt>
<pdfrwt beam="1">  1        1 0.18287734E+00 0.11356066E+04</pdfrwt>
<pdfrwt beam="2">  1       -1 0.20273849E+00 0.11356066E+04</pdfrwt>
<totfact> 0.15502104E+00</totfact>
</mgrwt>
</event>
<event>
 4    1  0.4964158E-009  0.6772438E+03  0.7818608E-02  0.9756960E-01
          1   -1    0    0  501    0  0.00000000000E+00  0.00000000000E+00  0.18181306926E+04  0.18181306926E+04  0.50400000000E-02 0. -1.
         -1   -1    0    0    0  501 -0.00000000000E+00 -0.00000000000E+00 -0.37514675073E+03  0.37514675077E+03  0.50400000000E-02 0.  1.
    8880022    1    1    2    0    0  0.65188193037E+03  0.10157490535E+03  0.93869496301E+02  0.68371825183E+03  0.15294330000E+03 0.  0.
    8880022    1    1    2    0    0 -0.65188193037E+03 -0.10157490535E+03  0.13491144456E+04  0.15095591916E+04  0.15294330000E+03 0.  0.
<mgrwt>
<rscale>  0 0.67724380E+03</rscale>
<asrwt>0</asrwt>
<pdfrwt beam="1">  1        1 0.27971241E+00 0.67724380E+03</pdfrwt>
<pdfrwt beam="2">  1       -1 0.57714886E-01 0.67724380E+03</pdfrwt>
<totfact> 0.12689025E+01</totfact>
</mgrwt>
</event>
<event>
 4    1  0.4964158E-009  0.6852964E+03  0.7818608E-02  0.9742713E-01
         -1   -1    0    0    0  501 -0.00000000000E+00  0.00000000000E+00  0.16092245609E+04  0.16092245609E+04  0.50400000000E-02 0.  1.
          1   -1    0    0  501    0  0.00000000000E+00 -0.00000000000E+00 -0.16882065481E+04  0.16882065481E+04  0.50400000000E-02 0. -1.
    8880022    1    1    2    0    0  0.24718323445E+03  0.62059646548E+03  0.14599629763E+04  0.16127997612E+04  0.15294330000E+03 0.  0.
    8880022    1    1    2    0    0 -0.24718323445E+03 -0.62059646548E+03 -0.15389449635E+04  0.16846313478E+04  0.15294330000E+03 0.  0.
<mgrwt>
<rscale>  0 0.68529642E+03</rscale>
<asrwt>0</asrwt>
<pdfrwt beam="1">  1        1 0.25972409E+00 0.68529642E+03</pdfrwt>
<pdfrwt beam="2">  1       -1 0.24757301E+00 0.68529642E+03</pdfrwt>
<totfact> 0.38018593E-01</totfact>
</mgrwt>
</event>
<event>
 4    1  0.4964158E-009  0.6724112E+03  0.7818608E-02  0.9765612E-01
         -1   -1    0    0    0  501 -0.00000000000E+00  0.00000000000E+00  0.13027766875E+04  0.13027766875E+04  0.50400000000E-02 0.  1.
          1   -1    0    0  501    0  0.00000000000E+00 -0.00000000000E+00 -0.15441886540E+04  0.15441886540E+04  0.50400000000E-02 0. -1.
    8880022    1    1    2    0    0  0.10264257817E+03 -0.64669132065E+03 -0.13740580911E+04  0.15297622213E+04  0.15294330000E+03 0.  0.
    8880022    1    1    2    0    0 -0.10264257817E+03  0.64669132065E+03  0.11326461246E+04  0.13172031201E+04  0.15294330000E+03 0.  0.
<mgrwt>
<rscale>  0 0.67241120E+03</rscale>
<asrwt>0</asrwt>
<pdfrwt beam="1">  1        1 0.23756748E+00 0.67241120E+03</pdfrwt>
<pdfrwt beam="2">  1       -1 0.20042718E+00 0.67241120E+03</pdfrwt>
<totfact> 0.97711444E-01</totfact>
</mgrwt>
</event>
<event>
 4    1  0.4964158E-009  0.6843077E+03  0.7818608E-02  0.9744451E-01
         -1   -1    0    0    0  501 -0.00000000000E+00  0.00000000000E+00  0.44377842997E+03  0.44377843000E+03  0.50400000000E-02 0.  1.
          1   -1    0    0  501    0  0.00000000000E+00 -0.00000000000E+00 -0.32219523840E+04  0.32219523840E+04  0.50400000000E-02 0. -1.
    8880022    1    1    2    0    0  0.20905328554E+03  0.63338939041E+03  0.11396913605E+03  0.69373338760E+03  0.15294330000E+03 0.  0.
    8880022    1    1    2    0    0 -0.20905328554E+03 -0.63338939041E+03 -0.28921430900E+04  0.29719974264E+04  0.15294330000E+03 0.  0.
<mgrwt>
<rscale>  0 0.68430772E+03</rscale>
<asrwt>0</asrwt>
<pdfrwt beam="1">  1        1 0.49568497E+00 0.68430772E+03</pdfrwt>
<pdfrwt beam="2">  1       -1 0.68273607E-01 0.68430772E+03</pdfrwt>
<totfact> 0.97898904E-01</totfact>
</mgrwt>
</event>
<event>
 4    1  0.4964158E-009  0.1530005E+04  0.7818608E-02  0.8864741E-01
          1   -1    0    0  501    0  0.00000000000E+00  0.00000000000E+00  0.30655064936E+04  0.30655064936E+04  0.50400000000E-02 0. -1.
         -1   -1    0    0    0  501 -0.00000000000E+00 -0.00000000000E+00 -0.83455444953E+03  0.83455444954E+03  0.50400000000E-02 0.  1.
    8880022    1    1    2    0    0  0.12842901458E+03  0.15169147445E+04  0.54700442969E+03  0.16248476400E+04  0.15294330000E+03 0.  0.
    8880022    1    1    2    0    0 -0.12842901458E+03 -0.15169147445E+04  0.16839476144E+04  0.22752133032E+04  0.15294330000E+03 0.  0.
<mgrwt>
<rscale>  0 0.15300052E+04</rscale>
<asrwt>0</asrwt>
<pdfrwt beam="1">  1        1 0.47161639E+00 0.15300052E+04</pdfrwt>
<pdfrwt beam="2">  1       -1 0.12839299E+00 0.15300052E+04</pdfrwt>
<totfact> 0.26651388E-01</totfact>
</mgrwt>
</event>
<event>
 4    1  0.4964158E-009  0.9560008E+03  0.7818608E-02  0.9358164E-01
          1   -1    0    0  501    0  0.00000000000E+00  0.00000000000E+00  0.11233964557E+04  0.11233964557E+04  0.50400000000E-02 0. -1.
         -1   -1    0    0    0  501 -0.00000000000E+00 -0.00000000000E+00 -0.20500219376E+04  0.20500219376E+04  0.50400000000E-02 0.  1.
    8880022    1    1    2    0    0  0.76241697847E+03  0.55611711208E+03  0.76897030539E+03  0.12268874745E+04  0.15294330000E+03 0.  0.
    8880022    1    1    2    0    0 -0.76241697847E+03 -0.55611711208E+03 -0.16955957873E+04  0.19465309189E+04  0.15294330000E+03 0.  0.
<mgrwt>
<rscale>  0 0.95600081E+03</rscale>
<asrwt>0</asrwt>
<pdfrwt beam="1">  1        1 0.17283022E+00 0.95600081E+03</pdfrwt>
<pdfrwt beam="2">  1       -1 0.31538799E+00 0.95600081E+03</pdfrwt>
<totfact> 0.32717010E-01</totfact>
</mgrwt>
</event>
<event>
 4    1  0.4964158E-009  0.7608301E+03  0.7818608E-02  0.9618511E-01
          1   -1    0    0  501    0  0.00000000000E+00  0.00000000000E+00  0.92882374992E+03  0.92882374993E+03  0.50400000000E-02 0. -1.
         -1   -1    0    0    0  501 -0.00000000000E+00 -0.00000000000E+00 -0.88945236720E+03  0.88945236721E+03  0.50400000000E-02 0.  1.
    8880022    1    1    2    0    0 -0.32844109325E+03 -0.66902705762E+03 -0.47770557230E+03  0.89836797716E+03  0.15294330000E+03 0.  0.
    8880022    1    1    2    0    0  0.32844109325E+03  0.66902705762E+03  0.51707695502E+03  0.91990813998E+03  0.15294330000E+03 0.  0.
<mgrwt>
<rscale>  0 0.76083008E+03</rscale>
<asrwt>0</asrwt>
<pdfrwt beam="1">  1        1 0.14289596E+00 0.76083008E+03</pdfrwt>
<pdfrwt beam="2">  1       -1 0.13683883E+00 0.76083008E+03</pdfrwt>
<totfact> 0.79119019E+00</totfact>
</mgrwt>
</event>
<event>
 4    1  0.4964158E-009  0.4625282E+03  0.7818608E-02  0.1024051E+00
         -1   -1    0    0    0  501 -0.00000000000E+00  0.00000000000E+00  0.61067446803E+03  0.61067446805E+03  0.50400000000E-02 0.  1.
          1   -1    0    0  501    0  0.00000000000E+00 -0.00000000000E+00 -0.25749704791E+04  0.25749704791E+04  0.50400000000E-02 0. -1.
    8880022    1    1    2    0    0 -0.14138757962E+03  0.41297724442E+03  0.49836425837E+03  0.67992590708E+03  0.15294330000E+03 0.  0.
    8880022    1    1    2    0    0  0.14138757962E+03 -0.41297724442E+03 -0.24626602694E+04  0.25057190401E+04  0.15294330000E+03 0.  0.
<mgrwt>
<rscale>  0 0.46252817E+03</rscale>
<asrwt>0</asrwt>
<pdfrwt beam="1">  1        1 0.39614930E+00 0.46252817E+03</pdfrwt>
<pdfrwt beam="2">  1       -1 0.93949920E-01 0.46252817E+03</pdfrwt>
<totfact> 0.15230031E+00</totfact>
</mgrwt>
</event>
<event>
 4    1  0.4964158E-009  0.1055208E+04  0.7818608E-02  0.9249983E-01
         -1   -1    0    0    0  501 -0.00000000000E+00  0.00000000000E+00  0.87689536235E+03  0.87689536237E+03  0.50400000000E-02 0.  1.
          1   -1    0    0  501    0  0.00000000000E+00 -0.00000000000E+00 -0.15849441479E+04  0.15849441479E+04  0.50400000000E-02 0. -1.
    8880022    1    1    2    0    0 -0.90391256263E+03  0.52250795685E+03 -0.90292183494E+03  0.13887879532E+04  0.15294330000E+03 0.  0.
    8880022    1    1    2    0    0  0.90391256263E+03 -0.52250795685E+03  0.19487304937E+03  0.10730515571E+04  0.15294330000E+03 0.  0.
<mgrwt>
<rscale>  0 0.10552081E+04</rscale>
<asrwt>0</asrwt>
<pdfrwt beam="1">  1        1 0.24383756E+00 0.10552081E+04</pdfrwt>
<pdfrwt beam="2">  1       -1 0.13490698E+00 0.10552081E+04</pdfrwt>
<totfact> 0.26342463E+00</totfact>
</mgrwt>
</event>
<event>
 4    1  0.4964158E-009  0.1529458E+04  0.7818608E-02  0.8865096E-01
          1   -1    0    0  501    0  0.00000000000E+00  0.00000000000E+00  0.25890907950E+04  0.25890907950E+04  0.50400000000E-02 0. -1.
         -1   -1    0    0    0  501 -0.00000000000E+00 -0.00000000000E+00 -0.10355069088E+04  0.10355069088E+04  0.50400000000E-02 0.  1.
    8880022    1    1    2    0    0  0.15199396218E+04 -0.75065266286E+02  0.12972077779E+03  0.15349496347E+04  0.15294330000E+03 0.  0.
    8880022    1    1    2    0    0 -0.15199396218E+04  0.75065266286E+02  0.14238631084E+04  0.20896480690E+04  0.15294330000E+03 0.  0.
<mgrwt>
<rscale>  0 0.15294584E+04</rscale>
<asrwt>0</asrwt>
<pdfrwt beam="1">  1        1 0.39832166E+00 0.15294584E+04</pdfrwt>
<pdfrwt beam="2">  1       -1 0.15930876E+00 0.15294584E+04</pdfrwt>
<totfact> 0.32855461E-01</totfact>
</mgrwt>
</event>
<event>
 4    1  0.4964158E-009  0.1398104E+04  0.7818608E-02  0.8955192E-01
          1   -1    0    0  501    0  0.00000000000E+00  0.00000000000E+00  0.24824327089E+04  0.24824327089E+04  0.50400000000E-02 0. -1.
         -1   -1    0    0    0  501 -0.00000000000E+00 -0.00000000000E+00 -0.12518707912E+04  0.12518707912E+04  0.50400000000E-02 0.  1.
    8880022    1    1    2    0    0  0.13208523484E+04  0.43203122473E+03 -0.52201674418E+03  0.14923789866E+04  0.15294330000E+03 0.  0.
    8880022    1    1    2    0    0 -0.13208523484E+04 -0.43203122473E+03  0.17525786619E+04  0.22419245136E+04  0.15294330000E+03 0.  0.
<mgrwt>
<rscale>  0 0.13981036E+04</rscale>
<asrwt>0</asrwt>
<pdfrwt beam="1">  1        1 0.38191272E+00 0.13981036E+04</pdfrwt>
<pdfrwt beam="2">  1       -1 0.19259551E+00 0.13981036E+04</pdfrwt>
<totfact> 0.22623977E-01</totfact>
</mgrwt>
</event>
<event>
 4    1  0.4964158E-009  0.9302138E+03  0.7818608E-02  0.9388581E-01
         -1   -1    0    0    0  501 -0.00000000000E+00  0.00000000000E+00  0.12339139875E+04  0.12339139875E+04  0.50400000000E-02 0.  1.
          1   -1    0    0  501    0  0.00000000000E+00 -0.00000000000E+00 -0.11120617594E+04  0.11120617594E+04  0.50400000000E-02 0. -1.
    8880022    1    1    2    0    0 -0.55513221210E+03 -0.73057119062E+03 -0.65199891073E+03  0.11359578646E+04  0.15294330000E+03 0.  0.
    8880022    1    1    2    0    0  0.55513221210E+03  0.73057119062E+03  0.77385113881E+03  0.12100178823E+04  0.15294330000E+03 0.  0.
<mgrwt>
<rscale>  0 0.93021379E+03</rscale>
<asrwt>0</asrwt>
<pdfrwt beam="1">  1        1 0.17108642E+00 0.93021379E+03</pdfrwt>
<pdfrwt beam="2">  1       -1 0.18983292E+00 0.93021379E+03</pdfrwt>
<totfact> 0.22302282E+00</totfact>
</mgrwt>
</event>
<event>
 4    1  0.4964158E-009  0.7491313E+03  0.7818608E-02  0.9636714E-01
         -1   -1    0    0    0  501 -0.00000000000E+00  0.00000000000E+00  0.48532506361E+03  0.48532506364E+03  0.50400000000E-02 0.  1.
          1   -1    0    0  501    0  0.00000000000E+00 -0.00000000000E+00 -0.13813540125E+04  0.13813540125E+04  0.50400000000E-02 0. -1.
    8880022    1    1    2    0    0  0.56116638807E+03 -0.47212107519E+03 -0.82471664777E+03  0.11141612212E+04  0.15294330000E+03 0.  0.
    8880022    1    1    2    0    0 -0.56116638807E+03  0.47212107519E+03 -0.71312301157E+02  0.75251785497E+03  0.15294330000E+03 0.  0.
<mgrwt>
<rscale>  0 0.74913128E+03</rscale>
<asrwt>0</asrwt>
<pdfrwt beam="1">  1        1 0.21251600E+00 0.74913128E+03</pdfrwt>
<pdfrwt beam="2">  1       -1 0.74665395E-01 0.74913128E+03</pdfrwt>
<totfact> 0.14790731E+01</totfact>
</mgrwt>
</event>
<event>
 4    1  0.4964158E-009  0.1281308E+04  0.7818608E-02  0.9044521E-01
          1   -1    0    0  501    0  0.00000000000E+00  0.00000000000E+00  0.12048736752E+04  0.12048736752E+04  0.50400000000E-02 0. -1.
         -1   -1    0    0    0  501 -0.00000000000E+00 -0.00000000000E+00 -0.18176283531E+04  0.18176283531E+04  0.50400000000E-02 0.  1.
    8880022    1    1    2    0    0  0.12447198399E+04  0.26273655432E+03  0.44977228771E+03  0.13579560894E+04  0.15294330000E+03 0.  0.
    8880022    1    1    2    0    0 -0.12447198399E+04 -0.26273655432E+03 -0.10625269657E+04  0.16645459389E+04  0.15294330000E+03 0.  0.
<mgrwt>
<rscale>  0 0.12813078E+04</rscale>
<asrwt>0</asrwt>
<pdfrwt beam="1">  1        1 0.18536518E+00 0.12813078E+04</pdfrwt>
<pdfrwt beam="2">  1       -1 0.27963513E+00 0.12813078E+04</pdfrwt>
<totfact> 0.46126938E-01</totfact>
</mgrwt>
</event>
<event>
 4    1  0.4964158E-009  0.1373980E+04  0.7818608E-02  0.8972872E-01
          1   -1    0    0  501    0  0.00000000000E+00  0.00000000000E+00  0.11872607026E+04  0.11872607026E+04  0.50400000000E-02 0. -1.
         -1   -1    0    0    0  501 -0.00000000000E+00 -0.00000000000E+00 -0.34924124197E+04  0.34924124197E+04  0.50400000000E-02 0.  1.
    8880022    1    1    2    0    0  0.20164474009E+03 -0.13504697097E+04 -0.28794781810E+04  0.31904882519E+04  0.15294330000E+03 0.  0.
    8880022    1    1    2    0    0 -0.20164474009E+03  0.13504697097E+04  0.57432646382E+03  0.14891848704E+04  0.15294330000E+03 0.  0.
<mgrwt>
<rscale>  0 0.13739799E+04</rscale>
<asrwt>0</asrwt>
<pdfrwt beam="1">  1        1 0.18265549E+00 0.13739799E+04</pdfrwt>
<pdfrwt beam="2">  1       -1 0.53729421E+00 0.13739799E+04</pdfrwt>
<totfact> 0.91300105E-03</totfact>
</mgrwt>
</event>
<event>
 4    1  0.4964158E-009  0.3916371E+03  0.7818608E-02  0.1046715E+00
          1   -1    0    0  501    0  0.00000000000E+00  0.00000000000E+00  0.46374585348E+03  0.46374585351E+03  0.50400000000E-02 0. -1.
         -1   -1    0    0    0  501 -0.00000000000E+00 -0.00000000000E+00 -0.85935841508E+03  0.85935841509E+03  0.50400000000E-02 0.  1.
    8880022    1    1    2    0    0 -0.25452519101E+03  0.25535254980E+03 -0.71666335772E+03  0.81669212000E+03  0.15294330000E+03 0.  0.
    8880022    1    1    2    0    0  0.25452519101E+03 -0.25535254980E+03  0.32105079612E+03  0.50641214860E+03  0.15294330000E+03 0.  0.
<mgrwt>
<rscale>  0 0.39163714E+03</rscale>
<asrwt>0</asrwt>
<pdfrwt beam="1">  1        1 0.71345516E-01 0.39163714E+03</pdfrwt>
<pdfrwt beam="2">  1       -1 0.13220899E+00 0.39163714E+03</pdfrwt>
<totfact> 0.25714537E+01</totfact>
</mgrwt>
</event>
<event>
 4    1  0.4964158E-009  0.3998155E+03  0.7818608E-02  0.1043844E+00
         -1   -1    0    0    0  501 -0.00000000000E+00  0.00000000000E+00  0.11026564670E+04  0.11026564671E+04  0.50400000000E-02 0.  1.
          1   -1    0    0  501    0  0.00000000000E+00 -0.00000000000E+00 -0.10361213259E+04  0.10361213259E+04  0.50400000000E-02 0. -1.
    8880022    1    1    2    0    0 -0.36543424624E+03 -0.54023930378E+02 -0.95849113790E+03  0.10385363199E+04  0.15294330000E+03 0.  0.
    8880022    1    1    2    0    0  0.36543424624E+03  0.54023930378E+02  0.10250262790E+04  0.11002414731E+04  0.15294330000E+03 0.  0.
<mgrwt>
<rscale>  0 0.39981549E+03</rscale>
<asrwt>0</asrwt>
<pdfrwt beam="1">  1        1 0.15940328E+00 0.39981549E+03</pdfrwt>
<pdfrwt beam="2">  1       -1 0.16963946E+00 0.39981549E+03</pdfrwt>
<totfact> 0.39489096E+00</totfact>
</mgrwt>
</event>
<event>
 4    1  0.4964158E-009  0.1204869E+04  0.7818608E-02  0.9108605E-01
         -1   -1    0    0    0  501 -0.00000000000E+00  0.00000000000E+00  0.13249945179E+04  0.13249945179E+04  0.50400000000E-02 0.  1.
          1   -1    0    0  501    0  0.00000000000E+00 -0.00000000000E+00 -0.30710619884E+04  0.30710619884E+04  0.50400000000E-02 0. -1.
    8880022    1    1    2    0    0  0.22283154446E+03 -0.11741656038E+04  0.88983293452E+03  0.14978361281E+04  0.15294330000E+03 0.  0.
    8880022    1    1    2    0    0 -0.22283154446E+03  0.11741656038E+04 -0.26359004050E+04  0.28982203782E+04  0.15294330000E+03 0.  0.
<mgrwt>
<rscale>  0 0.12048695E+04</rscale>
<asrwt>0</asrwt>
<pdfrwt beam="1">  1        1 0.47247108E+00 0.12048695E+04</pdfrwt>
<pdfrwt beam="2">  1       -1 0.20384531E+00 0.12048695E+04</pdfrwt>
<totfact> 0.74451848E-02</totfact>
</mgrwt>
</event>
<event>
 4    1  0.4964158E-009  0.7973634E+03  0.7818608E-02  0.9563841E-01
          1   -1    0    0  501    0  0.00000000000E+00  0.00000000000E+00  0.24752723916E+04  0.24752723916E+04  0.50400000000E-02 0. -1.
         -1   -1    0    0    0  501 -0.00000000000E+00 -0.00000000000E+00 -0.15263084891E+04  0.15263084891E+04  0.50400000000E-02 0.  1.
    8880022    1    1    2    0    0  0.68016865428E+03 -0.38699783892E+03  0.22991702309E+04  0.24335102484E+04  0.15294330000E+03 0.  0.
    8880022    1    1    2    0    0 -0.68016865428E+03  0.38699783892E+03 -0.13502063284E+04  0.15680706323E+04  0.15294330000E+03 0.  0.
<mgrwt>
<rscale>  0 0.79736339E+03</rscale>
<asrwt>0</asrwt>
<pdfrwt beam="1">  1        1 0.38081113E+00 0.79736339E+03</pdfrwt>
<pdfrwt beam="2">  1       -1 0.23481669E+00 0.79736339E+03</pdfrwt>
<totfact> 0.13230055E-01</totfact>
</mgrwt>
</event>
<event>
 4    1  0.4964158E-009  0.8257352E+03  0.7818608E-02  0.9523496E-01
         -1   -1    0    0    0  501 -0.00000000000E+00  0.00000000000E+00  0.15932523359E+04  0.15932523359E+04  0.50400000000E-02 0.  1.
          1   -1    0    0  501    0  0.00000000000E+00 -0.00000000000E+00 -0.12884412408E+04  0.12884412408E+04  0.50400000000E-02 0. -1.
    8880022    1    1    2    0    0 -0.48758425980E+03  0.64862052632E+03 -0.10250857906E+04  0.13162976596E+04  0.15294330000E+03 0.  0.
    8880022    1    1    2    0    0  0.48758425980E+03 -0.64862052632E+03  0.13298968857E+04  0.15653959171E+04  0.15294330000E+03 0.  0.
<mgrwt>
<rscale>  0 0.82573522E+03</rscale>
<asrwt>0</asrwt>
<pdfrwt beam="1">  1        1 0.19822173E+00 0.82573522E+03</pdfrwt>
<pdfrwt beam="2">  1       -1 0.24511574E+00 0.82573522E+03</pdfrwt>
<totfact> 0.71958288E-01</totfact>
</mgrwt>
</event>
<event>
 4    1  0.4964158E-009  0.1712097E+04  0.7818608E-02  0.8754495E-01
         -1   -1    0    0    0  501 -0.00000000000E+00  0.00000000000E+00  0.18863895196E+04  0.18863895197E+04  0.50400000000E-02 0.  1.
          1   -1    0    0  501    0  0.00000000000E+00 -0.00000000000E+00 -0.24849260655E+04  0.24849260655E+04  0.50400000000E-02 0. -1.
    8880022    1    1    2    0    0 -0.64023466491E+03 -0.15805015057E+04  0.10385721694E+04  0.20024757775E+04  0.15294330000E+03 0.  0.
    8880022    1    1    2    0    0  0.64023466491E+03  0.15805015057E+04 -0.16371087152E+04  0.23688398076E+04  0.15294330000E+03 0.  0.
<mgrwt>
<rscale>  0 0.17120973E+04</rscale>
<asrwt>0</asrwt>
<pdfrwt beam="1">  1        1 0.38229632E+00 0.17120973E+04</pdfrwt>
<pdfrwt beam="2">  1       -1 0.29021377E+00 0.17120973E+04</pdfrwt>
<totfact> 0.48671375E-02</totfact>
</mgrwt>
</event>
<event>
 4    1  0.6580165E-009  0.1347119E+04  0.7818608E-02  0.8993012E-01
         -1   -1    0    0    0  501 -0.00000000000E+00  0.00000000000E+00  0.18715374670E+04  0.18715374670E+04  0.50400000000E-02 0.  1.
          1   -1    0    0  501    0  0.00000000000E+00 -0.00000000000E+00 -0.17430071483E+04  0.17430071484E+04  0.50400000000E-02 0. -1.
    8880022    1    1    2    0    0 -0.86959554766E+03 -0.10174188723E+04  0.12680950522E+04  0.18500795368E+04  0.15294330000E+03 0.  0.
    8880022    1    1    2    0    0  0.86959554766E+03  0.10174188723E+04 -0.11395647336E+04  0.17644650785E+04  0.15294330000E+03 0.  0.
<mgrwt>
<rscale>  0 0.13471189E+04</rscale>
<asrwt>0</asrwt>
<pdfrwt beam="1">  1        1 0.26815495E+00 0.13471189E+04</pdfrwt>
<pdfrwt beam="2">  1       -1 0.28792884E+00 0.13471189E+04</pdfrwt>
<totfact> 0.16963040E-01</totfact>
</mgrwt>
</event>
<event>
 4    1  0.4964158E-009  0.1609968E+04  0.7818608E-02  0.8814448E-01
         -1   -1    0    0    0  501 -0.00000000000E+00  0.00000000000E+00  0.21450193966E+04  0.21450193966E+04  0.50400000000E-02 0.  1.
          1   -1    0    0  501    0  0.00000000000E+00 -0.00000000000E+00 -0.17827240527E+04  0.17827240527E+04  0.50400000000E-02 0. -1.
    8880022    1    1    2    0    0  0.12186634859E+04 -0.10408955644E+04 -0.93355124918E+03  0.18610518144E+04  0.15294330000E+03 0.  0.
    8880022    1    1    2    0    0 -0.12186634859E+04  0.10408955644E+04  0.12958465931E+04  0.20666916349E+04  0.15294330000E+03 0.  0.
<mgrwt>
<rscale>  0 0.16099677E+04</rscale>
<asrwt>0</asrwt>
<pdfrwt beam="1">  1        1 0.27426524E+00 0.16099677E+04</pdfrwt>
<pdfrwt beam="2">  1       -1 0.33000298E+00 0.16099677E+04</pdfrwt>
<totfact> 0.82082601E-02</totfact>
</mgrwt>
</event>
<event>
 4    1  0.4964158E-009  0.3548857E+03  0.7818608E-02  0.1060627E+00
          1   -1    0    0  501    0  0.00000000000E+00  0.00000000000E+00  0.13144368115E+04  0.13144368115E+04  0.50400000000E-02 0. -1.
         -1   -1    0    0    0  501 -0.00000000000E+00 -0.00000000000E+00 -0.17216848939E+03  0.17216848946E+03  0.50400000000E-02 0.  1.
    8880022    1    1    2    0    0  0.20976689988E+03 -0.24197114938E+03  0.76138996643E+02  0.36296141564E+03  0.15294330000E+03 0.  0.
    8880022    1    1    2    0    0 -0.20976689988E+03  0.24197114938E+03  0.10661293254E+04  0.11236438853E+04  0.15294330000E+03 0.  0.
<mgrwt>
<rscale>  0 0.35488568E+03</rscale>
<asrwt>0</asrwt>
<pdfrwt beam="1">  1        1 0.20222104E+00 0.35488568E+03</pdfrwt>
<pdfrwt beam="2">  1       -1 0.26487461E-01 0.35488568E+03</pdfrwt>
<totfact> 0.11973359E+02</totfact>
</mgrwt>
</event>
<event>
 4    1  0.4964158E-009  0.4229374E+03  0.7818608E-02  0.1036115E+00
         -1   -1    0    0    0  501 -0.00000000000E+00  0.00000000000E+00  0.21375749106E+03  0.21375749112E+03  0.50400000000E-02 0.  1.
          1   -1    0    0  501    0  0.00000000000E+00 -0.00000000000E+00 -0.13562661215E+04  0.13562661215E+04  0.50400000000E-02 0. -1.
    8880022    1    1    2    0    0  0.37862371261E+03  0.11012920299E+03 -0.85434718516E+02  0.43148012844E+03  0.15294330000E+03 0.  0.
    8880022    1    1    2    0    0 -0.37862371261E+03 -0.11012920299E+03 -0.10570739119E+04  0.11385434842E+04  0.15294330000E+03 0.  0.
<mgrwt>
<rscale>  0 0.42293736E+03</rscale>
<asrwt>0</asrwt>
<pdfrwt beam="1">  1        1 0.20865632E+00 0.42293736E+03</pdfrwt>
<pdfrwt beam="2">  1       -1 0.32885769E-01 0.42293736E+03</pdfrwt>
<totfact> 0.76353769E+01</totfact>
</mgrwt>
</event>
<event>
 4    1  0.4964158E-009  0.1933474E+03  0.7818608E-02  0.1155476E+00
          1   -1    0    0  501    0  0.00000000000E+00  0.00000000000E+00  0.35001501658E+03  0.35001501662E+03  0.50400000000E-02 0. -1.
         -1   -1    0    0    0  501 -0.00000000000E+00 -0.00000000000E+00 -0.17174713594E+03  0.17174713602E+03  0.50400000000E-02 0.  1.
    8880022    1    1    2    0    0 -0.44629440627E+02 -0.10954353454E+03  0.24955535138E+03  0.31569146226E+03  0.15294330000E+03 0. -1.
    8880022    1    1    2    0    0  0.44629440627E+02  0.10954353454E+03 -0.71287470741E+02  0.20607069037E+03  0.15294330000E+03 0.  1.
<mgrwt>
<rscale>  0 0.19334742E+03</rscale>
<asrwt>0</asrwt>
<pdfrwt beam="1">  1        1 0.53848463E-01 0.19334742E+03</pdfrwt>
<pdfrwt beam="2">  1       -1 0.26422637E-01 0.19334742E+03</pdfrwt>
<totfact> 0.91284462E+02</totfact>
</mgrwt>
</event>
<event>
 4    1  0.4964158E-009  0.3023598E+03  0.7818608E-02  0.1084067E+00
          1   -1    0    0  501    0  0.00000000000E+00  0.00000000000E+00  0.29236513905E+04  0.29236513905E+04  0.50400000000E-02 0. -1.
         -1   -1    0    0    0  501 -0.00000000000E+00 -0.00000000000E+00 -0.21684446206E+03  0.21684446211E+03  0.50400000000E-02 0.  1.
    8880022    1    1    2    0    0 -0.26042822472E+03 -0.14385141462E+02  0.28060288171E+04  0.28222719869E+04  0.15294330000E+03 0.  0.
    8880022    1    1    2    0    0  0.26042822472E+03  0.14385141462E+02 -0.99221888647E+02  0.31822386574E+03  0.15294330000E+03 0.  0.
<mgrwt>
<rscale>  0 0.30235979E+03</rscale>
<asrwt>0</asrwt>
<pdfrwt beam="1">  1        1 0.44979248E+00 0.30235979E+03</pdfrwt>
<pdfrwt beam="2">  1       -1 0.33360690E-01 0.30235979E+03</pdfrwt>
<totfact> 0.69334583E+00</totfact>
</mgrwt>
</event>
<event>
 4    1  0.4964158E-009  0.4643847E+03  0.7818608E-02  0.1023517E+00
          1   -1    0    0  501    0  0.00000000000E+00  0.00000000000E+00  0.37235423856E+04  0.37235423856E+04  0.50400000000E-02 0. -1.
         -1   -1    0    0    0  501 -0.00000000000E+00 -0.00000000000E+00 -0.43795095420E+03  0.43795095423E+03  0.50400000000E-02 0.  1.
    8880022    1    1    2    0    0  0.43827700054E+03 -0.13220393446E+02 -0.29549166254E+03  0.55042572946E+03  0.15294330000E+03 0.  0.
    8880022    1    1    2    0    0 -0.43827700054E+03  0.13220393446E+02  0.35810830939E+04  0.36110676104E+04  0.15294330000E+03 0. -1.
<mgrwt>
<rscale>  0 0.46438471E+03</rscale>
<asrwt>0</asrwt>
<pdfrwt beam="1">  1        1 0.57285268E+00 0.46438471E+03</pdfrwt>
<pdfrwt beam="2">  1       -1 0.67377069E-01 0.46438471E+03</pdfrwt>
<totfact> 0.44560117E-01</totfact>
</mgrwt>
</event>
<event>
 4    1  0.4964158E-009  0.5282400E+03  0.7818608E-02  0.1006660E+00
          1   -1    0    0  501    0  0.00000000000E+00  0.00000000000E+00  0.10277526457E+04  0.10277526457E+04  0.50400000000E-02 0. -1.
         -1   -1    0    0    0  501 -0.00000000000E+00 -0.00000000000E+00 -0.50439557630E+03  0.50439557633E+03  0.50400000000E-02 0.  1.
    8880022    1    1    2    0    0  0.39017587545E+03  0.32157219311E+03  0.78222957968E+03  0.94388593459E+03  0.15294330000E+03 0.  0.
    8880022    1    1    2    0    0 -0.39017587545E+03 -0.32157219311E+03 -0.25887251033E+03  0.58826228741E+03  0.15294330000E+03 0.  0.
<mgrwt>
<rscale>  0 0.52824004E+03</rscale>
<asrwt>0</asrwt>
<pdfrwt beam="1">  1        1 0.15811579E+00 0.52824004E+03</pdfrwt>
<pdfrwt beam="2">  1       -1 0.77599320E-01 0.52824004E+03</pdfrwt>
<totfact> 0.25407332E+01</totfact>
</mgrwt>
</event>
<event>
 4    1  0.4964158E-009  0.9105966E+03  0.7818608E-02  0.9412431E-01
          1   -1    0    0  501    0  0.00000000000E+00  0.00000000000E+00  0.18423278566E+04  0.18423278566E+04  0.50400000000E-02 0. -1.
         -1   -1    0    0    0  501 -0.00000000000E+00 -0.00000000000E+00 -0.15259794745E+04  0.15259794745E+04  0.50400000000E-02 0.  1.
    8880022    1    1    2    0    0  0.88232974412E+03 -0.16519317462E+03 -0.12559715513E+04  0.15513383747E+04  0.15294330000E+03 0.  0.
    8880022    1    1    2    0    0 -0.88232974412E+03  0.16519317462E+03  0.15723199335E+04  0.18169689564E+04  0.15294330000E+03 0.  0.
<mgrwt>
<rscale>  0 0.91059663E+03</rscale>
<asrwt>0</asrwt>
<pdfrwt beam="1">  1        1 0.28343505E+00 0.91059663E+03</pdfrwt>
<pdfrwt beam="2">  1       -1 0.23476607E+00 0.91059663E+03</pdfrwt>
<totfact> 0.34481682E-01</totfact>
</mgrwt>
</event>
<event>
 4    1  0.4964158E-009  0.1654833E+04  0.7818608E-02  0.8787553E-01
         -1   -1    0    0    0  501 -0.00000000000E+00  0.00000000000E+00  0.17264748998E+04  0.17264748998E+04  0.50400000000E-02 0.  1.
          1   -1    0    0  501    0  0.00000000000E+00 -0.00000000000E+00 -0.24179936152E+04  0.24179936152E+04  0.50400000000E-02 0. -1.
    8880022    1    1    2    0    0 -0.13023391934E+04  0.10094514100E+04 -0.15611856815E+04  0.22750322875E+04  0.15294330000E+03 0.  0.
    8880022    1    1    2    0    0  0.13023391934E+04 -0.10094514100E+04  0.86966696608E+03  0.18694362275E+04  0.15294330000E+03 0.  0.
<mgrwt>
<rscale>  0 0.16548327E+04</rscale>
<asrwt>0</asrwt>
<pdfrwt beam="1">  1        1 0.37199902E+00 0.16548327E+04</pdfrwt>
<pdfrwt beam="2">  1       -1 0.26561152E+00 0.16548327E+04</pdfrwt>
<totfact> 0.78783904E-02</totfact>
</mgrwt>
</event>
<event>
 4    1  0.4964158E-009  0.6188306E+03  0.7818608E-02  0.9867091E-01
          1   -1    0    0  501    0  0.00000000000E+00  0.00000000000E+00  0.33278969318E+04  0.33278969318E+04  0.50400000000E-02 0. -1.
         -1   -1    0    0    0  501 -0.00000000000E+00 -0.00000000000E+00 -0.61299255627E+03  0.61299255629E+03  0.50400000000E-02 0.  1.
    8880022    1    1    2    0    0 -0.59094336677E+03 -0.10171343342E+03  0.31333428305E+04  0.31938673473E+04  0.15294330000E+03 0.  0.
    8880022    1    1    2    0    0  0.59094336677E+03  0.10171343342E+03 -0.41843845499E+03  0.74702214084E+03  0.15294330000E+03 0.  0.
<mgrwt>
<rscale>  0 0.61883062E+03</rscale>
<asrwt>0</asrwt>
<pdfrwt beam="1">  1        1 0.51198415E+00 0.61883062E+03</pdfrwt>
<pdfrwt beam="2">  1       -1 0.94306546E-01 0.61883062E+03</pdfrwt>
<totfact> 0.41910427E-01</totfact>
</mgrwt>
</event>
<event>
 4    1  0.4964158E-009  0.4343097E+03  0.7818608E-02  0.1032507E+00
          1   -1    0    0  501    0  0.00000000000E+00  0.00000000000E+00  0.41340434759E+04  0.41340434759E+04  0.50400000000E-02 0. -1.
         -1   -1    0    0    0  501 -0.00000000000E+00 -0.00000000000E+00 -0.12784509471E+03  0.12784509481E+03  0.50400000000E-02 0.  1.
    8880022    1    1    2    0    0  0.39847838380E+03  0.80300858547E+02  0.29421280972E+03  0.52458181503E+03  0.15294330000E+03 0.  0.
    8880022    1    1    2    0    0 -0.39847838380E+03 -0.80300858547E+02  0.37119855714E+04  0.37373067557E+04  0.15294330000E+03 0.  0.
<mgrwt>
<rscale>  0 0.43430969E+03</rscale>
<asrwt>0</asrwt>
<pdfrwt beam="1">  1        1 0.63600669E+00 0.43430969E+03</pdfrwt>
<pdfrwt beam="2">  1       -1 0.19668476E-01 0.43430969E+03</pdfrwt>
<totfact> 0.18528248E+00</totfact>
</mgrwt>
</event>
<event>
 4    1  0.4964158E-009  0.5458739E+03  0.7818608E-02  0.1002453E+00
         -1   -1    0    0    0  501 -0.00000000000E+00  0.00000000000E+00  0.29200564169E+03  0.29200564173E+03  0.50400000000E-02 0.  1.
          1   -1    0    0  501    0  0.00000000000E+00 -0.00000000000E+00 -0.43939421597E+04  0.43939421597E+04  0.50400000000E-02 0. -1.
    8880022    1    1    2    0    0  0.51529670062E+03 -0.95162968442E+02  0.19888511450E+01  0.54587754009E+03  0.15294330000E+03 0.  0.
    8880022    1    1    2    0    0 -0.51529670062E+03  0.95162968442E+02 -0.41039253691E+04  0.41400702613E+04  0.15294330000E+03 0.  0.
<mgrwt>
<rscale>  0 0.54587392E+03</rscale>
<asrwt>0</asrwt>
<pdfrwt beam="1">  1        1 0.67599105E+00 0.54587392E+03</pdfrwt>
<pdfrwt beam="2">  1       -1 0.44923948E-01 0.54587392E+03</pdfrwt>
<totfact> 0.24447928E-01</totfact>
</mgrwt>
</event>
<event>
 4    1  0.4964158E-009  0.7708723E+03  0.7818608E-02  0.9603162E-01
         -1   -1    0    0    0  501 -0.00000000000E+00  0.00000000000E+00  0.11009331125E+04  0.11009331125E+04  0.50400000000E-02 0.  1.
          1   -1    0    0  501    0  0.00000000000E+00 -0.00000000000E+00 -0.14599905800E+04  0.14599905800E+04  0.50400000000E-02 0. -1.
    8880022    1    1    2    0    0 -0.75490883520E+03  0.31065679343E+02 -0.11961027345E+04  0.14229918588E+04  0.15294330000E+03 0. -1.
    8880022    1    1    2    0    0  0.75490883520E+03 -0.31065679343E+02  0.83704526701E+03  0.11379318336E+04  0.15294330000E+03 0.  0.
<mgrwt>
<rscale>  0 0.77087228E+03</rscale>
<asrwt>0</asrwt>
<pdfrwt beam="1">  1        1 0.22461394E+00 0.77087228E+03</pdfrwt>
<pdfrwt beam="2">  1       -1 0.16937432E+00 0.77087228E+03</pdfrwt>
<totfact> 0.18098960E+00</totfact>
</mgrwt>
</event>
<event>
 4    1  0.4964158E-009  0.3012263E+03  0.7818608E-02  0.1084629E+00
          1   -1    0    0  501    0  0.00000000000E+00  0.00000000000E+00  0.10923533631E+04  0.10923533631E+04  0.50400000000E-02 0. -1.
         -1   -1    0    0    0  501 -0.00000000000E+00 -0.00000000000E+00 -0.10630277097E+04  0.10630277097E+04  0.50400000000E-02 0.  1.
    8880022    1    1    2    0    0  0.44627160724E+02  0.25564441496E+03  0.10493911914E+04  0.10917688290E+04  0.15294330000E+03 0.  0.
    8880022    1    1    2    0    0 -0.44627160724E+02 -0.25564441496E+03 -0.10200655380E+04  0.10636122438E+04  0.15294330000E+03 0.  0.
<mgrwt>
<rscale>  0 0.30122633E+03</rscale>
<asrwt>0</asrwt>
<pdfrwt beam="1">  1        1 0.16805436E+00 0.30122633E+03</pdfrwt>
<pdfrwt beam="2">  1       -1 0.16354272E+00 0.30122633E+03</pdfrwt>
<totfact> 0.41233068E+00</totfact>
</mgrwt>
</event>
<event>
 4    1  0.4964158E-009  0.1062316E+04  0.7818608E-02  0.9242721E-01
          1   -1    0    0  501    0  0.00000000000E+00  0.00000000000E+00  0.12501642420E+04  0.12501642420E+04  0.50400000000E-02 0. -1.
         -1   -1    0    0    0  501 -0.00000000000E+00 -0.00000000000E+00 -0.24547629099E+04  0.24547629099E+04  0.50400000000E-02 0.  1.
    8880022    1    1    2    0    0  0.29133944601E+03 -0.10100713249E+04 -0.20752918905E+04  0.23313838890E+04  0.15294330000E+03 0.  0.
    8880022    1    1    2    0    0 -0.29133944601E+03  0.10100713249E+04  0.87069322261E+03  0.13735432629E+04  0.15294330000E+03 0.  0.
<mgrwt>
<rscale>  0 0.10623156E+04</rscale>
<asrwt>0</asrwt>
<pdfrwt beam="1">  1        1 0.19233296E+00 0.10623156E+04</pdfrwt>
<pdfrwt beam="2">  1       -1 0.37765583E+00 0.10623156E+04</pdfrwt>
<totfact> 0.10098941E-01</totfact>
</mgrwt>
</event>
<event>
 4    1  0.4964158E-009  0.1446099E+04  0.7818608E-02  0.8921109E-01
         -1   -1    0    0    0  501 -0.00000000000E+00  0.00000000000E+00  0.18986091159E+04  0.18986091159E+04  0.50400000000E-02 0.  1.
          1   -1    0    0  501    0  0.00000000000E+00 -0.00000000000E+00 -0.15490573111E+04  0.15490573111E+04  0.50400000000E-02 0. -1.
    8880022    1    1    2    0    0  0.22072471251E+03  0.14209475880E+04  0.11014247172E+04  0.18177842301E+04  0.15294330000E+03 0.  0.
    8880022    1    1    2    0    0 -0.22072471251E+03 -0.14209475880E+04 -0.75187291236E+03  0.16298821969E+04  0.15294330000E+03 0.  0.
<mgrwt>
<rscale>  0 0.14460993E+04</rscale>
<asrwt>0</asrwt>
<pdfrwt beam="1">  1        1 0.23831651E+00 0.14460993E+04</pdfrwt>
<pdfrwt beam="2">  1       -1 0.29209371E+00 0.14460993E+04</pdfrwt>
<totfact> 0.21389406E-01</totfact>
</mgrwt>
</event>
<event>
 4    1  0.4964158E-009  0.2805825E+03  0.7818608E-02  0.1095371E+00
          1   -1    0    0  501    0  0.00000000000E+00  0.00000000000E+00  0.15661888572E+04  0.15661888572E+04  0.50400000000E-02 0. -1.
         -1   -1    0    0    0  501 -0.00000000000E+00 -0.00000000000E+00 -0.57057793546E+03  0.57057793548E+03  0.50400000000E-02 0.  1.
    8880022    1    1    2    0    0  0.19219256879E+03 -0.13563519781E+03  0.15180432507E+04  0.15437557626E+04  0.15294330000E+03 0.  0.
    8880022    1    1    2    0    0 -0.19219256879E+03  0.13563519781E+03 -0.52243232902E+03  0.59301103008E+03  0.15294330000E+03 0.  1.
<mgrwt>
<rscale>  0 0.28058251E+03</rscale>
<asrwt>0</asrwt>
<pdfrwt beam="1">  1        1 0.24095213E+00 0.28058251E+03</pdfrwt>
<pdfrwt beam="2">  1       -1 0.87781221E-01 0.28058251E+03</pdfrwt>
<totfact> 0.88056519E+00</totfact>
</mgrwt>
</event>
<event>
 4    1  0.4964158E-009  0.7762362E+03  0.7818608E-02  0.9595066E-01
          1   -1    0    0  501    0  0.00000000000E+00  0.00000000000E+00  0.29620215691E+04  0.29620215691E+04  0.50400000000E-02 0. -1.
         -1   -1    0    0    0  501 -0.00000000000E+00 -0.00000000000E+00 -0.27673401445E+03  0.27673401450E+03  0.50400000000E-02 0.  1.
    8880022    1    1    2    0    0 -0.66511479389E+03  0.36982877663E+03  0.21761371857E+04  0.23104362612E+04  0.15294330000E+03 0.  0.
    8880022    1    1    2    0    0  0.66511479389E+03 -0.36982877663E+03  0.50915036886E+03  0.92831932232E+03  0.15294330000E+03 0.  0.
<mgrwt>
<rscale>  0 0.77623622E+03</rscale>
<asrwt>0</asrwt>
<pdfrwt beam="1">  1        1 0.45569562E+00 0.77623622E+03</pdfrwt>
<pdfrwt beam="2">  1       -1 0.42574464E-01 0.77623622E+03</pdfrwt>
<totfact> 0.36811328E+00</totfact>
</mgrwt>
</event>
<event>
 4    1  0.4964158E-009  0.5397803E+03  0.7818608E-02  0.1003887E+00
          1   -1    0    0  501    0  0.00000000000E+00  0.00000000000E+00  0.60445974999E+03  0.60445975001E+03  0.50400000000E-02 0. -1.
         -1   -1    0    0    0  501 -0.00000000000E+00 -0.00000000000E+00 -0.52346297496E+03  0.52346297499E+03  0.50400000000E-02 0.  1.
    8880022    1    1    2    0    0  0.44844500088E+03 -0.25858896467E+03 -0.11818153615E+03  0.55256646656E+03  0.15294330000E+03 0.  0.
    8880022    1    1    2    0    0 -0.44844500088E+03  0.25858896467E+03  0.19917831118E+03  0.57535625843E+03  0.15294330000E+03 0.  0.
<mgrwt>
<rscale>  0 0.53978035E+03</rscale>
<asrwt>0</asrwt>
<pdfrwt beam="1">  1        1 0.92993808E-01 0.53978035E+03</pdfrwt>
<pdfrwt beam="2">  1       -1 0.80532765E-01 0.53978035E+03</pdfrwt>
<totfact> 0.54367974E+01</totfact>
</mgrwt>
</event>
<event>
 4    1  0.4964158E-009  0.1304893E+04  0.7818608E-02  0.9025694E-01
          1   -1    0    0  501    0  0.00000000000E+00  0.00000000000E+00  0.14616995843E+04  0.14616995843E+04  0.50400000000E-02 0. -1.
         -1   -1    0    0    0  501 -0.00000000000E+00 -0.00000000000E+00 -0.12461058744E+04  0.12461058744E+04  0.50400000000E-02 0.  1.
    8880022    1    1    2    0    0 -0.41534473402E+03  0.12275348013E+04  0.45340507237E+03  0.13814198309E+04  0.15294330000E+03 0.  0.
    8880022    1    1    2    0    0  0.41534473402E+03 -0.12275348013E+04 -0.23781136250E+03  0.13263856278E+04  0.15294330000E+03 0.  0.
<mgrwt>
<rscale>  0 0.13048926E+04</rscale>
<asrwt>0</asrwt>
<pdfrwt beam="1">  1        1 0.22487686E+00 0.13048926E+04</pdfrwt>
<pdfrwt beam="2">  1       -1 0.19170860E+00 0.13048926E+04</pdfrwt>
<totfact> 0.11572858E+00</totfact>
</mgrwt>
</event>
<event>
 4    1  0.4964158E-009  0.5973546E+03  0.7818608E-02  0.9910910E-01
         -1   -1    0    0    0  501 -0.00000000000E+00  0.00000000000E+00  0.17151913243E+04  0.17151913243E+04  0.50400000000E-02 0.  1.
          1   -1    0    0  501    0  0.00000000000E+00 -0.00000000000E+00 -0.83079648034E+03  0.83079648036E+03  0.50400000000E-02 0. -1.
    8880022    1    1    2    0    0  0.52754032186E+03  0.23482348205E+03  0.15443387601E+04  0.16558426006E+04  0.15294330000E+03 0.  0.
    8880022    1    1    2    0    0 -0.52754032186E+03 -0.23482348205E+03 -0.65994391614E+03  0.89014520409E+03  0.15294330000E+03 0.  0.
<mgrwt>
<rscale>  0 0.59735459E+03</rscale>
<asrwt>0</asrwt>
<pdfrwt beam="1">  1        1 0.12781484E+00 0.59735459E+03</pdfrwt>
<pdfrwt beam="2">  1       -1 0.26387559E+00 0.59735459E+03</pdfrwt>
<totfact> 0.12786743E+00</totfact>
</mgrwt>
</event>
<event>
 4    1  0.4964158E-009  0.7392473E+03  0.7818608E-02  0.9652372E-01
         -1   -1    0    0    0  501 -0.00000000000E+00  0.00000000000E+00  0.78554846259E+03  0.78554846261E+03  0.50400000000E-02 0.  1.
          1   -1    0    0  501    0  0.00000000000E+00 -0.00000000000E+00 -0.15784306677E+04  0.15784306678E+04  0.50400000000E-02 0. -1.
    8880022    1    1    2    0    0 -0.36043098646E+03 -0.62704416236E+03  0.48749548852E+03  0.88551588461E+03  0.15294330000E+03 0.  0.
    8880022    1    1    2    0    0  0.36043098646E+03  0.62704416236E+03 -0.12803776937E+04  0.14784632458E+04  0.15294330000E+03 0.  0.
<mgrwt>
<rscale>  0 0.73924727E+03</rscale>
<asrwt>0</asrwt>
<pdfrwt beam="1">  1        1 0.24283549E+00 0.73924727E+03</pdfrwt>
<pdfrwt beam="2">  1       -1 0.12085361E+00 0.73924727E+03</pdfrwt>
<totfact> 0.36766350E+00</totfact>
</mgrwt>
</event>
<event>
 4    1  0.4964158E-009  0.8849680E+03  0.7818608E-02  0.9444570E-01
         -1   -1    0    0    0  501 -0.00000000000E+00  0.00000000000E+00  0.96413555291E+03  0.96413555293E+03  0.50400000000E-02 0.  1.
          1   -1    0    0  501    0  0.00000000000E+00 -0.00000000000E+00 -0.95741586439E+03  0.95741586441E+03  0.50400000000E-02 0. -1.
    8880022    1    1    2    0    0  0.22922582576E+02 -0.87135021500E+03  0.37740808956E+03  0.96208375990E+03  0.15294330000E+03 0.  0.
    8880022    1    1    2    0    0 -0.22922582576E+02  0.87135021500E+03 -0.37068840104E+03  0.95946765743E+03  0.15294330000E+03 0.  0.
<mgrwt>
<rscale>  0 0.88496796E+03</rscale>
<asrwt>0</asrwt>
<pdfrwt beam="1">  1        1 0.14729475E+00 0.88496796E+03</pdfrwt>
<pdfrwt beam="2">  1       -1 0.14832855E+00 0.88496796E+03</pdfrwt>
<totfact> 0.59740947E+00</totfact>
</mgrwt>
</event>
<event>
 4    1  0.4964158E-009  0.4424725E+03  0.7818608E-02  0.1029991E+00
          1   -1    0    0  501    0  0.00000000000E+00  0.00000000000E+00  0.10414525793E+04  0.10414525793E+04  0.50400000000E-02 0. -1.
         -1   -1    0    0    0  501 -0.00000000000E+00 -0.00000000000E+00 -0.46364619051E+03  0.46364619054E+03  0.50400000000E-02 0.  1.
    8880022    1    1    2    0    0  0.20614387579E+03  0.36040942649E+03 -0.29136145166E+03  0.52978618400E+03  0.15294330000E+03 0.  0.
    8880022    1    1    2    0    0 -0.20614387579E+03 -0.36040942649E+03  0.86916784048E+03  0.97531258588E+03  0.15294330000E+03 0.  0.
<mgrwt>
<rscale>  0 0.44247249E+03</rscale>
<asrwt>0</asrwt>
<pdfrwt beam="1">  1        1 0.16022347E+00 0.44247249E+03</pdfrwt>
<pdfrwt beam="2">  1       -1 0.71330184E-01 0.44247249E+03</pdfrwt>
<totfact> 0.29977345E+01</totfact>
</mgrwt>
</event>
<event>
 4    1  0.4964158E-009  0.1394521E+04  0.7818608E-02  0.8957794E-01
         -1   -1    0    0    0  501 -0.00000000000E+00  0.00000000000E+00  0.53154325015E+03  0.53154325017E+03  0.50400000000E-02 0.  1.
          1   -1    0    0  501    0  0.00000000000E+00 -0.00000000000E+00 -0.40630716775E+04  0.40630716775E+04  0.50400000000E-02 0. -1.
    8880022    1    1    2    0    0  0.13446803042E+04 -0.33635306566E+03 -0.10409110214E+04  0.17401683576E+04  0.15294330000E+03 0.  0.
    8880022    1    1    2    0    0 -0.13446803042E+04  0.33635306566E+03 -0.24906174060E+04  0.28544465701E+04  0.15294330000E+03 0.  0.
<mgrwt>
<rscale>  0 0.13945215E+04</rscale>
<asrwt>0</asrwt>
<pdfrwt beam="1">  1        1 0.62508793E+00 0.13945215E+04</pdfrwt>
<pdfrwt beam="2">  1       -1 0.81775887E-01 0.13945215E+04</pdfrwt>
<totfact> 0.12402781E-01</totfact>
</mgrwt>
</event>
<event>
 4    1  0.4964158E-009  0.8248034E+03  0.7818608E-02  0.9524793E-01
          1   -1    0    0  501    0  0.00000000000E+00  0.00000000000E+00  0.14017780198E+04  0.14017780198E+04  0.50400000000E-02 0. -1.
         -1   -1    0    0    0  501 -0.00000000000E+00 -0.00000000000E+00 -0.10273581680E+04  0.10273581680E+04  0.50400000000E-02 0.  1.
    8880022    1    1    2    0    0  0.74413644388E+03  0.32120085242E+03 -0.69501390433E+03  0.10785847277E+04  0.15294330000E+03 0.  0.
    8880022    1    1    2    0    0 -0.74413644388E+03 -0.32120085242E+03  0.10694337561E+04  0.13505514601E+04  0.15294330000E+03 0.  0.
<mgrwt>
<rscale>  0 0.82480342E+03</rscale>
<asrwt>0</asrwt>
<pdfrwt beam="1">  1        1 0.21565816E+00 0.82480342E+03</pdfrwt>
<pdfrwt beam="2">  1       -1 0.15805510E+00 0.82480342E+03</pdfrwt>
<totfact> 0.23891504E+00</totfact>
</mgrwt>
</event>
<event>
 4    1  0.4964158E-009  0.8328790E+03  0.7818608E-02  0.9513609E-01
         -1   -1    0    0    0  501 -0.00000000000E+00  0.00000000000E+00  0.17763269988E+04  0.17763269988E+04  0.50400000000E-02 0.  1.
          1   -1    0    0  501    0  0.00000000000E+00 -0.00000000000E+00 -0.20923331249E+04  0.20923331249E+04  0.50400000000E-02 0. -1.
    8880022    1    1    2    0    0  0.68015256789E+03 -0.45572822281E+03 -0.19025046789E+04  0.20768272521E+04  0.15294330000E+03 0.  0.
    8880022    1    1    2    0    0 -0.68015256789E+03  0.45572822281E+03  0.15864985529E+04  0.17918328716E+04  0.15294330000E+03 0.  0.
<mgrwt>
<rscale>  0 0.83287897E+03</rscale>
<asrwt>0</asrwt>
<pdfrwt beam="1">  1        1 0.32189740E+00 0.83287897E+03</pdfrwt>
<pdfrwt beam="2">  1       -1 0.27328108E+00 0.83287897E+03</pdfrwt>
<totfact> 0.13431263E-01</totfact>
</mgrwt>
</event>
<event>
 4    1  0.4964158E-009  0.1060065E+04  0.7818608E-02  0.9245014E-01
         -1   -1    0    0    0  501 -0.00000000000E+00  0.00000000000E+00  0.42576110948E+03  0.42576110951E+03  0.50400000000E-02 0.  1.
          1   -1    0    0  501    0  0.00000000000E+00 -0.00000000000E+00 -0.42627554157E+04  0.42627554157E+04  0.50400000000E-02 0. -1.
    8880022    1    1    2    0    0 -0.74129580326E+03 -0.74217642975E+03 -0.47181753055E+03  0.11603226948E+04  0.15294330000E+03 0.  0.
    8880022    1    1    2    0    0  0.74129580326E+03  0.74217642975E+03 -0.33651767756E+04  0.35281938304E+04  0.15294330000E+03 0.  0.
<mgrwt>
<rscale>  0 0.10600646E+04</rscale>
<asrwt>0</asrwt>
<pdfrwt beam="1">  1        1 0.65580850E+00 0.10600646E+04</pdfrwt>
<pdfrwt beam="2">  1       -1 0.65501712E-01 0.10600646E+04</pdfrwt>
<totfact> 0.13713987E-01</totfact>
</mgrwt>
</event>
<event>
 4    1  0.4964158E-009  0.6932273E+03  0.7818608E-02  0.9728885E-01
         -1   -1    0    0    0  501 -0.00000000000E+00  0.00000000000E+00  0.56859001983E+03  0.56859001985E+03  0.50400000000E-02 0.  1.
          1   -1    0    0  501    0  0.00000000000E+00 -0.00000000000E+00 -0.14559232285E+04  0.14559232285E+04  0.50400000000E-02 0. -1.
    8880022    1    1    2    0    0 -0.18906117694E+03  0.64917514535E+03  0.21194811498E+03  0.72490423811E+03  0.15294330000E+03 0.  0.
    8880022    1    1    2    0    0  0.18906117694E+03 -0.64917514535E+03 -0.10992813236E+04  0.12996090102E+04  0.15294330000E+03 0.  0.
<mgrwt>
<rscale>  0 0.69322734E+03</rscale>
<asrwt>0</asrwt>
<pdfrwt beam="1">  1        1 0.22398819E+00 0.69322734E+03</pdfrwt>
<pdfrwt beam="2">  1       -1 0.87475388E-01 0.69322734E+03</pdfrwt>
<totfact> 0.94561584E+00</totfact>
</mgrwt>
</event>
<event>
 4    1  0.4964158E-009  0.7979825E+03  0.7818608E-02  0.9562942E-01
         -1   -1    0    0    0  501 -0.00000000000E+00  0.00000000000E+00  0.54869794635E+03  0.54869794638E+03  0.50400000000E-02 0.  1.
          1   -1    0    0  501    0  0.00000000000E+00 -0.00000000000E+00 -0.23063537779E+04  0.23063537780E+04  0.50400000000E-02 0. -1.
    8880022    1    1    2    0    0 -0.31897551933E+03 -0.71528950608E+03  0.12736539959E+03  0.80808295210E+03  0.15294330000E+03 0.  0.
    8880022    1    1    2    0    0  0.31897551933E+03  0.71528950608E+03 -0.18850212312E+04  0.20469687722E+04  0.15294330000E+03 0.  0.
<mgrwt>
<rscale>  0 0.79798253E+03</rscale>
<asrwt>0</asrwt>
<pdfrwt beam="1">  1        1 0.35482365E+00 0.79798253E+03</pdfrwt>
<pdfrwt beam="2">  1       -1 0.84415069E-01 0.79798253E+03</pdfrwt>
<totfact> 0.26867110E+00</totfact>
</mgrwt>
</event>
<event>
 4    1  0.4964158E-009  0.4721658E+03  0.7818608E-02  0.1021311E+00
         -1   -1    0    0    0  501 -0.00000000000E+00  0.00000000000E+00  0.69649289476E+03  0.69649289478E+03  0.50400000000E-02 0.  1.
          1   -1    0    0  501    0  0.00000000000E+00 -0.00000000000E+00 -0.17862948834E+04  0.17862948834E+04  0.50400000000E-02 0. -1.
    8880022    1    1    2    0    0  0.44662992533E+03  0.84016332885E+01 -0.16695845141E+04  0.17350656991E+04  0.15294330000E+03 0.  0.
    8880022    1    1    2    0    0 -0.44662992533E+03 -0.84016332885E+01  0.57978252546E+03  0.74772207904E+03  0.15294330000E+03 0.  1.
<mgrwt>
<rscale>  0 0.47216579E+03</rscale>
<asrwt>0</asrwt>
<pdfrwt beam="1">  1        1 0.27481460E+00 0.47216579E+03</pdfrwt>
<pdfrwt beam="2">  1       -1 0.10715275E+00 0.47216579E+03</pdfrwt>
<totfact> 0.37739412E+00</totfact>
</mgrwt>
</event>
<event>
 4    1  0.4964158E-009  0.2024947E+04  0.7818608E-02  0.8595045E-01
         -1   -1    0    0    0  501 -0.00000000000E+00  0.00000000000E+00  0.15256499395E+04  0.15256499395E+04  0.50400000000E-02 0.  1.
          1   -1    0    0  501    0  0.00000000000E+00 -0.00000000000E+00 -0.29413369119E+04  0.29413369119E+04  0.50400000000E-02 0. -1.
    8880022    1    1    2    0    0 -0.13768215545E+04 -0.14769494342E+04 -0.51904159616E+02  0.20256117394E+04  0.15294330000E+03 0.  0.
    8880022    1    1    2    0    0  0.13768215545E+04  0.14769494342E+04 -0.13637828127E+04  0.24413751120E+04  0.15294330000E+03 0.  0.
<mgrwt>
<rscale>  0 0.20249466E+04</rscale>
<asrwt>0</asrwt>
<pdfrwt beam="1">  1        1 0.45251337E+00 0.20249466E+04</pdfrwt>
<pdfrwt beam="2">  1       -1 0.23471538E+00 0.20249466E+04</pdfrwt>
<totfact> 0.51488117E-02</totfact>
</mgrwt>
</event>
<event>
 4    1  0.4964158E-009  0.2636757E+04  0.7818608E-02  0.8355822E-01
         -1   -1    0    0    0  501 -0.00000000000E+00  0.00000000000E+00  0.24500997727E+04  0.24500997727E+04  0.50400000000E-02 0.  1.
          1   -1    0    0  501    0  0.00000000000E+00 -0.00000000000E+00 -0.31088393415E+04  0.31088393415E+04  0.50400000000E-02 0. -1.
    8880022    1    1    2    0    0  0.25898149287E+04 -0.47112315888E+03 -0.11503084576E+04  0.28767515702E+04  0.15294330000E+03 0.  0.
    8880022    1    1    2    0    0 -0.25898149287E+04  0.47112315888E+03  0.49156888882E+03  0.26821875440E+04  0.15294330000E+03 0.  0.
<mgrwt>
<rscale>  0 0.26367575E+04</rscale>
<asrwt>0</asrwt>
<pdfrwt beam="1">  1        1 0.47828298E+00 0.26367575E+04</pdfrwt>
<pdfrwt beam="2">  1       -1 0.37693843E+00 0.26367575E+04</pdfrwt>
<totfact> 0.42033338E-03</totfact>
</mgrwt>
</event>
<event>
 4    1  0.4964158E-009  0.4560771E+03  0.7818608E-02  0.1025925E+00
          1   -1    0    0  501    0  0.00000000000E+00  0.00000000000E+00  0.46454617629E+03  0.46454617632E+03  0.50400000000E-02 0. -1.
         -1   -1    0    0    0  501 -0.00000000000E+00 -0.00000000000E+00 -0.10088532347E+04  0.10088532347E+04  0.50400000000E-02 0.  1.
    8880022    1    1    2    0    0 -0.38578234248E+03 -0.18917361884E+03 -0.82155912032E+03  0.93966255381E+03  0.15294330000E+03 0.  1.
    8880022    1    1    2    0    0  0.38578234248E+03  0.18917361884E+03  0.27725206196E+03  0.53373685718E+03  0.15294330000E+03 0.  0.
<mgrwt>
<rscale>  0 0.45607711E+03</rscale>
<asrwt>0</asrwt>
<pdfrwt beam="1">  1        1 0.71468643E-01 0.45607711E+03</pdfrwt>
<pdfrwt beam="2">  1       -1 0.15520819E+00 0.45607711E+03</pdfrwt>
<totfact> 0.16702504E+01</totfact>
</mgrwt>
</event>
<event>
 4    1  0.4964158E-009  0.5933662E+03  0.7818608E-02  0.9919265E-01
          1   -1    0    0  501    0  0.00000000000E+00  0.00000000000E+00  0.16788477715E+04  0.16788477716E+04  0.50400000000E-02 0. -1.
         -1   -1    0    0    0  501 -0.00000000000E+00 -0.00000000000E+00 -0.47488961138E+03  0.47488961141E+03  0.50400000000E-02 0.  1.
    8880022    1    1    2    0    0  0.47105563521E+03 -0.32680019652E+03 -0.20271442812E+03  0.62703793528E+03  0.15294330000E+03 0.  0.
    8880022    1    1    2    0    0 -0.47105563521E+03  0.32680019652E+03  0.14066725883E+04  0.15266994477E+04  0.15294330000E+03 0.  0.
<mgrwt>
<rscale>  0 0.59336619E+03</rscale>
<asrwt>0</asrwt>
<pdfrwt beam="1">  1        1 0.25828426E+00 0.59336619E+03</pdfrwt>
<pdfrwt beam="2">  1       -1 0.73059943E-01 0.59336619E+03</pdfrwt>
<totfact> 0.99539969E+00</totfact>
</mgrwt>
</event>
<event>
 4    1  0.4964158E-009  0.1565882E+04  0.7818608E-02  0.8841786E-01
         -1   -1    0    0    0  501 -0.00000000000E+00  0.00000000000E+00  0.73505106679E+03  0.73505106681E+03  0.50400000000E-02 0.  1.
          1   -1    0    0  501    0  0.00000000000E+00 -0.00000000000E+00 -0.45211642114E+04  0.45211642114E+04  0.50400000000E-02 0. -1.
    8880022    1    1    2    0    0  0.15095393455E+04 -0.38715232637E+03 -0.32387398352E+04  0.35974189821E+04  0.15294330000E+03 0.  0.
    8880022    1    1    2    0    0 -0.15095393455E+04  0.38715232637E+03 -0.54737330941E+03  0.16587962962E+04  0.15294330000E+03 0.  0.
<mgrwt>
<rscale>  0 0.15658824E+04</rscale>
<asrwt>0</asrwt>
<pdfrwt beam="1">  1        1 0.69556371E+00 0.15658824E+04</pdfrwt>
<pdfrwt beam="2">  1       -1 0.11308478E+00 0.15658824E+04</pdfrwt>
<totfact> 0.21173998E-02</totfact>
</mgrwt>
</event>
<event>
 4    1  0.4964158E-009  0.1726317E+04  0.7818608E-02  0.8746496E-01
          1   -1    0    0  501    0  0.00000000000E+00  0.00000000000E+00  0.36746624954E+04  0.36746624954E+04  0.50400000000E-02 0. -1.
         -1   -1    0    0    0  501 -0.00000000000E+00 -0.00000000000E+00 -0.12604977579E+04  0.12604977579E+04  0.50400000000E-02 0.  1.
    8880022    1    1    2    0    0  0.15008453661E+04  0.83919036541E+03  0.26806214864E+04  0.31884009298E+04  0.15294330000E+03 0.  0.
    8880022    1    1    2    0    0 -0.15008453661E+04 -0.83919036541E+03 -0.26645674898E+03  0.17467593236E+04  0.15294330000E+03 0.  0.
<mgrwt>
<rscale>  0 0.17263166E+04</rscale>
<asrwt>0</asrwt>
<pdfrwt beam="1">  1        1 0.56533268E+00 0.17263166E+04</pdfrwt>
<pdfrwt beam="2">  1       -1 0.19392273E+00 0.17263166E+04</pdfrwt>
<totfact> 0.27762127E-02</totfact>
</mgrwt>
</event>
<event>
 4    1  0.4964158E-009  0.7923171E+03  0.7818608E-02  0.9571205E-01
          1   -1    0    0  501    0  0.00000000000E+00  0.00000000000E+00  0.23481668626E+04  0.23481668626E+04  0.50400000000E-02 0. -1.
         -1   -1    0    0    0  501 -0.00000000000E+00 -0.00000000000E+00 -0.29870325704E+03  0.29870325708E+03  0.50400000000E-02 0.  1.
    8880022    1    1    2    0    0  0.33375747152E+03  0.70212583576E+03  0.59591555790E+03  0.99140392586E+03  0.15294330000E+03 0.  0.
    8880022    1    1    2    0    0 -0.33375747152E+03 -0.70212583576E+03  0.14535480477E+04  0.16554661938E+04  0.15294330000E+03 0.  0.
<mgrwt>
<rscale>  0 0.79231710E+03</rscale>
<asrwt>0</asrwt>
<pdfrwt beam="1">  1        1 0.36125645E+00 0.79231710E+03</pdfrwt>
<pdfrwt beam="2">  1       -1 0.45954346E-01 0.79231710E+03</pdfrwt>
<totfact> 0.84886561E+00</totfact>
</mgrwt>
</event>
<event>
 4    1  0.5966765E-009  0.9204005E+03  0.7818608E-02  0.9400433E-01
          1   -1    0    0  501    0  0.00000000000E+00  0.00000000000E+00  0.18598208830E+04  0.18598208830E+04  0.50400000000E-02 0. -1.
         -1   -1    0    0    0  501 -0.00000000000E+00 -0.00000000000E+00 -0.13920530343E+04  0.13920530343E+04  0.50400000000E-02 0.  1.
    8880022    1    1    2    0    0 -0.85259852031E+03 -0.31116111615E+03 -0.10997707960E+04  0.14340965567E+04  0.15294330000E+03 0.  0.
    8880022    1    1    2    0    0  0.85259852031E+03  0.31116111615E+03  0.15675386447E+04  0.18177773606E+04  0.15294330000E+03 0.  0.
<mgrwt>
<rscale>  0 0.92040053E+03</rscale>
<asrwt>0</asrwt>
<pdfrwt beam="1">  1        1 0.28612629E+00 0.92040053E+03</pdfrwt>
<pdfrwt beam="2">  1       -1 0.21416200E+00 0.92040053E+03</pdfrwt>
<totfact> 0.45875598E-01</totfact>
</mgrwt>
</event>
<event>
 4    1  0.4964158E-009  0.8944154E+03  0.7818608E-02  0.9432590E-01
          1   -1    0    0  501    0  0.00000000000E+00  0.00000000000E+00  0.66332195416E+03  0.66332195418E+03  0.50400000000E-02 0. -1.
         -1   -1    0    0    0  501 -0.00000000000E+00 -0.00000000000E+00 -0.23912699399E+04  0.23912699400E+04  0.50400000000E-02 0.  1.
    8880022    1    1    2    0    0  0.87913950950E+03  0.60835172314E+02 -0.19392354035E+04  0.21355591302E+04  0.15294330000E+03 0.  0.
    8880022    1    1    2    0    0 -0.87913950950E+03 -0.60835172314E+02  0.21128741767E+03  0.91903276396E+03  0.15294330000E+03 0.  0.
<mgrwt>
<rscale>  0 0.89441537E+03</rscale>
<asrwt>0</asrwt>
<pdfrwt beam="1">  1        1 0.10204953E+00 0.89441537E+03</pdfrwt>
<pdfrwt beam="2">  1       -1 0.36788768E+00 0.89441537E+03</pdfrwt>
<totfact> 0.36313949E-01</totfact>
</mgrwt>
</event>
<event>
 4    1  0.4964158E-009  0.1797060E+04  0.7818608E-02  0.8707864E-01
         -1   -1    0    0    0  501 -0.00000000000E+00  0.00000000000E+00  0.18430372238E+04  0.18430372238E+04  0.50400000000E-02 0.  1.
          1   -1    0    0  501    0  0.00000000000E+00 -0.00000000000E+00 -0.20262470281E+04  0.20262470281E+04  0.50400000000E-02 0. -1.
    8880022    1    1    2    0    0  0.96186185537E+03 -0.15102503012E+04 -0.80305247587E+03  0.19683290206E+04  0.15294330000E+03 0.  0.
    8880022    1    1    2    0    0 -0.96186185537E+03  0.15102503012E+04  0.61984267159E+03  0.19009552314E+04  0.15294330000E+03 0.  0.
<mgrwt>
<rscale>  0 0.17970603E+04</rscale>
<asrwt>0</asrwt>
<pdfrwt beam="1">  1        1 0.31173031E+00 0.17970603E+04</pdfrwt>
<pdfrwt beam="2">  1       -1 0.28354419E+00 0.17970603E+04</pdfrwt>
<totfact> 0.11002673E-01</totfact>
</mgrwt>
</event>
<event>
 4    1  0.4964158E-009  0.4800608E+03  0.7818608E-02  0.1019118E+00
          1   -1    0    0  501    0  0.00000000000E+00  0.00000000000E+00  0.39911130547E+03  0.39911130550E+03  0.50400000000E-02 0. -1.
         -1   -1    0    0    0  501 -0.00000000000E+00 -0.00000000000E+00 -0.70949565717E+03  0.70949565718E+03  0.50400000000E-02 0.  1.
    8880022    1    1    2    0    0 -0.36782961603E+03  0.26789571537E+03 -0.39434170324E+03  0.62125982703E+03  0.15294330000E+03 0.  0.
    8880022    1    1    2    0    0  0.36782961603E+03 -0.26789571537E+03  0.83957351546E+02  0.48734713566E+03  0.15294330000E+03 0.  0.
<mgrwt>
<rscale>  0 0.48006082E+03</rscale>
<asrwt>0</asrwt>
<pdfrwt beam="1">  1        1 0.61401740E-01 0.48006082E+03</pdfrwt>
<pdfrwt beam="2">  1       -1 0.10915318E+00 0.48006082E+03</pdfrwt>
<totfact> 0.49084688E+01</totfact>
</mgrwt>
</event>
<event>
 4    1  0.4964158E-009  0.1923233E+03  0.7818608E-02  0.1156382E+00
          1   -1    0    0  501    0  0.00000000000E+00  0.00000000000E+00  0.32298643325E+03  0.32298643329E+03  0.50400000000E-02 0. -1.
         -1   -1    0    0    0  501 -0.00000000000E+00 -0.00000000000E+00 -0.79791988336E+03  0.79791988338E+03  0.50400000000E-02 0.  1.
    8880022    1    1    2    0    0 -0.59499467964E+02 -0.10028171944E+03  0.28121060717E+03  0.34068705368E+03  0.15294330000E+03 0. -1.
    8880022    1    1    2    0    0  0.59499467964E+02  0.10028171944E+03 -0.75614405729E+03  0.78021926298E+03  0.15294330000E+03 0.  0.
<mgrwt>
<rscale>  0 0.19232333E+03</rscale>
<asrwt>0</asrwt>
<pdfrwt beam="1">  1        1 0.49690221E-01 0.19232333E+03</pdfrwt>
<pdfrwt beam="2">  1       -1 0.12275690E+00 0.19232333E+03</pdfrwt>
<totfact> 0.51548682E+01</totfact>
</mgrwt>
</event>
<event>
 4    1  0.4964158E-009  0.3996433E+03  0.7818608E-02  0.1043903E+00
          1   -1    0    0  501    0  0.00000000000E+00  0.00000000000E+00  0.77267935534E+03  0.77267935536E+03  0.50400000000E-02 0. -1.
         -1   -1    0    0    0  501 -0.00000000000E+00 -0.00000000000E+00 -0.57945667603E+03  0.57945667605E+03  0.50400000000E-02 0.  1.
    8880022    1    1    2    0    0 -0.36697689562E+03 -0.40633211641E+02 -0.44562817766E+03  0.59858101001E+03  0.15294330000E+03 0.  0.
    8880022    1    1    2    0    0  0.36697689562E+03  0.40633211641E+02  0.63885085698E+03  0.75355502140E+03  0.15294330000E+03 0.  0.
<mgrwt>
<rscale>  0 0.39964328E+03</rscale>
<asrwt>0</asrwt>
<pdfrwt beam="1">  1        1 0.11887375E+00 0.39964328E+03</pdfrwt>
<pdfrwt beam="2">  1       -1 0.89147181E-01 0.39964328E+03</pdfrwt>
<totfact> 0.31078334E+01</totfact>
</mgrwt>
</event>
<event>
 4    1  0.4964158E-009  0.8642642E+03  0.7818608E-02  0.9471389E-01
         -1   -1    0    0    0  501 -0.00000000000E+00  0.00000000000E+00  0.30195693287E+04  0.30195693287E+04  0.50400000000E-02 0.  1.
          1   -1    0    0  501    0  0.00000000000E+00 -0.00000000000E+00 -0.80911481265E+03  0.80911481267E+03  0.50400000000E-02 0. -1.
    8880022    1    1    2    0    0  0.81522887696E+03  0.24282269090E+03 -0.48985754225E+03  0.99343497309E+03  0.15294330000E+03 0.  0.
    8880022    1    1    2    0    0 -0.81522887696E+03 -0.24282269090E+03  0.27003120583E+04  0.28352491683E+04  0.15294330000E+03 0.  0.
<mgrwt>
<rscale>  0 0.86426422E+03</rscale>
<asrwt>0</asrwt>
<pdfrwt beam="1">  1        1 0.12447920E+00 0.86426422E+03</pdfrwt>
<pdfrwt beam="2">  1       -1 0.46454912E+00 0.86426422E+03</pdfrwt>
<totfact> 0.58766626E-02</totfact>
</mgrwt>
</event>
<event>
 4    1  0.4964158E-009  0.9613613E+03  0.7818608E-02  0.9351969E-01
          1   -1    0    0  501    0  0.00000000000E+00  0.00000000000E+00  0.20476473004E+04  0.20476473004E+04  0.50400000000E-02 0. -1.
         -1   -1    0    0    0  501 -0.00000000000E+00 -0.00000000000E+00 -0.15969285415E+04  0.15969285415E+04  0.50400000000E-02 0.  1.
    8880022    1    1    2    0    0  0.94604613062E+03 -0.76293200149E+02  0.17687852174E+04  0.20131608808E+04  0.15294330000E+03 0.  0.
    8880022    1    1    2    0    0 -0.94604613062E+03  0.76293200149E+02 -0.13180664584E+04  0.16314149612E+04  0.15294330000E+03 0.  0.
<mgrwt>
<rscale>  0 0.96136132E+03</rscale>
<asrwt>0</asrwt>
<pdfrwt beam="1">  1        1 0.31502266E+00 0.96136132E+03</pdfrwt>
<pdfrwt beam="2">  1       -1 0.24568131E+00 0.96136132E+03</pdfrwt>
<totfact> 0.21086794E-01</totfact>
</mgrwt>
</event>
<event>
 4    1  0.4964158E-009  0.3552948E+03  0.7818608E-02  0.1060463E+00
         -1   -1    0    0    0  501 -0.00000000000E+00  0.00000000000E+00  0.22469166693E+03  0.22469166699E+03  0.50400000000E-02 0.  1.
          1   -1    0    0  501    0  0.00000000000E+00 -0.00000000000E+00 -0.12129300062E+04  0.12129300062E+04  0.50400000000E-02 0. -1.
    8880022    1    1    2    0    0 -0.31903362894E+03  0.32561622997E+02 -0.10207748298E+04  0.10808402388E+04  0.15294330000E+03 0.  0.
    8880022    1    1    2    0    0  0.31903362894E+03 -0.32561622997E+02  0.32536490528E+02  0.35678143438E+03  0.15294330000E+03 0.  0.
<mgrwt>
<rscale>  0 0.35529476E+03</rscale>
<asrwt>0</asrwt>
<pdfrwt beam="1">  1        1 0.18660461E+00 0.35529476E+03</pdfrwt>
<pdfrwt beam="2">  1       -1 0.34567949E-01 0.35529476E+03</pdfrwt>
<totfact> 0.89124476E+01</totfact>
</mgrwt>
</event>
<event>
 4    1  0.4964158E-009  0.7472542E+03  0.7818608E-02  0.9639668E-01
          1   -1    0    0  501    0  0.00000000000E+00  0.00000000000E+00  0.26583372876E+04  0.26583372876E+04  0.50400000000E-02 0. -1.
         -1   -1    0    0    0  501 -0.00000000000E+00 -0.00000000000E+00 -0.44124921244E+03  0.44124921247E+03  0.50400000000E-02 0.  1.
    8880022    1    1    2    0    0 -0.53163310320E+03  0.50235793624E+03  0.22303639541E+04  0.23522143340E+04  0.15294330000E+03 0.  0.
    8880022    1    1    2    0    0  0.53163310320E+03 -0.50235793624E+03 -0.13275878971E+02  0.74737216599E+03  0.15294330000E+03 0.  0.
<mgrwt>
<rscale>  0 0.74725424E+03</rscale>
<asrwt>0</asrwt>
<pdfrwt beam="1">  1        1 0.40897496E+00 0.74725424E+03</pdfrwt>
<pdfrwt beam="2">  1       -1 0.67884495E-01 0.74725424E+03</pdfrwt>
<totfact> 0.24611292E+00</totfact>
</mgrwt>
</event>
<event>
 4    1  0.4964158E-009  0.5779623E+03  0.7818608E-02  0.9952212E-01
          1   -1    0    0  501    0  0.00000000000E+00  0.00000000000E+00  0.23896100502E+04  0.23896100502E+04  0.50400000000E-02 0. -1.
         -1   -1    0    0    0  501 -0.00000000000E+00 -0.00000000000E+00 -0.12315009585E+04  0.12315009585E+04  0.50400000000E-02 0.  1.
    8880022    1    1    2    0    0 -0.10451876251E+03  0.54747108940E+03  0.22837569151E+04  0.23557559436E+04  0.15294330000E+03 0.  0.
    8880022    1    1    2    0    0  0.10451876251E+03 -0.54747108940E+03 -0.11256478234E+04  0.12653550651E+04  0.15294330000E+03 0.  0.
<mgrwt>
<rscale>  0 0.57796230E+03</rscale>
<asrwt>0</asrwt>
<pdfrwt beam="1">  1        1 0.36763231E+00 0.57796230E+03</pdfrwt>
<pdfrwt beam="2">  1       -1 0.18946169E+00 0.57796230E+03</pdfrwt>
<totfact> 0.32471143E-01</totfact>
</mgrwt>
</event>
<event>
 4    1  0.4964158E-009  0.4609624E+03  0.7818608E-02  0.1024502E+00
         -1   -1    0    0    0  501 -0.00000000000E+00  0.00000000000E+00  0.61268297720E+03  0.61268297723E+03  0.50400000000E-02 0.  1.
          1   -1    0    0  501    0  0.00000000000E+00 -0.00000000000E+00 -0.13073374963E+04  0.13073374964E+04  0.50400000000E-02 0. -1.
    8880022    1    1    2    0    0 -0.35214433856E+03 -0.25512552053E+03 -0.11702068020E+04  0.12577242459E+04  0.15294330000E+03 0.  0.
    8880022    1    1    2    0    0  0.35214433856E+03  0.25512552053E+03  0.47555228284E+03  0.66229622764E+03  0.15294330000E+03 0.  0.
<mgrwt>
<rscale>  0 0.46096238E+03</rscale>
<asrwt>0</asrwt>
<pdfrwt beam="1">  1        1 0.20112884E+00 0.46096238E+03</pdfrwt>
<pdfrwt beam="2">  1       -1 0.94258920E-01 0.46096238E+03</pdfrwt>
<totfact> 0.10644614E+01</totfact>
</mgrwt>
</event>
<event>
 4    1  0.4964158E-009  0.4324029E+03  0.7818608E-02  0.1033104E+00
          1   -1    0    0  501    0  0.00000000000E+00  0.00000000000E+00  0.13631683463E+04  0.13631683463E+04  0.50400000000E-02 0. -1.
         -1   -1    0    0    0  501 -0.00000000000E+00 -0.00000000000E+00 -0.27611569479E+03  0.27611569484E+03  0.50400000000E-02 0.  1.
    8880022    1    1    2    0    0  0.30822851555E+03  0.26186975618E+03 -0.37929550481E+02  0.43406323366E+03  0.15294330000E+03 0.  0.
    8880022    1    1    2    0    0 -0.30822851555E+03 -0.26186975618E+03  0.11249822019E+04  0.12052208075E+04  0.15294330000E+03 0.  0.
<mgrwt>
<rscale>  0 0.43240287E+03</rscale>
<asrwt>0</asrwt>
<pdfrwt beam="1">  1        1 0.20971821E+00 0.43240287E+03</pdfrwt>
<pdfrwt beam="2">  1       -1 0.42479337E-01 0.43240287E+03</pdfrwt>
<totfact> 0.47801365E+01</totfact>
</mgrwt>
</event>
<event>
 4    1  0.4964158E-009  0.2093356E+03  0.7818608E-02  0.1142093E+00
         -1   -1    0    0    0  501 -0.00000000000E+00  0.00000000000E+00  0.14239537073E+03  0.14239537081E+03  0.50400000000E-02 0.  1.
          1   -1    0    0  501    0  0.00000000000E+00 -0.00000000000E+00 -0.12659590882E+04  0.12659590882E+04  0.50400000000E-02 0. -1.
    8880022    1    1    2    0    0 -0.10704736414E+03 -0.94713321947E+02 -0.11744192668E+04  0.11929300142E+04  0.15294330000E+03 0. -1.
    8880022    1    1    2    0    0  0.10704736414E+03  0.94713321947E+02  0.50855549314E+02  0.21542444484E+03  0.15294330000E+03 0.  0.
<mgrwt>
<rscale>  0 0.20933563E+03</rscale>
<asrwt>0</asrwt>
<pdfrwt beam="1">  1        1 0.19476293E+00 0.20933563E+03</pdfrwt>
<pdfrwt beam="2">  1       -1 0.21906981E-01 0.20933563E+03</pdfrwt>
<totfact> 0.18277274E+02</totfact>
</mgrwt>
</event>
<event>
 4    1  0.4964158E-009  0.7726116E+03  0.7818608E-02  0.9600529E-01
          1   -1    0    0  501    0  0.00000000000E+00  0.00000000000E+00  0.11628932744E+04  0.11628932744E+04  0.50400000000E-02 0. -1.
         -1   -1    0    0    0  501 -0.00000000000E+00 -0.00000000000E+00 -0.11833390962E+04  0.11833390962E+04  0.50400000000E-02 0.  1.
    8880022    1    1    2    0    0  0.74582718945E+03  0.13144879188E+03 -0.89296161288E+03  0.11808086536E+04  0.15294330000E+03 0.  0.
    8880022    1    1    2    0    0 -0.74582718945E+03 -0.13144879188E+03  0.87251579108E+03  0.11654237170E+04  0.15294330000E+03 0.  0.
<mgrwt>
<rscale>  0 0.77261157E+03</rscale>
<asrwt>0</asrwt>
<pdfrwt beam="1">  1        1 0.17890666E+00 0.77261157E+03</pdfrwt>
<pdfrwt beam="2">  1       -1 0.18205217E+00 0.77261157E+03</pdfrwt>
<totfact> 0.23784291E+00</totfact>
</mgrwt>
</event>
<event>
 4    1  0.4964158E-009  0.1045853E+04  0.7818608E-02  0.9259636E-01
         -1   -1    0    0    0  501 -0.00000000000E+00  0.00000000000E+00  0.11431972980E+04  0.11431972980E+04  0.50400000000E-02 0.  1.
          1   -1    0    0  501    0  0.00000000000E+00 -0.00000000000E+00 -0.18583618936E+04  0.18583618936E+04  0.50400000000E-02 0. -1.
    8880022    1    1    2    0    0  0.10345619061E+04  0.99561548745E+01 -0.14029040268E+04  0.17498425141E+04  0.15294330000E+03 0.  0.
    8880022    1    1    2    0    0 -0.10345619061E+04 -0.99561548745E+01  0.68773943118E+03  0.12517166775E+04  0.15294330000E+03 0.  0.
<mgrwt>
<rscale>  0 0.10458533E+04</rscale>
<asrwt>0</asrwt>
<pdfrwt beam="1">  1        1 0.28590183E+00 0.10458533E+04</pdfrwt>
<pdfrwt beam="2">  1       -1 0.17587651E+00 0.10458533E+04</pdfrwt>
<totfact> 0.83100539E-01</totfact>
</mgrwt>
</event>
<event>
 4    1  0.4964158E-009  0.5767010E+03  0.7818608E-02  0.9954959E-01
         -1   -1    0    0    0  501 -0.00000000000E+00  0.00000000000E+00  0.32059150407E+04  0.32059150407E+04  0.50400000000E-02 0.  1.
          1   -1    0    0  501    0  0.00000000000E+00 -0.00000000000E+00 -0.50927007951E+03  0.50927007954E+03  0.50400000000E-02 0. -1.
    8880022    1    1    2    0    0 -0.37770922032E+03  0.40807853281E+03 -0.30930723194E+03  0.65441191982E+03  0.15294330000E+03 0.  0.
    8880022    1    1    2    0    0  0.37770922032E+03 -0.40807853281E+03  0.30059521932E+04  0.30607732005E+04  0.15294330000E+03 0.  0.
<mgrwt>
<rscale>  0 0.57670096E+03</rscale>
<asrwt>0</asrwt>
<pdfrwt beam="1">  1        1 0.78349243E-01 0.57670096E+03</pdfrwt>
<pdfrwt beam="2">  1       -1 0.49321770E+00 0.57670096E+03</pdfrwt>
<totfact> 0.79784709E-02</totfact>
</mgrwt>
</event>
<event>
 4    1  0.4964158E-009  0.1048951E+04  0.7818608E-02  0.9256428E-01
         -1   -1    0    0    0  501 -0.00000000000E+00  0.00000000000E+00  0.98668124970E+03  0.98668124971E+03  0.50400000000E-02 0.  1.
          1   -1    0    0  501    0  0.00000000000E+00 -0.00000000000E+00 -0.15651941151E+04  0.15651941151E+04  0.50400000000E-02 0. -1.
    8880022    1    1    2    0    0  0.87553138369E+03  0.55709185361E+03 -0.97343995943E+03  0.14310428173E+04  0.15294330000E+03 0.  0.
    8880022    1    1    2    0    0 -0.87553138369E+03 -0.55709185361E+03  0.39492709399E+03  0.11208325476E+04  0.15294330000E+03 0.  0.
<mgrwt>
<rscale>  0 0.10489510E+04</rscale>
<asrwt>0</asrwt>
<pdfrwt beam="1">  1        1 0.24079909E+00 0.10489510E+04</pdfrwt>
<pdfrwt beam="2">  1       -1 0.15179712E+00 0.10489510E+04</pdfrwt>
<totfact> 0.19909001E+00</totfact>
</mgrwt>
</event>
<event>
 4    1  0.4964158E-009  0.8163776E+03  0.7818608E-02  0.9536609E-01
          1   -1    0    0  501    0  0.00000000000E+00  0.00000000000E+00  0.11417838337E+04  0.11417838337E+04  0.50400000000E-02 0. -1.
         -1   -1    0    0    0  501 -0.00000000000E+00 -0.00000000000E+00 -0.66008850505E+03  0.66008850507E+03  0.50400000000E-02 0.  1.
    8880022    1    1    2    0    0  0.47056092776E+03 -0.64934825444E+03 -0.65612583024E+02  0.81901001602E+03  0.15294330000E+03 0.  0.
    8880022    1    1    2    0    0 -0.47056092776E+03  0.64934825444E+03  0.54730791167E+03  0.98286232275E+03  0.15294330000E+03 0.  0.
<mgrwt>
<rscale>  0 0.81637761E+03</rscale>
<asrwt>0</asrwt>
<pdfrwt beam="1">  1        1 0.17565905E+00 0.81637761E+03</pdfrwt>
<pdfrwt beam="2">  1       -1 0.10155208E+00 0.81637761E+03</pdfrwt>
<totfact> 0.11117152E+01</totfact>
</mgrwt>
</event>
<event>
 4    1  0.4964158E-009  0.5079356E+03  0.7818608E-02  0.1011728E+00
          1   -1    0    0  501    0  0.00000000000E+00  0.00000000000E+00  0.61158833925E+03  0.61158833927E+03  0.50400000000E-02 0. -1.
         -1   -1    0    0    0  501 -0.00000000000E+00 -0.00000000000E+00 -0.17319855716E+04  0.17319855716E+04  0.50400000000E-02 0.  1.
    8880022    1    1    2    0    0  0.96795891159E+02 -0.47459187097E+03 -0.15793404835E+04  0.16590102183E+04  0.15294330000E+03 0.  0.
    8880022    1    1    2    0    0 -0.96795891159E+02  0.47459187097E+03  0.45894325110E+03  0.68456369264E+03  0.15294330000E+03 0.  0.
<mgrwt>
<rscale>  0 0.50793557E+03</rscale>
<asrwt>0</asrwt>
<pdfrwt beam="1">  1        1 0.94090514E-01 0.50793557E+03</pdfrwt>
<pdfrwt beam="2">  1       -1 0.26645932E+00 0.50793557E+03</pdfrwt>
<totfact> 0.20013841E+00</totfact>
</mgrwt>
</event>
<event>
 4    1  0.4964158E-009  0.5229237E+03  0.7818608E-02  0.1007963E+00
          1   -1    0    0  501    0  0.00000000000E+00  0.00000000000E+00  0.10221410953E+04  0.10221410953E+04  0.50400000000E-02 0. -1.
         -1   -1    0    0    0  501 -0.00000000000E+00 -0.00000000000E+00 -0.69953589918E+03  0.69953589920E+03  0.50400000000E-02 0.  1.
    8880022    1    1    2    0    0 -0.21608450461E+03 -0.45096016994E+03 -0.51519080322E+03  0.73407820070E+03  0.15294330000E+03 0.  0.
    8880022    1    1    2    0    0  0.21608450461E+03  0.45096016994E+03  0.83779599929E+03  0.98759879377E+03  0.15294330000E+03 0.  0.
<mgrwt>
<rscale>  0 0.52292374E+03</rscale>
<asrwt>0</asrwt>
<pdfrwt beam="1">  1        1 0.15725247E+00 0.52292374E+03</pdfrwt>
<pdfrwt beam="2">  1       -1 0.10762091E+00 0.52292374E+03</pdfrwt>
<totfact> 0.12506753E+01</totfact>
</mgrwt>
</event>
<event>
 4    1  0.4964158E-009  0.7287428E+03  0.7818608E-02  0.9669303E-01
          1   -1    0    0  501    0  0.00000000000E+00  0.00000000000E+00  0.96962590303E+03  0.96962590304E+03  0.50400000000E-02 0. -1.
         -1   -1    0    0    0  501 -0.00000000000E+00 -0.00000000000E+00 -0.83679083428E+03  0.83679083430E+03  0.50400000000E-02 0.  1.
    8880022    1    1    2    0    0  0.65346688757E+03 -0.28399900690E+03 -0.46446097189E+03  0.86417015483E+03  0.15294330000E+03 0.  0.
    8880022    1    1    2    0    0 -0.65346688757E+03  0.28399900690E+03  0.59729604063E+03  0.94224658251E+03  0.15294330000E+03 0.  0.
<mgrwt>
<rscale>  0 0.72874280E+03</rscale>
<asrwt>0</asrwt>
<pdfrwt beam="1">  1        1 0.14917322E+00 0.72874280E+03</pdfrwt>
<pdfrwt beam="2">  1       -1 0.12873705E+00 0.72874280E+03</pdfrwt>
<totfact> 0.86122747E+00</totfact>
</mgrwt>
</event>
<event>
 4    1  0.4964158E-009  0.6972430E+03  0.7818608E-02  0.9721959E-01
         -1   -1    0    0    0  501 -0.00000000000E+00  0.00000000000E+00  0.83029530062E+03  0.83029530064E+03  0.50400000000E-02 0.  1.
          1   -1    0    0  501    0  0.00000000000E+00 -0.00000000000E+00 -0.82606231989E+03  0.82606231990E+03  0.50400000000E-02 0. -1.
    8880022    1    1    2    0    0  0.60827607108E+03  0.30455936729E+03 -0.44479415710E+03  0.82703668725E+03  0.15294330000E+03 0.  0.
    8880022    1    1    2    0    0 -0.60827607108E+03 -0.30455936729E+03  0.44902713784E+03  0.82932093328E+03  0.15294330000E+03 0.  0.
<mgrwt>
<rscale>  0 0.69724303E+03</rscale>
<asrwt>0</asrwt>
<pdfrwt beam="1">  1        1 0.12708651E+00 0.69724303E+03</pdfrwt>
<pdfrwt beam="2">  1       -1 0.12773774E+00 0.69724303E+03</pdfrwt>
<totfact> 0.11548734E+01</totfact>
</mgrwt>
</event>
<event>
 4    1  0.4964158E-009  0.1214584E+04  0.7818608E-02  0.9100186E-01
          1   -1    0    0  501    0  0.00000000000E+00  0.00000000000E+00  0.25410514316E+04  0.25410514317E+04  0.50400000000E-02 0. -1.
         -1   -1    0    0    0  501 -0.00000000000E+00 -0.00000000000E+00 -0.10881840285E+04  0.10881840286E+04  0.50400000000E-02 0.  1.
    8880022    1    1    2    0    0  0.30631751961E+03 -0.11653288478E+04  0.19658246814E+04  0.23107747786E+04  0.15294330000E+03 0.  0.
    8880022    1    1    2    0    0 -0.30631751961E+03  0.11653288478E+04 -0.51295727834E+03  0.13184606816E+04  0.15294330000E+03 0.  0.
<mgrwt>
<rscale>  0 0.12145836E+04</rscale>
<asrwt>0</asrwt>
<pdfrwt beam="1">  1        1 0.39093099E+00 0.12145836E+04</pdfrwt>
<pdfrwt beam="2">  1       -1 0.16741293E+00 0.12145836E+04</pdfrwt>
<totfact> 0.32111483E-01</totfact>
</mgrwt>
</event>
<event>
 4    1  0.4964158E-009  0.6951336E+03  0.7818608E-02  0.9725591E-01
          1   -1    0    0  501    0  0.00000000000E+00  0.00000000000E+00  0.60002319619E+03  0.60002319621E+03  0.50400000000E-02 0. -1.
         -1   -1    0    0    0  501 -0.00000000000E+00 -0.00000000000E+00 -0.16248750935E+04  0.16248750935E+04  0.50400000000E-02 0.  1.
    8880022    1    1    2    0    0  0.59564191054E+03 -0.32408303395E+03 -0.13024843963E+04  0.14763727016E+04  0.15294330000E+03 0.  0.
    8880022    1    1    2    0    0 -0.59564191054E+03  0.32408303395E+03  0.27763249900E+03  0.74852558808E+03  0.15294330000E+03 0.  0.
<mgrwt>
<rscale>  0 0.69513362E+03</rscale>
<asrwt>0</asrwt>
<pdfrwt beam="1">  1        1 0.92311262E-01 0.69513362E+03</pdfrwt>
<pdfrwt beam="2">  1       -1 0.24998078E+00 0.69513362E+03</pdfrwt>
<totfact> 0.25180995E+00</totfact>
</mgrwt>
</event>
<event>
 4    1  0.4964158E-009  0.1630774E+04  0.7818608E-02  0.8801862E-01
          1   -1    0    0  501    0  0.00000000000E+00  0.00000000000E+00  0.23793065497E+04  0.23793065497E+04  0.50400000000E-02 0. -1.
         -1   -1    0    0    0  501 -0.00000000000E+00 -0.00000000000E+00 -0.13747866057E+04  0.13747866057E+04  0.50400000000E-02 0.  1.
    8880022    1    1    2    0    0 -0.99708237526E+03  0.12813499704E+04 -0.30939539063E+03  0.16598639012E+04  0.15294330000E+03 0.  0.
    8880022    1    1    2    0    0  0.99708237526E+03 -0.12813499704E+04  0.13139153346E+04  0.20942292542E+04  0.15294330000E+03 0.  0.
<mgrwt>
<rscale>  0 0.16307736E+04</rscale>
<asrwt>0</asrwt>
<pdfrwt beam="1">  1        1 0.36604716E+00 0.16307736E+04</pdfrwt>
<pdfrwt beam="2">  1       -1 0.21150563E+00 0.16307736E+04</pdfrwt>
<totfact> 0.19179476E-01</totfact>
</mgrwt>
</event>
<event>
 4    1  0.4964158E-009  0.6602714E+03  0.7818608E-02  0.9787694E-01
          1   -1    0    0  501    0  0.00000000000E+00  0.00000000000E+00  0.27094812045E+04  0.27094812045E+04  0.50400000000E-02 0. -1.
         -1   -1    0    0    0  501 -0.00000000000E+00 -0.00000000000E+00 -0.38505205846E+03  0.38505205850E+03  0.50400000000E-02 0.  1.
    8880022    1    1    2    0    0  0.62061355106E+03  0.16554598010E+03  0.23427412546E+04  0.24340079890E+04  0.15294330000E+03 0.  0.
    8880022    1    1    2    0    0 -0.62061355106E+03 -0.16554598010E+03 -0.18312108587E+02  0.66052527402E+03  0.15294330000E+03 0.  0.
<mgrwt>
<rscale>  0 0.66027139E+03</rscale>
<asrwt>0</asrwt>
<pdfrwt beam="1">  1        1 0.41684328E+00 0.66027139E+03</pdfrwt>
<pdfrwt beam="2">  1       -1 0.59238776E-01 0.66027139E+03</pdfrwt>
<totfact> 0.30323675E+00</totfact>
</mgrwt>
</event>
<event>
 4    1  0.4964158E-009  0.1590964E+04  0.7818608E-02  0.8826118E-01
         -1   -1    0    0    0  501 -0.00000000000E+00  0.00000000000E+00  0.11211572998E+04  0.11211572998E+04  0.50400000000E-02 0.  1.
          1   -1    0    0  501    0  0.00000000000E+00 -0.00000000000E+00 -0.24965796660E+04  0.24965796660E+04  0.50400000000E-02 0. -1.
    8880022    1    1    2    0    0  0.84786850620E+03 -0.13374957711E+04 -0.12810822449E+03  0.15961138154E+04  0.15294330000E+03 0.  0.
    8880022    1    1    2    0    0 -0.84786850620E+03  0.13374957711E+04 -0.12473141416E+04  0.20216231504E+04  0.15294330000E+03 0.  0.
<mgrwt>
<rscale>  0 0.15909644E+04</rscale>
<asrwt>0</asrwt>
<pdfrwt beam="1">  1        1 0.38408918E+00 0.15909644E+04</pdfrwt>
<pdfrwt beam="2">  1       -1 0.17248574E+00 0.15909644E+04</pdfrwt>
<totfact> 0.30144864E-01</totfact>
</mgrwt>
</event>
<event>
 4    1  0.4964158E-009  0.5457797E+03  0.7818608E-02  0.1002476E+00
         -1   -1    0    0    0  501 -0.00000000000E+00  0.00000000000E+00  0.45681093299E+03  0.45681093302E+03  0.50400000000E-02 0.  1.
          1   -1    0    0  501    0  0.00000000000E+00 -0.00000000000E+00 -0.15214631418E+04  0.15214631419E+04  0.50400000000E-02 0. -1.
    8880022    1    1    2    0    0  0.86788778288E+02  0.51667349871E+03  0.21538245208E+03  0.58674104167E+03  0.15294330000E+03 0.  0.
    8880022    1    1    2    0    0 -0.86788778288E+02 -0.51667349871E+03 -0.12800346609E+04  0.13915330332E+04  0.15294330000E+03 0.  0.
<mgrwt>
<rscale>  0 0.54577967E+03</rscale>
<asrwt>0</asrwt>
<pdfrwt beam="1">  1        1 0.23407125E+00 0.54577967E+03</pdfrwt>
<pdfrwt beam="2">  1       -1 0.70278606E-01 0.54577967E+03</pdfrwt>
<totfact> 0.13884397E+01</totfact>
</mgrwt>
</event>
<event>
 4    1  0.4964158E-009  0.9710354E+03  0.7818608E-02  0.9340896E-01
         -1   -1    0    0    0  501 -0.00000000000E+00  0.00000000000E+00  0.99638013677E+03  0.99638013678E+03  0.50400000000E-02 0.  1.
          1   -1    0    0  501    0  0.00000000000E+00 -0.00000000000E+00 -0.22783139219E+04  0.22783139219E+04  0.50400000000E-02 0. -1.
    8880022    1    1    2    0    0  0.12090525310E+03 -0.95126235252E+03  0.61097036718E+03  0.11472552402E+04  0.15294330000E+03 0.  0.
    8880022    1    1    2    0    0 -0.12090525310E+03  0.95126235252E+03 -0.18929041523E+04  0.21274388185E+04  0.15294330000E+03 0.  0.
<mgrwt>
<rscale>  0 0.97103542E+03</rscale>
<asrwt>0</asrwt>
<pdfrwt beam="1">  1        1 0.35050983E+00 0.97103542E+03</pdfrwt>
<pdfrwt beam="2">  1       -1 0.15328925E+00 0.97103542E+03</pdfrwt>
<totfact> 0.64627876E-01</totfact>
</mgrwt>
</event>
<event>
 4    1  0.4964158E-009  0.1315567E+04  0.7818608E-02  0.9017310E-01
          1   -1    0    0  501    0  0.00000000000E+00  0.00000000000E+00  0.22763886734E+04  0.22763886734E+04  0.50400000000E-02 0. -1.
         -1   -1    0    0    0  501 -0.00000000000E+00 -0.00000000000E+00 -0.94532615395E+03  0.94532615397E+03  0.50400000000E-02 0.  1.
    8880022    1    1    2    0    0  0.11695080473E+04  0.58273207488E+03  0.13782096739E+04  0.19053029423E+04  0.15294330000E+03 0.  0.
    8880022    1    1    2    0    0 -0.11695080473E+04 -0.58273207488E+03 -0.47147154436E+02  0.13164118850E+04  0.15294330000E+03 0.  0.
<mgrwt>
<rscale>  0 0.13155673E+04</rscale>
<asrwt>0</asrwt>
<pdfrwt beam="1">  1        1 0.35021364E+00 0.13155673E+04</pdfrwt>
<pdfrwt beam="2">  1       -1 0.14543480E+00 0.13155673E+04</pdfrwt>
<totfact> 0.71060955E-01</totfact>
</mgrwt>
</event>
<event>
 4    1  0.4964158E-009  0.1611609E+04  0.7818608E-02  0.8813448E-01
          1   -1    0    0  501    0  0.00000000000E+00  0.00000000000E+00  0.32857431657E+04  0.32857431657E+04  0.50400000000E-02 0. -1.
         -1   -1    0    0    0  501 -0.00000000000E+00 -0.00000000000E+00 -0.99291435411E+03  0.99291435412E+03  0.50400000000E-02 0.  1.
    8880022    1    1    2    0    0  0.14976708239E+04  0.57521691757E+03  0.18042224051E+03  0.16216769829E+04  0.15294330000E+03 0.  0.
    8880022    1    1    2    0    0 -0.14976708239E+04 -0.57521691757E+03  0.21124065711E+04  0.26569805369E+04  0.15294330000E+03 0.  0.
<mgrwt>
<rscale>  0 0.16116091E+04</rscale>
<asrwt>0</asrwt>
<pdfrwt beam="1">  1        1 0.50549895E+00 0.16116091E+04</pdfrwt>
<pdfrwt beam="2">  1       -1 0.15275605E+00 0.16116091E+04</pdfrwt>
<totfact> 0.11437271E-01</totfact>
</mgrwt>
</event>
<event>
 4    1  0.4964158E-009  0.6789209E+03  0.7818608E-02  0.9753975E-01
         -1   -1    0    0    0  501 -0.00000000000E+00  0.00000000000E+00  0.10744871348E+04  0.10744871348E+04  0.50400000000E-02 0.  1.
          1   -1    0    0  501    0  0.00000000000E+00 -0.00000000000E+00 -0.64785140766E+03  0.64785140768E+03  0.50400000000E-02 0. -1.
    8880022    1    1    2    0    0 -0.63345269345E+03 -0.19047202670E+03  0.71386533575E+03  0.98515850420E+03  0.15294330000E+03 0.  0.
    8880022    1    1    2    0    0  0.63345269345E+03  0.19047202670E+03 -0.28722960861E+03  0.73718003830E+03  0.15294330000E+03 0.  0.
<mgrwt>
<rscale>  0 0.67892088E+03</rscale>
<asrwt>0</asrwt>
<pdfrwt beam="1">  1        1 0.99669449E-01 0.67892088E+03</pdfrwt>
<pdfrwt beam="2">  1       -1 0.16530571E+00 0.67892088E+03</pdfrwt>
<totfact> 0.85031120E+00</totfact>
</mgrwt>
</event>
<event>
 4    1  0.4964158E-009  0.9742891E+03  0.7818608E-02  0.9337202E-01
         -1   -1    0    0    0  501 -0.00000000000E+00  0.00000000000E+00  0.30509682611E+03  0.30509682615E+03  0.50400000000E-02 0.  1.
          1   -1    0    0  501    0  0.00000000000E+00 -0.00000000000E+00 -0.36678537766E+04  0.36678537766E+04  0.50400000000E-02 0. -1.
    8880022    1    1    2    0    0  0.39149582459E+03  0.87896449734E+03 -0.24552014913E+04  0.26414491447E+04  0.15294330000E+03 0.  0.
    8880022    1    1    2    0    0 -0.39149582459E+03 -0.87896449734E+03 -0.90755545923E+03  0.13315014581E+04  0.15294330000E+03 0.  0.
<mgrwt>
<rscale>  0 0.97428909E+03</rscale>
<asrwt>0</asrwt>
<pdfrwt beam="1">  1        1 0.56428517E+00 0.97428909E+03</pdfrwt>
<pdfrwt beam="2">  1       -1 0.46937976E-01 0.97428909E+03</pdfrwt>
<totfact> 0.86961712E-01</totfact>
</mgrwt>
</event>
<event>
 4    1  0.4964158E-009  0.4804881E+03  0.7818608E-02  0.1019001E+00
          1   -1    0    0  501    0  0.00000000000E+00  0.00000000000E+00  0.72835009198E+03  0.72835009200E+03  0.50400000000E-02 0. -1.
         -1   -1    0    0    0  501 -0.00000000000E+00 -0.00000000000E+00 -0.52253208144E+03  0.52253208146E+03  0.50400000000E-02 0.  1.
    8880022    1    1    2    0    0  0.40174764751E+03  0.21465314783E+03 -0.28937094142E+03  0.56089601612E+03  0.15294330000E+03 0.  1.
    8880022    1    1    2    0    0 -0.40174764751E+03 -0.21465314783E+03  0.49518895197E+03  0.68998615734E+03  0.15294330000E+03 0.  0.
<mgrwt>
<rscale>  0 0.48048808E+03</rscale>
<asrwt>0</asrwt>
<pdfrwt beam="1">  1        1 0.11205386E+00 0.48048808E+03</pdfrwt>
<pdfrwt beam="2">  1       -1 0.80389551E-01 0.48048808E+03</pdfrwt>
<totfact> 0.41830215E+01</totfact>
</mgrwt>
</event>
<event>
 4    1  0.4964158E-009  0.1183029E+04  0.7818608E-02  0.9127842E-01
         -1   -1    0    0    0  501 -0.00000000000E+00  0.00000000000E+00  0.34639556735E+04  0.34639556735E+04  0.50400000000E-02 0.  1.
          1   -1    0    0  501    0  0.00000000000E+00 -0.00000000000E+00 -0.97617133881E+03  0.97617133883E+03  0.50400000000E-02 0. -1.
    8880022    1    1    2    0    0 -0.46039788500E+03 -0.10789808906E+04 -0.45572975669E+03  0.12677725501E+04  0.15294330000E+03 0.  0.
    8880022    1    1    2    0    0  0.46039788500E+03  0.10789808906E+04  0.29435140914E+04  0.31723544622E+04  0.15294330000E+03 0.  0.
<mgrwt>
<rscale>  0 0.11830290E+04</rscale>
<asrwt>0</asrwt>
<pdfrwt beam="1">  1        1 0.15018021E+00 0.11830290E+04</pdfrwt>
<pdfrwt beam="2">  1       -1 0.53291625E+00 0.11830290E+04</pdfrwt>
<totfact> 0.14435118E-02</totfact>
</mgrwt>
</event>
<event>
 4    1  0.4964158E-009  0.2060750E+04  0.7818608E-02  0.8578733E-01
          1   -1    0    0  501    0  0.00000000000E+00  0.00000000000E+00  0.24629647373E+04  0.24629647373E+04  0.50400000000E-02 0. -1.
         -1   -1    0    0    0  501 -0.00000000000E+00 -0.00000000000E+00 -0.19630210929E+04  0.19630210929E+04  0.50400000000E-02 0.  1.
    8880022    1    1    2    0    0 -0.20027840951E+04  0.46060240147E+03  0.10218285488E+04  0.23001791104E+04  0.15294330000E+03 0.  0.
    8880022    1    1    2    0    0  0.20027840951E+04 -0.46060240147E+03 -0.52188490437E+03  0.21258067198E+04  0.15294330000E+03 0.  0.
<mgrwt>
<rscale>  0 0.20607500E+04</rscale>
<asrwt>0</asrwt>
<pdfrwt beam="1">  1        1 0.37891765E+00 0.20607500E+04</pdfrwt>
<pdfrwt beam="2">  1       -1 0.30200324E+00 0.20607500E+04</pdfrwt>
<totfact> 0.40658628E-02</totfact>
</mgrwt>
</event>
<event>
 4    1  0.4964158E-009  0.5809441E+03  0.7818608E-02  0.9945749E-01
         -1   -1    0    0    0  501 -0.00000000000E+00  0.00000000000E+00  0.20524738428E+04  0.20524738428E+04  0.50400000000E-02 0.  1.
          1   -1    0    0  501    0  0.00000000000E+00 -0.00000000000E+00 -0.14291581208E+04  0.14291581208E+04  0.50400000000E-02 0. -1.
    8880022    1    1    2    0    0 -0.56038749211E+03  0.83847677690E+01  0.19492685237E+04  0.20339970197E+04  0.15294330000E+03 0.  0.
    8880022    1    1    2    0    0  0.56038749211E+03 -0.83847677690E+01 -0.13259528017E+04  0.14476349440E+04  0.15294330000E+03 0.  0.
<mgrwt>
<rscale>  0 0.58094414E+03</rscale>
<asrwt>0</asrwt>
<pdfrwt beam="1">  1        1 0.21987048E+00 0.58094414E+03</pdfrwt>
<pdfrwt beam="2">  1       -1 0.31576521E+00 0.58094414E+03</pdfrwt>
<totfact> 0.21560012E-01</totfact>
</mgrwt>
</event>
<event>
 4    1  0.4964158E-009  0.8793157E+03  0.7818608E-02  0.9451814E-01
         -1   -1    0    0    0  501 -0.00000000000E+00  0.00000000000E+00  0.89777779194E+03  0.89777779195E+03  0.50400000000E-02 0.  1.
          1   -1    0    0  501    0  0.00000000000E+00 -0.00000000000E+00 -0.26758397878E+04  0.26758397878E+04  0.50400000000E-02 0. -1.
    8880022    1    1    2    0    0  0.58221575293E+03 -0.64095968635E+03  0.58239780491E+03  0.10546958607E+04  0.15294330000E+03 0.  0.
    8880022    1    1    2    0    0 -0.58221575293E+03  0.64095968635E+03 -0.23604598008E+04  0.25189217190E+04  0.15294330000E+03 0. -1.
<mgrwt>
<rscale>  0 0.87931573E+03</rscale>
<asrwt>0</asrwt>
<pdfrwt beam="1">  1        1 0.41166766E+00 0.87931573E+03</pdfrwt>
<pdfrwt beam="2">  1       -1 0.13811966E+00 0.87931573E+03</pdfrwt>
<totfact> 0.46314898E-01</totfact>
</mgrwt>
</event>
<event>
 4    1  0.4964158E-009  0.5258948E+03  0.7818608E-02  0.1007233E+00
         -1   -1    0    0    0  501 -0.00000000000E+00  0.00000000000E+00  0.59743440661E+03  0.59743440663E+03  0.50400000000E-02 0.  1.
          1   -1    0    0  501    0  0.00000000000E+00 -0.00000000000E+00 -0.14207866085E+04  0.14207866085E+04  0.50400000000E-02 0. -1.
    8880022    1    1    2    0    0 -0.35747334349E+03 -0.35409952217E+03 -0.12402408372E+04  0.13471312669E+04  0.15294330000E+03 0.  0.
    8880022    1    1    2    0    0  0.35747334349E+03  0.35409952217E+03  0.41688863533E+03  0.67108974824E+03  0.15294330000E+03 0.  0.
<mgrwt>
<rscale>  0 0.52589478E+03</rscale>
<asrwt>0</asrwt>
<pdfrwt beam="1">  1        1 0.21858255E+00 0.52589478E+03</pdfrwt>
<pdfrwt beam="2">  1       -1 0.91912986E-01 0.52589478E+03</pdfrwt>
<totfact> 0.92573140E+00</totfact>
</mgrwt>
</event>
<event>
 4    1  0.4964158E-009  0.2939443E+03  0.7818608E-02  0.1088308E+00
         -1   -1    0    0    0  501 -0.00000000000E+00  0.00000000000E+00  0.18591001530E+04  0.18591001530E+04  0.50400000000E-02 0.  1.
          1   -1    0    0  501    0  0.00000000000E+00 -0.00000000000E+00 -0.20789837647E+03  0.20789837654E+03  0.50400000000E-02 0. -1.
    8880022    1    1    2    0    0 -0.10212115155E+03 -0.22930954953E+03 -0.85080998908E+02  0.30600985031E+03  0.15294330000E+03 0.  0.
    8880022    1    1    2    0    0  0.10212115155E+03  0.22930954953E+03  0.17362827754E+04  0.17609886792E+04  0.15294330000E+03 0.  0.
<mgrwt>
<rscale>  0 0.29394430E+03</rscale>
<asrwt>0</asrwt>
<pdfrwt beam="1">  1        1 0.31984365E-01 0.29394430E+03</pdfrwt>
<pdfrwt beam="2">  1       -1 0.28601541E+00 0.29394430E+03</pdfrwt>
<totfact> 0.65947547E+00</totfact>
</mgrwt>
</event>
<event>
 4    1  0.4994292E-009  0.2210483E+04  0.7818608E-02  0.8514078E-01
         -1   -1    0    0    0  501 -0.00000000000E+00  0.00000000000E+00  0.28508083918E+04  0.28508083918E+04  0.50400000000E-02 0.  1.
          1   -1    0    0  501    0  0.00000000000E+00 -0.00000000000E+00 -0.42553869480E+04  0.42553869480E+04  0.50400000000E-02 0. -1.
    8880022    1    1    2    0    0  0.17591083430E+04  0.13298043032E+04  0.20435466408E+04  0.30103681127E+04  0.15294330000E+03 0.  0.
    8880022    1    1    2    0    0 -0.17591083430E+04 -0.13298043032E+04 -0.34481251970E+04  0.40958272271E+04  0.15294330000E+03 0.  0.
<mgrwt>
<rscale>  0 0.22104826E+04</rscale>
<asrwt>0</asrwt>
<pdfrwt beam="1">  1        1 0.65467491E+00 0.22104826E+04</pdfrwt>
<pdfrwt beam="2">  1       -1 0.43858591E+00 0.22104826E+04</pdfrwt>
<totfact> 0.18606703E-04</totfact>
</mgrwt>
</event>
<event>
 4    1  0.4964158E-009  0.9794397E+03  0.7818608E-02  0.9331387E-01
         -1   -1    0    0    0  501 -0.00000000000E+00  0.00000000000E+00  0.17688059225E+04  0.17688059225E+04  0.50400000000E-02 0.  1.
          1   -1    0    0  501    0  0.00000000000E+00 -0.00000000000E+00 -0.10346306632E+04  0.10346306632E+04  0.50400000000E-02 0. -1.
    8880022    1    1    2    0    0  0.66656969799E+03 -0.70113853329E+03 -0.59980201553E+03  0.11485053400E+04  0.15294330000E+03 0.  0.
    8880022    1    1    2    0    0 -0.66656969799E+03  0.70113853329E+03  0.13339772748E+04  0.16549312457E+04  0.15294330000E+03 0.  0.
<mgrwt>
<rscale>  0 0.97943967E+03</rscale>
<asrwt>0</asrwt>
<pdfrwt beam="1">  1        1 0.15917395E+00 0.97943967E+03</pdfrwt>
<pdfrwt beam="2">  1       -1 0.27212398E+00 0.97943967E+03</pdfrwt>
<totfact> 0.72183073E-01</totfact>
</mgrwt>
</event>
<event>
 4    1  0.4964158E-009  0.1156210E+04  0.7818608E-02  0.9152074E-01
         -1   -1    0    0    0  501 -0.00000000000E+00  0.00000000000E+00  0.14737386618E+04  0.14737386618E+04  0.50400000000E-02 0.  1.
          1   -1    0    0  501    0  0.00000000000E+00 -0.00000000000E+00 -0.12460453023E+04  0.12460453023E+04  0.50400000000E-02 0. -1.
    8880022    1    1    2    0    0  0.60948543788E+03  0.97054433410E+03 -0.59541375463E+03  0.13005145119E+04  0.15294330000E+03 0.  0.
    8880022    1    1    2    0    0 -0.60948543788E+03 -0.97054433410E+03  0.82310711414E+03  0.14192694522E+04  0.15294330000E+03 0.  0.
<mgrwt>
<rscale>  0 0.11562095E+04</rscale>
<asrwt>0</asrwt>
<pdfrwt beam="1">  1        1 0.19169928E+00 0.11562095E+04</pdfrwt>
<pdfrwt beam="2">  1       -1 0.22672903E+00 0.11562095E+04</pdfrwt>
<totfact> 0.96765294E-01</totfact>
</mgrwt>
</event>
<event>
 4    1  0.4964158E-009  0.8094838E+03  0.7818608E-02  0.9546390E-01
         -1   -1    0    0    0  501 -0.00000000000E+00  0.00000000000E+00  0.14267625054E+04  0.14267625054E+04  0.50400000000E-02 0.  1.
          1   -1    0    0  501    0  0.00000000000E+00 -0.00000000000E+00 -0.73109573936E+03  0.73109573937E+03  0.50400000000E-02 0. -1.
    8880022    1    1    2    0    0 -0.54844780718E+03  0.57539326017E+03  0.10057244179E+04  0.12910250419E+04  0.15294330000E+03 0.  0.
    8880022    1    1    2    0    0  0.54844780718E+03 -0.57539326017E+03 -0.31005765189E+03  0.86683320285E+03  0.15294330000E+03 0.  0.
<mgrwt>
<rscale>  0 0.80948382E+03</rscale>
<asrwt>0</asrwt>
<pdfrwt beam="1">  1        1 0.11247627E+00 0.80948382E+03</pdfrwt>
<pdfrwt beam="2">  1       -1 0.21950192E+00 0.80948382E+03</pdfrwt>
<totfact> 0.29151321E+00</totfact>
</mgrwt>
</event>
<event>
 4    1  0.4964158E-009  0.5512111E+03  0.7818608E-02  0.1001214E+00
          1   -1    0    0  501    0  0.00000000000E+00  0.00000000000E+00  0.27998631641E+04  0.27998631641E+04  0.50400000000E-02 0. -1.
         -1   -1    0    0    0  501 -0.00000000000E+00 -0.00000000000E+00 -0.63523366544E+03  0.63523366546E+03  0.50400000000E-02 0.  1.
    8880022    1    1    2    0    0 -0.39624981520E+03 -0.35132330056E+03  0.26462927330E+04  0.27030906124E+04  0.15294330000E+03 0.  0.
    8880022    1    1    2    0    0  0.39624981520E+03  0.35132330056E+03 -0.48166323432E+03  0.73200621710E+03  0.15294330000E+03 0.  0.
<mgrwt>
<rscale>  0 0.55121106E+03</rscale>
<asrwt>0</asrwt>
<pdfrwt beam="1">  1        1 0.43074818E+00 0.55121106E+03</pdfrwt>
<pdfrwt beam="2">  1       -1 0.97728257E-01 0.55121106E+03</pdfrwt>
<totfact> 0.94861420E-01</totfact>
</mgrwt>
</event>
<event>
 4    1  0.4964158E-009  0.3353773E+03  0.7818608E-02  0.1068782E+00
         -1   -1    0    0    0  501 -0.00000000000E+00  0.00000000000E+00  0.86157883373E+03  0.86157883374E+03  0.50400000000E-02 0.  1.
          1   -1    0    0  501    0  0.00000000000E+00 -0.00000000000E+00 -0.90692318999E+03  0.90692319000E+03  0.50400000000E-02 0. -1.
    8880022    1    1    2    0    0 -0.24251141728E+03  0.17399576226E+03 -0.84080902094E+03  0.90522802404E+03  0.15294330000E+03 0.  0.
    8880022    1    1    2    0    0  0.24251141728E+03 -0.17399576226E+03  0.79546466468E+03  0.86327399971E+03  0.15294330000E+03 0.  0.
<mgrwt>
<rscale>  0 0.33537735E+03</rscale>
<asrwt>0</asrwt>
<pdfrwt beam="1">  1        1 0.13952664E+00 0.33537735E+03</pdfrwt>
<pdfrwt beam="2">  1       -1 0.13255059E+00 0.33537735E+03</pdfrwt>
<totfact> 0.97475890E+00</totfact>
</mgrwt>
</event>
<event>
 4    1  0.4964158E-009  0.4392945E+03  0.7818608E-02  0.1030963E+00
          1   -1    0    0  501    0  0.00000000000E+00  0.00000000000E+00  0.46885704283E+03  0.46885704286E+03  0.50400000000E-02 0. -1.
         -1   -1    0    0    0  501 -0.00000000000E+00 -0.00000000000E+00 -0.13501118641E+04  0.13501118641E+04  0.50400000000E-02 0.  1.
    8880022    1    1    2    0    0  0.26879647618E+02  0.41093247496E+03 -0.11989102364E+04  0.12768576359E+04  0.15294330000E+03 0.  0.
    8880022    1    1    2    0    0 -0.26879647618E+02 -0.41093247496E+03  0.31765541513E+03  0.54211127106E+03  0.15294330000E+03 0.  0.
<mgrwt>
<rscale>  0 0.43929451E+03</rscale>
<asrwt>0</asrwt>
<pdfrwt beam="1">  1        1 0.72131853E-01 0.43929451E+03</pdfrwt>
<pdfrwt beam="2">  1       -1 0.20770952E+00 0.43929451E+03</pdfrwt>
<totfact> 0.70501523E+00</totfact>
</mgrwt>
</event>
<event>
 4    1  0.4964158E-009  0.1509457E+04  0.7818608E-02  0.8878188E-01
          1   -1    0    0  501    0  0.00000000000E+00  0.00000000000E+00  0.16966203523E+04  0.16966203523E+04  0.50400000000E-02 0. -1.
         -1   -1    0    0    0  501 -0.00000000000E+00 -0.00000000000E+00 -0.26799035978E+04  0.26799035978E+04  0.50400000000E-02 0.  1.
    8880022    1    1    2    0    0 -0.13291775739E+04  0.69882489145E+03  0.10539664202E+04  0.18410068223E+04  0.15294330000E+03 0. -1.
    8880022    1    1    2    0    0  0.13291775739E+04 -0.69882489145E+03 -0.20372496657E+04  0.25355171278E+04  0.15294330000E+03 0.  0.
<mgrwt>
<rscale>  0 0.15094572E+04</rscale>
<asrwt>0</asrwt>
<pdfrwt beam="1">  1        1 0.26101852E+00 0.15094572E+04</pdfrwt>
<pdfrwt beam="2">  1       -1 0.41229286E+00 0.15094572E+04</pdfrwt>
<totfact> 0.26652993E-02</totfact>
</mgrwt>
</event>
<event>
 4    1  0.4964158E-009  0.8907998E+03  0.7818608E-02  0.9437156E-01
          1   -1    0    0  501    0  0.00000000000E+00  0.00000000000E+00  0.12139854110E+04  0.12139854110E+04  0.50400000000E-02 0. -1.
         -1   -1    0    0    0  501 -0.00000000000E+00 -0.00000000000E+00 -0.16399652612E+04  0.16399652612E+04  0.50400000000E-02 0.  1.
    8880022    1    1    2    0    0 -0.77108116773E+03  0.41900658663E+03 -0.13196303115E+04  0.15921521595E+04  0.15294330000E+03 0.  0.
    8880022    1    1    2    0    0  0.77108116773E+03 -0.41900658663E+03  0.89365046128E+03  0.12617985128E+04  0.15294330000E+03 0.  0.
<mgrwt>
<rscale>  0 0.89079983E+03</rscale>
<asrwt>0</asrwt>
<pdfrwt beam="1">  1        1 0.18676699E+00 0.89079983E+03</pdfrwt>
<pdfrwt beam="2">  1       -1 0.25230235E+00 0.89079983E+03</pdfrwt>
<totfact> 0.72237402E-01</totfact>
</mgrwt>
</event>
<event>
 4    1  0.4964158E-009  0.5455412E+03  0.7818608E-02  0.1002531E+00
         -1   -1    0    0    0  501 -0.00000000000E+00  0.00000000000E+00  0.29397412959E+03  0.29397412963E+03  0.50400000000E-02 0.  1.
          1   -1    0    0  501    0  0.00000000000E+00 -0.00000000000E+00 -0.18308309278E+04  0.18308309279E+04  0.50400000000E-02 0. -1.
    8880022    1    1    2    0    0  0.37284376001E+03 -0.36771064635E+03 -0.14787577379E+04  0.15761788253E+04  0.15294330000E+03 0.  0.
    8880022    1    1    2    0    0 -0.37284376001E+03  0.36771064635E+03 -0.58099060338E+02  0.54862623219E+03  0.15294330000E+03 0.  0.
<mgrwt>
<rscale>  0 0.54554124E+03</rscale>
<asrwt>0</asrwt>
<pdfrwt beam="1">  1        1 0.28166629E+00 0.54554124E+03</pdfrwt>
<pdfrwt beam="2">  1       -1 0.45226790E-01 0.54554124E+03</pdfrwt>
<totfact> 0.20228072E+01</totfact>
</mgrwt>
</event>
<event>
 4    1  0.4964158E-009  0.6458840E+03  0.7818608E-02  0.9814533E-01
          1   -1    0    0  501    0  0.00000000000E+00  0.00000000000E+00  0.27394141308E+04  0.27394141308E+04  0.50400000000E-02 0. -1.
         -1   -1    0    0    0  501 -0.00000000000E+00 -0.00000000000E+00 -0.10178682652E+04  0.10178682652E+04  0.50400000000E-02 0.  1.
    8880022    1    1    2    0    0  0.14313238328E+03 -0.61097270105E+03  0.25931921195E+04  0.26724167980E+04  0.15294330000E+03 0.  0.
    8880022    1    1    2    0    0 -0.14313238328E+03  0.61097270105E+03 -0.87164625398E+03  0.10848655980E+04  0.15294330000E+03 0.  0.
<mgrwt>
<rscale>  0 0.64588402E+03</rscale>
<asrwt>0</asrwt>
<pdfrwt beam="1">  1        1 0.42144833E+00 0.64588402E+03</pdfrwt>
<pdfrwt beam="2">  1       -1 0.15659512E+00 0.64588402E+03</pdfrwt>
<totfact> 0.31714179E-01</totfact>
</mgrwt>
</event>
<event>
 4    1  0.4964158E-009  0.3592006E+03  0.7818608E-02  0.1058901E+00
         -1   -1    0    0    0  501 -0.00000000000E+00  0.00000000000E+00  0.78306635160E+03  0.78306635162E+03  0.50400000000E-02 0.  1.
          1   -1    0    0  501    0  0.00000000000E+00 -0.00000000000E+00 -0.11342859853E+04  0.11342859853E+04  0.50400000000E-02 0. -1.
    8880022    1    1    2    0    0 -0.13598703352E+03  0.29519645822E+03  0.71070570474E+03  0.79632133840E+03  0.15294330000E+03 0.  0.
    8880022    1    1    2    0    0  0.13598703352E+03 -0.29519645822E+03 -0.10619253384E+04  0.11210309985E+04  0.15294330000E+03 0.  0.
<mgrwt>
<rscale>  0 0.35920061E+03</rscale>
<asrwt>0</asrwt>
<pdfrwt beam="1">  1        1 0.17450554E+00 0.35920061E+03</pdfrwt>
<pdfrwt beam="2">  1       -1 0.12047175E+00 0.35920061E+03</pdfrwt>
<totfact> 0.82463997E+00</totfact>
</mgrwt>
</event>
<event>
 4    1  0.4964158E-009  0.1874759E+04  0.7818608E-02  0.8667523E-01
          1   -1    0    0  501    0  0.00000000000E+00  0.00000000000E+00  0.19455242676E+04  0.19455242676E+04  0.50400000000E-02 0. -1.
         -1   -1    0    0    0  501 -0.00000000000E+00 -0.00000000000E+00 -0.20540950251E+04  0.20540950251E+04  0.50400000000E-02 0.  1.
    8880022    1    1    2    0    0  0.26581635058E+03  0.18495059676E+04  0.63992245994E+03  0.19809651850E+04  0.15294330000E+03 0.  0.
    8880022    1    1    2    0    0 -0.26581635058E+03 -0.18495059676E+04 -0.74849321750E+03  0.20186541076E+04  0.15294330000E+03 0.  0.
<mgrwt>
<rscale>  0 0.18747593E+04</rscale>
<asrwt>0</asrwt>
<pdfrwt beam="1">  1        1 0.29931143E+00 0.18747593E+04</pdfrwt>
<pdfrwt beam="2">  1       -1 0.31601462E+00 0.18747593E+04</pdfrwt>
<totfact> 0.76155751E-02</totfact>
</mgrwt>
</event>
<event>
 4    1  0.4964158E-009  0.3864111E+03  0.7818608E-02  0.1048589E+00
         -1   -1    0    0    0  501 -0.00000000000E+00  0.00000000000E+00  0.30315423192E+03  0.30315423196E+03  0.50400000000E-02 0.  1.
          1   -1    0    0  501    0  0.00000000000E+00 -0.00000000000E+00 -0.31491638199E+04  0.31491638200E+04  0.50400000000E-02 0. -1.
    8880022    1    1    2    0    0 -0.34239133110E+03 -0.93220669039E+02  0.16243133785E+03  0.41916286724E+03  0.15294330000E+03 0.  0.
    8880022    1    1    2    0    0  0.34239133110E+03  0.93220669039E+02 -0.30084409259E+04  0.30331551847E+04  0.15294330000E+03 0. -1.
<mgrwt>
<rscale>  0 0.38641114E+03</rscale>
<asrwt>0</asrwt>
<pdfrwt beam="1">  1        1 0.48448672E+00 0.38641114E+03</pdfrwt>
<pdfrwt beam="2">  1       -1 0.46639115E-01 0.38641114E+03</pdfrwt>
<totfact> 0.25407624E+00</totfact>
</mgrwt>
</event>
<event>
 4    1  0.4964158E-009  0.8917778E+03  0.7818608E-02  0.9435918E-01
         -1   -1    0    0    0  501 -0.00000000000E+00  0.00000000000E+00  0.12479878774E+04  0.12479878774E+04  0.50400000000E-02 0.  1.
          1   -1    0    0  501    0  0.00000000000E+00 -0.00000000000E+00 -0.28011219600E+04  0.28011219600E+04  0.50400000000E-02 0. -1.
    8880022    1    1    2    0    0 -0.83641680022E+03  0.26885496047E+03  0.10028606436E+04  0.13420123610E+04  0.15294330000E+03 0.  0.
    8880022    1    1    2    0    0  0.83641680022E+03 -0.26885496047E+03 -0.25559947262E+04  0.27070974765E+04  0.15294330000E+03 0. -1.
<mgrwt>
<rscale>  0 0.89177783E+03</rscale>
<asrwt>0</asrwt>
<pdfrwt beam="1">  1        1 0.43094184E+00 0.89177783E+03</pdfrwt>
<pdfrwt beam="2">  1       -1 0.19199814E+00 0.89177783E+03</pdfrwt>
<totfact> 0.14927540E-01</totfact>
</mgrwt>
</event>
<event>
 4    1  0.4964158E-009  0.6320283E+03  0.7818608E-02  0.9841099E-01
          1   -1    0    0  501    0  0.00000000000E+00  0.00000000000E+00  0.29119784005E+04  0.29119784005E+04  0.50400000000E-02 0. -1.
         -1   -1    0    0    0  501 -0.00000000000E+00 -0.00000000000E+00 -0.14009971182E+03  0.14009971191E+03  0.50400000000E-02 0.  1.
    8880022    1    1    2    0    0  0.33547913059E+03  0.51334379691E+03  0.11655675547E+04  0.13258987437E+04  0.15294330000E+03 0.  0.
    8880022    1    1    2    0    0 -0.33547913059E+03 -0.51334379691E+03  0.16063111340E+04  0.17261793687E+04  0.15294330000E+03 0.  0.
<mgrwt>
<rscale>  0 0.63202829E+03</rscale>
<asrwt>0</asrwt>
<pdfrwt beam="1">  1        1 0.44799664E+00 0.63202829E+03</pdfrwt>
<pdfrwt beam="2">  1       -1 0.21553804E-01 0.63202829E+03</pdfrwt>
<totfact> 0.13490594E+01</totfact>
</mgrwt>
</event>
<event>
 4    1  0.4964158E-009  0.6404591E+03  0.7818608E-02  0.9824849E-01
         -1   -1    0    0    0  501 -0.00000000000E+00  0.00000000000E+00  0.44044582167E+03  0.44044582170E+03  0.50400000000E-02 0.  1.
          1   -1    0    0  501    0  0.00000000000E+00 -0.00000000000E+00 -0.14504350372E+04  0.14504350372E+04  0.50400000000E-02 0. -1.
    8880022    1    1    2    0    0 -0.61640766137E+03  0.82690824176E+02 -0.10706143958E+04  0.12475588222E+04  0.15294330000E+03 0.  0.
    8880022    1    1    2    0    0  0.61640766137E+03 -0.82690824176E+02  0.60625180257E+02  0.64332203670E+03  0.15294330000E+03 0.  0.
<mgrwt>
<rscale>  0 0.64045908E+03</rscale>
<asrwt>0</asrwt>
<pdfrwt beam="1">  1        1 0.22314385E+00 0.64045908E+03</pdfrwt>
<pdfrwt beam="2">  1       -1 0.67760896E-01 0.64045908E+03</pdfrwt>
<totfact> 0.16433715E+01</totfact>
</mgrwt>
</event>
<event>
 4    1  0.4964158E-009  0.8640381E+03  0.7818608E-02  0.9471687E-01
          1   -1    0    0  501    0  0.00000000000E+00  0.00000000000E+00  0.23303625600E+04  0.23303625600E+04  0.50400000000E-02 0. -1.
         -1   -1    0    0    0  501 -0.00000000000E+00 -0.00000000000E+00 -0.53010407895E+03  0.53010407897E+03  0.50400000000E-02 0.  1.
    8880022    1    1    2    0    0 -0.62451241783E+02 -0.84809790844E+03  0.17997678745E+04  0.19964283796E+04  0.15294330000E+03 0.  0.
    8880022    1    1    2    0    0  0.62451241783E+02  0.84809790844E+03  0.49060654890E+00  0.86403825935E+03  0.15294330000E+03 0.  0.
<mgrwt>
<rscale>  0 0.86403812E+03</rscale>
<asrwt>0</asrwt>
<pdfrwt beam="1">  1        1 0.35851732E+00 0.86403812E+03</pdfrwt>
<pdfrwt beam="2">  1       -1 0.81554474E-01 0.86403812E+03</pdfrwt>
<totfact> 0.27551132E+00</totfact>
</mgrwt>
</event>
<event>
 4    1  0.4964158E-009  0.3722968E+03  0.7818608E-02  0.1053818E+00
          1   -1    0    0  501    0  0.00000000000E+00  0.00000000000E+00  0.17711676247E+04  0.17711676247E+04  0.50400000000E-02 0. -1.
         -1   -1    0    0    0  501 -0.00000000000E+00 -0.00000000000E+00 -0.13610969416E+03  0.13610969426E+03  0.50400000000E-02 0.  1.
    8880022    1    1    2    0    0  0.33935530506E+03  0.71585731969E+01  0.19579590526E+03  0.42064350438E+03  0.15294330000E+03 0.  0.
    8880022    1    1    2    0    0 -0.33935530506E+03 -0.71585731969E+01  0.14392620252E+04  0.14866338146E+04  0.15294330000E+03 0.  0.
<mgrwt>
<rscale>  0 0.37229682E+03</rscale>
<asrwt>0</asrwt>
<pdfrwt beam="1">  1        1 0.27248734E+00 0.37229682E+03</pdfrwt>
<pdfrwt beam="2">  1       -1 0.20939952E-01 0.37229682E+03</pdfrwt>
<totfact> 0.87410297E+01</totfact>
</mgrwt>
</event>
<event>
 4    1  0.4964158E-009  0.1019892E+04  0.7818608E-02  0.9286992E-01
         -1   -1    0    0    0  501 -0.00000000000E+00  0.00000000000E+00  0.45024304458E+03  0.45024304460E+03  0.50400000000E-02 0.  1.
          1   -1    0    0  501    0  0.00000000000E+00 -0.00000000000E+00 -0.35104448406E+04  0.35104448406E+04  0.50400000000E-02 0. -1.
    8880022    1    1    2    0    0 -0.18082084242E+03 -0.99201447404E+03 -0.37216960179E+03  0.10856752550E+04  0.15294330000E+03 0.  0.
    8880022    1    1    2    0    0  0.18082084242E+03  0.99201447404E+03 -0.26880321943E+04  0.28750126303E+04  0.15294330000E+03 0.  0.
<mgrwt>
<rscale>  0 0.10198924E+04</rscale>
<asrwt>0</asrwt>
<pdfrwt beam="1">  1        1 0.54006842E+00 0.10198924E+04</pdfrwt>
<pdfrwt beam="2">  1       -1 0.69268163E-01 0.10198924E+04</pdfrwt>
<totfact> 0.53581869E-01</totfact>
</mgrwt>
</event>
<event>
 4    1  0.4964158E-009  0.9132675E+03  0.7818608E-02  0.9409147E-01
         -1   -1    0    0    0  501 -0.00000000000E+00  0.00000000000E+00  0.11708085564E+04  0.11708085564E+04  0.50400000000E-02 0.  1.
          1   -1    0    0  501    0  0.00000000000E+00 -0.00000000000E+00 -0.13908751020E+04  0.13908751020E+04  0.50400000000E-02 0. -1.
    8880022    1    1    2    0    0  0.26946344119E+03  0.85910150043E+03 -0.10046265240E+04  0.13576936473E+04  0.15294330000E+03 0.  0.
    8880022    1    1    2    0    0 -0.26946344119E+03 -0.85910150043E+03  0.78455997836E+03  0.12039900111E+04  0.15294330000E+03 0.  0.
<mgrwt>
<rscale>  0 0.91326753E+03</rscale>
<asrwt>0</asrwt>
<pdfrwt beam="1">  1        1 0.21398078E+00 0.91326753E+03</pdfrwt>
<pdfrwt beam="2">  1       -1 0.18012439E+00 0.91326753E+03</pdfrwt>
<totfact> 0.16491695E+00</totfact>
</mgrwt>
</event>
<event>
 4    1  0.4964158E-009  0.5029392E+03  0.7818608E-02  0.1013015E+00
          1   -1    0    0  501    0  0.00000000000E+00  0.00000000000E+00  0.17801301765E+04  0.17801301765E+04  0.50400000000E-02 0. -1.
         -1   -1    0    0    0  501 -0.00000000000E+00 -0.00000000000E+00 -0.45259289393E+03  0.45259289396E+03  0.50400000000E-02 0.  1.
    8880022    1    1    2    0    0 -0.36457701932E+03  0.31086934548E+03  0.15884247565E+04  0.16661455558E+04  0.15294330000E+03 0.  0.
    8880022    1    1    2    0    0  0.36457701932E+03 -0.31086934548E+03 -0.26088747399E+03  0.56657751462E+03  0.15294330000E+03 0.  0.
<mgrwt>
<rscale>  0 0.50293917E+03</rscale>
<asrwt>0</asrwt>
<pdfrwt beam="1">  1        1 0.27386618E+00 0.50293917E+03</pdfrwt>
<pdfrwt beam="2">  1       -1 0.69629676E-01 0.50293917E+03</pdfrwt>
<totfact> 0.95876763E+00</totfact>
</mgrwt>
</event>
<event>
 4    1  0.4964158E-009  0.4633391E+03  0.7818608E-02  0.1023817E+00
          1   -1    0    0  501    0  0.00000000000E+00  0.00000000000E+00  0.98527280940E+03  0.98527280941E+03  0.50400000000E-02 0. -1.
         -1   -1    0    0    0  501 -0.00000000000E+00 -0.00000000000E+00 -0.11487082000E+04  0.11487082000E+04  0.50400000000E-02 0.  1.
    8880022    1    1    2    0    0 -0.18811326951E+03  0.39484788300E+03 -0.10421962011E+04  0.11405507562E+04  0.15294330000E+03 0.  0.
    8880022    1    1    2    0    0  0.18811326951E+03 -0.39484788300E+03  0.87876081051E+03  0.99343025320E+03  0.15294330000E+03 0.  0.
<mgrwt>
<rscale>  0 0.46333908E+03</rscale>
<asrwt>0</asrwt>
<pdfrwt beam="1">  1        1 0.15158043E+00 0.46333908E+03</pdfrwt>
<pdfrwt beam="2">  1       -1 0.17672434E+00 0.46333908E+03</pdfrwt>
<totfact> 0.37680897E+00</totfact>
</mgrwt>
</event>
<event>
 4    1  0.4964158E-009  0.1123227E+04  0.7818608E-02  0.9182845E-01
         -1   -1    0    0    0  501 -0.00000000000E+00  0.00000000000E+00  0.11598710734E+04  0.11598710734E+04  0.50400000000E-02 0.  1.
          1   -1    0    0  501    0  0.00000000000E+00 -0.00000000000E+00 -0.17304670660E+04  0.17304670660E+04  0.50400000000E-02 0. -1.
    8880022    1    1    2    0    0  0.39491789566E+03  0.10403301142E+04  0.59544697432E+03  0.12712968352E+04  0.15294330000E+03 0.  0.
    8880022    1    1    2    0    0 -0.39491789566E+03 -0.10403301142E+04 -0.11660429669E+04  0.16190413042E+04  0.15294330000E+03 0.  0.
<mgrwt>
<rscale>  0 0.11232268E+04</rscale>
<asrwt>0</asrwt>
<pdfrwt beam="1">  1        1 0.26622570E+00 0.11232268E+04</pdfrwt>
<pdfrwt beam="2">  1       -1 0.17844170E+00 0.11232268E+04</pdfrwt>
<totfact> 0.96115102E-01</totfact>
</mgrwt>
</event>
<event>
 4    1  0.4964158E-009  0.5580568E+03  0.7818608E-02  0.9996461E-01
          1   -1    0    0  501    0  0.00000000000E+00  0.00000000000E+00  0.13725811581E+04  0.13725811581E+04  0.50400000000E-02 0. -1.
         -1   -1    0    0    0  501 -0.00000000000E+00 -0.00000000000E+00 -0.36819981959E+03  0.36819981962E+03  0.50400000000E-02 0.  1.
    8880022    1    1    2    0    0 -0.52825480799E+03 -0.94776821671E+02  0.10413979164E+04  0.11814978042E+04  0.15294330000E+03 0.  0.
    8880022    1    1    2    0    0  0.52825480799E+03  0.94776821671E+02 -0.37016577904E+02  0.55928317349E+03  0.15294330000E+03 0.  0.
<mgrwt>
<rscale>  0 0.55805684E+03</rscale>
<asrwt>0</asrwt>
<pdfrwt beam="1">  1        1 0.21116633E+00 0.55805684E+03</pdfrwt>
<pdfrwt beam="2">  1       -1 0.56646127E-01 0.55805684E+03</pdfrwt>
<totfact> 0.26859538E+01</totfact>
</mgrwt>
</event>
<event>
 4    1  0.4964158E-009  0.9578968E+03  0.7818608E-02  0.9355968E-01
         -1   -1    0    0    0  501 -0.00000000000E+00  0.00000000000E+00  0.11080043856E+04  0.11080043856E+04  0.50400000000E-02 0.  1.
          1   -1    0    0  501    0  0.00000000000E+00 -0.00000000000E+00 -0.12813931904E+04  0.12813931904E+04  0.50400000000E-02 0. -1.
    8880022    1    1    2    0    0 -0.62232308771E+03 -0.71196112586E+03 -0.79724458517E+03  0.12462605072E+04  0.15294330000E+03 0.  0.
    8880022    1    1    2    0    0  0.62232308771E+03  0.71196112586E+03  0.62385578045E+03  0.11431370688E+04  0.15294330000E+03 0.  1.
<mgrwt>
<rscale>  0 0.95789682E+03</rscale>
<asrwt>0</asrwt>
<pdfrwt beam="1">  1        1 0.19713741E+00 0.95789682E+03</pdfrwt>
<pdfrwt beam="2">  1       -1 0.17046221E+00 0.95789682E+03</pdfrwt>
<totfact> 0.23003942E+00</totfact>
</mgrwt>
</event>
<event>
 4    1  0.4964158E-009  0.1372063E+04  0.7818608E-02  0.8974292E-01
          1   -1    0    0  501    0  0.00000000000E+00  0.00000000000E+00  0.16627051028E+04  0.16627051028E+04  0.50400000000E-02 0. -1.
         -1   -1    0    0    0  501 -0.00000000000E+00 -0.00000000000E+00 -0.25462254433E+04  0.25462254433E+04  0.50400000000E-02 0.  1.
    8880022    1    1    2    0    0 -0.13124291107E+04  0.36972475500E+03 -0.20100196850E+04  0.24336674695E+04  0.15294330000E+03 0.  0.
    8880022    1    1    2    0    0  0.13124291107E+04 -0.36972475500E+03  0.11264993445E+04  0.17752630766E+04  0.15294330000E+03 0.  0.
<mgrwt>
<rscale>  0 0.13720635E+04</rscale>
<asrwt>0</asrwt>
<pdfrwt beam="1">  1        1 0.25580078E+00 0.13720635E+04</pdfrwt>
<pdfrwt beam="2">  1       -1 0.39172699E+00 0.13720635E+04</pdfrwt>
<totfact> 0.39670833E-02</totfact>
</mgrwt>
</event>
<event>
 4    1  0.4964158E-009  0.9181924E+03  0.7818608E-02  0.9403121E-01
         -1   -1    0    0    0  501 -0.00000000000E+00  0.00000000000E+00  0.25437526877E+04  0.25437526877E+04  0.50400000000E-02 0.  1.
          1   -1    0    0  501    0  0.00000000000E+00 -0.00000000000E+00 -0.88683547352E+03  0.88683547354E+03  0.50400000000E-02 0. -1.
    8880022    1    1    2    0    0 -0.29174459468E+02 -0.90489472454E+03 -0.52898543823E+03  0.10596711086E+04  0.15294330000E+03 0.  0.
    8880022    1    1    2    0    0  0.29174459468E+02  0.90489472454E+03  0.21859026524E+04  0.23709170526E+04  0.15294330000E+03 0.  0.
<mgrwt>
<rscale>  0 0.91819239E+03</rscale>
<asrwt>0</asrwt>
<pdfrwt beam="1">  1        1 0.13643623E+00 0.91819239E+03</pdfrwt>
<pdfrwt beam="2">  1       -1 0.39134656E+00 0.91819239E+03</pdfrwt>
<totfact> 0.15909901E-01</totfact>
</mgrwt>
</event>
<event>
 4    1  0.4964158E-009  0.5914717E+03  0.7818608E-02  0.9923259E-01
          1   -1    0    0  501    0  0.00000000000E+00  0.00000000000E+00  0.11433277876E+04  0.11433277876E+04  0.50400000000E-02 0. -1.
         -1   -1    0    0    0  501 -0.00000000000E+00 -0.00000000000E+00 -0.12347445326E+04  0.12347445326E+04  0.50400000000E-02 0.  1.
    8880022    1    1    2    0    0 -0.56671801536E+03  0.72648910878E+02 -0.10769456992E+04  0.12286785036E+04  0.15294330000E+03 0.  0.
    8880022    1    1    2    0    0  0.56671801536E+03 -0.72648910878E+02  0.98552895414E+03  0.11493938166E+04  0.15294330000E+03 0.  0.
<mgrwt>
<rscale>  0 0.59147175E+03</rscale>
<asrwt>0</asrwt>
<pdfrwt beam="1">  1        1 0.17589658E+00 0.59147175E+03</pdfrwt>
<pdfrwt beam="2">  1       -1 0.18996070E+00 0.59147175E+03</pdfrwt>
<totfact> 0.22428768E+00</totfact>
</mgrwt>
</event>
<event>
 4    1  0.4964158E-009  0.3220507E+03  0.7818608E-02  0.1074709E+00
         -1   -1    0    0    0  501 -0.00000000000E+00  0.00000000000E+00  0.64259198028E+03  0.64259198030E+03  0.50400000000E-02 0.  1.
          1   -1    0    0  501    0  0.00000000000E+00 -0.00000000000E+00 -0.88061306202E+03  0.88061306203E+03  0.50400000000E-02 0. -1.
    8880022    1    1    2    0    0  0.27368040953E+03 -0.73647944048E+02  0.56926687108E+03  0.65405000554E+03  0.15294330000E+03 0.  0.
    8880022    1    1    2    0    0 -0.27368040953E+03  0.73647944048E+02 -0.80728795281E+03  0.86915503680E+03  0.15294330000E+03 0. -1.
<mgrwt>
<rscale>  0 0.32205068E+03</rscale>
<asrwt>0</asrwt>
<pdfrwt beam="1">  1        1 0.13547893E+00 0.32205068E+03</pdfrwt>
<pdfrwt beam="2">  1       -1 0.98860304E-01 0.32205068E+03</pdfrwt>
<totfact> 0.20509695E+01</totfact>
</mgrwt>
</event>
<event>
 4    1  0.4964158E-009  0.1010309E+04  0.7818608E-02  0.9297310E-01
         -1   -1    0    0    0  501 -0.00000000000E+00  0.00000000000E+00  0.17592043808E+04  0.17592043808E+04  0.50400000000E-02 0.  1.
          1   -1    0    0  501    0  0.00000000000E+00 -0.00000000000E+00 -0.85255241478E+03  0.85255241480E+03  0.50400000000E-02 0. -1.
    8880022    1    1    2    0    0 -0.81232414600E+03  0.58091478989E+03  0.11913873905E+04  0.15620909316E+04  0.15294330000E+03 0.  0.
    8880022    1    1    2    0    0  0.81232414600E+03 -0.58091478989E+03 -0.28473542442E+03  0.10496658641E+04  0.15294330000E+03 0.  0.
<mgrwt>
<rscale>  0 0.10103089E+04</rscale>
<asrwt>0</asrwt>
<pdfrwt beam="1">  1        1 0.13116191E+00 0.10103089E+04</pdfrwt>
<pdfrwt beam="2">  1       -1 0.27064683E+00 0.10103089E+04</pdfrwt>
<totfact> 0.10287211E+00</totfact>
</mgrwt>
</event>
<event>
 4    1  0.4964158E-009  0.5476592E+03  0.7818608E-02  0.1002037E+00
          1   -1    0    0  501    0  0.00000000000E+00  0.00000000000E+00  0.14486816897E+04  0.14486816897E+04  0.50400000000E-02 0. -1.
         -1   -1    0    0    0  501 -0.00000000000E+00 -0.00000000000E+00 -0.31165490402E+03  0.31165490406E+03  0.50400000000E-02 0.  1.
    8880022    1    1    2    0    0  0.75248143480E+02  0.52045812988E+03  0.58558334597E+02  0.55078097246E+03  0.15294330000E+03 0.  0.
    8880022    1    1    2    0    0 -0.75248143480E+02 -0.52045812988E+03  0.10784684511E+04  0.12095556213E+04  0.15294330000E+03 0.  0.
<mgrwt>
<rscale>  0 0.54765920E+03</rscale>
<asrwt>0</asrwt>
<pdfrwt beam="1">  1        1 0.22287410E+00 0.54765920E+03</pdfrwt>
<pdfrwt beam="2">  1       -1 0.47946909E-01 0.54765920E+03</pdfrwt>
<totfact> 0.32740488E+01</totfact>
</mgrwt>
</event>
<event>
 4    1  0.4964158E-009  0.8189147E+03  0.7818608E-02  0.9533035E-01
          1   -1    0    0  501    0  0.00000000000E+00  0.00000000000E+00  0.65357440989E+03  0.65357440991E+03  0.50400000000E-02 0. -1.
         -1   -1    0    0    0  501 -0.00000000000E+00 -0.00000000000E+00 -0.11796032375E+04  0.11796032376E+04  0.50400000000E-02 0.  1.
    8880022    1    1    2    0    0  0.37016930589E+03 -0.71428589166E+03  0.67651950294E+02  0.82170438081E+03  0.15294330000E+03 0.  0.
    8880022    1    1    2    0    0 -0.37016930589E+03  0.71428589166E+03 -0.59368077794E+03  0.10114732667E+04  0.15294330000E+03 0.  0.
<mgrwt>
<rscale>  0 0.81891471E+03</rscale>
<asrwt>0</asrwt>
<pdfrwt beam="1">  1        1 0.10054991E+00 0.81891471E+03</pdfrwt>
<pdfrwt beam="2">  1       -1 0.18147742E+00 0.81891471E+03</pdfrwt>
<totfact> 0.62854039E+00</totfact>
</mgrwt>
</event>
<event>
 4    1  0.4964158E-009  0.5804869E+03  0.7818608E-02  0.9946737E-01
         -1   -1    0    0    0  501 -0.00000000000E+00  0.00000000000E+00  0.76365000726E+03  0.76365000728E+03  0.50400000000E-02 0.  1.
          1   -1    0    0  501    0  0.00000000000E+00 -0.00000000000E+00 -0.15655583094E+04  0.15655583095E+04  0.50400000000E-02 0. -1.
    8880022    1    1    2    0    0 -0.10895207041E+03  0.54927482633E+03 -0.13878817430E+04  0.15043871756E+04  0.15294330000E+03 0.  0.
    8880022    1    1    2    0    0  0.10895207041E+03 -0.54927482633E+03  0.58597344083E+03  0.82482114113E+03  0.15294330000E+03 0.  0.
<mgrwt>
<rscale>  0 0.58048690E+03</rscale>
<asrwt>0</asrwt>
<pdfrwt beam="1">  1        1 0.24085512E+00 0.58048690E+03</pdfrwt>
<pdfrwt beam="2">  1       -1 0.11748462E+00 0.58048690E+03</pdfrwt>
<totfact> 0.41476476E+00</totfact>
</mgrwt>
</event>
<event>
 4    1  0.4964158E-009  0.1214510E+04  0.7818608E-02  0.9100250E-01
         -1   -1    0    0    0  501 -0.00000000000E+00  0.00000000000E+00  0.14876058169E+04  0.14876058169E+04  0.50400000000E-02 0.  1.
          1   -1    0    0  501    0  0.00000000000E+00 -0.00000000000E+00 -0.25738612761E+04  0.25738612761E+04  0.50400000000E-02 0. -1.
    8880022    1    1    2    0    0  0.88789165713E+03  0.81442632466E+03  0.10491049265E+04  0.16048846167E+04  0.15294330000E+03 0.  0.
    8880022    1    1    2    0    0 -0.88789165713E+03 -0.81442632466E+03 -0.21353603857E+04  0.24565824763E+04  0.15294330000E+03 0.  0.
<mgrwt>
<rscale>  0 0.12145096E+04</rscale>
<asrwt>0</asrwt>
<pdfrwt beam="1">  1        1 0.39597866E+00 0.12145096E+04</pdfrwt>
<pdfrwt beam="2">  1       -1 0.22886243E+00 0.12145096E+04</pdfrwt>
<totfact> 0.11379169E-01</totfact>
</mgrwt>
</event>
<event>
 4    1  0.4964158E-009  0.1229027E+04  0.7818608E-02  0.9087822E-01
         -1   -1    0    0    0  501 -0.00000000000E+00  0.00000000000E+00  0.23386424436E+04  0.23386424436E+04  0.50400000000E-02 0.  1.
          1   -1    0    0  501    0  0.00000000000E+00 -0.00000000000E+00 -0.98150207380E+03  0.98150207381E+03  0.50400000000E-02 0. -1.
    8880022    1    1    2    0    0  0.14757846904E+03  0.12105110564E+04  0.16493025982E+04  0.20568682836E+04  0.15294330000E+03 0.  0.
    8880022    1    1    2    0    0 -0.14757846904E+03 -0.12105110564E+04 -0.29216222844E+03  0.12632762339E+04  0.15294330000E+03 0.  0.
<mgrwt>
<rscale>  0 0.12290273E+04</rscale>
<asrwt>0</asrwt>
<pdfrwt beam="1">  1        1 0.15100032E+00 0.12290273E+04</pdfrwt>
<pdfrwt beam="2">  1       -1 0.35979115E+00 0.12290273E+04</pdfrwt>
<totfact> 0.20628953E-01</totfact>
</mgrwt>
</event>
<event>
 4    1  0.4964158E-009  0.1180275E+04  0.7818608E-02  0.9130299E-01
          1   -1    0    0  501    0  0.00000000000E+00  0.00000000000E+00  0.16653058630E+04  0.16653058630E+04  0.50400000000E-02 0. -1.
         -1   -1    0    0    0  501 -0.00000000000E+00 -0.00000000000E+00 -0.15785167079E+04  0.15785167079E+04  0.50400000000E-02 0.  1.
    8880022    1    1    2    0    0  0.18193161886E+03 -0.11560958436E+04  0.11553972463E+04  0.16516631507E+04  0.15294330000E+03 0.  0.
    8880022    1    1    2    0    0 -0.18193161886E+03  0.11560958436E+04 -0.10686080913E+04  0.15921594202E+04  0.15294330000E+03 0.  0.
<mgrwt>
<rscale>  0 0.11802747E+04</rscale>
<asrwt>0</asrwt>
<pdfrwt beam="1">  1        1 0.25620090E+00 0.11802747E+04</pdfrwt>
<pdfrwt beam="2">  1       -1 0.24284873E+00 0.11802747E+04</pdfrwt>
<totfact> 0.38455574E-01</totfact>
</mgrwt>
</event>
<event>
 4    1  0.4964158E-009  0.6749035E+03  0.7818608E-02  0.9761140E-01
          1   -1    0    0  501    0  0.00000000000E+00  0.00000000000E+00  0.31081664499E+04  0.31081664499E+04  0.50400000000E-02 0. -1.
         -1   -1    0    0    0  501 -0.00000000000E+00 -0.00000000000E+00 -0.39861561043E+03  0.39861561046E+03  0.50400000000E-02 0.  1.
    8880022    1    1    2    0    0 -0.16088401646E+03 -0.63735340694E+03  0.27490888118E+04  0.28307214593E+04  0.15294330000E+03 0.  0.
    8880022    1    1    2    0    0  0.16088401646E+03  0.63735340694E+03 -0.39537972285E+02  0.67606060109E+03  0.15294330000E+03 0.  0.
<mgrwt>
<rscale>  0 0.67490346E+03</rscale>
<asrwt>0</asrwt>
<pdfrwt beam="1">  1        1 0.47817947E+00 0.67490346E+03</pdfrwt>
<pdfrwt beam="2">  1       -1 0.61325476E-01 0.67490346E+03</pdfrwt>
<totfact> 0.14736396E+00</totfact>
</mgrwt>
</event>
<event>
 4    1  0.4964158E-009  0.3826215E+03  0.7818608E-02  0.1049969E+00
          1   -1    0    0  501    0  0.00000000000E+00  0.00000000000E+00  0.45956336910E+03  0.45956336913E+03  0.50400000000E-02 0. -1.
         -1   -1    0    0    0  501 -0.00000000000E+00 -0.00000000000E+00 -0.32832299681E+03  0.32832299685E+03  0.50400000000E-02 0.  1.
    8880022    1    1    2    0    0  0.13293322516E+03 -0.32455559622E+03 -0.23063536813E+01  0.38262847473E+03  0.15294330000E+03 0.  0.
    8880022    1    1    2    0    0 -0.13293322516E+03  0.32455559622E+03  0.13354672597E+03  0.40525789125E+03  0.15294330000E+03 0.  0.
<mgrwt>
<rscale>  0 0.38262152E+03</rscale>
<asrwt>0</asrwt>
<pdfrwt beam="1">  1        1 0.70702057E-01 0.38262152E+03</pdfrwt>
<pdfrwt beam="2">  1       -1 0.50511230E-01 0.38262152E+03</pdfrwt>
<totfact> 0.20329167E+02</totfact>
</mgrwt>
</event>
<event>
 4    1  0.4964158E-009  0.5091092E+03  0.7818608E-02  0.1011428E+00
          1   -1    0    0  501    0  0.00000000000E+00  0.00000000000E+00  0.18950603941E+04  0.18950603941E+04  0.50400000000E-02 0. -1.
         -1   -1    0    0    0  501 -0.00000000000E+00 -0.00000000000E+00 -0.34391559439E+03  0.34391559442E+03  0.50400000000E-02 0.  1.
    8880022    1    1    2    0    0 -0.23027200432E+03  0.42752227936E+03 -0.93245451270E+02  0.51757788063E+03  0.15294330000E+03 0.  0.
    8880022    1    1    2    0    0  0.23027200432E+03 -0.42752227936E+03  0.16443902510E+04  0.17213981079E+04  0.15294330000E+03 0.  0.
<mgrwt>
<rscale>  0 0.50910917E+03</rscale>
<asrwt>0</asrwt>
<pdfrwt beam="1">  1        1 0.29154775E+00 0.50910917E+03</pdfrwt>
<pdfrwt beam="2">  1       -1 0.52910091E-01 0.50910917E+03</pdfrwt>
<totfact> 0.13771782E+01</totfact>
</mgrwt>
</event>
<event>
 4    1  0.4964158E-009  0.9556646E+03  0.7818608E-02  0.9358554E-01
          1   -1    0    0  501    0  0.00000000000E+00  0.00000000000E+00  0.20154756592E+04  0.20154756592E+04  0.50400000000E-02 0. -1.
         -1   -1    0    0    0  501 -0.00000000000E+00 -0.00000000000E+00 -0.70482425067E+03  0.70482425068E+03  0.50400000000E-02 0.  1.
    8880022    1    1    2    0    0  0.20369984646E+03 -0.92109146638E+03 -0.15745517959E+03  0.96854886479E+03  0.15294330000E+03 0.  0.
    8880022    1    1    2    0    0 -0.20369984646E+03  0.92109146638E+03  0.14681065881E+04  0.17517510451E+04  0.15294330000E+03 0.  0.
<mgrwt>
<rscale>  0 0.95566457E+03</rscale>
<asrwt>0</asrwt>
<pdfrwt beam="1">  1        1 0.31007317E+00 0.95566457E+03</pdfrwt>
<pdfrwt beam="2">  1       -1 0.10843450E+00 0.95566457E+03</pdfrwt>
<totfact> 0.23373556E+00</totfact>
</mgrwt>
</event>
<event>
 4    1  0.4964158E-009  0.4158216E+03  0.7818608E-02  0.1038435E+00
         -1   -1    0    0    0  501 -0.00000000000E+00  0.00000000000E+00  0.38491502949E+03  0.38491502952E+03  0.50400000000E-02 0.  1.
          1   -1    0    0  501    0  0.00000000000E+00 -0.00000000000E+00 -0.12370585140E+04  0.12370585140E+04  0.50400000000E-02 0. -1.
    8880022    1    1    2    0    0 -0.75456975804E+02  0.37923901928E+03 -0.10732740194E+04  0.11510103226E+04  0.15294330000E+03 0.  0.
    8880022    1    1    2    0    0  0.75456975804E+02 -0.37923901928E+03  0.22113053494E+03  0.47096322090E+03  0.15294330000E+03 0.  1.
<mgrwt>
<rscale>  0 0.41582165E+03</rscale>
<asrwt>0</asrwt>
<pdfrwt beam="1">  1        1 0.19031669E+00 0.41582165E+03</pdfrwt>
<pdfrwt beam="2">  1       -1 0.59217697E-01 0.41582165E+03</pdfrwt>
<totfact> 0.31470200E+01</totfact>
</mgrwt>
</event>
<event>
 4    1  0.4964158E-009  0.5311620E+03  0.7818608E-02  0.1005951E+00
          1   -1    0    0  501    0  0.00000000000E+00  0.00000000000E+00  0.20720444958E+04  0.20720444958E+04  0.50400000000E-02 0. -1.
         -1   -1    0    0    0  501 -0.00000000000E+00 -0.00000000000E+00 -0.24572894054E+03  0.24572894059E+03  0.50400000000E-02 0.  1.
    8880022    1    1    2    0    0 -0.47299877391E+03  0.18711916849E+03  0.13931413856E+03  0.54912795008E+03  0.15294330000E+03 0.  0.
    8880022    1    1    2    0    0  0.47299877391E+03 -0.18711916849E+03  0.16870014167E+04  0.17686454864E+04  0.15294330000E+03 0.  0.
<mgrwt>
<rscale>  0 0.53116201E+03</rscale>
<asrwt>0</asrwt>
<pdfrwt beam="1">  1        1 0.31877610E+00 0.53116201E+03</pdfrwt>
<pdfrwt beam="2">  1       -1 0.37804450E-01 0.53116201E+03</pdfrwt>
<totfact> 0.19448053E+01</totfact>
</mgrwt>
</event>
<event>
 4    1  0.1230536E-008  0.1326146E+04  0.7818608E-02  0.9009084E-01
         -1   -1    0    0    0  501 -0.00000000000E+00  0.00000000000E+00  0.21820667756E+04  0.21820667756E+04  0.50400000000E-02 0.  1.
          1   -1    0    0  501    0  0.00000000000E+00 -0.00000000000E+00 -0.23586292471E+04  0.23586292471E+04  0.50400000000E-02 0. -1.
    8880022    1    1    2    0    0  0.48697347006E+03  0.12239804954E+04 -0.19303327822E+04  0.23419751743E+04  0.15294330000E+03 0.  0.
    8880022    1    1    2    0    0 -0.48697347006E+03 -0.12239804954E+04  0.17537703107E+04  0.21987208485E+04  0.15294330000E+03 0.  0.
<mgrwt>
<rscale>  0 0.13261459E+04</rscale>
<asrwt>0</asrwt>
<pdfrwt beam="1">  1        1 0.36286604E+00 0.13261459E+04</pdfrwt>
<pdfrwt beam="2">  1       -1 0.33570258E+00 0.13261459E+04</pdfrwt>
<totfact> 0.31766866E-02</totfact>
</mgrwt>
</event>
<event>
 4    1  0.4964158E-009  0.5736315E+03  0.7818608E-02  0.9961675E-01
          1   -1    0    0  501    0  0.00000000000E+00  0.00000000000E+00  0.11048505517E+04  0.11048505517E+04  0.50400000000E-02 0. -1.
         -1   -1    0    0    0  501 -0.00000000000E+00 -0.00000000000E+00 -0.11027682166E+04  0.11027682166E+04  0.50400000000E-02 0.  1.
    8880022    1    1    2    0    0 -0.44829621090E+03 -0.32356130069E+03  0.94409037244E+03  0.11046989148E+04  0.15294330000E+03 0.  0.
    8880022    1    1    2    0    0  0.44829621090E+03  0.32356130069E+03 -0.94200803730E+03  0.11029198536E+04  0.15294330000E+03 0.  1.
<mgrwt>
<rscale>  0 0.57363147E+03</rscale>
<asrwt>0</asrwt>
<pdfrwt beam="1">  1        1 0.16997701E+00 0.57363147E+03</pdfrwt>
<pdfrwt beam="2">  1       -1 0.16965665E+00 0.57363147E+03</pdfrwt>
<totfact> 0.33501477E+00</totfact>
</mgrwt>
</event>
<event>
 4    1  0.4964158E-009  0.1143032E+04  0.7818608E-02  0.9164236E-01
         -1   -1    0    0    0  501 -0.00000000000E+00  0.00000000000E+00  0.13847771528E+04  0.13847771528E+04  0.50400000000E-02 0.  1.
          1   -1    0    0  501    0  0.00000000000E+00 -0.00000000000E+00 -0.17904667467E+04  0.17904667467E+04  0.50400000000E-02 0. -1.
    8880022    1    1    2    0    0 -0.29797796250E+02  0.11323618333E+04  0.88909778776E+03  0.14481083383E+04  0.15294330000E+03 0.  0.
    8880022    1    1    2    0    0  0.29797796250E+02 -0.11323618333E+04 -0.12947873817E+04  0.17271355612E+04  0.15294330000E+03 0.  0.
<mgrwt>
<rscale>  0 0.11430323E+04</rscale>
<asrwt>0</asrwt>
<pdfrwt beam="1">  1        1 0.27545642E+00 0.11430323E+04</pdfrwt>
<pdfrwt beam="2">  1       -1 0.21304264E+00 0.11430323E+04</pdfrwt>
<totfact> 0.50121959E-01</totfact>
</mgrwt>
</event>
<event>
 4    1  0.4964158E-009  0.2515883E+03  0.7818608E-02  0.1112305E+00
         -1   -1    0    0    0  501 -0.00000000000E+00  0.00000000000E+00  0.33977639603E+03  0.33977639607E+03  0.50400000000E-02 0.  1.
          1   -1    0    0  501    0  0.00000000000E+00 -0.00000000000E+00 -0.37691921919E+04  0.37691921919E+04  0.50400000000E-02 0. -1.
    8880022    1    1    2    0    0  0.19292734744E+03 -0.51807847366E+02 -0.37177782826E+04  0.37262812597E+04  0.15294330000E+03 0.  0.
    8880022    1    1    2    0    0 -0.19292734744E+03  0.51807847366E+02  0.28836248677E+03  0.38268732829E+03  0.15294330000E+03 0.  1.
<mgrwt>
<rscale>  0 0.25158829E+03</rscale>
<asrwt>0</asrwt>
<pdfrwt beam="1">  1        1 0.57987570E+00 0.25158829E+03</pdfrwt>
<pdfrwt beam="2">  1       -1 0.52273294E-01 0.25158829E+03</pdfrwt>
<totfact> 0.75584683E-01</totfact>
</mgrwt>
</event>
<event>
 4    1  0.4964158E-009  0.1142893E+04  0.7818608E-02  0.9164365E-01
          1   -1    0    0  501    0  0.00000000000E+00  0.00000000000E+00  0.43632224800E+03  0.43632224803E+03  0.50400000000E-02 0. -1.
         -1   -1    0    0    0  501 -0.00000000000E+00 -0.00000000000E+00 -0.53219838432E+04  0.53219838432E+04  0.50400000000E-02 0.  1.
    8880022    1    1    2    0    0 -0.11293497217E+04  0.85919681262E+02 -0.53847200684E+03  0.12633909690E+04  0.15294330000E+03 0.  0.
    8880022    1    1    2    0    0  0.11293497217E+04 -0.85919681262E+02 -0.43471895884E+04  0.44949151222E+04  0.15294330000E+03 0.  0.
<mgrwt>
<rscale>  0 0.11428931E+04</rscale>
<asrwt>0</asrwt>
<pdfrwt beam="1">  1        1 0.67126503E-01 0.11428931E+04</pdfrwt>
<pdfrwt beam="2">  1       -1 0.81876670E+00 0.11428931E+04</pdfrwt>
<totfact> 0.29637611E-03</totfact>
</mgrwt>
</event>
<event>
 4    1  0.4964158E-009  0.8852182E+03  0.7818608E-02  0.9444250E-01
         -1   -1    0    0    0  501 -0.00000000000E+00  0.00000000000E+00  0.73851922685E+03  0.73851922687E+03  0.50400000000E-02 0.  1.
          1   -1    0    0  501    0  0.00000000000E+00 -0.00000000000E+00 -0.18896037175E+04  0.18896037175E+04  0.50400000000E-02 0. -1.
    8880022    1    1    2    0    0 -0.80425581029E+03 -0.33673750145E+03  0.29459696725E+03  0.93295154183E+03  0.15294330000E+03 0.  0.
    8880022    1    1    2    0    0  0.80425581029E+03  0.33673750145E+03 -0.14456814579E+04  0.16951714025E+04  0.15294330000E+03 0.  0.
<mgrwt>
<rscale>  0 0.88521817E+03</rscale>
<asrwt>0</asrwt>
<pdfrwt beam="1">  1        1 0.29070826E+00 0.88521817E+03</pdfrwt>
<pdfrwt beam="2">  1       -1 0.11361834E+00 0.88521817E+03</pdfrwt>
<totfact> 0.25695345E+00</totfact>
</mgrwt>
</event>
<event>
 4    1  0.4964158E-009  0.5234873E+03  0.7818608E-02  0.1007824E+00
         -1   -1    0    0    0  501 -0.00000000000E+00  0.00000000000E+00  0.33275807481E+03  0.33275807485E+03  0.50400000000E-02 0.  1.
          1   -1    0    0  501    0  0.00000000000E+00 -0.00000000000E+00 -0.10663776319E+04  0.10663776319E+04  0.50400000000E-02 0. -1.
    8880022    1    1    2    0    0  0.45049038569E+03 -0.21841633921E+03 -0.32973089383E+02  0.52452470149E+03  0.15294330000E+03 0.  0.
    8880022    1    1    2    0    0 -0.45049038569E+03  0.21841633921E+03 -0.70064646774E+03  0.87461100531E+03  0.15294330000E+03 0.  0.
<mgrwt>
<rscale>  0 0.52348729E+03</rscale>
<asrwt>0</asrwt>
<pdfrwt beam="1">  1        1 0.16405810E+00 0.52348729E+03</pdfrwt>
<pdfrwt beam="2">  1       -1 0.51193551E-01 0.52348729E+03</pdfrwt>
<totfact> 0.54259037E+01</totfact>
</mgrwt>
</event>
<event>
 4    1  0.4964158E-009  0.1954931E+04  0.7818608E-02  0.8627987E-01
         -1   -1    0    0    0  501 -0.00000000000E+00  0.00000000000E+00  0.22142964823E+04  0.22142964823E+04  0.50400000000E-02 0.  1.
          1   -1    0    0  501    0  0.00000000000E+00 -0.00000000000E+00 -0.20301283143E+04  0.20301283143E+04  0.50400000000E-02 0. -1.
    8880022    1    1    2    0    0 -0.19247704344E+04 -0.30597750355E+03 -0.72939104680E+03  0.20865680938E+04  0.15294330000E+03 0.  0.
    8880022    1    1    2    0    0  0.19247704344E+04  0.30597750355E+03  0.91355921481E+03  0.21578567028E+04  0.15294330000E+03 0.  0.
<mgrwt>
<rscale>  0 0.19549310E+04</rscale>
<asrwt>0</asrwt>
<pdfrwt beam="1">  1        1 0.31232743E+00 0.19549310E+04</pdfrwt>
<pdfrwt beam="2">  1       -1 0.34066100E+00 0.19549310E+04</pdfrwt>
<totfact> 0.45525579E-02</totfact>
</mgrwt>
</event>
<event>
 4    1  0.4964158E-009  0.4633864E+03  0.7818608E-02  0.1023804E+00
          1   -1    0    0  501    0  0.00000000000E+00  0.00000000000E+00  0.20242078357E+04  0.20242078357E+04  0.50400000000E-02 0. -1.
         -1   -1    0    0    0  501 -0.00000000000E+00 -0.00000000000E+00 -0.19889240824E+04  0.19889240824E+04  0.50400000000E-02 0.  1.
    8880022    1    1    2    0    0  0.36343080645E+03  0.24342012055E+03  0.19699644394E+04  0.20237309238E+04  0.15294330000E+03 0. -1.
    8880022    1    1    2    0    0 -0.36343080645E+03 -0.24342012055E+03 -0.19346806861E+04  0.19894009944E+04  0.15294330000E+03 0.  0.
<mgrwt>
<rscale>  0 0.46338640E+03</rscale>
<asrwt>0</asrwt>
<pdfrwt beam="1">  1        1 0.31141659E+00 0.46338640E+03</pdfrwt>
<pdfrwt beam="2">  1       -1 0.30598832E+00 0.46338640E+03</pdfrwt>
<totfact> 0.10439120E-01</totfact>
</mgrwt>
</event>
<event>
 4    1  0.4964158E-009  0.7271031E+03  0.7818608E-02  0.9671973E-01
         -1   -1    0    0    0  501 -0.00000000000E+00  0.00000000000E+00  0.93482569531E+03  0.93482569533E+03  0.50400000000E-02 0.  1.
          1   -1    0    0  501    0  0.00000000000E+00 -0.00000000000E+00 -0.21717410642E+04  0.21717410642E+04  0.50400000000E-02 0. -1.
    8880022    1    1    2    0    0  0.70707524118E+03  0.73019735564E+02 -0.19542747095E+04  0.20851543280E+04  0.15294330000E+03 0.  0.
    8880022    1    1    2    0    0 -0.70707524118E+03 -0.73019735564E+02  0.71735934067E+03  0.10214124315E+04  0.15294330000E+03 0.  0.
<mgrwt>
<rscale>  0 0.72710311E+03</rscale>
<asrwt>0</asrwt>
<pdfrwt beam="1">  1        1 0.33411401E+00 0.72710311E+03</pdfrwt>
<pdfrwt beam="2">  1       -1 0.14381934E+00 0.72710311E+03</pdfrwt>
<totfact> 0.94895013E-01</totfact>
</mgrwt>
</event>
<event>
 4    1  0.4964158E-009  0.4896191E+03  0.7818608E-02  0.1016525E+00
          1   -1    0    0  501    0  0.00000000000E+00  0.00000000000E+00  0.11090794282E+04  0.11090794282E+04  0.50400000000E-02 0. -1.
         -1   -1    0    0    0  501 -0.00000000000E+00 -0.00000000000E+00 -0.10370079914E+04  0.10370079914E+04  0.50400000000E-02 0.  1.
    8880022    1    1    2    0    0 -0.24864844813E+03 -0.39307653325E+03 -0.91865023499E+03  0.10409827660E+04  0.15294330000E+03 0.  0.
    8880022    1    1    2    0    0  0.24864844813E+03  0.39307653325E+03  0.99072167171E+03  0.11051046537E+04  0.15294330000E+03 0. -1.
<mgrwt>
<rscale>  0 0.48961910E+03</rscale>
<asrwt>0</asrwt>
<pdfrwt beam="1">  1        1 0.17062761E+00 0.48961910E+03</pdfrwt>
<pdfrwt beam="2">  1       -1 0.15953969E+00 0.48961910E+03</pdfrwt>
<totfact> 0.40304876E+00</totfact>
</mgrwt>
</event>
<event>
 4    1  0.4964158E-009  0.3058865E+04  0.7818608E-02  0.8227119E-01
         -1   -1    0    0    0  501 -0.00000000000E+00  0.00000000000E+00  0.30623208638E+04  0.30623208638E+04  0.50400000000E-02 0.  1.
          1   -1    0    0  501    0  0.00000000000E+00 -0.00000000000E+00 -0.39271828857E+04  0.39271828857E+04  0.50400000000E-02 0. -1.
    8880022    1    1    2    0    0 -0.18388615638E+03  0.30494995303E+04 -0.20789883643E+04  0.36984923652E+04  0.15294330000E+03 0.  0.
    8880022    1    1    2    0    0  0.18388615638E+03 -0.30494995303E+04  0.12141263423E+04  0.32910113843E+04  0.15294330000E+03 0.  0.
<mgrwt>
<rscale>  0 0.30588647E+04</rscale>
<asrwt>0</asrwt>
<pdfrwt beam="1">  1        1 0.60418198E+00 0.30588647E+04</pdfrwt>
<pdfrwt beam="2">  1       -1 0.47112629E+00 0.30588647E+04</pdfrwt>
<totfact> 0.20025627E-04</totfact>
</mgrwt>
</event>
<event>
 4    1  0.4964158E-009  0.7928352E+03  0.7818608E-02  0.9570446E-01
          1   -1    0    0  501    0  0.00000000000E+00  0.00000000000E+00  0.74640749567E+03  0.74640749569E+03  0.50400000000E-02 0. -1.
         -1   -1    0    0    0  501 -0.00000000000E+00 -0.00000000000E+00 -0.12508900579E+04  0.12508900579E+04  0.50400000000E-02 0.  1.
    8880022    1    1    2    0    0  0.77750730606E+03  0.26044723180E+02 -0.82309710432E+03  0.11428370114E+04  0.15294330000E+03 0.  0.
    8880022    1    1    2    0    0 -0.77750730606E+03 -0.26044723180E+02  0.31861454212E+03  0.85446054212E+03  0.15294330000E+03 0.  0.
<mgrwt>
<rscale>  0 0.79283516E+03</rscale>
<asrwt>0</asrwt>
<pdfrwt beam="1">  1        1 0.11483192E+00 0.79283516E+03</pdfrwt>
<pdfrwt beam="2">  1       -1 0.19244462E+00 0.79283516E+03</pdfrwt>
<totfact> 0.43195108E+00</totfact>
</mgrwt>
</event>
<event>
 4    1  0.4964158E-009  0.2076612E+04  0.7818608E-02  0.8571616E-01
          1   -1    0    0  501    0  0.00000000000E+00  0.00000000000E+00  0.15007665448E+04  0.15007665448E+04  0.50400000000E-02 0. -1.
         -1   -1    0    0    0  501 -0.00000000000E+00 -0.00000000000E+00 -0.29512704331E+04  0.29512704331E+04  0.50400000000E-02 0.  1.
    8880022    1    1    2    0    0  0.20692263578E+04  0.85027800953E+02 -0.36369235882E+03  0.21082199201E+04  0.15294330000E+03 0.  0.
    8880022    1    1    2    0    0 -0.20692263578E+04 -0.85027800953E+02 -0.10868115294E+04  0.23438170578E+04  0.15294330000E+03 0.  0.
<mgrwt>
<rscale>  0 0.20766124E+04</rscale>
<asrwt>0</asrwt>
<pdfrwt beam="1">  1        1 0.23088716E+00 0.20766124E+04</pdfrwt>
<pdfrwt beam="2">  1       -1 0.45404160E+00 0.20766124E+04</pdfrwt>
<totfact> 0.17528872E-02</totfact>
</mgrwt>
</event>
<event>
 4    1  0.4964158E-009  0.6920960E+03  0.7818608E-02  0.9730845E-01
         -1   -1    0    0    0  501 -0.00000000000E+00  0.00000000000E+00  0.26092938059E+03  0.26092938064E+03  0.50400000000E-02 0.  1.
          1   -1    0    0  501    0  0.00000000000E+00 -0.00000000000E+00 -0.19950223019E+04  0.19950223019E+04  0.50400000000E-02 0. -1.
    8880022    1    1    2    0    0  0.52925121725E+03  0.41892525077E+03 -0.11857729845E+04  0.13729728477E+04  0.15294330000E+03 0.  0.
    8880022    1    1    2    0    0 -0.52925121725E+03 -0.41892525077E+03 -0.54831993683E+03  0.88297883487E+03  0.15294330000E+03 0. -1.
<mgrwt>
<rscale>  0 0.69209600E+03</rscale>
<asrwt>0</asrwt>
<pdfrwt beam="1">  1        1 0.30692650E+00 0.69209600E+03</pdfrwt>
<pdfrwt beam="2">  1       -1 0.40142983E-01 0.69209600E+03</pdfrwt>
<totfact> 0.19084787E+01</totfact>
</mgrwt>
</event>
<event>
 4    1  0.4964158E-009  0.1608374E+03  0.7818608E-02  0.1187755E+00
          1   -1    0    0  501    0  0.00000000000E+00  0.00000000000E+00  0.57358173961E+03  0.57358173963E+03  0.50400000000E-02 0. -1.
         -1   -1    0    0    0  501 -0.00000000000E+00 -0.00000000000E+00 -0.65929938599E+02  0.65929938792E+02  0.50400000000E-02 0.  1.
    8880022    1    1    2    0    0 -0.33915700526E+02 -0.36424454935E+02  0.43355514185E+03  0.46242699932E+03  0.15294330000E+03 0. -1.
    8880022    1    1    2    0    0  0.33915700526E+02  0.36424454935E+02  0.74096659157E+02  0.17708467910E+03  0.15294330000E+03 0.  0.
<mgrwt>
<rscale>  0 0.16083740E+03</rscale>
<asrwt>0</asrwt>
<pdfrwt beam="1">  1        1 0.88243343E-01 0.16083740E+03</pdfrwt>
<pdfrwt beam="2">  1       -1 0.10143068E-01 0.16083740E+03</pdfrwt>
<totfact> 0.22027754E+03</totfact>
</mgrwt>
</event>
<event>
 4    1  0.4964158E-009  0.1014004E+04  0.7818608E-02  0.9293318E-01
          1   -1    0    0  501    0  0.00000000000E+00  0.00000000000E+00  0.22922768505E+04  0.22922768505E+04  0.50400000000E-02 0. -1.
         -1   -1    0    0    0  501 -0.00000000000E+00 -0.00000000000E+00 -0.48356725026E+03  0.48356725029E+03  0.50400000000E-02 0.  1.
    8880022    1    1    2    0    0 -0.40536801344E+03  0.91678193698E+03  0.53087342440E+03  0.11445656783E+04  0.15294330000E+03 0.  0.
    8880022    1    1    2    0    0  0.40536801344E+03 -0.91678193698E+03  0.12778361758E+04  0.16312784225E+04  0.15294330000E+03 0.  0.
<mgrwt>
<rscale>  0 0.10140039E+04</rscale>
<asrwt>0</asrwt>
<pdfrwt beam="1">  1        1 0.35265798E+00 0.10140039E+04</pdfrwt>
<pdfrwt beam="2">  1       -1 0.74394961E-01 0.10140039E+04</pdfrwt>
<totfact> 0.34725425E+00</totfact>
</mgrwt>
</event>
<event>
 4    1  0.4964158E-009  0.3737657E+03  0.7818608E-02  0.1053262E+00
          1   -1    0    0  501    0  0.00000000000E+00  0.00000000000E+00  0.55303646749E+03  0.55303646752E+03  0.50400000000E-02 0. -1.
         -1   -1    0    0    0  501 -0.00000000000E+00 -0.00000000000E+00 -0.44272144166E+03  0.44272144169E+03  0.50400000000E-02 0.  1.
    8880022    1    1    2    0    0 -0.31226966655E+03  0.13710154983E+03 -0.27110422793E+03  0.46173405227E+03  0.15294330000E+03 0.  1.
    8880022    1    1    2    0    0  0.31226966655E+03 -0.13710154983E+03  0.38141925376E+03  0.53402385693E+03  0.15294330000E+03 0.  0.
<mgrwt>
<rscale>  0 0.37376575E+03</rscale>
<asrwt>0</asrwt>
<pdfrwt beam="1">  1        1 0.85082533E-01 0.37376575E+03</pdfrwt>
<pdfrwt beam="2">  1       -1 0.68110991E-01 0.37376575E+03</pdfrwt>
<totfact> 0.88837547E+01</totfact>
</mgrwt>
</event>
<event>
 4    1  0.4964158E-009  0.4861659E+03  0.7818608E-02  0.1017454E+00
          1   -1    0    0  501    0  0.00000000000E+00  0.00000000000E+00  0.27532337881E+04  0.27532337881E+04  0.50400000000E-02 0. -1.
         -1   -1    0    0    0  501 -0.00000000000E+00 -0.00000000000E+00 -0.19639681587E+03  0.19639681594E+03  0.50400000000E-02 0.  1.
    8880022    1    1    2    0    0  0.97770499942E+02  0.45100619814E+03  0.17192438718E+03  0.51566976773E+03  0.15294330000E+03 0.  1.
    8880022    1    1    2    0    0 -0.97770499942E+02 -0.45100619814E+03  0.23849125850E+04  0.24339608363E+04  0.15294330000E+03 0.  0.
<mgrwt>
<rscale>  0 0.48616593E+03</rscale>
<asrwt>0</asrwt>
<pdfrwt beam="1">  1        1 0.42357444E+00 0.48616593E+03</pdfrwt>
<pdfrwt beam="2">  1       -1 0.30214894E-01 0.48616593E+03</pdfrwt>
<totfact> 0.10131686E+01</totfact>
</mgrwt>
</event>
<event>
 4    1  0.4964158E-009  0.7940648E+03  0.7818608E-02  0.9568648E-01
         -1   -1    0    0    0  501 -0.00000000000E+00  0.00000000000E+00  0.53631490183E+03  0.53631490185E+03  0.50400000000E-02 0.  1.
          1   -1    0    0  501    0  0.00000000000E+00 -0.00000000000E+00 -0.34963766750E+04  0.34963766750E+04  0.50400000000E-02 0. -1.
    8880022    1    1    2    0    0  0.73854819989E+03  0.24838231599E+03  0.16269222834E+03  0.81056007342E+03  0.15294330000E+03 0.  0.
    8880022    1    1    2    0    0 -0.73854819989E+03 -0.24838231599E+03 -0.31227540016E+04  0.32221315035E+04  0.15294330000E+03 0.  0.
<mgrwt>
<rscale>  0 0.79406478E+03</rscale>
<asrwt>0</asrwt>
<pdfrwt beam="1">  1        1 0.53790409E+00 0.79406478E+03</pdfrwt>
<pdfrwt beam="2">  1       -1 0.82509987E-01 0.79406478E+03</pdfrwt>
<totfact> 0.39855620E-01</totfact>
</mgrwt>
</event>
<event>
 4    1  0.4964158E-009  0.2142151E+03  0.7818608E-02  0.1138271E+00
         -1   -1    0    0    0  501 -0.00000000000E+00  0.00000000000E+00  0.78732602605E+02  0.78732602767E+02  0.50400000000E-02 0.  1.
          1   -1    0    0  501    0  0.00000000000E+00 -0.00000000000E+00 -0.96211616279E+03  0.96211616280E+03  0.50400000000E-02 0. -1.
    8880022    1    1    2    0    0 -0.14419094263E+03  0.41297065814E+02 -0.76844842598E+03  0.79774752396E+03  0.15294330000E+03 0.  0.
    8880022    1    1    2    0    0  0.14419094263E+03 -0.41297065814E+02 -0.11493513421E+03  0.24310124161E+03  0.15294330000E+03 0.  0.
<mgrwt>
<rscale>  0 0.21421515E+03</rscale>
<asrwt>0</asrwt>
<pdfrwt beam="1">  1        1 0.14801786E+00 0.21421515E+03</pdfrwt>
<pdfrwt beam="2">  1       -1 0.12112709E-01 0.21421515E+03</pdfrwt>
<totfact> 0.77573175E+02</totfact>
</mgrwt>
</event>
<event>
 4    1  0.4964158E-009  0.1279386E+04  0.7818608E-02  0.9046074E-01
          1   -1    0    0  501    0  0.00000000000E+00  0.00000000000E+00  0.24305866613E+04  0.24305866613E+04  0.50400000000E-02 0. -1.
         -1   -1    0    0    0  501 -0.00000000000E+00 -0.00000000000E+00 -0.76510845968E+03  0.76510845969E+03  0.50400000000E-02 0.  1.
    8880022    1    1    2    0    0  0.31128181929E+03  0.12314791448E+04  0.13858453128E+04  0.18861060784E+04  0.15294330000E+03 0.  0.
    8880022    1    1    2    0    0 -0.31128181929E+03 -0.12314791448E+04  0.27963288887E+03  0.13095890426E+04  0.15294330000E+03 0.  0.
<mgrwt>
<rscale>  0 0.12793861E+04</rscale>
<asrwt>0</asrwt>
<pdfrwt beam="1">  1        1 0.37393640E+00 0.12793861E+04</pdfrwt>
<pdfrwt beam="2">  1       -1 0.11770900E+00 0.12793861E+04</pdfrwt>
<totfact> 0.96049794E-01</totfact>
</mgrwt>
</event>
<event>
 4    1  0.4964158E-009  0.4323658E+03  0.7818608E-02  0.1033115E+00
         -1   -1    0    0    0  501 -0.00000000000E+00  0.00000000000E+00  0.16978916095E+03  0.16978916103E+03  0.50400000000E-02 0.  1.
          1   -1    0    0  501    0  0.00000000000E+00 -0.00000000000E+00 -0.20353870807E+04  0.20353870807E+04  0.50400000000E-02 0. -1.
    8880022    1    1    2    0    0  0.33519797334E+03 -0.22625390236E+03 -0.18574826909E+03  0.47057686105E+03  0.15294330000E+03 0.  0.
    8880022    1    1    2    0    0 -0.33519797334E+03  0.22625390236E+03 -0.16798496507E+04  0.17345993807E+04  0.15294330000E+03 0. -1.
<mgrwt>
<rscale>  0 0.43236577E+03</rscale>
<asrwt>0</asrwt>
<pdfrwt beam="1">  1        1 0.31313646E+00 0.43236577E+03</pdfrwt>
<pdfrwt beam="2">  1       -1 0.26121411E-01 0.43236577E+03</pdfrwt>
<totfact> 0.39961424E+01</totfact>
</mgrwt>
</event>
<event>
 4    1  0.4964158E-009  0.5156792E+03  0.7818608E-02  0.1009766E+00
          1   -1    0    0  501    0  0.00000000000E+00  0.00000000000E+00  0.76201334117E+03  0.76201334119E+03  0.50400000000E-02 0. -1.
         -1   -1    0    0    0  501 -0.00000000000E+00 -0.00000000000E+00 -0.10090959395E+04  0.10090959395E+04  0.50400000000E-02 0.  1.
    8880022    1    1    2    0    0  0.20291864501E+02  0.49205852473E+03  0.59270152598E+03  0.78563356817E+03  0.15294330000E+03 0.  0.
    8880022    1    1    2    0    0 -0.20291864501E+02 -0.49205852473E+03 -0.83978412429E+03  0.98547571251E+03  0.15294330000E+03 0.  1.
<mgrwt>
<rscale>  0 0.51567917E+03</rscale>
<asrwt>0</asrwt>
<pdfrwt beam="1">  1        1 0.11723282E+00 0.51567917E+03</pdfrwt>
<pdfrwt beam="2">  1       -1 0.15524553E+00 0.51567917E+03</pdfrwt>
<totfact> 0.81500364E+00</totfact>
</mgrwt>
</event>
<event>
 4    1  0.4964158E-009  0.9130480E+03  0.7818608E-02  0.9409416E-01
          1   -1    0    0  501    0  0.00000000000E+00  0.00000000000E+00  0.13905631166E+04  0.13905631166E+04  0.50400000000E-02 0. -1.
         -1   -1    0    0    0  501 -0.00000000000E+00 -0.00000000000E+00 -0.86286147250E+03  0.86286147251E+03  0.50400000000E-02 0.  1.
    8880022    1    1    2    0    0  0.87359143977E+03 -0.21703234319E+03 -0.35860746172E+03  0.98094648491E+03  0.15294330000E+03 0.  0.
    8880022    1    1    2    0    0 -0.87359143977E+03  0.21703234319E+03  0.88630910582E+03  0.12724781042E+04  0.15294330000E+03 0.  0.
<mgrwt>
<rscale>  0 0.91304802E+03</rscale>
<asrwt>0</asrwt>
<pdfrwt beam="1">  1        1 0.21393279E+00 0.91304802E+03</pdfrwt>
<pdfrwt beam="2">  1       -1 0.13274792E+00 0.91304802E+03</pdfrwt>
<totfact> 0.38120352E+00</totfact>
</mgrwt>
</event>
<event>
 4    1  0.4964158E-009  0.8541378E+03  0.7818608E-02  0.9484800E-01
          1   -1    0    0  501    0  0.00000000000E+00  0.00000000000E+00  0.15319284904E+04  0.15319284904E+04  0.50400000000E-02 0. -1.
         -1   -1    0    0    0  501 -0.00000000000E+00 -0.00000000000E+00 -0.97567718110E+03  0.97567718111E+03  0.50400000000E-02 0.  1.
    8880022    1    1    2    0    0 -0.83974482824E+03 -0.31437907058E+02  0.11751839244E+04  0.14527933879E+04  0.15294330000E+03 0.  0.
    8880022    1    1    2    0    0  0.83974482824E+03  0.31437907058E+02 -0.61893261516E+03  0.10548122836E+04  0.15294330000E+03 0.  0.
<mgrwt>
<rscale>  0 0.85413779E+03</rscale>
<asrwt>0</asrwt>
<pdfrwt beam="1">  1        1 0.23568131E+00 0.85413779E+03</pdfrwt>
<pdfrwt beam="2">  1       -1 0.15010418E+00 0.85413779E+03</pdfrwt>
<totfact> 0.22255229E+00</totfact>
</mgrwt>
</event>
<event>
 4    1  0.4964158E-009  0.4887801E+03  0.7818608E-02  0.1016750E+00
          1   -1    0    0  501    0  0.00000000000E+00  0.00000000000E+00  0.28236269921E+04  0.28236269921E+04  0.50400000000E-02 0. -1.
         -1   -1    0    0    0  501 -0.00000000000E+00 -0.00000000000E+00 -0.25269658261E+03  0.25269658266E+03  0.50400000000E-02 0.  1.
    8880022    1    1    2    0    0  0.11368470996E+03 -0.45010015012E+03  0.30969016046E+02  0.48976023868E+03  0.15294330000E+03 0.  0.
    8880022    1    1    2    0    0 -0.11368470996E+03  0.45010015012E+03  0.25399613934E+04  0.25865633361E+04  0.15294330000E+03 0.  0.
<mgrwt>
<rscale>  0 0.48878013E+03</rscale>
<asrwt>0</asrwt>
<pdfrwt beam="1">  1        1 0.43440414E+00 0.48878013E+03</pdfrwt>
<pdfrwt beam="2">  1       -1 0.38876398E-01 0.48878013E+03</pdfrwt>
<totfact> 0.58041370E+00</totfact>
</mgrwt>
</event>
<event>
 4    1  0.4964158E-009  0.1102725E+04  0.7818608E-02  0.9202540E-01
         -1   -1    0    0    0  501 -0.00000000000E+00  0.00000000000E+00  0.48703656403E+03  0.48703656405E+03  0.50400000000E-02 0.  1.
          1   -1    0    0  501    0  0.00000000000E+00 -0.00000000000E+00 -0.29361746515E+04  0.29361746515E+04  0.50400000000E-02 0. -1.
    8880022    1    1    2    0    0 -0.10904632453E+04  0.59175176568E+02 -0.56241331823E+03  0.12378659800E+04  0.15294330000E+03 0.  0.
    8880022    1    1    2    0    0  0.10904632453E+04 -0.59175176568E+02 -0.18867247693E+04  0.21853452356E+04  0.15294330000E+03 0.  0.
<mgrwt>
<rscale>  0 0.11027255E+04</rscale>
<asrwt>0</asrwt>
<pdfrwt beam="1">  1        1 0.45171917E+00 0.11027255E+04</pdfrwt>
<pdfrwt beam="2">  1       -1 0.74928704E-01 0.11027255E+04</pdfrwt>
<totfact> 0.12047975E+00</totfact>
</mgrwt>
</event>
<event>
 4    1  0.4964158E-009  0.5105107E+03  0.7818608E-02  0.1011071E+00
          1   -1    0    0  501    0  0.00000000000E+00  0.00000000000E+00  0.17794699922E+04  0.17794699922E+04  0.50400000000E-02 0. -1.
         -1   -1    0    0    0  501 -0.00000000000E+00 -0.00000000000E+00 -0.12870554556E+04  0.12870554556E+04  0.50400000000E-02 0.  1.
    8880022    1    1    2    0    0  0.48413177726E+03 -0.53347331324E+02 -0.11971829794E+04  0.13014869398E+04  0.15294330000E+03 0.  0.
    8880022    1    1    2    0    0 -0.48413177726E+03  0.53347331324E+02  0.16895975160E+04  0.17650385079E+04  0.15294330000E+03 0.  0.
<mgrwt>
<rscale>  0 0.51051069E+03</rscale>
<asrwt>0</asrwt>
<pdfrwt beam="1">  1        1 0.27376461E+00 0.51051069E+03</pdfrwt>
<pdfrwt beam="2">  1       -1 0.19800853E+00 0.51051069E+03</pdfrwt>
<totfact> 0.73855189E-01</totfact>
</mgrwt>
</event>
<event>
 4    1  0.4964158E-009  0.1100167E+04  0.7818608E-02  0.9205029E-01
         -1   -1    0    0    0  501 -0.00000000000E+00  0.00000000000E+00  0.19749049279E+04  0.19749049279E+04  0.50400000000E-02 0.  1.
          1   -1    0    0  501    0  0.00000000000E+00 -0.00000000000E+00 -0.13145005858E+04  0.13145005858E+04  0.50400000000E-02 0. -1.
    8880022    1    1    2    0    0  0.42226228287E+03 -0.10043261340E+04  0.15318024408E+04  0.18859445351E+04  0.15294330000E+03 0.  0.
    8880022    1    1    2    0    0 -0.42226228287E+03  0.10043261340E+04 -0.87139809872E+03  0.14034609786E+04  0.15294330000E+03 0.  0.
<mgrwt>
<rscale>  0 0.11001673E+04</rscale>
<asrwt>0</asrwt>
<pdfrwt beam="1">  1        1 0.20223086E+00 0.11001673E+04</pdfrwt>
<pdfrwt beam="2">  1       -1 0.30383153E+00 0.11001673E+04</pdfrwt>
<totfact> 0.27527246E-01</totfact>
</mgrwt>
</event>
<event>
 4    1  0.4964158E-009  0.1072942E+04  0.7818608E-02  0.9231974E-01
          1   -1    0    0  501    0  0.00000000000E+00  0.00000000000E+00  0.11075256856E+04  0.11075256856E+04  0.50400000000E-02 0. -1.
         -1   -1    0    0    0  501 -0.00000000000E+00 -0.00000000000E+00 -0.11974743106E+04  0.11974743106E+04  0.50400000000E-02 0.  1.
    8880022    1    1    2    0    0 -0.10609696317E+04 -0.46428809854E+02  0.37371012050E+03  0.11361615647E+04  0.15294330000E+03 0.  0.
    8880022    1    1    2    0    0  0.10609696317E+04  0.46428809854E+02 -0.46365874554E+03  0.11688384316E+04  0.15294330000E+03 0.  0.
<mgrwt>
<rscale>  0 0.10729417E+04</rscale>
<asrwt>0</asrwt>
<pdfrwt beam="1">  1        1 0.17038857E+00 0.10729417E+04</pdfrwt>
<pdfrwt beam="2">  1       -1 0.18422682E+00 0.10729417E+04</pdfrwt>
<totfact> 0.24165512E+00</totfact>
</mgrwt>
</event>
<event>
 4    1  0.4964158E-009  0.1620545E+03  0.7818608E-02  0.1186397E+00
         -1   -1    0    0    0  501 -0.00000000000E+00  0.00000000000E+00  0.34460353782E+03  0.34460353786E+03  0.50400000000E-02 0.  1.
          1   -1    0    0  501    0  0.00000000000E+00 -0.00000000000E+00 -0.39072491278E+03  0.39072491281E+03  0.50400000000E-02 0. -1.
    8880022    1    1    2    0    0  0.21876837834E+02  0.48902123342E+02 -0.35292670977E+03  0.38835412858E+03  0.15294330000E+03 0.  0.
    8880022    1    1    2    0    0 -0.21876837834E+02 -0.48902123342E+02  0.30680533481E+03  0.34697432208E+03  0.15294330000E+03 0.  1.
<mgrwt>
<rscale>  0 0.16205452E+03</rscale>
<asrwt>0</asrwt>
<pdfrwt beam="1">  1        1 0.60111525E-01 0.16205452E+03</pdfrwt>
<pdfrwt beam="2">  1       -1 0.53015929E-01 0.16205452E+03</pdfrwt>
<totfact> 0.23504088E+02</totfact>
</mgrwt>
</event>
<event>
 4    1  0.4964158E-009  0.1626801E+04  0.7818608E-02  0.8804250E-01
         -1   -1    0    0    0  501 -0.00000000000E+00  0.00000000000E+00  0.14528996140E+04  0.14528996140E+04  0.50400000000E-02 0.  1.
          1   -1    0    0  501    0  0.00000000000E+00 -0.00000000000E+00 -0.21460626088E+04  0.21460626088E+04  0.50400000000E-02 0. -1.
    8880022    1    1    2    0    0  0.81466238052E+03  0.13997915340E+04 -0.10463643624E+04  0.19342598494E+04  0.15294330000E+03 0.  0.
    8880022    1    1    2    0    0 -0.81466238052E+03 -0.13997915340E+04  0.35320136756E+03  0.16647023734E+04  0.15294330000E+03 0.  0.
<mgrwt>
<rscale>  0 0.16268014E+04</rscale>
<asrwt>0</asrwt>
<pdfrwt beam="1">  1        1 0.33016348E+00 0.16268014E+04</pdfrwt>
<pdfrwt beam="2">  1       -1 0.22352302E+00 0.16268014E+04</pdfrwt>
<totfact> 0.22997238E-01</totfact>
</mgrwt>
</event>
<event>
 4    1  0.4964158E-009  0.1394499E+04  0.7818608E-02  0.8957810E-01
          1   -1    0    0  501    0  0.00000000000E+00  0.00000000000E+00  0.15213638633E+04  0.15213638633E+04  0.50400000000E-02 0. -1.
         -1   -1    0    0    0  501 -0.00000000000E+00 -0.00000000000E+00 -0.15780560417E+04  0.15780560417E+04  0.50400000000E-02 0.  1.
    8880022    1    1    2    0    0  0.38365754523E+03  0.13319315732E+04 -0.70386339256E+03  0.15620659897E+04  0.15294330000E+03 0.  0.
    8880022    1    1    2    0    0 -0.38365754523E+03 -0.13319315732E+04  0.64717121415E+03  0.15373539154E+04  0.15294330000E+03 0.  0.
<mgrwt>
<rscale>  0 0.13944986E+04</rscale>
<asrwt>0</asrwt>
<pdfrwt beam="1">  1        1 0.23405598E+00 0.13944986E+04</pdfrwt>
<pdfrwt beam="2">  1       -1 0.24277785E+00 0.13944986E+04</pdfrwt>
<totfact> 0.47038888E-01</totfact>
</mgrwt>
</event>
<event>
 4    1  0.4964158E-009  0.2047243E+04  0.7818608E-02  0.8584846E-01
          1   -1    0    0  501    0  0.00000000000E+00  0.00000000000E+00  0.31666022810E+04  0.31666022811E+04  0.50400000000E-02 0. -1.
         -1   -1    0    0    0  501 -0.00000000000E+00 -0.00000000000E+00 -0.22137278408E+04  0.22137278408E+04  0.50400000000E-02 0.  1.
    8880022    1    1    2    0    0 -0.18226365910E+04 -0.91967798134E+03  0.21823294392E+04  0.29922842723E+04  0.15294330000E+03 0.  0.
    8880022    1    1    2    0    0  0.18226365910E+04  0.91967798134E+03 -0.12294549990E+04  0.23880458496E+04  0.15294330000E+03 0.  0.
<mgrwt>
<rscale>  0 0.20472429E+04</rscale>
<asrwt>0</asrwt>
<pdfrwt beam="1">  1        1 0.48716958E+00 0.20472429E+04</pdfrwt>
<pdfrwt beam="2">  1       -1 0.34057351E+00 0.20472429E+04</pdfrwt>
<totfact> 0.70939827E-03</totfact>
</mgrwt>
</event>
<event>
 4    1  0.4964158E-009  0.6492964E+03  0.7818608E-02  0.9808100E-01
         -1   -1    0    0    0  501 -0.00000000000E+00  0.00000000000E+00  0.43264151922E+03  0.43264151925E+03  0.50400000000E-02 0.  1.
          1   -1    0    0  501    0  0.00000000000E+00 -0.00000000000E+00 -0.27952819554E+04  0.27952819554E+04  0.50400000000E-02 0. -1.
    8880022    1    1    2    0    0 -0.60946945153E+03  0.16352726959E+03 -0.24839344675E+04  0.25673948415E+04  0.15294330000E+03 0.  0.
    8880022    1    1    2    0    0  0.60946945153E+03 -0.16352726959E+03  0.12129403128E+03  0.66052863321E+03  0.15294330000E+03 0.  0.
<mgrwt>
<rscale>  0 0.64929641E+03</rscale>
<asrwt>0</asrwt>
<pdfrwt beam="1">  1        1 0.43004337E+00 0.64929641E+03</pdfrwt>
<pdfrwt beam="2">  1       -1 0.66560235E-01 0.64929641E+03</pdfrwt>
<totfact> 0.21020395E+00</totfact>
</mgrwt>
</event>
<event>
 4    1  0.4964158E-009  0.7559316E+03  0.7818608E-02  0.9626090E-01
          1   -1    0    0  501    0  0.00000000000E+00  0.00000000000E+00  0.31875883735E+04  0.31875883735E+04  0.50400000000E-02 0. -1.
         -1   -1    0    0    0  501 -0.00000000000E+00 -0.00000000000E+00 -0.26234080683E+03  0.26234080688E+03  0.50400000000E-02 0.  1.
    8880022    1    1    2    0    0 -0.38266516314E+03  0.63372569778E+03  0.24333052657E+04  0.25480202229E+04  0.15294330000E+03 0.  0.
    8880022    1    1    2    0    0  0.38266516314E+03 -0.63372569778E+03  0.49194230093E+03  0.90190895747E+03  0.15294330000E+03 0.  0.
<mgrwt>
<rscale>  0 0.75593157E+03</rscale>
<asrwt>0</asrwt>
<pdfrwt beam="1">  1        1 0.49039819E+00 0.75593157E+03</pdfrwt>
<pdfrwt beam="2">  1       -1 0.40360126E-01 0.75593157E+03</pdfrwt>
<totfact> 0.27971230E+00</totfact>
</mgrwt>
</event>
<event>
 4    1  0.4964158E-009  0.1092712E+04  0.7818608E-02  0.9212325E-01
          1   -1    0    0  501    0  0.00000000000E+00  0.00000000000E+00  0.17195021216E+04  0.17195021216E+04  0.50400000000E-02 0. -1.
         -1   -1    0    0    0  501 -0.00000000000E+00 -0.00000000000E+00 -0.83973247569E+03  0.83973247571E+03  0.50400000000E-02 0.  1.
    8880022    1    1    2    0    0 -0.84201205171E+00  0.10819548439E+04  0.97223097021E+03  0.14626180997E+04  0.15294330000E+03 0.  0.
    8880022    1    1    2    0    0  0.84201205171E+00 -0.10819548439E+04 -0.92461324330E+02  0.10966164976E+04  0.15294330000E+03 0.  0.
<mgrwt>
<rscale>  0 0.10927116E+04</rscale>
<asrwt>0</asrwt>
<pdfrwt beam="1">  1        1 0.26453879E+00 0.10927116E+04</pdfrwt>
<pdfrwt beam="2">  1       -1 0.12918961E+00 0.10927116E+04</pdfrwt>
<totfact> 0.23703396E+00</totfact>
</mgrwt>
</event>
<event>
 4    1  0.4964158E-009  0.1472301E+04  0.7818608E-02  0.8903084E-01
          1   -1    0    0  501    0  0.00000000000E+00  0.00000000000E+00  0.26116776756E+04  0.26116776756E+04  0.50400000000E-02 0. -1.
         -1   -1    0    0    0  501 -0.00000000000E+00 -0.00000000000E+00 -0.10049268986E+04  0.10049268986E+04  0.50400000000E-02 0.  1.
    8880022    1    1    2    0    0 -0.13641280140E+04 -0.53238498354E+03  0.15578462296E+04  0.21434914362E+04  0.15294330000E+03 0.  0.
    8880022    1    1    2    0    0  0.13641280140E+04  0.53238498354E+03  0.48904547419E+02  0.14731131379E+04  0.15294330000E+03 0.  0.
<mgrwt>
<rscale>  0 0.14723011E+04</rscale>
<asrwt>0</asrwt>
<pdfrwt beam="1">  1        1 0.40179657E+00 0.14723011E+04</pdfrwt>
<pdfrwt beam="2">  1       -1 0.15460414E+00 0.14723011E+04</pdfrwt>
<totfact> 0.34673501E-01</totfact>
</mgrwt>
</event>
<event>
 4    1  0.4964158E-009  0.1012686E+04  0.7818608E-02  0.9294739E-01
         -1   -1    0    0    0  501 -0.00000000000E+00  0.00000000000E+00  0.11804770534E+04  0.11804770534E+04  0.50400000000E-02 0.  1.
          1   -1    0    0  501    0  0.00000000000E+00 -0.00000000000E+00 -0.12480485720E+04  0.12480485720E+04  0.50400000000E-02 0. -1.
    8880022    1    1    2    0    0  0.14112651373E+02  0.10009709143E+04 -0.70319297782E+03  0.12328884602E+04  0.15294330000E+03 0.  0.
    8880022    1    1    2    0    0 -0.14112651373E+02 -0.10009709143E+04  0.63562145925E+03  0.11956371652E+04  0.15294330000E+03 0.  0.
<mgrwt>
<rscale>  0 0.10126863E+04</rscale>
<asrwt>0</asrwt>
<pdfrwt beam="1">  1        1 0.19200747E+00 0.10126863E+04</pdfrwt>
<pdfrwt beam="2">  1       -1 0.18161185E+00 0.10126863E+04</pdfrwt>
<totfact> 0.20033562E+00</totfact>
</mgrwt>
</event>
<event>
 4    1  0.7354517E-009  0.1930196E+04  0.7818608E-02  0.8639970E-01
         -1   -1    0    0    0  501 -0.00000000000E+00  0.00000000000E+00  0.20720357556E+04  0.20720357556E+04  0.50400000000E-02 0.  1.
          1   -1    0    0  501    0  0.00000000000E+00 -0.00000000000E+00 -0.30111169919E+04  0.30111169919E+04  0.50400000000E-02 0. -1.
    8880022    1    1    2    0    0 -0.81547610868E+03  0.17427747310E+04 -0.20827060541E+04  0.28395987758E+04  0.15294330000E+03 0.  0.
    8880022    1    1    2    0    0  0.81547610868E+03 -0.17427747310E+04  0.11436248178E+04  0.22435539717E+04  0.15294330000E+03 0.  0.
<mgrwt>
<rscale>  0 0.19301960E+04</rscale>
<asrwt>0</asrwt>
<pdfrwt beam="1">  1        1 0.46324877E+00 0.19301960E+04</pdfrwt>
<pdfrwt beam="2">  1       -1 0.31877473E+00 0.19301960E+04</pdfrwt>
<totfact> 0.13044324E-02</totfact>
</mgrwt>
</event>
<event>
 4    1  0.4964158E-009  0.5382875E+03  0.7818608E-02  0.1004242E+00
          1   -1    0    0  501    0  0.00000000000E+00  0.00000000000E+00  0.35954629800E+03  0.35954629804E+03  0.50400000000E-02 0. -1.
         -1   -1    0    0    0  501 -0.00000000000E+00 -0.00000000000E+00 -0.14243287613E+04  0.14243287613E+04  0.50400000000E-02 0.  1.
    8880022    1    1    2    0    0  0.47950934609E+03 -0.19087308543E+03 -0.11201227754E+04  0.12427503501E+04  0.15294330000E+03 0.  0.
    8880022    1    1    2    0    0 -0.47950934609E+03  0.19087308543E+03  0.55340312144E+02  0.54112470919E+03  0.15294330000E+03 0.  0.
<mgrwt>
<rscale>  0 0.53828747E+03</rscale>
<asrwt>0</asrwt>
<pdfrwt beam="1">  1        1 0.55314816E-01 0.53828747E+03</pdfrwt>
<pdfrwt beam="2">  1       -1 0.21912750E+00 0.53828747E+03</pdfrwt>
<totfact> 0.82302913E+00</totfact>
</mgrwt>
</event>
<event>
 4    1  0.4964158E-009  0.1536474E+03  0.7818608E-02  0.1196061E+00
          1   -1    0    0  501    0  0.00000000000E+00  0.00000000000E+00  0.55082616760E+03  0.55082616763E+03  0.50400000000E-02 0. -1.
         -1   -1    0    0    0  501 -0.00000000000E+00 -0.00000000000E+00 -0.61617916621E+03  0.61617916623E+03  0.50400000000E-02 0.  1.
    8880022    1    1    2    0    0  0.41022201137E+01  0.14107975959E+02  0.53016768734E+03  0.55198305491E+03  0.15294330000E+03 0. -1.
    8880022    1    1    2    0    0 -0.41022201137E+01 -0.14107975959E+02 -0.59552068594E+03  0.61502227895E+03  0.15294330000E+03 0.  0.
<mgrwt>
<rscale>  0 0.15364738E+03</rscale>
<asrwt>0</asrwt>
<pdfrwt beam="1">  1        1 0.84742487E-01 0.15364738E+03</pdfrwt>
<pdfrwt beam="2">  1       -1 0.94796795E-01 0.15364738E+03</pdfrwt>
<totfact> 0.47374245E+01</totfact>
</mgrwt>
</event>
<event>
 4    1  0.4964158E-009  0.1757059E+04  0.7818608E-02  0.8729474E-01
         -1   -1    0    0    0  501 -0.00000000000E+00  0.00000000000E+00  0.20745294621E+04  0.20745294621E+04  0.50400000000E-02 0.  1.
          1   -1    0    0  501    0  0.00000000000E+00 -0.00000000000E+00 -0.16462011060E+04  0.16462011060E+04  0.50400000000E-02 0. -1.
    8880022    1    1    2    0    0 -0.10079203359E+04  0.14310697015E+04 -0.36223859288E+03  0.17940101297E+04  0.15294330000E+03 0.  0.
    8880022    1    1    2    0    0  0.10079203359E+04 -0.14310697015E+04  0.79056694890E+03  0.19267204384E+04  0.15294330000E+03 0.  0.
<mgrwt>
<rscale>  0 0.17570588E+04</rscale>
<asrwt>0</asrwt>
<pdfrwt beam="1">  1        1 0.25326171E+00 0.17570588E+04</pdfrwt>
<pdfrwt beam="2">  1       -1 0.31915838E+00 0.17570588E+04</pdfrwt>
<totfact> 0.11797397E-01</totfact>
</mgrwt>
</event>
<event>
 4    1  0.4964158E-009  0.2370840E+04  0.7818608E-02  0.8450502E-01
          1   -1    0    0  501    0  0.00000000000E+00  0.00000000000E+00  0.26670650816E+04  0.26670650816E+04  0.50400000000E-02 0. -1.
         -1   -1    0    0    0  501 -0.00000000000E+00 -0.00000000000E+00 -0.25993702680E+04  0.25993702680E+04  0.50400000000E-02 0.  1.
    8880022    1    1    2    0    0  0.17615861584E+04  0.15793371595E+04  0.11792831954E+04  0.26479411181E+04  0.15294330000E+03 0.  0.
    8880022    1    1    2    0    0 -0.17615861584E+04 -0.15793371595E+04 -0.11115883818E+04  0.26184942315E+04  0.15294330000E+03 0.  0.
<mgrwt>
<rscale>  0 0.23708402E+04</rscale>
<asrwt>0</asrwt>
<pdfrwt beam="1">  1        1 0.41031771E+00 0.23708402E+04</pdfrwt>
<pdfrwt beam="2">  1       -1 0.39990312E+00 0.23708402E+04</pdfrwt>
<totfact> 0.62857490E-03</totfact>
</mgrwt>
</event>
<event>
 4    1  0.4964158E-009  0.8471245E+03  0.7818608E-02  0.9494205E-01
         -1   -1    0    0    0  501 -0.00000000000E+00  0.00000000000E+00  0.74006737788E+03  0.74006737790E+03  0.50400000000E-02 0.  1.
          1   -1    0    0  501    0  0.00000000000E+00 -0.00000000000E+00 -0.17047308503E+04  0.17047308503E+04  0.50400000000E-02 0. -1.
    8880022    1    1    2    0    0 -0.71473900810E+03 -0.42822463880E+03  0.32035720114E+03  0.90567575893E+03  0.15294330000E+03 0.  0.
    8880022    1    1    2    0    0  0.71473900810E+03  0.42822463880E+03 -0.12850206736E+04  0.15391224693E+04  0.15294330000E+03 0. -1.
<mgrwt>
<rscale>  0 0.84712446E+03</rscale>
<asrwt>0</asrwt>
<pdfrwt beam="1">  1        1 0.26226628E+00 0.84712446E+03</pdfrwt>
<pdfrwt beam="2">  1       -1 0.11385652E+00 0.84712446E+03</pdfrwt>
<totfact> 0.34252929E+00</totfact>
</mgrwt>
</event>
<event>
 4    1  0.4964158E-009  0.1900348E+03  0.7818608E-02  0.1158430E+00
         -1   -1    0    0    0  501 -0.00000000000E+00  0.00000000000E+00  0.33688510573E+03  0.33688510577E+03  0.50400000000E-02 0.  1.
          1   -1    0    0  501    0  0.00000000000E+00 -0.00000000000E+00 -0.54150718158E+03  0.54150718161E+03  0.50400000000E-02 0. -1.
    8880022    1    1    2    0    0 -0.25483417990E+02 -0.10987337038E+03 -0.49564024969E+03  0.53082244888E+03  0.15294330000E+03 0.  0.
    8880022    1    1    2    0    0  0.25483417990E+02  0.10987337038E+03  0.29101817384E+03  0.34756983849E+03  0.15294330000E+03 0.  1.
<mgrwt>
<rscale>  0 0.19003477E+03</rscale>
<asrwt>0</asrwt>
<pdfrwt beam="1">  1        1 0.83308797E-01 0.19003477E+03</pdfrwt>
<pdfrwt beam="2">  1       -1 0.51828478E-01 0.19003477E+03</pdfrwt>
<totfact> 0.15964535E+02</totfact>
</mgrwt>
</event>
<event>
 4    1  0.4964158E-009  0.1017453E+04  0.7818608E-02  0.9289607E-01
         -1   -1    0    0    0  501 -0.00000000000E+00  0.00000000000E+00  0.91823603009E+03  0.91823603010E+03  0.50400000000E-02 0.  1.
          1   -1    0    0  501    0  0.00000000000E+00 -0.00000000000E+00 -0.28489437352E+04  0.28489437352E+04  0.50400000000E-02 0. -1.
    8880022    1    1    2    0    0  0.20666442125E+03 -0.98443296443E+03 -0.24295683656E+04  0.26340107328E+04  0.15294330000E+03 0.  0.
    8880022    1    1    2    0    0 -0.20666442125E+03  0.98443296443E+03  0.49886066052E+03  0.11331690325E+04  0.15294330000E+03 0.  0.
<mgrwt>
<rscale>  0 0.10174527E+04</rscale>
<asrwt>0</asrwt>
<pdfrwt beam="1">  1        1 0.43829903E+00 0.10174527E+04</pdfrwt>
<pdfrwt beam="2">  1       -1 0.14126708E+00 0.10174527E+04</pdfrwt>
<totfact> 0.32149291E-01</totfact>
</mgrwt>
</event>
<event>
 4    1  0.4964158E-009  0.7507237E+03  0.7818608E-02  0.9634216E-01
         -1   -1    0    0    0  501 -0.00000000000E+00  0.00000000000E+00  0.65328927905E+03  0.65328927907E+03  0.50400000000E-02 0.  1.
          1   -1    0    0  501    0  0.00000000000E+00 -0.00000000000E+00 -0.22326960902E+04  0.22326960902E+04  0.50400000000E-02 0. -1.
    8880022    1    1    2    0    0  0.30657848346E+03 -0.66798512621E+03  0.34064042289E+03  0.82439192505E+03  0.15294330000E+03 0.  0.
    8880022    1    1    2    0    0 -0.30657848346E+03  0.66798512621E+03 -0.19200472341E+04  0.20615934443E+04  0.15294330000E+03 0.  0.
<mgrwt>
<rscale>  0 0.75072375E+03</rscale>
<asrwt>0</asrwt>
<pdfrwt beam="1">  1        1 0.34349170E+00 0.75072375E+03</pdfrwt>
<pdfrwt beam="2">  1       -1 0.10050604E+00 0.75072375E+03</pdfrwt>
<totfact> 0.20636536E+00</totfact>
</mgrwt>
</event>
<event>
 4    1  0.4964158E-009  0.5743656E+03  0.7818608E-02  0.9960065E-01
         -1   -1    0    0    0  501 -0.00000000000E+00  0.00000000000E+00  0.36096790175E+03  0.36096790178E+03  0.50400000000E-02 0.  1.
          1   -1    0    0  501    0  0.00000000000E+00 -0.00000000000E+00 -0.20954178918E+04  0.20954178918E+04  0.50400000000E-02 0. -1.
    8880022    1    1    2    0    0  0.55355671746E+03 -0.88944200856E+01 -0.17894729982E+04  0.18793907030E+04  0.15294330000E+03 0.  0.
    8880022    1    1    2    0    0 -0.55355671746E+03  0.88944200856E+01  0.55023008145E+02  0.57699509061E+03  0.15294330000E+03 0.  0.
<mgrwt>
<rscale>  0 0.57436557E+03</rscale>
<asrwt>0</asrwt>
<pdfrwt beam="1">  1        1 0.32237198E+00 0.57436557E+03</pdfrwt>
<pdfrwt beam="2">  1       -1 0.55533525E-01 0.57436557E+03</pdfrwt>
<totfact> 0.91146661E+00</totfact>
</mgrwt>
</event>
<event>
 4    1  0.4964158E-009  0.1020952E+04  0.7818608E-02  0.9285859E-01
          1   -1    0    0  501    0  0.00000000000E+00  0.00000000000E+00  0.48078539540E+04  0.48078539540E+04  0.50400000000E-02 0. -1.
         -1   -1    0    0    0  501 -0.00000000000E+00 -0.00000000000E+00 -0.71219136015E+03  0.71219136017E+03  0.50400000000E-02 0.  1.
    8880022    1    1    2    0    0  0.45142713642E+03 -0.90286469478E+03 -0.25407959505E+03  0.10520927764E+04  0.15294330000E+03 0.  0.
    8880022    1    1    2    0    0 -0.45142713642E+03  0.90286469478E+03  0.43497421889E+04  0.44679525377E+04  0.15294330000E+03 0.  0.
<mgrwt>
<rscale>  0 0.10209519E+04</rscale>
<asrwt>0</asrwt>
<pdfrwt beam="1">  1        1 0.73966985E+00 0.10209519E+04</pdfrwt>
<pdfrwt beam="2">  1       -1 0.10956790E+00 0.10209519E+04</pdfrwt>
<totfact> 0.12373058E-02</totfact>
</mgrwt>
</event>
<event>
 4    1  0.4964158E-009  0.5121800E+03  0.7818608E-02  0.1010648E+00
          1   -1    0    0  501    0  0.00000000000E+00  0.00000000000E+00  0.11153026066E+04  0.11153026067E+04  0.50400000000E-02 0. -1.
         -1   -1    0    0    0  501 -0.00000000000E+00 -0.00000000000E+00 -0.12051206550E+04  0.12051206550E+04  0.50400000000E-02 0.  1.
    8880022    1    1    2    0    0 -0.15423539262E+03 -0.46384066034E+03  0.99594112345E+03  0.11199228049E+04  0.15294330000E+03 0.  0.
    8880022    1    1    2    0    0  0.15423539262E+03  0.46384066034E+03 -0.10857591718E+04  0.12005004568E+04  0.15294330000E+03 0.  0.
<mgrwt>
<rscale>  0 0.51218001E+03</rscale>
<asrwt>0</asrwt>
<pdfrwt beam="1">  1        1 0.17158502E+00 0.51218001E+03</pdfrwt>
<pdfrwt beam="2">  1       -1 0.18540318E+00 0.51218001E+03</pdfrwt>
<totfact> 0.25799232E+00</totfact>
</mgrwt>
</event>
<event>
 4    1  0.4964158E-009  0.1068184E+04  0.7818608E-02  0.9236769E-01
          1   -1    0    0  501    0  0.00000000000E+00  0.00000000000E+00  0.16787853499E+04  0.16787853499E+04  0.50400000000E-02 0. -1.
         -1   -1    0    0    0  501 -0.00000000000E+00 -0.00000000000E+00 -0.82428688001E+03  0.82428688003E+03  0.50400000000E-02 0.  1.
    8880022    1    1    2    0    0  0.84255099074E+03  0.63854009967E+03  0.95147233048E+03  0.14304953267E+04  0.15294330000E+03 0.  0.
    8880022    1    1    2    0    0 -0.84255099074E+03 -0.63854009967E+03 -0.96973860565E+02  0.10725769033E+04  0.15294330000E+03 0.  0.
<mgrwt>
<rscale>  0 0.10681841E+04</rscale>
<asrwt>0</asrwt>
<pdfrwt beam="1">  1        1 0.25827467E+00 0.10681841E+04</pdfrwt>
<pdfrwt beam="2">  1       -1 0.12681337E+00 0.10681841E+04</pdfrwt>
<totfact> 0.26553273E+00</totfact>
</mgrwt>
</event>
<event>
 4    1  0.4964158E-009  0.2419625E+03  0.7818608E-02  0.1118492E+00
          1   -1    0    0  501    0  0.00000000000E+00  0.00000000000E+00  0.57563701065E+03  0.57563701067E+03  0.50400000000E-02 0. -1.
         -1   -1    0    0    0  501 -0.00000000000E+00 -0.00000000000E+00 -0.73233858307E+03  0.73233858308E+03  0.50400000000E-02 0.  1.
    8880022    1    1    2    0    0  0.73546484059E+02 -0.17246775209E+03 -0.68522937358E+03  0.72669468022E+03  0.15294330000E+03 0.  0.
    8880022    1    1    2    0    0 -0.73546484059E+02  0.17246775209E+03  0.52852780116E+03  0.58128091354E+03  0.15294330000E+03 0. -1.
<mgrwt>
<rscale>  0 0.24196253E+03</rscale>
<asrwt>0</asrwt>
<pdfrwt beam="1">  1        1 0.88559540E-01 0.24196253E+03</pdfrwt>
<pdfrwt beam="2">  1       -1 0.11266747E+00 0.24196253E+03</pdfrwt>
<totfact> 0.29309711E+01</totfact>
</mgrwt>
</event>
<event>
 4    1  0.4964158E-009  0.9074730E+03  0.7818608E-02  0.9416288E-01
          1   -1    0    0  501    0  0.00000000000E+00  0.00000000000E+00  0.17722942348E+04  0.17722942348E+04  0.50400000000E-02 0. -1.
         -1   -1    0    0    0  501 -0.00000000000E+00 -0.00000000000E+00 -0.98880602554E+03  0.98880602555E+03  0.50400000000E-02 0.  1.
    8880022    1    1    2    0    0  0.36410457588E+03  0.81703331632E+03 -0.61339093926E+03  0.10953335928E+04  0.15294330000E+03 0.  0.
    8880022    1    1    2    0    0 -0.36410457588E+03 -0.81703331632E+03  0.13968791485E+04  0.16657666675E+04  0.15294330000E+03 0.  0.
<mgrwt>
<rscale>  0 0.90747299E+03</rscale>
<asrwt>0</asrwt>
<pdfrwt beam="1">  1        1 0.27266065E+00 0.90747299E+03</pdfrwt>
<pdfrwt beam="2">  1       -1 0.15212400E+00 0.90747299E+03</pdfrwt>
<totfact> 0.14618077E+00</totfact>
</mgrwt>
</event>
<event>
 4    1  0.4964158E-009  0.1150054E+04  0.7818608E-02  0.9157734E-01
         -1   -1    0    0    0  501 -0.00000000000E+00  0.00000000000E+00  0.87298346890E+03  0.87298346892E+03  0.50400000000E-02 0.  1.
          1   -1    0    0  501    0  0.00000000000E+00 -0.00000000000E+00 -0.18707245848E+04  0.18707245849E+04  0.50400000000E-02 0. -1.
    8880022    1    1    2    0    0  0.84956766274E+03  0.75991252861E+03 -0.10970371855E+04  0.15893755076E+04  0.15294330000E+03 0.  0.
    8880022    1    1    2    0    0 -0.84956766274E+03 -0.75991252861E+03  0.99296069575E+02  0.11543325462E+04  0.15294330000E+03 0.  0.
<mgrwt>
<rscale>  0 0.11500539E+04</rscale>
<asrwt>0</asrwt>
<pdfrwt beam="1">  1        1 0.28780378E+00 0.11500539E+04</pdfrwt>
<pdfrwt beam="2">  1       -1 0.13430515E+00 0.11500539E+04</pdfrwt>
<totfact> 0.16838309E+00</totfact>
</mgrwt>
</event>
<event>
 4    1  0.4964158E-009  0.5984512E+03  0.7818608E-02  0.9908625E-01
         -1   -1    0    0    0  501 -0.00000000000E+00  0.00000000000E+00  0.25461761435E+03  0.25461761440E+03  0.50400000000E-02 0.  1.
          1   -1    0    0  501    0  0.00000000000E+00 -0.00000000000E+00 -0.15044564475E+04  0.15044564475E+04  0.50400000000E-02 0. -1.
    8880022    1    1    2    0    0 -0.54551560491E+03  0.19278190908E+03 -0.40059799296E+03  0.72015452831E+03  0.15294330000E+03 0.  0.
    8880022    1    1    2    0    0  0.54551560491E+03 -0.19278190908E+03 -0.84924084022E+03  0.10389195336E+04  0.15294330000E+03 0.  0.
<mgrwt>
<rscale>  0 0.59845116E+03</rscale>
<asrwt>0</asrwt>
<pdfrwt beam="1">  1        1 0.23145483E+00 0.59845116E+03</pdfrwt>
<pdfrwt beam="2">  1       -1 0.39171942E-01 0.59845116E+03</pdfrwt>
<totfact> 0.43132647E+01</totfact>
</mgrwt>
</event>
<event>
 4    1  0.4964158E-009  0.6749439E+03  0.7818608E-02  0.9761068E-01
          1   -1    0    0  501    0  0.00000000000E+00  0.00000000000E+00  0.60509843051E+03  0.60509843053E+03  0.50400000000E-02 0. -1.
         -1   -1    0    0    0  501 -0.00000000000E+00 -0.00000000000E+00 -0.19224834441E+04  0.19224834442E+04  0.50400000000E-02 0.  1.
    8880022    1    1    2    0    0 -0.62935639922E+03 -0.18991620260E+03 -0.16444464721E+04  0.17775695469E+04  0.15294330000E+03 0.  0.
    8880022    1    1    2    0    0  0.62935639922E+03  0.18991620260E+03  0.32706145848E+03  0.75001232782E+03  0.15294330000E+03 0.  0.
<mgrwt>
<rscale>  0 0.67494392E+03</rscale>
<asrwt>0</asrwt>
<pdfrwt beam="1">  1        1 0.93092067E-01 0.67494392E+03</pdfrwt>
<pdfrwt beam="2">  1       -1 0.29576668E+00 0.67494392E+03</pdfrwt>
<totfact> 0.12732282E+00</totfact>
</mgrwt>
</event>
<event>
 4    1  0.4964158E-009  0.1403265E+04  0.7818608E-02  0.8951459E-01
         -1   -1    0    0    0  501 -0.00000000000E+00  0.00000000000E+00  0.24308885610E+04  0.24308885610E+04  0.50400000000E-02 0.  1.
          1   -1    0    0  501    0  0.00000000000E+00 -0.00000000000E+00 -0.13896523627E+04  0.13896523627E+04  0.50400000000E-02 0. -1.
    8880022    1    1    2    0    0  0.11665775962E+04  0.76475905898E+03 -0.71306977250E+03  0.15740456981E+04  0.15294330000E+03 0.  0.
    8880022    1    1    2    0    0 -0.11665775962E+04 -0.76475905898E+03  0.17543059708E+04  0.22464952256E+04  0.15294330000E+03 0.  0.
<mgrwt>
<rscale>  0 0.14032645E+04</rscale>
<asrwt>0</asrwt>
<pdfrwt beam="1">  1        1 0.21379267E+00 0.14032645E+04</pdfrwt>
<pdfrwt beam="2">  1       -1 0.37398285E+00 0.14032645E+04</pdfrwt>
<totfact> 0.80578231E-02</totfact>
</mgrwt>
</event>
<event>
 4    1  0.4964158E-009  0.4200536E+03  0.7818608E-02  0.1037049E+00
         -1   -1    0    0    0  501 -0.00000000000E+00  0.00000000000E+00  0.12698027122E+03  0.12698027132E+03  0.50400000000E-02 0.  1.
          1   -1    0    0  501    0  0.00000000000E+00 -0.00000000000E+00 -0.20618089891E+04  0.20618089891E+04  0.50400000000E-02 0. -1.
    8880022    1    1    2    0    0  0.38622446947E+03  0.62321799620E+02 -0.34250193970E+03  0.54198946414E+03  0.15294330000E+03 0.  0.
    8880022    1    1    2    0    0 -0.38622446947E+03 -0.62321799620E+02 -0.15923267782E+04  0.16467997963E+04  0.15294330000E+03 0.  0.
<mgrwt>
<rscale>  0 0.42005357E+03</rscale>
<asrwt>0</asrwt>
<pdfrwt beam="1">  1        1 0.31720136E+00 0.42005357E+03</pdfrwt>
<pdfrwt beam="2">  1       -1 0.19535428E-01 0.42005357E+03</pdfrwt>
<totfact> 0.62504032E+01</totfact>
</mgrwt>
</event>
<event>
 4    1  0.4964158E-009  0.8360938E+03  0.7818608E-02  0.9509194E-01
          1   -1    0    0  501    0  0.00000000000E+00  0.00000000000E+00  0.62543882100E+03  0.62543882102E+03  0.50400000000E-02 0. -1.
         -1   -1    0    0    0  501 -0.00000000000E+00 -0.00000000000E+00 -0.11998539475E+04  0.11998539475E+04  0.50400000000E-02 0.  1.
    8880022    1    1    2    0    0 -0.81741462489E+03 -0.86571303980E+02 -0.52601772705E+03  0.98779935303E+03  0.15294330000E+03 0.  0.
    8880022    1    1    2    0    0  0.81741462489E+03  0.86571303980E+02 -0.48397399412E+02  0.83749341546E+03  0.15294330000E+03 0.  0.
<mgrwt>
<rscale>  0 0.83609384E+03</rscale>
<asrwt>0</asrwt>
<pdfrwt beam="1">  1        1 0.96221358E-01 0.83609384E+03</pdfrwt>
<pdfrwt beam="2">  1       -1 0.18459291E+00 0.83609384E+03</pdfrwt>
<totfact> 0.63588996E+00</totfact>
</mgrwt>
</event>
<event>
 4    1  0.4964158E-009  0.4869469E+03  0.7818608E-02  0.1017243E+00
         -1   -1    0    0    0  501 -0.00000000000E+00  0.00000000000E+00  0.92381460435E+03  0.92381460436E+03  0.50400000000E-02 0.  1.
          1   -1    0    0  501    0  0.00000000000E+00 -0.00000000000E+00 -0.85313074867E+03  0.85313074868E+03  0.50400000000E-02 0. -1.
    8880022    1    1    2    0    0  0.95735990922E+02 -0.45228341253E+03  0.77823531880E+03  0.91802370866E+03  0.15294330000E+03 0.  0.
    8880022    1    1    2    0    0 -0.95735990922E+02  0.45228341253E+03 -0.70755146312E+03  0.85892164439E+03  0.15294330000E+03 0.  0.
<mgrwt>
<rscale>  0 0.48694694E+03</rscale>
<asrwt>0</asrwt>
<pdfrwt beam="1">  1        1 0.13125089E+00 0.48694694E+03</pdfrwt>
<pdfrwt beam="2">  1       -1 0.14212532E+00 0.48694694E+03</pdfrwt>
<totfact> 0.86665011E+00</totfact>
</mgrwt>
</event>
<event>
 4    1  0.4964158E-009  0.6952383E+03  0.7818608E-02  0.9725410E-01
          1   -1    0    0  501    0  0.00000000000E+00  0.00000000000E+00  0.11250205006E+04  0.11250205006E+04  0.50400000000E-02 0. -1.
         -1   -1    0    0    0  501 -0.00000000000E+00 -0.00000000000E+00 -0.45375416987E+03  0.45375416990E+03  0.50400000000E-02 0.  1.
    8880022    1    1    2    0    0 -0.57543688525E+03  0.35893874496E+03  0.51760164770E+03  0.86675703069E+03  0.15294330000E+03 0.  0.
    8880022    1    1    2    0    0  0.57543688525E+03 -0.35893874496E+03  0.15366468299E+03  0.71201763977E+03  0.15294330000E+03 0.  0.
<mgrwt>
<rscale>  0 0.69523829E+03</rscale>
<asrwt>0</asrwt>
<pdfrwt beam="1">  1        1 0.17308008E+00 0.69523829E+03</pdfrwt>
<pdfrwt beam="2">  1       -1 0.69808334E-01 0.69523829E+03</pdfrwt>
<totfact> 0.26096571E+01</totfact>
</mgrwt>
</event>
<event>
 4    1  0.4964158E-009  0.1090314E+04  0.7818608E-02  0.9214684E-01
         -1   -1    0    0    0  501 -0.00000000000E+00  0.00000000000E+00  0.57081673409E+03  0.57081673411E+03  0.50400000000E-02 0.  1.
          1   -1    0    0  501    0  0.00000000000E+00 -0.00000000000E+00 -0.25202487520E+04  0.25202487520E+04  0.50400000000E-02 0. -1.
    8880022    1    1    2    0    0 -0.10252707938E+04 -0.33795403988E+03 -0.16187632731E+04  0.19517118950E+04  0.15294330000E+03 0.  0.
    8880022    1    1    2    0    0  0.10252707938E+04  0.33795403988E+03 -0.33066874479E+03  0.11393535911E+04  0.15294330000E+03 0.  0.
<mgrwt>
<rscale>  0 0.10903141E+04</rscale>
<asrwt>0</asrwt>
<pdfrwt beam="1">  1        1 0.38773057E+00 0.10903141E+04</pdfrwt>
<pdfrwt beam="2">  1       -1 0.87817961E-01 0.10903141E+04</pdfrwt>
<totfact> 0.16820332E+00</totfact>
</mgrwt>
</event>
<event>
 4    1  0.4964158E-009  0.5518845E+03  0.7818608E-02  0.1001059E+00
          1   -1    0    0  501    0  0.00000000000E+00  0.00000000000E+00  0.12154813386E+04  0.12154813386E+04  0.50400000000E-02 0. -1.
         -1   -1    0    0    0  501 -0.00000000000E+00 -0.00000000000E+00 -0.88637155392E+03  0.88637155393E+03  0.50400000000E-02 0.  1.
    8880022    1    1    2    0    0 -0.37069302579E+03  0.37917216831E+03 -0.72550956408E+03  0.91155945125E+03  0.15294330000E+03 0.  0.
    8880022    1    1    2    0    0  0.37069302579E+03 -0.37917216831E+03  0.10546193487E+04  0.11902934413E+04  0.15294330000E+03 0.  0.
<mgrwt>
<rscale>  0 0.55188450E+03</rscale>
<asrwt>0</asrwt>
<pdfrwt beam="1">  1        1 0.18699713E+00 0.55188450E+03</pdfrwt>
<pdfrwt beam="2">  1       -1 0.13636485E+00 0.55188450E+03</pdfrwt>
<totfact> 0.50387039E+00</totfact>
</mgrwt>
</event>
<event>
 4    1  0.4964158E-009  0.1126047E+04  0.7818608E-02  0.9180171E-01
         -1   -1    0    0    0  501 -0.00000000000E+00  0.00000000000E+00  0.54448525833E+03  0.54448525835E+03  0.50400000000E-02 0.  1.
          1   -1    0    0  501    0  0.00000000000E+00 -0.00000000000E+00 -0.30377043424E+04  0.30377043424E+04  0.50400000000E-02 0. -1.
    8880022    1    1    2    0    0  0.23997597611E+03  0.10894956228E+04 -0.21118740430E+04  0.23933225457E+04  0.15294330000E+03 0.  0.
    8880022    1    1    2    0    0 -0.23997597611E+03 -0.10894956228E+04 -0.38134504109E+03  0.11888670551E+04  0.15294330000E+03 0.  0.
<mgrwt>
<rscale>  0 0.11260466E+04</rscale>
<asrwt>0</asrwt>
<pdfrwt beam="1">  1        1 0.46733912E+00 0.11260466E+04</pdfrwt>
<pdfrwt beam="2">  1       -1 0.83766965E-01 0.11260466E+04</pdfrwt>
<totfact> 0.79961526E-01</totfact>
</mgrwt>
</event>
<event>
 4    1  0.4964158E-009  0.5787804E+03  0.7818608E-02  0.9950435E-01
          1   -1    0    0  501    0  0.00000000000E+00  0.00000000000E+00  0.15367745931E+04  0.15367745931E+04  0.50400000000E-02 0. -1.
         -1   -1    0    0    0  501 -0.00000000000E+00 -0.00000000000E+00 -0.85563503033E+03  0.85563503035E+03  0.50400000000E-02 0.  1.
    8880022    1    1    2    0    0  0.73474744515E+02  0.55335033628E+03  0.13732218409E+04  0.14902097202E+04  0.15294330000E+03 0.  0.
    8880022    1    1    2    0    0 -0.73474744515E+02 -0.55335033628E+03 -0.69208227814E+03  0.90219990328E+03  0.15294330000E+03 0.  0.
<mgrwt>
<rscale>  0 0.57878043E+03</rscale>
<asrwt>0</asrwt>
<pdfrwt beam="1">  1        1 0.23642686E+00 0.57878043E+03</pdfrwt>
<pdfrwt beam="2">  1       -1 0.13163616E+00 0.57878043E+03</pdfrwt>
<totfact> 0.32797144E+00</totfact>
</mgrwt>
</event>
<event>
 4    1  0.4964158E-009  0.8127319E+03  0.7818608E-02  0.9541769E-01
          1   -1    0    0  501    0  0.00000000000E+00  0.00000000000E+00  0.32150185465E+04  0.32150185465E+04  0.50400000000E-02 0. -1.
         -1   -1    0    0    0  501 -0.00000000000E+00 -0.00000000000E+00 -0.11855086166E+04  0.11855086166E+04  0.50400000000E-02 0.  1.
    8880022    1    1    2    0    0  0.28014771447E+03  0.74743475598E+03 -0.98578788664E+03  0.12776192182E+04  0.15294330000E+03 0.  0.
    8880022    1    1    2    0    0 -0.28014771447E+03 -0.74743475598E+03  0.30152978165E+04  0.31229079448E+04  0.15294330000E+03 0.  0.
<mgrwt>
<rscale>  0 0.81273188E+03</rscale>
<asrwt>0</asrwt>
<pdfrwt beam="1">  1        1 0.49461823E+00 0.81273188E+03</pdfrwt>
<pdfrwt beam="2">  1       -1 0.18238594E+00 0.81273188E+03</pdfrwt>
<totfact> 0.89485945E-02</totfact>
</mgrwt>
</event>
<event>
 4    1  0.4964158E-009  0.1104890E+04  0.7818608E-02  0.9200439E-01
          1   -1    0    0  501    0  0.00000000000E+00  0.00000000000E+00  0.42438023752E+04  0.42438023752E+04  0.50400000000E-02 0. -1.
         -1   -1    0    0    0  501 -0.00000000000E+00 -0.00000000000E+00 -0.30244931722E+03  0.30244931726E+03  0.50400000000E-02 0.  1.
    8880022    1    1    2    0    0 -0.10327119930E+04  0.36179593008E+03  0.14680594177E+04  0.18373841358E+04  0.15294330000E+03 0.  0.
    8880022    1    1    2    0    0  0.10327119930E+04 -0.36179593008E+03  0.24732936403E+04  0.27088675567E+04  0.15294330000E+03 0.  0.
<mgrwt>
<rscale>  0 0.11048900E+04</rscale>
<asrwt>0</asrwt>
<pdfrwt beam="1">  1        1 0.65289260E+00 0.11048900E+04</pdfrwt>
<pdfrwt beam="2">  1       -1 0.46530669E-01 0.11048900E+04</pdfrwt>
<totfact> 0.27592763E-01</totfact>
</mgrwt>
</event>
<event>
 4    1  0.4964158E-009  0.1439130E+04  0.7818608E-02  0.8925971E-01
         -1   -1    0    0    0  501 -0.00000000000E+00  0.00000000000E+00  0.12858943657E+04  0.12858943657E+04  0.50400000000E-02 0.  1.
          1   -1    0    0  501    0  0.00000000000E+00 -0.00000000000E+00 -0.30055527969E+04  0.30055527969E+04  0.50400000000E-02 0. -1.
    8880022    1    1    2    0    0 -0.35868457968E+03 -0.13852971965E+04  0.60196869830E+03  0.15599554215E+04  0.15294330000E+03 0.  0.
    8880022    1    1    2    0    0  0.35868457968E+03  0.13852971965E+04 -0.23216271295E+04  0.27314917411E+04  0.15294330000E+03 0.  0.
<mgrwt>
<rscale>  0 0.14391298E+04</rscale>
<asrwt>0</asrwt>
<pdfrwt beam="1">  1        1 0.46239273E+00 0.14391298E+04</pdfrwt>
<pdfrwt beam="2">  1       -1 0.19782990E+00 0.14391298E+04</pdfrwt>
<totfact> 0.88182053E-02</totfact>
</mgrwt>
</event>
<event>
 4    1  0.4964158E-009  0.8744784E+03  0.7818608E-02  0.9458059E-01
          1   -1    0    0  501    0  0.00000000000E+00  0.00000000000E+00  0.12294698336E+04  0.12294698336E+04  0.50400000000E-02 0. -1.
         -1   -1    0    0    0  501 -0.00000000000E+00 -0.00000000000E+00 -0.99390365512E+03  0.99390365513E+03  0.50400000000E-02 0.  1.
    8880022    1    1    2    0    0  0.75918652816E+03  0.40614851881E+03 -0.56225611444E+03  0.10396366650E+04  0.15294330000E+03 0.  0.
    8880022    1    1    2    0    0 -0.75918652816E+03 -0.40614851881E+03  0.79782229288E+03  0.11837368238E+04  0.15294330000E+03 0.  0.
<mgrwt>
<rscale>  0 0.87447839E+03</rscale>
<asrwt>0</asrwt>
<pdfrwt beam="1">  1        1 0.18914920E+00 0.87447839E+03</pdfrwt>
<pdfrwt beam="2">  1       -1 0.15290826E+00 0.87447839E+03</pdfrwt>
<totfact> 0.34376022E+00</totfact>
</mgrwt>
</event>
<event>
 4    1  0.4964158E-009  0.1411824E+04  0.7818608E-02  0.8945304E-01
         -1   -1    0    0    0  501 -0.00000000000E+00  0.00000000000E+00  0.20445365986E+04  0.20445365986E+04  0.50400000000E-02 0.  1.
          1   -1    0    0  501    0  0.00000000000E+00 -0.00000000000E+00 -0.17244294582E+04  0.17244294582E+04  0.50400000000E-02 0. -1.
    8880022    1    1    2    0    0 -0.11482590151E+04  0.80706719881E+03 -0.10823415478E+04  0.17789634927E+04  0.15294330000E+03 0.  0.
    8880022    1    1    2    0    0  0.11482590151E+04 -0.80706719881E+03  0.14024486882E+04  0.19900025642E+04  0.15294330000E+03 0.  0.
<mgrwt>
<rscale>  0 0.14118243E+04</rscale>
<asrwt>0</asrwt>
<pdfrwt beam="1">  1        1 0.26529684E+00 0.14118243E+04</pdfrwt>
<pdfrwt beam="2">  1       -1 0.31454409E+00 0.14118243E+04</pdfrwt>
<totfact> 0.11641376E-01</totfact>
</mgrwt>
</event>
<event>
 4    1  0.4964158E-009  0.2688148E+03  0.7818608E-02  0.1101960E+00
          1   -1    0    0  501    0  0.00000000000E+00  0.00000000000E+00  0.14695690213E+04  0.14695690213E+04  0.50400000000E-02 0. -1.
         -1   -1    0    0    0  501 -0.00000000000E+00 -0.00000000000E+00 -0.59315711298E+02  0.59315711512E+02  0.50400000000E-02 0.  1.
    8880022    1    1    2    0    0  0.21920390246E+03 -0.28625018333E+02  0.10212539500E+04  0.10560402577E+04  0.15294330000E+03 0. -1.
    8880022    1    1    2    0    0 -0.21920390246E+03  0.28625018333E+02  0.38899935999E+03  0.47284447509E+03  0.15294330000E+03 0.  1.
<mgrwt>
<rscale>  0 0.26881480E+03</rscale>
<asrwt>0</asrwt>
<pdfrwt beam="1">  1        1 0.22608757E+00 0.26881480E+03</pdfrwt>
<pdfrwt beam="2">  1       -1 0.91254931E-02 0.26881480E+03</pdfrwt>
<totfact> 0.52810953E+02</totfact>
</mgrwt>
</event>
<event>
 4    1  0.4964158E-009  0.1472807E+04  0.7818608E-02  0.8902740E-01
          1   -1    0    0  501    0  0.00000000000E+00  0.00000000000E+00  0.25945051039E+04  0.25945051039E+04  0.50400000000E-02 0. -1.
         -1   -1    0    0    0  501 -0.00000000000E+00 -0.00000000000E+00 -0.12695914093E+04  0.12695914093E+04  0.50400000000E-02 0.  1.
    8880022    1    1    2    0    0 -0.14555180300E+04 -0.16503085830E+03  0.17914640749E+04  0.23191599998E+04  0.15294330000E+03 0.  0.
    8880022    1    1    2    0    0  0.14555180300E+04  0.16503085830E+03 -0.46655038035E+03  0.15449365134E+04  0.15294330000E+03 0.  0.
<mgrwt>
<rscale>  0 0.14728067E+04</rscale>
<asrwt>0</asrwt>
<pdfrwt beam="1">  1        1 0.39915463E+00 0.14728067E+04</pdfrwt>
<pdfrwt beam="2">  1       -1 0.19532176E+00 0.14728067E+04</pdfrwt>
<totfact> 0.17922990E-01</totfact>
</mgrwt>
</event>
<event>
 4    1  0.4964158E-009  0.6833004E+03  0.7818608E-02  0.9746225E-01
          1   -1    0    0  501    0  0.00000000000E+00  0.00000000000E+00  0.13706741968E+04  0.13706741968E+04  0.50400000000E-02 0. -1.
         -1   -1    0    0    0  501 -0.00000000000E+00 -0.00000000000E+00 -0.46089475651E+03  0.46089475654E+03  0.50400000000E-02 0.  1.
    8880022    1    1    2    0    0 -0.55467948452E+03  0.36856260611E+03 -0.12902347173E+02  0.68342215998E+03  0.15294330000E+03 0.  0.
    8880022    1    1    2    0    0  0.55467948452E+03 -0.36856260611E+03  0.92268178748E+03  0.11481467934E+04  0.15294330000E+03 0.  0.
<mgrwt>
<rscale>  0 0.68330036E+03</rscale>
<asrwt>0</asrwt>
<pdfrwt beam="1">  1        1 0.21087295E+00 0.68330036E+03</pdfrwt>
<pdfrwt beam="2">  1       -1 0.70906887E-01 0.68330036E+03</pdfrwt>
<totfact> 0.16897664E+01</totfact>
</mgrwt>
</event>
<event>
 4    1  0.4964158E-009  0.3512097E+03  0.7818608E-02  0.1062120E+00
          1   -1    0    0  501    0  0.00000000000E+00  0.00000000000E+00  0.69564767308E+03  0.69564767310E+03  0.50400000000E-02 0. -1.
         -1   -1    0    0    0  501 -0.00000000000E+00 -0.00000000000E+00 -0.25827175197E+03  0.25827175202E+03  0.50400000000E-02 0.  1.
    8880022    1    1    2    0    0 -0.23862880930E+03  0.20739557794E+03 -0.48349156349E+02  0.35452211259E+03  0.15294330000E+03 0.  0.
    8880022    1    1    2    0    0  0.23862880930E+03 -0.20739557794E+03  0.48572507746E+03  0.59939731253E+03  0.15294330000E+03 0.  0.
<mgrwt>
<rscale>  0 0.35120975E+03</rscale>
<asrwt>0</asrwt>
<pdfrwt beam="1">  1        1 0.10702272E+00 0.35120975E+03</pdfrwt>
<pdfrwt beam="2">  1       -1 0.39734116E-01 0.35120975E+03</pdfrwt>
<totfact> 0.17774892E+02</totfact>
</mgrwt>
</event>
<event>
 4    1  0.4964158E-009  0.1142739E+04  0.7818608E-02  0.9164509E-01
         -1   -1    0    0    0  501 -0.00000000000E+00  0.00000000000E+00  0.11642889477E+04  0.11642889478E+04  0.50400000000E-02 0.  1.
          1   -1    0    0  501    0  0.00000000000E+00 -0.00000000000E+00 -0.19697802185E+04  0.19697802185E+04  0.50400000000E-02 0. -1.
    8880022    1    1    2    0    0  0.10792172979E+04 -0.34314745030E+03  0.62554763447E+03  0.13027515668E+04  0.15294330000E+03 0.  0.
    8880022    1    1    2    0    0 -0.10792172979E+04  0.34314745030E+03 -0.14310389052E+04  0.18313175995E+04  0.15294330000E+03 0.  0.
<mgrwt>
<rscale>  0 0.11427387E+04</rscale>
<asrwt>0</asrwt>
<pdfrwt beam="1">  1        1 0.30304311E+00 0.11427387E+04</pdfrwt>
<pdfrwt beam="2">  1       -1 0.17912138E+00 0.11427387E+04</pdfrwt>
<totfact> 0.65282612E-01</totfact>
</mgrwt>
</event>
<event>
 4    1  0.4964158E-009  0.9247453E+03  0.7818608E-02  0.9395167E-01
         -1   -1    0    0    0  501 -0.00000000000E+00  0.00000000000E+00  0.12792366451E+04  0.12792366451E+04  0.50400000000E-02 0.  1.
          1   -1    0    0  501    0  0.00000000000E+00 -0.00000000000E+00 -0.25690524532E+04  0.25690524532E+04  0.50400000000E-02 0. -1.
    8880022    1    1    2    0    0  0.90121500656E+03 -0.13990598827E+03  0.10100713597E+04  0.13694517072E+04  0.15294330000E+03 0.  0.
    8880022    1    1    2    0    0 -0.90121500656E+03  0.13990598827E+03 -0.22998871678E+04  0.24788373910E+04  0.15294330000E+03 0. -1.
<mgrwt>
<rscale>  0 0.92474528E+03</rscale>
<asrwt>0</asrwt>
<pdfrwt beam="1">  1        1 0.39523884E+00 0.92474528E+03</pdfrwt>
<pdfrwt beam="2">  1       -1 0.19680564E+00 0.92474528E+03</pdfrwt>
<totfact> 0.19912702E-01</totfact>
</mgrwt>
</event>
<event>
 4    1  0.4964158E-009  0.7430386E+03  0.7818608E-02  0.9646335E-01
         -1   -1    0    0    0  501 -0.00000000000E+00  0.00000000000E+00  0.66838055501E+03  0.66838055503E+03  0.50400000000E-02 0.  1.
          1   -1    0    0  501    0  0.00000000000E+00 -0.00000000000E+00 -0.19380963862E+04  0.19380963862E+04  0.50400000000E-02 0. -1.
    8880022    1    1    2    0    0 -0.50812395054E+03  0.52012000464E+03  0.35233126006E+03  0.82234040286E+03  0.15294330000E+03 0.  0.
    8880022    1    1    2    0    0  0.50812395054E+03 -0.52012000464E+03 -0.16220470913E+04  0.17841365384E+04  0.15294330000E+03 0.  0.
<mgrwt>
<rscale>  0 0.74303864E+03</rscale>
<asrwt>0</asrwt>
<pdfrwt beam="1">  1        1 0.29816867E+00 0.74303864E+03</pdfrwt>
<pdfrwt beam="2">  1       -1 0.10282778E+00 0.74303864E+03</pdfrwt>
<totfact> 0.30883565E+00</totfact>
</mgrwt>
</event>
<event>
 4    1  0.4964158E-009  0.8182063E+03  0.7818608E-02  0.9534032E-01
         -1   -1    0    0    0  501 -0.00000000000E+00  0.00000000000E+00  0.19146229391E+04  0.19146229391E+04  0.50400000000E-02 0.  1.
          1   -1    0    0  501    0  0.00000000000E+00 -0.00000000000E+00 -0.18789565238E+04  0.18789565238E+04  0.50400000000E-02 0. -1.
    8880022    1    1    2    0    0 -0.80707484881E+02 -0.79972262237E+03  0.17290580555E+04  0.19128782981E+04  0.15294330000E+03 0.  0.
    8880022    1    1    2    0    0  0.80707484881E+02  0.79972262237E+03 -0.16933916403E+04  0.18807011648E+04  0.15294330000E+03 0.  0.
<mgrwt>
<rscale>  0 0.81820635E+03</rscale>
<asrwt>0</asrwt>
<pdfrwt beam="1">  1        1 0.28907024E+00 0.81820635E+03</pdfrwt>
<pdfrwt beam="2">  1       -1 0.29455737E+00 0.81820635E+03</pdfrwt>
<totfact> 0.13693250E-01</totfact>
</mgrwt>
</event>
<event>
 4    1  0.4964158E-009  0.4902096E+03  0.7818608E-02  0.1016366E+00
         -1   -1    0    0    0  501 -0.00000000000E+00  0.00000000000E+00  0.27334241304E+03  0.27334241308E+03  0.50400000000E-02 0.  1.
          1   -1    0    0  501    0  0.00000000000E+00 -0.00000000000E+00 -0.27732314894E+04  0.27732314894E+04  0.50400000000E-02 0. -1.
    8880022    1    1    2    0    0  0.30343883048E+03  0.35332512855E+03 -0.25088394641E+04  0.25562826291E+04  0.15294330000E+03 0.  0.
    8880022    1    1    2    0    0 -0.30343883048E+03 -0.35332512855E+03  0.89503877087E+01  0.49029127339E+03  0.15294330000E+03 0.  0.
<mgrwt>
<rscale>  0 0.49020957E+03</rscale>
<asrwt>0</asrwt>
<pdfrwt beam="1">  1        1 0.42665098E+00 0.49020957E+03</pdfrwt>
<pdfrwt beam="2">  1       -1 0.42052681E-01 0.49020957E+03</pdfrwt>
<totfact> 0.54560422E+00</totfact>
</mgrwt>
</event>
<event>
 4    1  0.4964158E-009  0.1305976E+04  0.7818608E-02  0.9024840E-01
          1   -1    0    0  501    0  0.00000000000E+00  0.00000000000E+00  0.29971408437E+04  0.29971408437E+04  0.50400000000E-02 0. -1.
         -1   -1    0    0    0  501 -0.00000000000E+00 -0.00000000000E+00 -0.70365721244E+03  0.70365721246E+03  0.50400000000E-02 0.  1.
    8880022    1    1    2    0    0 -0.11960088895E+04  0.50174093520E+03  0.33747425351E+03  0.13488742545E+04  0.15294330000E+03 0.  0.
    8880022    1    1    2    0    0  0.11960088895E+04 -0.50174093520E+03  0.19560093777E+04  0.23519238016E+04  0.15294330000E+03 0.  0.
<mgrwt>
<rscale>  0 0.13059758E+04</rscale>
<asrwt>0</asrwt>
<pdfrwt beam="1">  1        1 0.46109859E+00 0.13059758E+04</pdfrwt>
<pdfrwt beam="2">  1       -1 0.10825496E+00 0.13059758E+04</pdfrwt>
<totfact> 0.46691173E-01</totfact>
</mgrwt>
</event>
<event>
 4    1  0.4964158E-009  0.7367730E+03  0.7818608E-02  0.9656333E-01
         -1   -1    0    0    0  501 -0.00000000000E+00  0.00000000000E+00  0.49176488427E+03  0.49176488429E+03  0.50400000000E-02 0.  1.
          1   -1    0    0  501    0  0.00000000000E+00 -0.00000000000E+00 -0.21199140038E+04  0.21199140038E+04  0.50400000000E-02 0. -1.
    8880022    1    1    2    0    0 -0.56396107130E+03 -0.44876573922E+03  0.89973037493E+02  0.74224630624E+03  0.15294330000E+03 0.  0.
    8880022    1    1    2    0    0  0.56396107130E+03  0.44876573922E+03 -0.17181221570E+04  0.18694325818E+04  0.15294330000E+03 0.  0.
<mgrwt>
<rscale>  0 0.73677299E+03</rscale>
<asrwt>0</asrwt>
<pdfrwt beam="1">  1        1 0.32614061E+00 0.73677299E+03</pdfrwt>
<pdfrwt beam="2">  1       -1 0.75656137E-01 0.73677299E+03</pdfrwt>
<totfact> 0.45747736E+00</totfact>
</mgrwt>
</event>
<event>
 4    1  0.4964158E-009  0.3066794E+03  0.7818608E-02  0.1081949E+00
         -1   -1    0    0    0  501 -0.00000000000E+00  0.00000000000E+00  0.14513502025E+03  0.14513502034E+03  0.50400000000E-02 0.  1.
          1   -1    0    0  501    0  0.00000000000E+00 -0.00000000000E+00 -0.29430695272E+04  0.29430695272E+04  0.50400000000E-02 0. -1.
    8880022    1    1    2    0    0 -0.25053427411E+03 -0.88843455791E+02 -0.35418616924E+02  0.30871785433E+03  0.15294330000E+03 0.  0.
    8880022    1    1    2    0    0  0.25053427411E+03  0.88843455791E+02 -0.27625158900E+04  0.27794866932E+04  0.15294330000E+03 0.  0.
<mgrwt>
<rscale>  0 0.30667937E+03</rscale>
<asrwt>0</asrwt>
<pdfrwt beam="1">  1        1 0.45277988E+00 0.30667937E+03</pdfrwt>
<pdfrwt beam="2">  1       -1 0.22328467E-01 0.30667937E+03</pdfrwt>
<totfact> 0.13237712E+01</totfact>
</mgrwt>
</event>
<event>
 4    1  0.4964158E-009  0.6805616E+03  0.7818608E-02  0.9751064E-01
         -1   -1    0    0    0  501 -0.00000000000E+00  0.00000000000E+00  0.23247889082E+03  0.23247889087E+03  0.50400000000E-02 0.  1.
          1   -1    0    0  501    0  0.00000000000E+00 -0.00000000000E+00 -0.21821774860E+04  0.21821774861E+04  0.50400000000E-02 0. -1.
    8880022    1    1    2    0    0  0.36670234769E+03  0.55254119293E+03 -0.13310010152E+04  0.14949005777E+04  0.15294330000E+03 0.  0.
    8880022    1    1    2    0    0 -0.36670234769E+03 -0.55254119293E+03 -0.61869758002E+03  0.91975579923E+03  0.15294330000E+03 0.  0.
<mgrwt>
<rscale>  0 0.68056156E+03</rscale>
<asrwt>0</asrwt>
<pdfrwt beam="1">  1        1 0.33571960E+00 0.68056156E+03</pdfrwt>
<pdfrwt beam="2">  1       -1 0.35765985E-01 0.68056156E+03</pdfrwt>
<totfact> 0.17649754E+01</totfact>
</mgrwt>
</event>
<event>
 4    1  0.4964158E-009  0.1054258E+04  0.7818608E-02  0.9250959E-01
          1   -1    0    0  501    0  0.00000000000E+00  0.00000000000E+00  0.36261867112E+04  0.36261867112E+04  0.50400000000E-02 0. -1.
         -1   -1    0    0    0  501 -0.00000000000E+00 -0.00000000000E+00 -0.42056780128E+03  0.42056780131E+03  0.50400000000E-02 0.  1.
    8880022    1    1    2    0    0 -0.38267456654E+01 -0.10430984824E+04  0.54909662184E+03  0.11886832384E+04  0.15294330000E+03 0.  0.
    8880022    1    1    2    0    0  0.38267456654E+01  0.10430984824E+04  0.26565222881E+04  0.28580712742E+04  0.15294330000E+03 0.  0.
<mgrwt>
<rscale>  0 0.10542584E+04</rscale>
<asrwt>0</asrwt>
<pdfrwt beam="1">  1        1 0.55787490E+00 0.10542584E+04</pdfrwt>
<pdfrwt beam="2">  1       -1 0.64702737E-01 0.10542584E+04</pdfrwt>
<totfact> 0.49592727E-01</totfact>
</mgrwt>
</event>
<event>
 4    1  0.4964158E-009  0.1168681E+04  0.7818608E-02  0.9140721E-01
         -1   -1    0    0    0  501 -0.00000000000E+00  0.00000000000E+00  0.73664355732E+03  0.73664355734E+03  0.50400000000E-02 0.  1.
          1   -1    0    0  501    0  0.00000000000E+00 -0.00000000000E+00 -0.30101695788E+04  0.30101695788E+04  0.50400000000E-02 0. -1.
    8880022    1    1    2    0    0  0.10512745636E+04 -0.48707768235E+03  0.24224633790E+02  0.11689317185E+04  0.15294330000E+03 0.  0.
    8880022    1    1    2    0    0 -0.10512745636E+04  0.48707768235E+03 -0.22977506553E+04  0.25778814176E+04  0.15294330000E+03 0.  0.
<mgrwt>
<rscale>  0 0.11686807E+04</rscale>
<asrwt>0</asrwt>
<pdfrwt beam="1">  1        1 0.46310301E+00 0.11686807E+04</pdfrwt>
<pdfrwt beam="2">  1       -1 0.11332978E+00 0.11686807E+04</pdfrwt>
<totfact> 0.41768864E-01</totfact>
</mgrwt>
</event>
<event>
 4    1  0.4964158E-009  0.1073406E+04  0.7818608E-02  0.9231507E-01
         -1   -1    0    0    0  501 -0.00000000000E+00  0.00000000000E+00  0.12306080691E+04  0.12306080692E+04  0.50400000000E-02 0.  1.
          1   -1    0    0  501    0  0.00000000000E+00 -0.00000000000E+00 -0.20732476497E+04  0.20732476497E+04  0.50400000000E-02 0. -1.
    8880022    1    1    2    0    0  0.80661902584E+03 -0.69150211326E+03  0.80199548584E+03  0.13399245642E+04  0.15294330000E+03 0.  0.
    8880022    1    1    2    0    0 -0.80661902584E+03  0.69150211326E+03 -0.16446350664E+04  0.19639311546E+04  0.15294330000E+03 0.  0.
<mgrwt>
<rscale>  0 0.10734063E+04</rscale>
<asrwt>0</asrwt>
<pdfrwt beam="1">  1        1 0.31896118E+00 0.10734063E+04</pdfrwt>
<pdfrwt beam="2">  1       -1 0.18932432E+00 0.10734063E+04</pdfrwt>
<totfact> 0.47518321E-01</totfact>
</mgrwt>
</event>
<event>
 4    1  0.4964158E-009  0.6861339E+03  0.7818608E-02  0.9741243E-01
         -1   -1    0    0    0  501 -0.00000000000E+00  0.00000000000E+00  0.46119581828E+03  0.46119581831E+03  0.50400000000E-02 0.  1.
          1   -1    0    0  501    0  0.00000000000E+00 -0.00000000000E+00 -0.18348243777E+04  0.18348243777E+04  0.50400000000E-02 0. -1.
    8880022    1    1    2    0    0  0.27041032715E+03  0.61177307787E+03 -0.14514813098E+04  0.16054836310E+04  0.15294330000E+03 0.  0.
    8880022    1    1    2    0    0 -0.27041032715E+03 -0.61177307787E+03  0.77852750369E+02  0.69053656499E+03  0.15294330000E+03 0.  0.
<mgrwt>
<rscale>  0 0.68613388E+03</rscale>
<asrwt>0</asrwt>
<pdfrwt beam="1">  1        1 0.28228067E+00 0.68613388E+03</pdfrwt>
<pdfrwt beam="2">  1       -1 0.70953204E-01 0.68613388E+03</pdfrwt>
<totfact> 0.81731581E+00</totfact>
</mgrwt>
</event>
<event>
 4    1  0.4964158E-009  0.9712841E+03  0.7818608E-02  0.9340613E-01
          1   -1    0    0  501    0  0.00000000000E+00  0.00000000000E+00  0.17586541090E+04  0.17586541090E+04  0.50400000000E-02 0. -1.
         -1   -1    0    0    0  501 -0.00000000000E+00 -0.00000000000E+00 -0.89250130273E+03  0.89250130274E+03  0.50400000000E-02 0.  1.
    8880022    1    1    2    0    0  0.92838342104E+03  0.24105062056E+03  0.12703549037E+04  0.15991230136E+04  0.15294330000E+03 0.  0.
    8880022    1    1    2    0    0 -0.92838342104E+03 -0.24105062056E+03 -0.40420209748E+03  0.10520323981E+04  0.15294330000E+03 0.  0.
<mgrwt>
<rscale>  0 0.97128411E+03</rscale>
<asrwt>0</asrwt>
<pdfrwt beam="1">  1        1 0.27056217E+00 0.97128411E+03</pdfrwt>
<pdfrwt beam="2">  1       -1 0.13730789E+00 0.97128411E+03</pdfrwt>
<totfact> 0.19400407E+00</totfact>
</mgrwt>
</event>
<event>
 4    1  0.4964158E-009  0.6596823E+03  0.7818608E-02  0.9788779E-01
          1   -1    0    0  501    0  0.00000000000E+00  0.00000000000E+00  0.12437139658E+04  0.12437139658E+04  0.50400000000E-02 0. -1.
         -1   -1    0    0    0  501 -0.00000000000E+00 -0.00000000000E+00 -0.47726826241E+03  0.47726826244E+03  0.50400000000E-02 0.  1.
    8880022    1    1    2    0    0  0.73825164689E+02 -0.63744717015E+03  0.82774009789E+03  0.10584584887E+04  0.15294330000E+03 0.  0.
    8880022    1    1    2    0    0 -0.73825164689E+02  0.63744717015E+03 -0.61294394465E+02  0.66252373956E+03  0.15294330000E+03 0.  0.
<mgrwt>
<rscale>  0 0.65968227E+03</rscale>
<asrwt>0</asrwt>
<pdfrwt beam="1">  1        1 0.19134061E+00 0.65968227E+03</pdfrwt>
<pdfrwt beam="2">  1       -1 0.73425887E-01 0.65968227E+03</pdfrwt>
<totfact> 0.19387479E+01</totfact>
</mgrwt>
</event>
<event>
 4    1  0.4964158E-009  0.2443476E+03  0.7818608E-02  0.1116930E+00
         -1   -1    0    0    0  501 -0.00000000000E+00  0.00000000000E+00  0.16571342884E+03  0.16571342891E+03  0.50400000000E-02 0.  1.
          1   -1    0    0  501    0  0.00000000000E+00 -0.00000000000E+00 -0.60728788345E+03  0.60728788347E+03  0.50400000000E-02 0. -1.
    8880022    1    1    2    0    0 -0.46537706109E+02 -0.18479269343E+03  0.25700320519E+02  0.24569545605E+03  0.15294330000E+03 0.  1.
    8880022    1    1    2    0    0  0.46537706109E+02  0.18479269343E+03 -0.46727477513E+03  0.52730585633E+03  0.15294330000E+03 0.  0.
<mgrwt>
<rscale>  0 0.24434760E+03</rscale>
<asrwt>0</asrwt>
<pdfrwt beam="1">  1        1 0.93428904E-01 0.24434760E+03</pdfrwt>
<pdfrwt beam="2">  1       -1 0.25494374E-01 0.24434760E+03</pdfrwt>
<totfact> 0.46947470E+02</totfact>
</mgrwt>
</event>
<event>
 4    1  0.4964158E-009  0.5787965E+03  0.7818608E-02  0.9950400E-01
         -1   -1    0    0    0  501 -0.00000000000E+00  0.00000000000E+00  0.26629726399E+03  0.26629726404E+03  0.50400000000E-02 0.  1.
          1   -1    0    0  501    0  0.00000000000E+00 -0.00000000000E+00 -0.23992595643E+04  0.23992595643E+04  0.50400000000E-02 0. -1.
    8880022    1    1    2    0    0  0.55801800401E+03 -0.15153504392E+02 -0.14728307355E+03  0.59724172515E+03  0.15294330000E+03 0.  0.
    8880022    1    1    2    0    0 -0.55801800401E+03  0.15153504392E+02 -0.19856792268E+04  0.20683151032E+04  0.15294330000E+03 0.  0.
<mgrwt>
<rscale>  0 0.57879649E+03</rscale>
<asrwt>0</asrwt>
<pdfrwt beam="1">  1        1 0.36911684E+00 0.57879649E+03</pdfrwt>
<pdfrwt beam="2">  1       -1 0.40968812E-01 0.57879649E+03</pdfrwt>
<totfact> 0.10071119E+01</totfact>
</mgrwt>
</event>
<event>
 4    1  0.4964158E-009  0.7131299E+03  0.7818608E-02  0.9695038E-01
         -1   -1    0    0    0  501 -0.00000000000E+00  0.00000000000E+00  0.74874343062E+03  0.74874343064E+03  0.50400000000E-02 0.  1.
          1   -1    0    0  501    0  0.00000000000E+00 -0.00000000000E+00 -0.99799898908E+03  0.99799898909E+03  0.50400000000E-02 0. -1.
    8880022    1    1    2    0    0 -0.66645455853E+03  0.20248696131E+03 -0.61823923065E+03  0.94380826835E+03  0.15294330000E+03 0.  0.
    8880022    1    1    2    0    0  0.66645455853E+03 -0.20248696131E+03  0.36898367219E+03  0.80293415138E+03  0.15294330000E+03 0.  0.
<mgrwt>
<rscale>  0 0.71312993E+03</rscale>
<asrwt>0</asrwt>
<pdfrwt beam="1">  1        1 0.15353831E+00 0.71312993E+03</pdfrwt>
<pdfrwt beam="2">  1       -1 0.11519130E+00 0.71312993E+03</pdfrwt>
<totfact> 0.10771690E+01</totfact>
</mgrwt>
</event>
<event>
 4    1  0.4964158E-009  0.1208592E+04  0.7818608E-02  0.9105369E-01
          1   -1    0    0  501    0  0.00000000000E+00  0.00000000000E+00  0.29079837114E+04  0.29079837114E+04  0.50400000000E-02 0. -1.
         -1   -1    0    0    0  501 -0.00000000000E+00 -0.00000000000E+00 -0.75697525716E+03  0.75697525718E+03  0.50400000000E-02 0.  1.
    8880022    1    1    2    0    0 -0.71769708873E+03 -0.96032000955E+03  0.12616877789E+02  0.12086581281E+04  0.15294330000E+03 0.  0.
    8880022    1    1    2    0    0  0.71769708873E+03  0.96032000955E+03  0.21383915765E+04  0.24563008405E+04  0.15294330000E+03 0.  0.
<mgrwt>
<rscale>  0 0.12085923E+04</rscale>
<asrwt>0</asrwt>
<pdfrwt beam="1">  1        1 0.44738211E+00 0.12085923E+04</pdfrwt>
<pdfrwt beam="2">  1       -1 0.11645773E+00 0.12085923E+04</pdfrwt>
<totfact> 0.46068720E-01</totfact>
</mgrwt>
</event>
<event>
 4    1  0.4964158E-009  0.4435970E+03  0.7818608E-02  0.1029649E+00
         -1   -1    0    0    0  501 -0.00000000000E+00  0.00000000000E+00  0.14445610268E+04  0.14445610268E+04  0.50400000000E-02 0.  1.
          1   -1    0    0  501    0  0.00000000000E+00 -0.00000000000E+00 -0.21421237490E+04  0.21421237490E+04  0.50400000000E-02 0. -1.
    8880022    1    1    2    0    0  0.10415845250E+02  0.41626689264E+03 -0.20841668766E+04  0.21308519044E+04  0.15294330000E+03 0.  0.
    8880022    1    1    2    0    0 -0.10415845250E+02 -0.41626689264E+03  0.13866041543E+04  0.14558328715E+04  0.15294330000E+03 0.  1.
<mgrwt>
<rscale>  0 0.44359697E+03</rscale>
<asrwt>0</asrwt>
<pdfrwt beam="1">  1        1 0.32955750E+00 0.44359697E+03</pdfrwt>
<pdfrwt beam="2">  1       -1 0.22224016E+00 0.44359697E+03</pdfrwt>
<totfact> 0.30088689E-01</totfact>
</mgrwt>
</event>
<event>
 4    1  0.4964158E-009  0.3577608E+03  0.7818608E-02  0.1059474E+00
          1   -1    0    0  501    0  0.00000000000E+00  0.00000000000E+00  0.47775254329E+03  0.47775254331E+03  0.50400000000E-02 0. -1.
         -1   -1    0    0    0  501 -0.00000000000E+00 -0.00000000000E+00 -0.11123197080E+04  0.11123197080E+04  0.50400000000E-02 0.  1.
    8880022    1    1    2    0    0 -0.14589346565E+03 -0.28864547873E+03  0.37542359363E+03  0.51859005330E+03  0.15294330000E+03 0.  0.
    8880022    1    1    2    0    0  0.14589346565E+03  0.28864547873E+03 -0.10099907584E+04  0.10714821980E+04  0.15294330000E+03 0.  0.
<mgrwt>
<rscale>  0 0.35776077E+03</rscale>
<asrwt>0</asrwt>
<pdfrwt beam="1">  1        1 0.73500392E-01 0.35776077E+03</pdfrwt>
<pdfrwt beam="2">  1       -1 0.17112611E+00 0.35776077E+03</pdfrwt>
<totfact> 0.12547325E+01</totfact>
</mgrwt>
</event>
<event>
 4    1  0.4964158E-009  0.2193341E+03  0.7818608E-02  0.1134380E+00
          1   -1    0    0  501    0  0.00000000000E+00  0.00000000000E+00  0.20169008031E+04  0.20169008031E+04  0.50400000000E-02 0. -1.
         -1   -1    0    0    0  501 -0.00000000000E+00 -0.00000000000E+00 -0.47582554216E+02  0.47582554483E+02  0.50400000000E-02 0.  1.
    8880022    1    1    2    0    0  0.10872405280E+03  0.11355564005E+03  0.25568867713E+03  0.33687409469E+03  0.15294330000E+03 0.  0.
    8880022    1    1    2    0    0 -0.10872405280E+03 -0.11355564005E+03  0.17136295718E+04  0.17276092629E+04  0.15294330000E+03 0. -1.
<mgrwt>
<rscale>  0 0.21933412E+03</rscale>
<asrwt>0</asrwt>
<pdfrwt beam="1">  1        1 0.31029235E+00 0.21933412E+03</pdfrwt>
<pdfrwt beam="2">  1       -1 0.73203948E-02 0.21933412E+03</pdfrwt>
<totfact> 0.32826576E+02</totfact>
</mgrwt>
</event>
<event>
 4    1  0.4964158E-009  0.1276931E+04  0.7818608E-02  0.9048062E-01
          1   -1    0    0  501    0  0.00000000000E+00  0.00000000000E+00  0.28898831584E+04  0.28898831584E+04  0.50400000000E-02 0. -1.
         -1   -1    0    0    0  501 -0.00000000000E+00 -0.00000000000E+00 -0.72487621962E+03  0.72487621964E+03  0.50400000000E-02 0.  1.
    8880022    1    1    2    0    0  0.10749575037E+04 -0.67203147599E+03  0.19333595083E+04  0.23169873933E+04  0.15294330000E+03 0.  0.
    8880022    1    1    2    0    0 -0.10749575037E+04  0.67203147599E+03  0.23164743052E+03  0.12977719848E+04  0.15294330000E+03 0.  0.
<mgrwt>
<rscale>  0 0.12769305E+04</rscale>
<asrwt>0</asrwt>
<pdfrwt beam="1">  1        1 0.44459741E+00 0.12769305E+04</pdfrwt>
<pdfrwt beam="2">  1       -1 0.11151942E+00 0.12769305E+04</pdfrwt>
<totfact> 0.52177617E-01</totfact>
</mgrwt>
</event>
<event>
 4    1  0.4964158E-009  0.1282503E+04  0.7818608E-02  0.9043556E-01
          1   -1    0    0  501    0  0.00000000000E+00  0.00000000000E+00  0.11586210484E+04  0.11586210484E+04  0.50400000000E-02 0. -1.
         -1   -1    0    0    0  501 -0.00000000000E+00 -0.00000000000E+00 -0.25618409529E+04  0.25618409529E+04  0.50400000000E-02 0.  1.
    8880022    1    1    2    0    0 -0.75397152419E+03  0.10261337642E+04  0.54051024943E+03  0.13917494545E+04  0.15294330000E+03 0.  0.
    8880022    1    1    2    0    0  0.75397152419E+03 -0.10261337642E+04 -0.19437301540E+04  0.23287125468E+04  0.15294330000E+03 0.  0.
<mgrwt>
<rscale>  0 0.12825035E+04</rscale>
<asrwt>0</asrwt>
<pdfrwt beam="1">  1        1 0.17824939E+00 0.12825035E+04</pdfrwt>
<pdfrwt beam="2">  1       -1 0.39412938E+00 0.12825035E+04</pdfrwt>
<totfact> 0.88001930E-02</totfact>
</mgrwt>
</event>
<event>
 4    1  0.4964158E-009  0.7636123E+03  0.7818608E-02  0.9614234E-01
          1   -1    0    0  501    0  0.00000000000E+00  0.00000000000E+00  0.10063586168E+04  0.10063586168E+04  0.50400000000E-02 0. -1.
         -1   -1    0    0    0  501 -0.00000000000E+00 -0.00000000000E+00 -0.72056234637E+03  0.72056234639E+03  0.50400000000E-02 0.  1.
    8880022    1    1    2    0    0  0.35945112325E+03  0.65613034986E+03 -0.23925385975E+03  0.80021635102E+03  0.15294330000E+03 0.  0.
    8880022    1    1    2    0    0 -0.35945112325E+03 -0.65613034986E+03  0.52505013017E+03  0.92670461217E+03  0.15294330000E+03 0.  0.
<mgrwt>
<rscale>  0 0.76361234E+03</rscale>
<asrwt>0</asrwt>
<pdfrwt beam="1">  1        1 0.15482440E+00 0.76361234E+03</pdfrwt>
<pdfrwt beam="2">  1       -1 0.11085575E+00 0.76361234E+03</pdfrwt>
<totfact> 0.11545414E+01</totfact>
</mgrwt>
</event>
<event>
 4    1  0.4964158E-009  0.9463461E+03  0.7818608E-02  0.9369432E-01
         -1   -1    0    0    0  501 -0.00000000000E+00  0.00000000000E+00  0.12088981529E+04  0.12088981530E+04  0.50400000000E-02 0.  1.
          1   -1    0    0  501    0  0.00000000000E+00 -0.00000000000E+00 -0.84278599437E+03  0.84278599439E+03  0.50400000000E-02 0. -1.
    8880022    1    1    2    0    0 -0.80674606631E+03  0.47046783158E+03 -0.17377155574E+03  0.96216807401E+03  0.15294330000E+03 0.  0.
    8880022    1    1    2    0    0  0.80674606631E+03 -0.47046783158E+03  0.53988371431E+03  0.10895160733E+04  0.15294330000E+03 0.  0.
<mgrwt>
<rscale>  0 0.94634605E+03</rscale>
<asrwt>0</asrwt>
<pdfrwt beam="1">  1        1 0.12965938E+00 0.94634605E+03</pdfrwt>
<pdfrwt beam="2">  1       -1 0.18598433E+00 0.94634605E+03</pdfrwt>
<totfact> 0.38687000E+00</totfact>
</mgrwt>
</event>
<event>
 4    1  0.4964158E-009  0.1660435E+03  0.7818608E-02  0.1182038E+00
          1   -1    0    0  501    0  0.00000000000E+00  0.00000000000E+00  0.52661602636E+03  0.52661602638E+03  0.50400000000E-02 0. -1.
         -1   -1    0    0    0  501 -0.00000000000E+00 -0.00000000000E+00 -0.14178030284E+03  0.14178030293E+03  0.50400000000E-02 0.  1.
    8880022    1    1    2    0    0  0.59588414123E+02 -0.25059896269E+02 -0.72999216271E+02  0.18138168620E+03  0.15294330000E+03 0.  0.
    8880022    1    1    2    0    0 -0.59588414123E+02  0.25059896269E+02  0.45783493979E+03  0.48701464311E+03  0.15294330000E+03 0. -1.
<mgrwt>
<rscale>  0 0.16604346E+03</rscale>
<asrwt>0</asrwt>
<pdfrwt beam="1">  1        1 0.81017850E-01 0.16604346E+03</pdfrwt>
<pdfrwt beam="2">  1       -1 0.21812354E-01 0.16604346E+03</pdfrwt>
<totfact> 0.73938159E+02</totfact>
</mgrwt>
</event>
<event>
 4    1  0.4964158E-009  0.3506175E+03  0.7818608E-02  0.1062362E+00
         -1   -1    0    0    0  501 -0.00000000000E+00  0.00000000000E+00  0.75079599574E+02  0.75079599743E+02  0.50400000000E-02 0.  1.
          1   -1    0    0  501    0  0.00000000000E+00 -0.00000000000E+00 -0.21064418803E+04  0.21064418803E+04  0.50400000000E-02 0. -1.
    8880022    1    1    2    0    0  0.31493150009E+03 -0.18950758625E+02 -0.15304084750E+04  0.15700581946E+04  0.15294330000E+03 0.  0.
    8880022    1    1    2    0    0 -0.31493150009E+03  0.18950758625E+02 -0.50095380577E+03  0.61146328551E+03  0.15294330000E+03 0.  0.
<mgrwt>
<rscale>  0 0.35061750E+03</rscale>
<asrwt>0</asrwt>
<pdfrwt beam="1">  1        1 0.32406794E+00 0.35061750E+03</pdfrwt>
<pdfrwt beam="2">  1       -1 0.11550709E-01 0.35061750E+03</pdfrwt>
<totfact> 0.13784467E+02</totfact>
</mgrwt>
</event>
<event>
 4    1  0.4964158E-009  0.2622876E+03  0.7818608E-02  0.1105777E+00
         -1   -1    0    0    0  501 -0.00000000000E+00  0.00000000000E+00  0.55254743972E+02  0.55254744202E+02  0.50400000000E-02 0.  1.
          1   -1    0    0  501    0  0.00000000000E+00 -0.00000000000E+00 -0.14395105474E+04  0.14395105474E+04  0.50400000000E-02 0. -1.
    8880022    1    1    2    0    0 -0.20034998127E+03 -0.72546639856E+02 -0.96682501001E+03  0.10017711230E+04  0.15294330000E+03 0.  1.
    8880022    1    1    2    0    0  0.20034998127E+03  0.72546639856E+02 -0.41743079345E+03  0.49299416861E+03  0.15294330000E+03 0.  0.
<mgrwt>
<rscale>  0 0.26228760E+03</rscale>
<asrwt>0</asrwt>
<pdfrwt beam="1">  1        1 0.22146313E+00 0.26228760E+03</pdfrwt>
<pdfrwt beam="2">  1       -1 0.85007310E-02 0.26228760E+03</pdfrwt>
<totfact> 0.61738075E+02</totfact>
</mgrwt>
</event>
<event>
 4    1  0.4964158E-009  0.1639435E+04  0.7818608E-02  0.8796681E-01
          1   -1    0    0  501    0  0.00000000000E+00  0.00000000000E+00  0.28550185153E+04  0.28550185153E+04  0.50400000000E-02 0. -1.
         -1   -1    0    0    0  501 -0.00000000000E+00 -0.00000000000E+00 -0.11763094107E+04  0.11763094108E+04  0.50400000000E-02 0.  1.
    8880022    1    1    2    0    0 -0.59885047807E+03  0.15184641889E+04 -0.61380356405E+02  0.16405836124E+04  0.15294330000E+03 0.  0.
    8880022    1    1    2    0    0  0.59885047807E+03 -0.15184641889E+04  0.17400894610E+04  0.23907443137E+04  0.15294330000E+03 0.  0.
<mgrwt>
<rscale>  0 0.16394350E+04</rscale>
<asrwt>0</asrwt>
<pdfrwt beam="1">  1        1 0.43923362E+00 0.16394350E+04</pdfrwt>
<pdfrwt beam="2">  1       -1 0.18097068E+00 0.16394350E+04</pdfrwt>
<totfact> 0.14534249E-01</totfact>
</mgrwt>
</event>
<event>
 4    1  0.4964158E-009  0.2713613E+03  0.7818608E-02  0.1100503E+00
         -1   -1    0    0    0  501 -0.00000000000E+00  0.00000000000E+00  0.67181511491E+02  0.67181511680E+02  0.50400000000E-02 0.  1.
          1   -1    0    0  501    0  0.00000000000E+00 -0.00000000000E+00 -0.26736567298E+04  0.26736567298E+04  0.50400000000E-02 0. -1.
    8880022    1    1    2    0    0 -0.20336599617E+03  0.94273944360E+02 -0.25056213082E+03  0.36934853377E+03  0.15294330000E+03 0.  0.
    8880022    1    1    2    0    0  0.20336599617E+03 -0.94273944360E+02 -0.23559130875E+04  0.23714897077E+04  0.15294330000E+03 0.  0.
<mgrwt>
<rscale>  0 0.27136131E+03</rscale>
<asrwt>0</asrwt>
<pdfrwt beam="1">  1        1 0.41133172E+00 0.27136131E+03</pdfrwt>
<pdfrwt beam="2">  1       -1 0.10335619E-01 0.27136131E+03</pdfrwt>
<totfact> 0.70386009E+01</totfact>
</mgrwt>
</event>
<event>
 4    1  0.4964158E-009  0.6153709E+03  0.7818608E-02  0.9874020E-01
         -1   -1    0    0    0  501 -0.00000000000E+00  0.00000000000E+00  0.44318408019E+03  0.44318408022E+03  0.50400000000E-02 0.  1.
          1   -1    0    0  501    0  0.00000000000E+00 -0.00000000000E+00 -0.18732310109E+04  0.18732310109E+04  0.50400000000E-02 0. -1.
    8880022    1    1    2    0    0 -0.45102005469E+03 -0.38970576240E+03 -0.15691650162E+04  0.16855148092E+04  0.15294330000E+03 0.  0.
    8880022    1    1    2    0    0  0.45102005469E+03  0.38970576240E+03  0.13911808551E+03  0.63090028191E+03  0.15294330000E+03 0.  0.
<mgrwt>
<rscale>  0 0.61537088E+03</rscale>
<asrwt>0</asrwt>
<pdfrwt beam="1">  1        1 0.28818938E+00 0.61537088E+03</pdfrwt>
<pdfrwt beam="2">  1       -1 0.68182167E-01 0.61537088E+03</pdfrwt>
<totfact> 0.84678468E+00</totfact>
</mgrwt>
</event>
<event>
 4    1  0.4964158E-009  0.1794596E+04  0.7818608E-02  0.8709178E-01
         -1   -1    0    0    0  501 -0.00000000000E+00  0.00000000000E+00  0.14431005892E+04  0.14431005892E+04  0.50400000000E-02 0.  1.
          1   -1    0    0  501    0  0.00000000000E+00 -0.00000000000E+00 -0.36005160884E+04  0.36005160884E+04  0.50400000000E-02 0. -1.
    8880022    1    1    2    0    0 -0.17880318139E+04 -0.11251318383E+02 -0.26336036647E+04  0.31869176763E+04  0.15294330000E+03 0.  0.
    8880022    1    1    2    0    0  0.17880318139E+04  0.11251318383E+02  0.47618816556E+03  0.18566990013E+04  0.15294330000E+03 0.  0.
<mgrwt>
<rscale>  0 0.17945963E+04</rscale>
<asrwt>0</asrwt>
<pdfrwt beam="1">  1        1 0.55392555E+00 0.17945963E+04</pdfrwt>
<pdfrwt beam="2">  1       -1 0.22201548E+00 0.17945963E+04</pdfrwt>
<totfact> 0.20258195E-02</totfact>
</mgrwt>
</event>
<event>
 4    1  0.4964158E-009  0.2703951E+03  0.7818608E-02  0.1101054E+00
         -1   -1    0    0    0  501 -0.00000000000E+00  0.00000000000E+00  0.35627376374E+03  0.35627376378E+03  0.50400000000E-02 0.  1.
          1   -1    0    0  501    0  0.00000000000E+00 -0.00000000000E+00 -0.81737089304E+03  0.81737089306E+03  0.50400000000E-02 0. -1.
    8880022    1    1    2    0    0 -0.22063813558E+03 -0.32259026762E+02  0.27729190013E+03  0.38730386336E+03  0.15294330000E+03 0.  0.
    8880022    1    1    2    0    0  0.22063813558E+03  0.32259026762E+02 -0.73838902943E+03  0.78634079347E+03  0.15294330000E+03 0. -1.
<mgrwt>
<rscale>  0 0.27039505E+03</rscale>
<asrwt>0</asrwt>
<pdfrwt beam="1">  1        1 0.12574937E+00 0.27039505E+03</pdfrwt>
<pdfrwt beam="2">  1       -1 0.54811348E-01 0.27039505E+03</pdfrwt>
<totfact> 0.78146083E+01</totfact>
</mgrwt>
</event>
<event>
 4    1  0.4964158E-009  0.1069766E+04  0.7818608E-02  0.9235172E-01
          1   -1    0    0  501    0  0.00000000000E+00  0.00000000000E+00  0.18116582378E+04  0.18116582378E+04  0.50400000000E-02 0. -1.
         -1   -1    0    0    0  501 -0.00000000000E+00 -0.00000000000E+00 -0.74938215146E+03  0.74938215148E+03  0.50400000000E-02 0.  1.
    8880022    1    1    2    0    0 -0.10587653851E+04 -0.48447240146E+01  0.10386143480E+04  0.14910127528E+04  0.15294330000E+03 0.  1.
    8880022    1    1    2    0    0  0.10587653851E+04  0.48447240146E+01  0.23661738328E+02  0.10700276365E+04  0.15294330000E+03 0.  0.
<mgrwt>
<rscale>  0 0.10697660E+04</rscale>
<asrwt>0</asrwt>
<pdfrwt beam="1">  1        1 0.27871665E+00 0.10697660E+04</pdfrwt>
<pdfrwt beam="2">  1       -1 0.11528956E+00 0.10697660E+04</pdfrwt>
<totfact> 0.27276715E+00</totfact>
</mgrwt>
</event>
<event>
 4    1  0.4964158E-009  0.6723658E+03  0.7818608E-02  0.9765693E-01
         -1   -1    0    0    0  501 -0.00000000000E+00  0.00000000000E+00  0.18001993100E+04  0.18001993100E+04  0.50400000000E-02 0.  1.
          1   -1    0    0  501    0  0.00000000000E+00 -0.00000000000E+00 -0.52271636525E+03  0.52271636528E+03  0.50400000000E-02 0. -1.
    8880022    1    1    2    0    0  0.63474741423E+03 -0.16056110015E+03 -0.19845626756E+03  0.70104257353E+03  0.15294330000E+03 0.  0.
    8880022    1    1    2    0    0 -0.63474741423E+03  0.16056110015E+03  0.14759392123E+04  0.16218731018E+04  0.15294330000E+03 0.  0.
<mgrwt>
<rscale>  0 0.67236582E+03</rscale>
<asrwt>0</asrwt>
<pdfrwt beam="1">  1        1 0.80417904E-01 0.67236582E+03</pdfrwt>
<pdfrwt beam="2">  1       -1 0.27695373E+00 0.67236582E+03</pdfrwt>
<totfact> 0.20635781E+00</totfact>
</mgrwt>
</event>
<event>
 4    1  0.4964158E-009  0.6832756E+03  0.7818608E-02  0.9746268E-01
         -1   -1    0    0    0  501 -0.00000000000E+00  0.00000000000E+00  0.52803310013E+03  0.52803310016E+03  0.50400000000E-02 0.  1.
          1   -1    0    0  501    0  0.00000000000E+00 -0.00000000000E+00 -0.27379800335E+04  0.27379800335E+04  0.50400000000E-02 0. -1.
    8880022    1    1    2    0    0  0.11176256195E+03 -0.65649298414E+03 -0.24486867773E+04  0.25422298273E+04  0.15294330000E+03 0.  0.
    8880022    1    1    2    0    0 -0.11176256195E+03  0.65649298414E+03  0.23873984393E+03  0.72378330637E+03  0.15294330000E+03 0.  0.
<mgrwt>
<rscale>  0 0.68327561E+03</rscale>
<asrwt>0</asrwt>
<pdfrwt beam="1">  1        1 0.42122769E+00 0.68327561E+03</pdfrwt>
<pdfrwt beam="2">  1       -1 0.81235863E-01 0.68327561E+03</pdfrwt>
<totfact> 0.15134224E+00</totfact>
</mgrwt>
</event>
<event>
 4    1  0.4964158E-009  0.2512410E+03  0.7818608E-02  0.1112523E+00
          1   -1    0    0  501    0  0.00000000000E+00  0.00000000000E+00  0.33533523060E+03  0.33533523064E+03  0.50400000000E-02 0. -1.
         -1   -1    0    0    0  501 -0.00000000000E+00 -0.00000000000E+00 -0.76098288521E+03  0.76098288522E+03  0.50400000000E-02 0.  1.
    8880022    1    1    2    0    0  0.19659660322E+03 -0.32865569513E+02 -0.68837874364E+03  0.73279418513E+03  0.15294330000E+03 0.  0.
    8880022    1    1    2    0    0 -0.19659660322E+03  0.32865569513E+02  0.26273108903E+03  0.36352393073E+03  0.15294330000E+03 0.  0.
<mgrwt>
<rscale>  0 0.25124097E+03</rscale>
<asrwt>0</asrwt>
<pdfrwt beam="1">  1        1 0.51590036E-01 0.25124097E+03</pdfrwt>
<pdfrwt beam="2">  1       -1 0.11707429E+00 0.25124097E+03</pdfrwt>
<totfact> 0.54183954E+01</totfact>
</mgrwt>
</event>
<event>
 4    1  0.4964158E-009  0.1728988E+03  0.7818608E-02  0.1174858E+00
         -1   -1    0    0    0  501 -0.00000000000E+00  0.00000000000E+00  0.13887121648E+03  0.13887121657E+03  0.50400000000E-02 0.  1.
          1   -1    0    0  501    0  0.00000000000E+00 -0.00000000000E+00 -0.65134397039E+03  0.65134397041E+03  0.50400000000E-02 0. -1.
    8880022    1    1    2    0    0 -0.45306966830E+02 -0.66705480690E+02 -0.57952704541E+03  0.60476904003E+03  0.15294330000E+03 0.  0.
    8880022    1    1    2    0    0  0.45306966830E+02  0.66705480690E+02  0.67054291496E+02  0.18544614695E+03  0.15294330000E+03 0.  1.
<mgrwt>
<rscale>  0 0.17289880E+03</rscale>
<asrwt>0</asrwt>
<pdfrwt beam="1">  1        1 0.10020676E+00 0.17289880E+03</pdfrwt>
<pdfrwt beam="2">  1       -1 0.21364803E-01 0.17289880E+03</pdfrwt>
<totfact> 0.57204895E+02</totfact>
</mgrwt>
</event>
<event>
 4    1  0.4964158E-009  0.1233462E+04  0.7818608E-02  0.9084061E-01
         -1   -1    0    0    0  501 -0.00000000000E+00  0.00000000000E+00  0.68618860604E+03  0.68618860606E+03  0.50400000000E-02 0.  1.
          1   -1    0    0  501    0  0.00000000000E+00 -0.00000000000E+00 -0.26117040387E+04  0.26117040387E+04  0.50400000000E-02 0. -1.
    8880022    1    1    2    0    0  0.32988354961E+01  0.12239385707E+04 -0.16036154289E+04  0.20231190286E+04  0.15294330000E+03 0.  0.
    8880022    1    1    2    0    0 -0.32988354961E+01 -0.12239385707E+04 -0.32190000385E+03  0.12747736162E+04  0.15294330000E+03 0.  0.
<mgrwt>
<rscale>  0 0.12334619E+04</rscale>
<asrwt>0</asrwt>
<pdfrwt beam="1">  1        1 0.40180062E+00 0.12334619E+04</pdfrwt>
<pdfrwt beam="2">  1       -1 0.10556748E+00 0.12334619E+04</pdfrwt>
<totfact> 0.93907242E-01</totfact>
</mgrwt>
</event>
<event>
 4    1  0.4964158E-009  0.4750748E+03  0.7818608E-02  0.1020498E+00
         -1   -1    0    0    0  501 -0.00000000000E+00  0.00000000000E+00  0.12821179055E+04  0.12821179055E+04  0.50400000000E-02 0.  1.
          1   -1    0    0  501    0  0.00000000000E+00 -0.00000000000E+00 -0.44247669384E+03  0.44247669387E+03  0.50400000000E-02 0. -1.
    8880022    1    1    2    0    0 -0.36031909519E+03  0.26921103820E+03  0.10889558374E+04  0.11880744515E+04  0.15294330000E+03 0.  0.
    8880022    1    1    2    0    0  0.36031909519E+03 -0.26921103820E+03 -0.24931462576E+03  0.53652014788E+03  0.15294330000E+03 0.  0.
<mgrwt>
<rscale>  0 0.47507482E+03</rscale>
<asrwt>0</asrwt>
<pdfrwt beam="1">  1        1 0.68073338E-01 0.47507482E+03</pdfrwt>
<pdfrwt beam="2">  1       -1 0.19724891E+00 0.47507482E+03</pdfrwt>
<totfact> 0.88880972E+00</totfact>
</mgrwt>
</event>
<event>
 4    1  0.4964158E-009  0.5064472E+03  0.7818608E-02  0.1012110E+00
          1   -1    0    0  501    0  0.00000000000E+00  0.00000000000E+00  0.33702171958E+03  0.33702171962E+03  0.50400000000E-02 0. -1.
         -1   -1    0    0    0  501 -0.00000000000E+00 -0.00000000000E+00 -0.10753188885E+04  0.10753188885E+04  0.50400000000E-02 0.  1.
    8880022    1    1    2    0    0 -0.20167008304E+03  0.43866422202E+03  0.12615262156E+02  0.50660430311E+03  0.15294330000E+03 0.  0.
    8880022    1    1    2    0    0  0.20167008304E+03 -0.43866422202E+03 -0.75091243104E+03  0.90573630499E+03  0.15294330000E+03 0.  1.
<mgrwt>
<rscale>  0 0.50644721E+03</rscale>
<asrwt>0</asrwt>
<pdfrwt beam="1">  1        1 0.51849496E-01 0.50644721E+03</pdfrwt>
<pdfrwt beam="2">  1       -1 0.16543367E+00 0.50644721E+03</pdfrwt>
<totfact> 0.21161858E+01</totfact>
</mgrwt>
</event>
<event>
 4    1  0.4964158E-009  0.1444264E+04  0.7818608E-02  0.8922386E-01
          1   -1    0    0  501    0  0.00000000000E+00  0.00000000000E+00  0.25759630077E+04  0.25759630077E+04  0.50400000000E-02 0. -1.
         -1   -1    0    0    0  501 -0.00000000000E+00 -0.00000000000E+00 -0.10312888222E+04  0.10312888222E+04  0.50400000000E-02 0.  1.
    8880022    1    1    2    0    0  0.14248179737E+04  0.18000530764E+03 -0.63604608331E+02  0.14456643345E+04  0.15294330000E+03 0.  0.
    8880022    1    1    2    0    0 -0.14248179737E+04 -0.18000530764E+03  0.16082787938E+04  0.21615874955E+04  0.15294330000E+03 0.  0.
<mgrwt>
<rscale>  0 0.14442645E+04</rscale>
<asrwt>0</asrwt>
<pdfrwt beam="1">  1        1 0.39630200E+00 0.14442645E+04</pdfrwt>
<pdfrwt beam="2">  1       -1 0.15865982E+00 0.14442645E+04</pdfrwt>
<totfact> 0.34287215E-01</totfact>
</mgrwt>
</event>
<event>
 4    1  0.4964158E-009  0.4929057E+03  0.7818608E-02  0.1015647E+00
          1   -1    0    0  501    0  0.00000000000E+00  0.00000000000E+00  0.21956532762E+04  0.21956532763E+04  0.50400000000E-02 0. -1.
         -1   -1    0    0    0  501 -0.00000000000E+00 -0.00000000000E+00 -0.56726012686E+03  0.56726012689E+03  0.50400000000E-02 0.  1.
    8880022    1    1    2    0    0 -0.45081594179E+03 -0.12778630869E+03 -0.42522030966E+03  0.65097489877E+03  0.15294330000E+03 0.  0.
    8880022    1    1    2    0    0  0.45081594179E+03  0.12778630869E+03  0.20536134590E+04  0.21119385044E+04  0.15294330000E+03 0.  0.
<mgrwt>
<rscale>  0 0.49290568E+03</rscale>
<asrwt>0</asrwt>
<pdfrwt beam="1">  1        1 0.33779281E+00 0.49290568E+03</pdfrwt>
<pdfrwt beam="2">  1       -1 0.87270790E-01 0.49290568E+03</pdfrwt>
<totfact> 0.31815680E+00</totfact>
</mgrwt>
</event>
<event>
 4    1  0.4964158E-009  0.1490247E+04  0.7818608E-02  0.8890965E-01
          1   -1    0    0  501    0  0.00000000000E+00  0.00000000000E+00  0.41534746547E+04  0.41534746547E+04  0.50400000000E-02 0. -1.
         -1   -1    0    0    0  501 -0.00000000000E+00 -0.00000000000E+00 -0.81791355032E+03  0.81791355034E+03  0.50400000000E-02 0.  1.
    8880022    1    1    2    0    0 -0.13043790848E+04  0.70429991887E+03  0.20507747003E+03  0.15042910604E+04  0.15294330000E+03 0.  0.
    8880022    1    1    2    0    0  0.13043790848E+04 -0.70429991887E+03  0.31304836343E+04  0.34670971447E+04  0.15294330000E+03 0.  0.
<mgrwt>
<rscale>  0 0.14902466E+04</rscale>
<asrwt>0</asrwt>
<pdfrwt beam="1">  1        1 0.63899609E+00 0.14902466E+04</pdfrwt>
<pdfrwt beam="2">  1       -1 0.12583286E+00 0.14902466E+04</pdfrwt>
<totfact> 0.37258542E-02</totfact>
</mgrwt>
</event>
<event>
 4    1  0.4964158E-009  0.5153740E+03  0.7818608E-02  0.1009842E+00
          1   -1    0    0  501    0  0.00000000000E+00  0.00000000000E+00  0.40238363359E+03  0.40238363363E+03  0.50400000000E-02 0. -1.
         -1   -1    0    0    0  501 -0.00000000000E+00 -0.00000000000E+00 -0.99706172030E+03  0.99706172032E+03  0.50400000000E-02 0.  1.
    8880022    1    1    2    0    0 -0.35294582456E+03  0.34299848924E+03  0.10944145052E+03  0.52686601978E+03  0.15294330000E+03 0.  0.
    8880022    1    1    2    0    0  0.35294582456E+03 -0.34299848924E+03 -0.70411953723E+03  0.87257933416E+03  0.15294330000E+03 0.  0.
<mgrwt>
<rscale>  0 0.51537401E+03</rscale>
<asrwt>0</asrwt>
<pdfrwt beam="1">  1        1 0.61905174E-01 0.51537401E+03</pdfrwt>
<pdfrwt beam="2">  1       -1 0.15339411E+00 0.51537401E+03</pdfrwt>
<totfact> 0.20646873E+01</totfact>
</mgrwt>
</event>
<event>
 4    1  0.4964158E-009  0.9681438E+03  0.7818608E-02  0.9344191E-01
          1   -1    0    0  501    0  0.00000000000E+00  0.00000000000E+00  0.20968980749E+04  0.20968980750E+04  0.50400000000E-02 0. -1.
         -1   -1    0    0    0  501 -0.00000000000E+00 -0.00000000000E+00 -0.10148405419E+04  0.10148405419E+04  0.50400000000E-02 0.  1.
    8880022    1    1    2    0    0 -0.68437090662E+03 -0.66749325035E+03 -0.62280087913E+03  0.11511660893E+04  0.15294330000E+03 0.  0.
    8880022    1    1    2    0    0  0.68437090662E+03  0.66749325035E+03  0.17048584122E+04  0.19605725275E+04  0.15294330000E+03 0.  0.
<mgrwt>
<rscale>  0 0.96814381E+03</rscale>
<asrwt>0</asrwt>
<pdfrwt beam="1">  1        1 0.32259970E+00 0.96814381E+03</pdfrwt>
<pdfrwt beam="2">  1       -1 0.15612931E+00 0.96814381E+03</pdfrwt>
<totfact> 0.81532773E-01</totfact>
</mgrwt>
</event>
<event>
 4    1  0.4964158E-009  0.6507006E+03  0.7818608E-02  0.9805466E-01
          1   -1    0    0  501    0  0.00000000000E+00  0.00000000000E+00  0.31518920270E+04  0.31518920270E+04  0.50400000000E-02 0. -1.
         -1   -1    0    0    0  501 -0.00000000000E+00 -0.00000000000E+00 -0.27775898367E+03  0.27775898372E+03  0.50400000000E-02 0.  1.
    8880022    1    1    2    0    0  0.58556052704E+03 -0.23903644657E+03  0.20482480539E+03  0.68217622909E+03  0.15294330000E+03 0.  0.
    8880022    1    1    2    0    0 -0.58556052704E+03  0.23903644657E+03  0.26693082379E+04  0.27474747816E+04  0.15294330000E+03 0.  0.
<mgrwt>
<rscale>  0 0.65070055E+03</rscale>
<asrwt>0</asrwt>
<pdfrwt beam="1">  1        1 0.48490645E+00 0.65070055E+03</pdfrwt>
<pdfrwt beam="2">  1       -1 0.42732152E-01 0.65070055E+03</pdfrwt>
<totfact> 0.27375714E+00</totfact>
</mgrwt>
</event>
<event>
 4    1  0.4964158E-009  0.8556324E+03  0.7818608E-02  0.9482808E-01
         -1   -1    0    0    0  501 -0.00000000000E+00  0.00000000000E+00  0.69190977537E+03  0.69190977538E+03  0.50400000000E-02 0.  1.
          1   -1    0    0  501    0  0.00000000000E+00 -0.00000000000E+00 -0.24001957945E+04  0.24001957945E+04  0.50400000000E-02 0. -1.
    8880022    1    1    2    0    0 -0.83537565198E+03 -0.10422385044E+03  0.30195176697E+03  0.90734867251E+03  0.15294330000E+03 0.  0.
    8880022    1    1    2    0    0  0.83537565198E+03  0.10422385044E+03 -0.20102377861E+04  0.21847568974E+04  0.15294330000E+03 0.  0.
<mgrwt>
<rscale>  0 0.85563236E+03</rscale>
<asrwt>0</asrwt>
<pdfrwt beam="1">  1        1 0.36926089E+00 0.85563236E+03</pdfrwt>
<pdfrwt beam="2">  1       -1 0.10644766E+00 0.85563236E+03</pdfrwt>
<totfact> 0.13644644E+00</totfact>
</mgrwt>
</event>
<event>
 4    1  0.4964158E-009  0.6921278E+03  0.7818608E-02  0.9730790E-01
         -1   -1    0    0    0  501 -0.00000000000E+00  0.00000000000E+00  0.16520361041E+04  0.16520361041E+04  0.50400000000E-02 0.  1.
          1   -1    0    0  501    0  0.00000000000E+00 -0.00000000000E+00 -0.46296393037E+03  0.46296393039E+03  0.50400000000E-02 0. -1.
    8880022    1    1    2    0    0 -0.64243917354E+03 -0.20717403784E+03 -0.51895099777E+02  0.69407054976E+03  0.15294330000E+03 0.  0.
    8880022    1    1    2    0    0  0.64243917354E+03  0.20717403784E+03  0.12409672735E+04  0.14209294847E+04  0.15294330000E+03 0.  0.
<mgrwt>
<rscale>  0 0.69212775E+03</rscale>
<asrwt>0</asrwt>
<pdfrwt beam="1">  1        1 0.71225221E-01 0.69212775E+03</pdfrwt>
<pdfrwt beam="2">  1       -1 0.25415940E+00 0.69212775E+03</pdfrwt>
<totfact> 0.33957449E+00</totfact>
</mgrwt>
</event>
<event>
 4    1  0.4964158E-009  0.6832731E+03  0.7818608E-02  0.9746273E-01
          1   -1    0    0  501    0  0.00000000000E+00  0.00000000000E+00  0.69979681714E+03  0.69979681716E+03  0.50400000000E-02 0. -1.
         -1   -1    0    0    0  501 -0.00000000000E+00 -0.00000000000E+00 -0.97057255477E+03  0.97057255479E+03  0.50400000000E-02 0.  1.
    8880022    1    1    2    0    0  0.40970293913E+03 -0.52498947272E+03 -0.60236967953E+03  0.91088491515E+03  0.15294330000E+03 0.  0.
    8880022    1    1    2    0    0 -0.40970293913E+03  0.52498947272E+03  0.33159394190E+03  0.75948445680E+03  0.15294330000E+03 0.  0.
<mgrwt>
<rscale>  0 0.68327308E+03</rscale>
<asrwt>0</asrwt>
<pdfrwt beam="1">  1        1 0.10766105E+00 0.68327308E+03</pdfrwt>
<pdfrwt beam="2">  1       -1 0.14931886E+00 0.68327308E+03</pdfrwt>
<totfact> 0.10014693E+01</totfact>
</mgrwt>
</event>
<event>
 4    1  0.4964158E-009  0.1042443E+04  0.7818608E-02  0.9263182E-01
          1   -1    0    0  501    0  0.00000000000E+00  0.00000000000E+00  0.29775226661E+04  0.29775226662E+04  0.50400000000E-02 0. -1.
         -1   -1    0    0    0  501 -0.00000000000E+00 -0.00000000000E+00 -0.54586132877E+03  0.54586132880E+03  0.50400000000E-02 0.  1.
    8880022    1    1    2    0    0  0.29807180700E+03 -0.98714135945E+03  0.22299889152E+04  0.24616126992E+04  0.15294330000E+03 0.  0.
    8880022    1    1    2    0    0 -0.29807180700E+03  0.98714135945E+03  0.20167242214E+03  0.10617712958E+04  0.15294330000E+03 0.  0.
<mgrwt>
<rscale>  0 0.10424426E+04</rscale>
<asrwt>0</asrwt>
<pdfrwt beam="1">  1        1 0.45808042E+00 0.10424426E+04</pdfrwt>
<pdfrwt beam="2">  1       -1 0.83978665E-01 0.10424426E+04</pdfrwt>
<totfact> 0.89034262E-01</totfact>
</mgrwt>
</event>
<event>
 4    1  0.4964158E-009  0.5984072E+03  0.7818608E-02  0.9908716E-01
          1   -1    0    0  501    0  0.00000000000E+00  0.00000000000E+00  0.15543291467E+04  0.15543291468E+04  0.50400000000E-02 0. -1.
         -1   -1    0    0    0  501 -0.00000000000E+00 -0.00000000000E+00 -0.40563334966E+03  0.40563334969E+03  0.50400000000E-02 0.  1.
    8880022    1    1    2    0    0 -0.13284931866E+03 -0.56307244063E+03  0.12184878866E+04  0.13574991335E+04  0.15294330000E+03 0.  0.
    8880022    1    1    2    0    0  0.13284931866E+03  0.56307244063E+03 -0.69792089470E+02  0.60246336290E+03  0.15294330000E+03 0.  0.
<mgrwt>
<rscale>  0 0.59840719E+03</rscale>
<asrwt>0</asrwt>
<pdfrwt beam="1">  1        1 0.23912756E+00 0.59840719E+03</pdfrwt>
<pdfrwt beam="2">  1       -1 0.62405131E-01 0.59840719E+03</pdfrwt>
<totfact> 0.16580987E+01</totfact>
</mgrwt>
</event>
<event>
 4    1  0.4964158E-009  0.1513888E+04  0.7818608E-02  0.8875269E-01
          1   -1    0    0  501    0  0.00000000000E+00  0.00000000000E+00  0.19876381444E+04  0.19876381444E+04  0.50400000000E-02 0. -1.
         -1   -1    0    0    0  501 -0.00000000000E+00 -0.00000000000E+00 -0.15673282196E+04  0.15673282197E+04  0.50400000000E-02 0.  1.
    8880022    1    1    2    0    0 -0.12274465047E+03  0.15011330589E+04 -0.70368123567E+03  0.16694387213E+04  0.15294330000E+03 0.  0.
    8880022    1    1    2    0    0  0.12274465047E+03 -0.15011330589E+04  0.11239911604E+04  0.18855276427E+04  0.15294330000E+03 0.  0.
<mgrwt>
<rscale>  0 0.15138885E+04</rscale>
<asrwt>0</asrwt>
<pdfrwt beam="1">  1        1 0.30579048E+00 0.15138885E+04</pdfrwt>
<pdfrwt beam="2">  1       -1 0.24112742E+00 0.15138885E+04</pdfrwt>
<totfact> 0.22812416E-01</totfact>
</mgrwt>
</event>
<event>
 4    1  0.4964158E-009  0.6970545E+03  0.7818608E-02  0.9722283E-01
          1   -1    0    0  501    0  0.00000000000E+00  0.00000000000E+00  0.75548974111E+03  0.75548974112E+03  0.50400000000E-02 0. -1.
         -1   -1    0    0    0  501 -0.00000000000E+00 -0.00000000000E+00 -0.10126490623E+04  0.10126490623E+04  0.50400000000E-02 0.  1.
    8880022    1    1    2    0    0  0.67037138875E+03 -0.11443544879E+03 -0.66261501118E+03  0.96173986963E+03  0.15294330000E+03 0.  0.
    8880022    1    1    2    0    0 -0.67037138875E+03  0.11443544879E+03  0.40545569002E+03  0.80639893376E+03  0.15294330000E+03 0.  0.
<mgrwt>
<rscale>  0 0.69705446E+03</rscale>
<asrwt>0</asrwt>
<pdfrwt beam="1">  1        1 0.11622919E+00 0.69705446E+03</pdfrwt>
<pdfrwt beam="2">  1       -1 0.15579216E+00 0.69705446E+03</pdfrwt>
<totfact> 0.79268559E+00</totfact>
</mgrwt>
</event>
<event>
 4    1  0.4964158E-009  0.8072848E+03  0.7818608E-02  0.9549532E-01
          1   -1    0    0  501    0  0.00000000000E+00  0.00000000000E+00  0.47460463007E+03  0.47460463009E+03  0.50400000000E-02 0. -1.
         -1   -1    0    0    0  501 -0.00000000000E+00 -0.00000000000E+00 -0.21668661035E+04  0.21668661035E+04  0.50400000000E-02 0.  1.
    8880022    1    1    2    0    0  0.39532320436E+03  0.68704929582E+03 -0.46795038687E+02  0.80863996899E+03  0.15294330000E+03 0.  0.
    8880022    1    1    2    0    0 -0.39532320436E+03 -0.68704929582E+03 -0.16454664347E+04  0.18328307646E+04  0.15294330000E+03 0.  0.
<mgrwt>
<rscale>  0 0.80728485E+03</rscale>
<asrwt>0</asrwt>
<pdfrwt beam="1">  1        1 0.73016098E-01 0.80728485E+03</pdfrwt>
<pdfrwt beam="2">  1       -1 0.33336401E+00 0.80728485E+03</pdfrwt>
<totfact> 0.99993527E-01</totfact>
</mgrwt>
</event>
<event>
 4    1  0.4964158E-009  0.2648440E+03  0.7818608E-02  0.1104267E+00
          1   -1    0    0  501    0  0.00000000000E+00  0.00000000000E+00  0.15506604569E+04  0.15506604569E+04  0.50400000000E-02 0. -1.
         -1   -1    0    0    0  501 -0.00000000000E+00 -0.00000000000E+00 -0.41962241163E+03  0.41962241166E+03  0.50400000000E-02 0.  1.
    8880022    1    1    2    0    0  0.19633021141E+03  0.90582278577E+02 -0.36501129900E+03  0.45097184227E+03  0.15294330000E+03 0.  1.
    8880022    1    1    2    0    0 -0.19633021141E+03 -0.90582278577E+02  0.14960493443E+04  0.15193110263E+04  0.15294330000E+03 0.  0.
<mgrwt>
<rscale>  0 0.26484402E+03</rscale>
<asrwt>0</asrwt>
<pdfrwt beam="1">  1        1 0.23856314E+00 0.26484402E+03</pdfrwt>
<pdfrwt beam="2">  1       -1 0.64557295E-01 0.26484402E+03</pdfrwt>
<totfact> 0.17027254E+01</totfact>
</mgrwt>
</event>
<event>
 4    1  0.4964158E-009  0.1442582E+04  0.7818608E-02  0.8923559E-01
          1   -1    0    0  501    0  0.00000000000E+00  0.00000000000E+00  0.33139255257E+04  0.33139255257E+04  0.50400000000E-02 0. -1.
         -1   -1    0    0    0  501 -0.00000000000E+00 -0.00000000000E+00 -0.75614794230E+03  0.75614794232E+03  0.50400000000E-02 0.  1.
    8880022    1    1    2    0    0  0.13344822272E+04  0.52612625223E+03  0.44101848981E+03  0.15084895125E+04  0.15294330000E+03 0.  0.
    8880022    1    1    2    0    0 -0.13344822272E+04 -0.52612625223E+03  0.21167590936E+04  0.25615839555E+04  0.15294330000E+03 0.  0.
<mgrwt>
<rscale>  0 0.14425822E+04</rscale>
<asrwt>0</asrwt>
<pdfrwt beam="1">  1        1 0.50983468E+00 0.14425822E+04</pdfrwt>
<pdfrwt beam="2">  1       -1 0.11633046E+00 0.14425822E+04</pdfrwt>
<totfact> 0.22471663E-01</totfact>
</mgrwt>
</event>
<event>
 4    1  0.4964158E-009  0.2990647E+03  0.7818608E-02  0.1085709E+00
         -1   -1    0    0    0  501 -0.00000000000E+00  0.00000000000E+00  0.25943874647E+03  0.25943874652E+03  0.50400000000E-02 0.  1.
          1   -1    0    0  501    0  0.00000000000E+00 -0.00000000000E+00 -0.28846341210E+04  0.28846341210E+04  0.50400000000E-02 0. -1.
    8880022    1    1    2    0    0 -0.22554434648E+03  0.12319812232E+03  0.16251361957E+03  0.34036797607E+03  0.15294330000E+03 0.  1.
    8880022    1    1    2    0    0  0.22554434648E+03 -0.12319812232E+03 -0.27877089941E+04  0.28037048915E+04  0.15294330000E+03 0.  0.
<mgrwt>
<rscale>  0 0.29906468E+03</rscale>
<asrwt>0</asrwt>
<pdfrwt beam="1">  1        1 0.44378984E+00 0.29906468E+03</pdfrwt>
<pdfrwt beam="2">  1       -1 0.39913655E-01 0.29906468E+03</pdfrwt>
<totfact> 0.53907767E+00</totfact>
</mgrwt>
</event>
<event>
 4    1  0.4964158E-009  0.9733627E+03  0.7818608E-02  0.9338252E-01
         -1   -1    0    0    0  501 -0.00000000000E+00  0.00000000000E+00  0.60467678511E+03  0.60467678513E+03  0.50400000000E-02 0.  1.
          1   -1    0    0  501    0  0.00000000000E+00 -0.00000000000E+00 -0.24117070747E+04  0.24117070747E+04  0.50400000000E-02 0. -1.
    8880022    1    1    2    0    0 -0.57310711869E+01 -0.96125460411E+03 -0.10852846152E+02  0.97342318464E+03  0.15294330000E+03 0.  0.
    8880022    1    1    2    0    0  0.57310711869E+01  0.96125460411E+03 -0.17961774435E+04  0.20429606752E+04  0.15294330000E+03 0.  0.
<mgrwt>
<rscale>  0 0.97336268E+03</rscale>
<asrwt>0</asrwt>
<pdfrwt beam="1">  1        1 0.37103185E+00 0.97336268E+03</pdfrwt>
<pdfrwt beam="2">  1       -1 0.93027199E-01 0.97336268E+03</pdfrwt>
<totfact> 0.17876718E+00</totfact>
</mgrwt>
</event>
<event>
 4    1  0.4964158E-009  0.7784787E+03  0.7818608E-02  0.9591702E-01
         -1   -1    0    0    0  501 -0.00000000000E+00  0.00000000000E+00  0.82398128521E+03  0.82398128523E+03  0.50400000000E-02 0.  1.
          1   -1    0    0  501    0  0.00000000000E+00 -0.00000000000E+00 -0.14341114635E+04  0.14341114635E+04  0.50400000000E-02 0. -1.
    8880022    1    1    2    0    0  0.73368095366E+03  0.21059359054E+03  0.48296290108E+03  0.91612347365E+03  0.15294330000E+03 0.  0.
    8880022    1    1    2    0    0 -0.73368095366E+03 -0.21059359054E+03 -0.10930930794E+04  0.13419692751E+04  0.15294330000E+03 0.  0.
<mgrwt>
<rscale>  0 0.77847868E+03</rscale>
<asrwt>0</asrwt>
<pdfrwt beam="1">  1        1 0.22063253E+00 0.77847868E+03</pdfrwt>
<pdfrwt beam="2">  1       -1 0.12676635E+00 0.77847868E+03</pdfrwt>
<totfact> 0.40749323E+00</totfact>
</mgrwt>
</event>
<event>
 4    1  0.4964158E-009  0.1083354E+04  0.7818608E-02  0.9221570E-01
          1   -1    0    0  501    0  0.00000000000E+00  0.00000000000E+00  0.16411266211E+04  0.16411266211E+04  0.50400000000E-02 0. -1.
         -1   -1    0    0    0  501 -0.00000000000E+00 -0.00000000000E+00 -0.14752815082E+04  0.14752815083E+04  0.50400000000E-02 0.  1.
    8880022    1    1    2    0    0 -0.10385650845E+04 -0.26766764298E+03 -0.10355637398E+04  0.14986818589E+04  0.15294330000E+03 0.  0.
    8880022    1    1    2    0    0  0.10385650845E+04  0.26766764298E+03  0.12014088526E+04  0.16177262705E+04  0.15294330000E+03 0.  0.
<mgrwt>
<rscale>  0 0.10833536E+04</rscale>
<asrwt>0</asrwt>
<pdfrwt beam="1">  1        1 0.25248102E+00 0.10833536E+04</pdfrwt>
<pdfrwt beam="2">  1       -1 0.22696639E+00 0.10833536E+04</pdfrwt>
<totfact> 0.51551566E-01</totfact>
</mgrwt>
</event>
<event>
 4    1  0.4964158E-009  0.1123169E+04  0.7818608E-02  0.9182899E-01
         -1   -1    0    0    0  501 -0.00000000000E+00  0.00000000000E+00  0.12641662831E+04  0.12641662831E+04  0.50400000000E-02 0.  1.
          1   -1    0    0  501    0  0.00000000000E+00 -0.00000000000E+00 -0.15254123176E+04  0.15254123176E+04  0.50400000000E-02 0. -1.
    8880022    1    1    2    0    0 -0.67565868535E+02 -0.11106541997E+04  0.68959995947E+03  0.13179748310E+04  0.15294330000E+03 0.  0.
    8880022    1    1    2    0    0  0.67565868535E+02  0.11106541997E+04 -0.95084599394E+03  0.14716037698E+04  0.15294330000E+03 0. -1.
<mgrwt>
<rscale>  0 0.11231694E+04</rscale>
<asrwt>0</asrwt>
<pdfrwt beam="1">  1        1 0.23467882E+00 0.11231694E+04</pdfrwt>
<pdfrwt beam="2">  1       -1 0.19448712E+00 0.11231694E+04</pdfrwt>
<totfact> 0.10218522E+00</totfact>
</mgrwt>
</event>
<event>
 4    1  0.4964158E-009  0.4861753E+03  0.7818608E-02  0.1017452E+00
          1   -1    0    0  501    0  0.00000000000E+00  0.00000000000E+00  0.11384916461E+04  0.11384916461E+04  0.50400000000E-02 0. -1.
         -1   -1    0    0    0  501 -0.00000000000E+00 -0.00000000000E+00 -0.50486880879E+03  0.50486880882E+03  0.50400000000E-02 0.  1.
    8880022    1    1    2    0    0  0.16808636990E+03 -0.42979270061E+03  0.94730147372E+03  0.10647753417E+04  0.15294330000E+03 0.  0.
    8880022    1    1    2    0    0 -0.16808636990E+03  0.42979270061E+03 -0.31367863641E+03  0.57858511319E+03  0.15294330000E+03 0.  1.
<mgrwt>
<rscale>  0 0.48617532E+03</rscale>
<asrwt>0</asrwt>
<pdfrwt beam="1">  1        1 0.17515256E+00 0.48617532E+03</pdfrwt>
<pdfrwt beam="2">  1       -1 0.77672126E-01 0.48617532E+03</pdfrwt>
<totfact> 0.21144911E+01</totfact>
</mgrwt>
</event>
<event>
 4    1  0.4964158E-009  0.1326019E+04  0.7818608E-02  0.9009183E-01
          1   -1    0    0  501    0  0.00000000000E+00  0.00000000000E+00  0.22631811297E+04  0.22631811297E+04  0.50400000000E-02 0. -1.
         -1   -1    0    0    0  501 -0.00000000000E+00 -0.00000000000E+00 -0.17645555573E+04  0.17645555573E+04  0.50400000000E-02 0.  1.
    8880022    1    1    2    0    0  0.11791886973E+04  0.58689708838E+03  0.17559555636E+04  0.22003876410E+04  0.15294330000E+03 0.  0.
    8880022    1    1    2    0    0 -0.11791886973E+04 -0.58689708838E+03 -0.12573299911E+04  0.18273490460E+04  0.15294330000E+03 0.  0.
<mgrwt>
<rscale>  0 0.13260188E+04</rscale>
<asrwt>0</asrwt>
<pdfrwt beam="1">  1        1 0.34818171E+00 0.13260188E+04</pdfrwt>
<pdfrwt beam="2">  1       -1 0.27147009E+00 0.13260188E+04</pdfrwt>
<totfact> 0.96344833E-02</totfact>
</mgrwt>
</event>
<event>
 4    1  0.4964158E-009  0.9501857E+03  0.7818608E-02  0.9364934E-01
         -1   -1    0    0    0  501 -0.00000000000E+00  0.00000000000E+00  0.11875508722E+04  0.11875508722E+04  0.50400000000E-02 0.  1.
          1   -1    0    0  501    0  0.00000000000E+00 -0.00000000000E+00 -0.78884848007E+03  0.78884848009E+03  0.50400000000E-02 0. -1.
    8880022    1    1    2    0    0 -0.19492346643E+03  0.91731456041E+03  0.11242452306E+02  0.95025218035E+03  0.15294330000E+03 0.  0.
    8880022    1    1    2    0    0  0.19492346643E+03 -0.91731456041E+03  0.38745993982E+03  0.10261471719E+04  0.15294330000E+03 0.  1.
<mgrwt>
<rscale>  0 0.95018567E+03</rscale>
<asrwt>0</asrwt>
<pdfrwt beam="1">  1        1 0.12136131E+00 0.95018567E+03</pdfrwt>
<pdfrwt beam="2">  1       -1 0.18270013E+00 0.95018567E+03</pdfrwt>
<totfact> 0.45414150E+00</totfact>
</mgrwt>
</event>
<event>
 4    1  0.7667940E-009  0.1639130E+04  0.7818608E-02  0.8796863E-01
          1   -1    0    0  501    0  0.00000000000E+00  0.00000000000E+00  0.28961180033E+04  0.28961180033E+04  0.50400000000E-02 0. -1.
         -1   -1    0    0    0  501 -0.00000000000E+00 -0.00000000000E+00 -0.16645679967E+04  0.16645679967E+04  0.50400000000E-02 0.  1.
    8880022    1    1    2    0    0  0.16293313484E+04 -0.92920357537E+02  0.21329736301E+04  0.26900414486E+04  0.15294330000E+03 0.  0.
    8880022    1    1    2    0    0 -0.16293313484E+04  0.92920357537E+02 -0.90142362341E+03  0.18706445514E+04  0.15294330000E+03 0.  0.
<mgrwt>
<rscale>  0 0.16391298E+04</rscale>
<asrwt>0</asrwt>
<pdfrwt beam="1">  1        1 0.44555662E+00 0.16391298E+04</pdfrwt>
<pdfrwt beam="2">  1       -1 0.25608738E+00 0.16391298E+04</pdfrwt>
<totfact> 0.41950651E-02</totfact>
</mgrwt>
</event>
<event>
 4    1  0.4964158E-009  0.6067991E+03  0.7818608E-02  0.9891400E-01
          1   -1    0    0  501    0  0.00000000000E+00  0.00000000000E+00  0.14291137843E+04  0.14291137843E+04  0.50400000000E-02 0. -1.
         -1   -1    0    0    0  501 -0.00000000000E+00 -0.00000000000E+00 -0.26936249977E+03  0.26936249982E+03  0.50400000000E-02 0.  1.
    8880022    1    1    2    0    0  0.43390774309E+03  0.39564832627E+03  0.40275737138E+03  0.72829848332E+03  0.15294330000E+03 0.  0.
    8880022    1    1    2    0    0 -0.43390774309E+03 -0.39564832627E+03  0.75699391312E+03  0.97017780077E+03  0.15294330000E+03 0.  0.
<mgrwt>
<rscale>  0 0.60679913E+03</rscale>
<asrwt>0</asrwt>
<pdfrwt beam="1">  1        1 0.21986365E+00 0.60679913E+03</pdfrwt>
<pdfrwt beam="2">  1       -1 0.41440386E-01 0.60679913E+03</pdfrwt>
<totfact> 0.43796455E+01</totfact>
</mgrwt>
</event>
<event>
 4    1  0.4964158E-009  0.1124327E+04  0.7818608E-02  0.9181800E-01
         -1   -1    0    0    0  501 -0.00000000000E+00  0.00000000000E+00  0.10535350228E+04  0.10535350228E+04  0.50400000000E-02 0.  1.
          1   -1    0    0  501    0  0.00000000000E+00 -0.00000000000E+00 -0.18568022697E+04  0.18568022698E+04  0.50400000000E-02 0. -1.
    8880022    1    1    2    0    0  0.10992583888E+04 -0.17986508043E+03 -0.12671765057E+04  0.16940626913E+04  0.15294330000E+03 0.  0.
    8880022    1    1    2    0    0 -0.10992583888E+04  0.17986508043E+03  0.46390925873E+03  0.12162746013E+04  0.15294330000E+03 0.  0.
<mgrwt>
<rscale>  0 0.11243274E+04</rscale>
<asrwt>0</asrwt>
<pdfrwt beam="1">  1        1 0.28566189E+00 0.11243274E+04</pdfrwt>
<pdfrwt beam="2">  1       -1 0.16208231E+00 0.11243274E+04</pdfrwt>
<totfact> 0.10415736E+00</totfact>
</mgrwt>
</event>
<event>
 4    1  0.4964158E-009  0.5814716E+03  0.7818608E-02  0.9944610E-01
         -1   -1    0    0    0  501 -0.00000000000E+00  0.00000000000E+00  0.35836771469E+03  0.35836771473E+03  0.50400000000E-02 0.  1.
          1   -1    0    0  501    0  0.00000000000E+00 -0.00000000000E+00 -0.13282142645E+04  0.13282142645E+04  0.50400000000E-02 0. -1.
    8880022    1    1    2    0    0  0.55614373502E+03 -0.73632025777E+02 -0.31055366785E+02  0.58230028168E+03  0.15294330000E+03 0.  0.
    8880022    1    1    2    0    0 -0.55614373502E+03  0.73632025777E+02 -0.93879118302E+03  0.11042816976E+04  0.15294330000E+03 0.  0.
<mgrwt>
<rscale>  0 0.58147157E+03</rscale>
<asrwt>0</asrwt>
<pdfrwt beam="1">  1        1 0.20434065E+00 0.58147157E+03</pdfrwt>
<pdfrwt beam="2">  1       -1 0.55133495E-01 0.58147157E+03</pdfrwt>
<totfact> 0.30265071E+01</totfact>
</mgrwt>
</event>
<event>
 4    1  0.4964158E-009  0.1182334E+04  0.7818608E-02  0.9128462E-01
         -1   -1    0    0    0  501 -0.00000000000E+00  0.00000000000E+00  0.35424997143E+03  0.35424997146E+03  0.50400000000E-02 0.  1.
          1   -1    0    0  501    0  0.00000000000E+00 -0.00000000000E+00 -0.41013885951E+04  0.41013885951E+04  0.50400000000E-02 0. -1.
    8880022    1    1    2    0    0  0.94339988843E+03  0.69607384715E+03 -0.14401056111E+04  0.18632815070E+04  0.15294330000E+03 0.  0.
    8880022    1    1    2    0    0 -0.94339988843E+03 -0.69607384715E+03 -0.23070330126E+04  0.25923570596E+04  0.15294330000E+03 0.  0.
<mgrwt>
<rscale>  0 0.11823340E+04</rscale>
<asrwt>0</asrwt>
<pdfrwt beam="1">  1        1 0.63098283E+00 0.11823340E+04</pdfrwt>
<pdfrwt beam="2">  1       -1 0.54499999E-01 0.11823340E+04</pdfrwt>
<totfact> 0.27147401E-01</totfact>
</mgrwt>
</event>
<event>
 4    1  0.4964158E-009  0.7925902E+03  0.7818608E-02  0.9570805E-01
         -1   -1    0    0    0  501 -0.00000000000E+00  0.00000000000E+00  0.12790190167E+04  0.12790190167E+04  0.50400000000E-02 0.  1.
          1   -1    0    0  501    0  0.00000000000E+00 -0.00000000000E+00 -0.55010366146E+03  0.55010366149E+03  0.50400000000E-02 0. -1.
    8880022    1    1    2    0    0  0.42714015758E+03  0.64989145516E+03  0.65079727605E+02  0.79525759453E+03  0.15294330000E+03 0.  0.
    8880022    1    1    2    0    0 -0.42714015758E+03 -0.64989145516E+03  0.66383562765E+03  0.10338650837E+04  0.15294330000E+03 0.  0.
<mgrwt>
<rscale>  0 0.79259023E+03</rscale>
<asrwt>0</asrwt>
<pdfrwt beam="1">  1        1 0.84631333E-01 0.79259023E+03</pdfrwt>
<pdfrwt beam="2">  1       -1 0.19677216E+00 0.79259023E+03</pdfrwt>
<totfact> 0.63200401E+00</totfact>
</mgrwt>
</event>
<event>
 4    1  0.4964158E-009  0.1221596E+04  0.7818608E-02  0.9094161E-01
         -1   -1    0    0    0  501 -0.00000000000E+00  0.00000000000E+00  0.84528758879E+03  0.84528758880E+03  0.50400000000E-02 0.  1.
          1   -1    0    0  501    0  0.00000000000E+00 -0.00000000000E+00 -0.21507272121E+04  0.21507272121E+04  0.50400000000E-02 0. -1.
    8880022    1    1    2    0    0 -0.96642130777E+03  0.73139291211E+03 -0.18677345834E+02  0.12217390197E+04  0.15294330000E+03 0.  0.
    8880022    1    1    2    0    0  0.96642130777E+03 -0.73139291211E+03 -0.12867622775E+04  0.17742757812E+04  0.15294330000E+03 0.  0.
<mgrwt>
<rscale>  0 0.12215962E+04</rscale>
<asrwt>0</asrwt>
<pdfrwt beam="1">  1        1 0.33088111E+00 0.12215962E+04</pdfrwt>
<pdfrwt beam="2">  1       -1 0.13004425E+00 0.12215962E+04</pdfrwt>
<totfact> 0.11714873E+00</totfact>
</mgrwt>
</event>
<event>
 4    1  0.4964158E-009  0.2050751E+04  0.7818608E-02  0.8583254E-01
          1   -1    0    0  501    0  0.00000000000E+00  0.00000000000E+00  0.23150551031E+04  0.23150551031E+04  0.50400000000E-02 0. -1.
         -1   -1    0    0    0  501 -0.00000000000E+00 -0.00000000000E+00 -0.19623804859E+04  0.19623804859E+04  0.50400000000E-02 0.  1.
    8880022    1    1    2    0    0 -0.38476860830E+03  0.20085171917E+04  0.75921699360E+03  0.21867762318E+04  0.15294330000E+03 0.  0.
    8880022    1    1    2    0    0  0.38476860830E+03 -0.20085171917E+04 -0.40654237638E+03  0.20906593573E+04  0.15294330000E+03 0.  0.
<mgrwt>
<rscale>  0 0.20507510E+04</rscale>
<asrwt>0</asrwt>
<pdfrwt beam="1">  1        1 0.35616232E+00 0.20507510E+04</pdfrwt>
<pdfrwt beam="2">  1       -1 0.30190469E+00 0.20507510E+04</pdfrwt>
<totfact> 0.51611317E-02</totfact>
</mgrwt>
</event>
<event>
 4    1  0.4964158E-009  0.7917055E+03  0.7818608E-02  0.9572101E-01
          1   -1    0    0  501    0  0.00000000000E+00  0.00000000000E+00  0.18131772251E+04  0.18131772251E+04  0.50400000000E-02 0. -1.
         -1   -1    0    0    0  501 -0.00000000000E+00 -0.00000000000E+00 -0.72092283617E+03  0.72092283619E+03  0.50400000000E-02 0.  1.
    8880022    1    1    2    0    0  0.28022688610E+03 -0.72448519928E+03  0.14602397733E+04  0.16610532081E+04  0.15294330000E+03 0.  0.
    8880022    1    1    2    0    0 -0.28022688610E+03  0.72448519928E+03 -0.36798538439E+03  0.87304685316E+03  0.15294330000E+03 0.  0.
<mgrwt>
<rscale>  0 0.79170548E+03</rscale>
<asrwt>0</asrwt>
<pdfrwt beam="1">  1        1 0.27895034E+00 0.79170548E+03</pdfrwt>
<pdfrwt beam="2">  1       -1 0.11091121E+00 0.79170548E+03</pdfrwt>
<totfact> 0.31102271E+00</totfact>
</mgrwt>
</event>
<event>
 4    1  0.4964158E-009  0.9052993E+03  0.7818608E-02  0.9418981E-01
          1   -1    0    0  501    0  0.00000000000E+00  0.00000000000E+00  0.53097481240E+03  0.53097481242E+03  0.50400000000E-02 0. -1.
         -1   -1    0    0    0  501 -0.00000000000E+00 -0.00000000000E+00 -0.16125555962E+04  0.16125555962E+04  0.50400000000E-02 0.  1.
    8880022    1    1    2    0    0 -0.89661504909E+02  0.88777024459E+03 -0.76255843599E+03  0.11836647388E+04  0.15294330000E+03 0.  0.
    8880022    1    1    2    0    0  0.89661504909E+02 -0.88777024459E+03 -0.31902234782E+03  0.95986566980E+03  0.15294330000E+03 0.  0.
<mgrwt>
<rscale>  0 0.90529931E+03</rscale>
<asrwt>0</asrwt>
<pdfrwt beam="1">  1        1 0.81688433E-01 0.90529931E+03</pdfrwt>
<pdfrwt beam="2">  1       -1 0.24808547E+00 0.90529931E+03</pdfrwt>
<totfact> 0.29836529E+00</totfact>
</mgrwt>
</event>
<event>
 4    1  0.4964158E-009  0.1537516E+04  0.7818608E-02  0.8859881E-01
          1   -1    0    0  501    0  0.00000000000E+00  0.00000000000E+00  0.20334322810E+04  0.20334322810E+04  0.50400000000E-02 0. -1.
         -1   -1    0    0    0  501 -0.00000000000E+00 -0.00000000000E+00 -0.15645276617E+04  0.15645276617E+04  0.50400000000E-02 0.  1.
    8880022    1    1    2    0    0 -0.65433975223E+03 -0.13828972467E+04 -0.67742886968E+03  0.16801389326E+04  0.15294330000E+03 0.  0.
    8880022    1    1    2    0    0  0.65433975223E+03  0.13828972467E+04  0.11463334890E+04  0.19178210102E+04  0.15294330000E+03 0.  0.
<mgrwt>
<rscale>  0 0.15375165E+04</rscale>
<asrwt>0</asrwt>
<pdfrwt beam="1">  1        1 0.31283574E+00 0.15375165E+04</pdfrwt>
<pdfrwt beam="2">  1       -1 0.24069656E+00 0.15375165E+04</pdfrwt>
<totfact> 0.21313617E-01</totfact>
</mgrwt>
</event>
<event>
 4    1  0.4964158E-009  0.1349610E+04  0.7818608E-02  0.8991123E-01
         -1   -1    0    0    0  501 -0.00000000000E+00  0.00000000000E+00  0.99754320119E+03  0.99754320120E+03  0.50400000000E-02 0.  1.
          1   -1    0    0  501    0  0.00000000000E+00 -0.00000000000E+00 -0.34740330849E+04  0.34740330849E+04  0.50400000000E-02 0. -1.
    8880022    1    1    2    0    0  0.12045889527E+04 -0.58908562820E+03 -0.27781903638E+04  0.30886550103E+04  0.15294330000E+03 0.  0.
    8880022    1    1    2    0    0 -0.12045889527E+04  0.58908562820E+03  0.30170048006E+03  0.13829212758E+04  0.15294330000E+03 0.  0.
<mgrwt>
<rscale>  0 0.13496103E+04</rscale>
<asrwt>0</asrwt>
<pdfrwt beam="1">  1        1 0.53446662E+00 0.13496103E+04</pdfrwt>
<pdfrwt beam="2">  1       -1 0.15346819E+00 0.13496103E+04</pdfrwt>
<totfact> 0.83861733E-02</totfact>
</mgrwt>
</event>
<event>
 4    1  0.4964158E-009  0.9544285E+03  0.7818608E-02  0.9359989E-01
          1   -1    0    0  501    0  0.00000000000E+00  0.00000000000E+00  0.99625704967E+03  0.99625704969E+03  0.50400000000E-02 0. -1.
         -1   -1    0    0    0  501 -0.00000000000E+00 -0.00000000000E+00 -0.23475925287E+04  0.23475925287E+04  0.50400000000E-02 0.  1.
    8880022    1    1    2    0    0  0.57605539236E+03 -0.74545441559E+03  0.63069652001E+03  0.11439894467E+04  0.15294330000E+03 0.  0.
    8880022    1    1    2    0    0 -0.57605539236E+03  0.74545441559E+03 -0.19820319991E+04  0.21998601317E+04  0.15294330000E+03 0.  0.
<mgrwt>
<rscale>  0 0.95442850E+03</rscale>
<asrwt>0</asrwt>
<pdfrwt beam="1">  1        1 0.15327032E+00 0.95442850E+03</pdfrwt>
<pdfrwt beam="2">  1       -1 0.36116808E+00 0.95442850E+03</pdfrwt>
<totfact> 0.20553452E-01</totfact>
</mgrwt>
</event>
<event>
 4    1  0.4964158E-009  0.1572943E+04  0.7818608E-02  0.8837345E-01
          1   -1    0    0  501    0  0.00000000000E+00  0.00000000000E+00  0.17250800863E+04  0.17250800863E+04  0.50400000000E-02 0. -1.
         -1   -1    0    0    0  501 -0.00000000000E+00 -0.00000000000E+00 -0.17998740573E+04  0.17998740573E+04  0.50400000000E-02 0.  1.
    8880022    1    1    2    0    0  0.61773847083E+03 -0.14384562381E+04  0.75699724388E+03  0.17456212784E+04  0.15294330000E+03 0.  0.
    8880022    1    1    2    0    0 -0.61773847083E+03  0.14384562381E+04 -0.83179121489E+03  0.17793328653E+04  0.15294330000E+03 0.  0.
<mgrwt>
<rscale>  0 0.15729427E+04</rscale>
<asrwt>0</asrwt>
<pdfrwt beam="1">  1        1 0.26539694E+00 0.15729427E+04</pdfrwt>
<pdfrwt beam="2">  1       -1 0.27690370E+00 0.15729427E+04</pdfrwt>
<totfact> 0.19992735E-01</totfact>
</mgrwt>
</event>
<event>
 4    1  0.4964158E-009  0.2497978E+03  0.7818608E-02  0.1113433E+00
          1   -1    0    0  501    0  0.00000000000E+00  0.00000000000E+00  0.10930708448E+04  0.10930708448E+04  0.50400000000E-02 0. -1.
         -1   -1    0    0    0  501 -0.00000000000E+00 -0.00000000000E+00 -0.11806827728E+03  0.11806827739E+03  0.50400000000E-02 0.  1.
    8880022    1    1    2    0    0  0.64100250397E+02  0.18681126150E+03  0.52290579970E+02  0.25521216133E+03  0.15294330000E+03 0.  0.
    8880022    1    1    2    0    0 -0.64100250397E+02 -0.18681126150E+03  0.92271198756E+03  0.95592696087E+03  0.15294330000E+03 0.  0.
<mgrwt>
<rscale>  0 0.24979780E+03</rscale>
<asrwt>0</asrwt>
<pdfrwt beam="1">  1        1 0.16816474E+00 0.24979780E+03</pdfrwt>
<pdfrwt beam="2">  1       -1 0.18164351E-01 0.24979780E+03</pdfrwt>
<totfact> 0.32518641E+02</totfact>
</mgrwt>
</event>
<event>
 4    1  0.4964158E-009  0.2387098E+03  0.7818608E-02  0.1120655E+00
         -1   -1    0    0    0  501 -0.00000000000E+00  0.00000000000E+00  0.40055763792E+03  0.40055763795E+03  0.50400000000E-02 0.  1.
          1   -1    0    0  501    0  0.00000000000E+00 -0.00000000000E+00 -0.58779017931E+03  0.58779017933E+03  0.50400000000E-02 0. -1.
    8880022    1    1    2    0    0  0.94933995305E+02 -0.15677446757E+03 -0.52385391255E+03  0.57567809743E+03  0.15294330000E+03 0.  0.
    8880022    1    1    2    0    0 -0.94933995305E+02  0.15677446757E+03  0.33662137116E+03  0.41266971985E+03  0.15294330000E+03 0.  1.
<mgrwt>
<rscale>  0 0.23870976E+03</rscale>
<asrwt>0</asrwt>
<pdfrwt beam="1">  1        1 0.90429259E-01 0.23870976E+03</pdfrwt>
<pdfrwt beam="2">  1       -1 0.61624252E-01 0.23870976E+03</pdfrwt>
<totfact> 0.10182254E+02</totfact>
</mgrwt>
</event>
<event>
 4    1  0.4964158E-009  0.4808055E+03  0.7818608E-02  0.1018914E+00
         -1   -1    0    0    0  501 -0.00000000000E+00  0.00000000000E+00  0.14783833749E+03  0.14783833757E+03  0.50400000000E-02 0.  1.
          1   -1    0    0  501    0  0.00000000000E+00 -0.00000000000E+00 -0.26239844617E+04  0.26239844618E+04  0.50400000000E-02 0. -1.
    8880022    1    1    2    0    0  0.44673213501E+03  0.90623782336E+02 -0.21190555224E+04  0.21729174468E+04  0.15294330000E+03 0.  0.
    8880022    1    1    2    0    0 -0.44673213501E+03 -0.90623782336E+02 -0.35709060184E+03  0.59890535255E+03  0.15294330000E+03 0.  0.
<mgrwt>
<rscale>  0 0.48080549E+03</rscale>
<asrwt>0</asrwt>
<pdfrwt beam="1">  1        1 0.40368988E+00 0.48080549E+03</pdfrwt>
<pdfrwt beam="2">  1       -1 0.22744362E-01 0.48080549E+03</pdfrwt>
<totfact> 0.20172543E+01</totfact>
</mgrwt>
</event>
<event>
 4    1  0.4964158E-009  0.8802462E+03  0.7818608E-02  0.9450617E-01
          1   -1    0    0  501    0  0.00000000000E+00  0.00000000000E+00  0.68878470578E+03  0.68878470580E+03  0.50400000000E-02 0. -1.
         -1   -1    0    0    0  501 -0.00000000000E+00 -0.00000000000E+00 -0.15529081535E+04  0.15529081535E+04  0.50400000000E-02 0.  1.
    8880022    1    1    2    0    0  0.66460713806E+03  0.55654206067E+03 -0.10204783308E+04  0.13476681305E+04  0.15294330000E+03 0.  0.
    8880022    1    1    2    0    0 -0.66460713806E+03 -0.55654206067E+03  0.15635488310E+03  0.89402472882E+03  0.15294330000E+03 0.  0.
<mgrwt>
<rscale>  0 0.88024620E+03</rscale>
<asrwt>0</asrwt>
<pdfrwt beam="1">  1        1 0.10596688E+00 0.88024620E+03</pdfrwt>
<pdfrwt beam="2">  1       -1 0.23890895E+00 0.88024620E+03</pdfrwt>
<totfact> 0.23544777E+00</totfact>
</mgrwt>
</event>
<event>
 4    1  0.4964158E-009  0.8916710E+03  0.7818608E-02  0.9436053E-01
         -1   -1    0    0    0  501 -0.00000000000E+00  0.00000000000E+00  0.27658268513E+03  0.27658268517E+03  0.50400000000E-02 0.  1.
          1   -1    0    0  501    0  0.00000000000E+00 -0.00000000000E+00 -0.35995448570E+04  0.35995448570E+04  0.50400000000E-02 0. -1.
    8880022    1    1    2    0    0  0.28775318609E+03  0.82999012145E+03 -0.25312084764E+04  0.26836716457E+04  0.15294330000E+03 0.  0.
    8880022    1    1    2    0    0 -0.28775318609E+03 -0.82999012145E+03 -0.79175369550E+03  0.11924558965E+04  0.15294330000E+03 0.  0.
<mgrwt>
<rscale>  0 0.89167099E+03</rscale>
<asrwt>0</asrwt>
<pdfrwt beam="1">  1        1 0.55377610E+00 0.89167099E+03</pdfrwt>
<pdfrwt beam="2">  1       -1 0.42551185E-01 0.89167099E+03</pdfrwt>
<totfact> 0.12010074E+00</totfact>
</mgrwt>
</event>
<event>
 4    1  0.4964158E-009  0.7383457E+03  0.7818608E-02  0.9653814E-01
          1   -1    0    0  501    0  0.00000000000E+00  0.00000000000E+00  0.12026569924E+04  0.12026569924E+04  0.50400000000E-02 0. -1.
         -1   -1    0    0    0  501 -0.00000000000E+00 -0.00000000000E+00 -0.10644623883E+04  0.10644623883E+04  0.50400000000E-02 0.  1.
    8880022    1    1    2    0    0 -0.43291848412E+03 -0.57822517713E+03 -0.78983808448E+03  0.10812023964E+04  0.15294330000E+03 0.  0.
    8880022    1    1    2    0    0  0.43291848412E+03  0.57822517713E+03  0.92803268859E+03  0.11859169842E+04  0.15294330000E+03 0.  0.
<mgrwt>
<rscale>  0 0.73834573E+03</rscale>
<asrwt>0</asrwt>
<pdfrwt beam="1">  1        1 0.18502415E+00 0.73834573E+03</pdfrwt>
<pdfrwt beam="2">  1       -1 0.16376344E+00 0.73834573E+03</pdfrwt>
<totfact> 0.30391802E+00</totfact>
</mgrwt>
</event>
<event>
 4    1  0.4964158E-009  0.2397393E+03  0.7818608E-02  0.1119967E+00
         -1   -1    0    0    0  501 -0.00000000000E+00  0.00000000000E+00  0.43180861735E+03  0.43180861738E+03  0.50400000000E-02 0.  1.
          1   -1    0    0  501    0  0.00000000000E+00 -0.00000000000E+00 -0.12474741065E+04  0.12474741065E+04  0.50400000000E-02 0. -1.
    8880022    1    1    2    0    0  0.69944434390E+02 -0.17085394309E+03 -0.12014169402E+04  0.12251031021E+04  0.15294330000E+03 0.  0.
    8880022    1    1    2    0    0 -0.69944434390E+02  0.17085394309E+03  0.38575145105E+03  0.45417962171E+03  0.15294330000E+03 0.  0.
<mgrwt>
<rscale>  0 0.23973933E+03</rscale>
<asrwt>0</asrwt>
<pdfrwt beam="1">  1        1 0.19191909E+00 0.23973933E+03</pdfrwt>
<pdfrwt beam="2">  1       -1 0.66432095E-01 0.23973933E+03</pdfrwt>
<totfact> 0.26006457E+01</totfact>
</mgrwt>
</event>
<event>
 4    1  0.4964158E-009  0.1544224E+04  0.7818608E-02  0.8855566E-01
         -1   -1    0    0    0  501 -0.00000000000E+00  0.00000000000E+00  0.11635016852E+04  0.11635016852E+04  0.50400000000E-02 0.  1.
          1   -1    0    0  501    0  0.00000000000E+00 -0.00000000000E+00 -0.30518155792E+04  0.30518155792E+04  0.50400000000E-02 0. -1.
    8880022    1    1    2    0    0 -0.43680697758E+03 -0.14732397523E+04 -0.21520199012E+04  0.26487387587E+04  0.15294330000E+03 0. -1.
    8880022    1    1    2    0    0  0.43680697758E+03  0.14732397523E+04  0.26370600729E+03  0.15665785057E+04  0.15294330000E+03 0.  0.
<mgrwt>
<rscale>  0 0.15442239E+04</rscale>
<asrwt>0</asrwt>
<pdfrwt beam="1">  1        1 0.46951009E+00 0.15442239E+04</pdfrwt>
<pdfrwt beam="2">  1       -1 0.17900026E+00 0.15442239E+04</pdfrwt>
<totfact> 0.10940378E-01</totfact>
</mgrwt>
</event>
<event>
 4    1  0.4964158E-009  0.3667315E+03  0.7818608E-02  0.1055950E+00
         -1   -1    0    0    0  501 -0.00000000000E+00  0.00000000000E+00  0.60783583412E+03  0.60783583414E+03  0.50400000000E-02 0.  1.
          1   -1    0    0  501    0  0.00000000000E+00 -0.00000000000E+00 -0.51512379114E+03  0.51512379117E+03  0.50400000000E-02 0. -1.
    8880022    1    1    2    0    0 -0.26277545686E+03  0.20505956023E+03  0.47043684334E+03  0.59649211273E+03  0.15294330000E+03 0.  0.
    8880022    1    1    2    0    0  0.26277545686E+03 -0.20505956023E+03 -0.37772480036E+03  0.52646751257E+03  0.15294330000E+03 0.  0.
<mgrwt>
<rscale>  0 0.36673153E+03</rscale>
<asrwt>0</asrwt>
<pdfrwt beam="1">  1        1 0.79249814E-01 0.36673153E+03</pdfrwt>
<pdfrwt beam="2">  1       -1 0.93513205E-01 0.36673153E+03</pdfrwt>
<totfact> 0.50454616E+01</totfact>
</mgrwt>
</event>
<event>
 4    1  0.4964158E-009  0.2655376E+03  0.7818608E-02  0.1103861E+00
         -1   -1    0    0    0  501 -0.00000000000E+00  0.00000000000E+00  0.14095367126E+04  0.14095367127E+04  0.50400000000E-02 0.  1.
          1   -1    0    0  501    0  0.00000000000E+00 -0.00000000000E+00 -0.37857457542E+03  0.37857457545E+03  0.50400000000E-02 0. -1.
    8880022    1    1    2    0    0  0.20890947760E+03  0.58952258110E+02 -0.31741375891E+03  0.41383775315E+03  0.15294330000E+03 0.  0.
    8880022    1    1    2    0    0 -0.20890947760E+03 -0.58952258110E+02  0.13483758961E+04  0.13742735350E+04  0.15294330000E+03 0.  0.
<mgrwt>
<rscale>  0 0.26553755E+03</rscale>
<asrwt>0</asrwt>
<pdfrwt beam="1">  1        1 0.58242243E-01 0.26553755E+03</pdfrwt>
<pdfrwt beam="2">  1       -1 0.21685180E+00 0.26553755E+03</pdfrwt>
<totfact> 0.85431437E+00</totfact>
</mgrwt>
</event>
<event>
 4    1  0.4964158E-009  0.1670883E+04  0.7818608E-02  0.8778147E-01
          1   -1    0    0  501    0  0.00000000000E+00  0.00000000000E+00  0.27657052486E+04  0.27657052486E+04  0.50400000000E-02 0. -1.
         -1   -1    0    0    0  501 -0.00000000000E+00 -0.00000000000E+00 -0.11544757477E+04  0.11544757477E+04  0.50400000000E-02 0.  1.
    8880022    1    1    2    0    0 -0.16268000922E+04  0.34925580603E+03  0.15003216164E+04  0.22456212422E+04  0.15294330000E+03 0.  0.
    8880022    1    1    2    0    0  0.16268000922E+04 -0.34925580603E+03  0.11090788454E+03  0.16745597541E+04  0.15294330000E+03 0.  0.
<mgrwt>
<rscale>  0 0.16708829E+04</rscale>
<asrwt>0</asrwt>
<pdfrwt beam="1">  1        1 0.42549311E+00 0.16708829E+04</pdfrwt>
<pdfrwt beam="2">  1       -1 0.17761166E+00 0.16708829E+04</pdfrwt>
<totfact> 0.17740103E-01</totfact>
</mgrwt>
</event>
<event>
 4    1  0.4964158E-009  0.9958840E+03  0.7818608E-02  0.9313071E-01
         -1   -1    0    0    0  501 -0.00000000000E+00  0.00000000000E+00  0.16371155521E+04  0.16371155521E+04  0.50400000000E-02 0.  1.
          1   -1    0    0  501    0  0.00000000000E+00 -0.00000000000E+00 -0.68501284351E+03  0.68501284353E+03  0.50400000000E-02 0. -1.
    8880022    1    1    2    0    0 -0.98212327128E+03  0.61864200574E+02  0.81257304558E+02  0.99919352573E+03  0.15294330000E+03 0.  1.
    8880022    1    1    2    0    0  0.98212327128E+03 -0.61864200574E+02  0.87084540403E+03  0.13229348699E+04  0.15294330000E+03 0.  0.
<mgrwt>
<rscale>  0 0.99588401E+03</rscale>
<asrwt>0</asrwt>
<pdfrwt beam="1">  1        1 0.10538659E+00 0.99588401E+03</pdfrwt>
<pdfrwt beam="2">  1       -1 0.25186393E+00 0.99588401E+03</pdfrwt>
<totfact> 0.19254085E+00</totfact>
</mgrwt>
</event>
<event>
 4    1  0.4964158E-009  0.7644546E+03  0.7818608E-02  0.9612942E-01
          1   -1    0    0  501    0  0.00000000000E+00  0.00000000000E+00  0.11470891926E+04  0.11470891926E+04  0.50400000000E-02 0. -1.
         -1   -1    0    0    0  501 -0.00000000000E+00 -0.00000000000E+00 -0.13941573833E+04  0.13941573833E+04  0.50400000000E-02 0.  1.
    8880022    1    1    2    0    0 -0.83487346432E+02  0.74433128116E+03  0.88864973769E+03  0.11722155102E+04  0.15294330000E+03 0. -1.
    8880022    1    1    2    0    0  0.83487346432E+02 -0.74433128116E+03 -0.11357179284E+04  0.13690310658E+04  0.15294330000E+03 0.  0.
<mgrwt>
<rscale>  0 0.76445461E+03</rscale>
<asrwt>0</asrwt>
<pdfrwt beam="1">  1        1 0.17647526E+00 0.76445461E+03</pdfrwt>
<pdfrwt beam="2">  1       -1 0.21448575E+00 0.76445461E+03</pdfrwt>
<totfact> 0.14641290E+00</totfact>
</mgrwt>
</event>
<event>
 4    1  0.4964158E-009  0.5299113E+03  0.7818608E-02  0.1006254E+00
         -1   -1    0    0    0  501 -0.00000000000E+00  0.00000000000E+00  0.89039978073E+03  0.89039978075E+03  0.50400000000E-02 0.  1.
          1   -1    0    0  501    0  0.00000000000E+00 -0.00000000000E+00 -0.12036865323E+04  0.12036865323E+04  0.50400000000E-02 0. -1.
    8880022    1    1    2    0    0  0.23323572034E+03 -0.45057229381E+03 -0.10561235566E+04  0.11816103051E+04  0.15294330000E+03 0.  0.
    8880022    1    1    2    0    0 -0.23323572034E+03  0.45057229381E+03  0.74283680505E+03  0.91247600798E+03  0.15294330000E+03 0.  0.
<mgrwt>
<rscale>  0 0.52991126E+03</rscale>
<asrwt>0</asrwt>
<pdfrwt beam="1">  1        1 0.18518254E+00 0.52991126E+03</pdfrwt>
<pdfrwt beam="2">  1       -1 0.13698458E+00 0.52991126E+03</pdfrwt>
<totfact> 0.51038275E+00</totfact>
</mgrwt>
</event>
<event>
 4    1  0.6183511E-009  0.1065077E+04  0.7818608E-02  0.9239915E-01
          1   -1    0    0  501    0  0.00000000000E+00  0.00000000000E+00  0.11083920853E+04  0.11083920853E+04  0.50400000000E-02 0. -1.
         -1   -1    0    0    0  501 -0.00000000000E+00 -0.00000000000E+00 -0.42300568480E+04  0.42300568480E+04  0.50400000000E-02 0.  1.
    8880022    1    1    2    0    0 -0.82397982576E+03  0.65730806153E+03  0.76315937520E+03  0.13102673490E+04  0.15294330000E+03 0.  0.
    8880022    1    1    2    0    0  0.82397982576E+03 -0.65730806153E+03 -0.38848241379E+04  0.40281815843E+04  0.15294330000E+03 0.  0.
<mgrwt>
<rscale>  0 0.10650767E+04</rscale>
<asrwt>0</asrwt>
<pdfrwt beam="1">  1        1 0.17052186E+00 0.10650767E+04</pdfrwt>
<pdfrwt beam="2">  1       -1 0.65077797E+00 0.10650767E+04</pdfrwt>
<totfact> 0.35639687E-03</totfact>
</mgrwt>
</event>
<event>
 4    1  0.4964158E-009  0.5026900E+03  0.7818608E-02  0.1013079E+00
         -1   -1    0    0    0  501 -0.00000000000E+00  0.00000000000E+00  0.23966500921E+03  0.23966500927E+03  0.50400000000E-02 0.  1.
          1   -1    0    0  501    0  0.00000000000E+00 -0.00000000000E+00 -0.21895705761E+04  0.21895705761E+04  0.50400000000E-02 0. -1.
    8880022    1    1    2    0    0 -0.15218645681E+03 -0.45403174458E+03 -0.10038154864E+03  0.51261452480E+03  0.15294330000E+03 0.  0.
    8880022    1    1    2    0    0  0.15218645681E+03  0.45403174458E+03 -0.18495240182E+04  0.19166210606E+04  0.15294330000E+03 0.  0.
<mgrwt>
<rscale>  0 0.50268996E+03</rscale>
<asrwt>0</asrwt>
<pdfrwt beam="1">  1        1 0.33685700E+00 0.50268996E+03</pdfrwt>
<pdfrwt beam="2">  1       -1 0.36871541E-01 0.50268996E+03</pdfrwt>
<totfact> 0.17096271E+01</totfact>
</mgrwt>
</event>
<event>
 4    1  0.1104819E-008  0.6468056E+03  0.7818608E-02  0.9812792E-01
         -1   -1    0    0    0  501 -0.00000000000E+00  0.00000000000E+00  0.23701741082E+04  0.23701741082E+04  0.50400000000E-02 0.  1.
          1   -1    0    0  501    0  0.00000000000E+00 -0.00000000000E+00 -0.21061286046E+04  0.21061286046E+04  0.50400000000E-02 0. -1.
    8880022    1    1    2    0    0 -0.22820639767E+03  0.58556614220E+03  0.22743353365E+04  0.23645208273E+04  0.15294330000E+03 0.  0.
    8880022    1    1    2    0    0  0.22820639767E+03 -0.58556614220E+03 -0.20102898329E+04  0.21117818855E+04  0.15294330000E+03 0.  0.
<mgrwt>
<rscale>  0 0.64680563E+03</rscale>
<asrwt>0</asrwt>
<pdfrwt beam="1">  1        1 0.32401978E+00 0.64680563E+03</pdfrwt>
<pdfrwt beam="2">  1       -1 0.36464217E+00 0.64680563E+03</pdfrwt>
<totfact> 0.35731329E-02</totfact>
</mgrwt>
</event>
<event>
 4    1  0.4964158E-009  0.2113145E+03  0.7818608E-02  0.1140529E+00
         -1   -1    0    0    0  501 -0.00000000000E+00  0.00000000000E+00  0.24088203024E+03  0.24088203029E+03  0.50400000000E-02 0.  1.
          1   -1    0    0  501    0  0.00000000000E+00 -0.00000000000E+00 -0.24234792149E+04  0.24234792149E+04  0.50400000000E-02 0. -1.
    8880022    1    1    2    0    0  0.10898798443E+03 -0.96869983296E+02  0.18891810099E+03  0.28344995380E+03  0.15294330000E+03 0.  1.
    8880022    1    1    2    0    0 -0.10898798443E+03  0.96869983296E+02 -0.23715152857E+04  0.23809112914E+04  0.15294330000E+03 0.  0.
<mgrwt>
<rscale>  0 0.21131452E+03</rscale>
<asrwt>0</asrwt>
<pdfrwt beam="1">  1        1 0.37284294E+00 0.21131452E+03</pdfrwt>
<pdfrwt beam="2">  1       -1 0.37058775E-01 0.21131452E+03</pdfrwt>
<totfact> 0.13184488E+01</totfact>
</mgrwt>
</event>
<event>
 4    1  0.4964158E-009  0.5693541E+03  0.7818608E-02  0.9971109E-01
         -1   -1    0    0    0  501 -0.00000000000E+00  0.00000000000E+00  0.88002151401E+03  0.88002151403E+03  0.50400000000E-02 0.  1.
          1   -1    0    0  501    0  0.00000000000E+00 -0.00000000000E+00 -0.88129202678E+03  0.88129202679E+03  0.50400000000E-02 0. -1.
    8880022    1    1    2    0    0 -0.53282787681E+03  0.12987275236E+03  0.67122190661E+03  0.88017213035E+03  0.15294330000E+03 0.  1.
    8880022    1    1    2    0    0  0.53282787681E+03 -0.12987275236E+03 -0.67249241938E+03  0.88114141047E+03  0.15294330000E+03 0.  0.
<mgrwt>
<rscale>  0 0.56935414E+03</rscale>
<asrwt>0</asrwt>
<pdfrwt beam="1">  1        1 0.13558339E+00 0.56935414E+03</pdfrwt>
<pdfrwt beam="2">  1       -1 0.13538792E+00 0.56935414E+03</pdfrwt>
<totfact> 0.91593049E+00</totfact>
</mgrwt>
</event>
<event>
 4    1  0.4964158E-009  0.6615472E+03  0.7818608E-02  0.9785350E-01
          1   -1    0    0  501    0  0.00000000000E+00  0.00000000000E+00  0.85158123108E+03  0.85158123109E+03  0.50400000000E-02 0. -1.
         -1   -1    0    0    0  501 -0.00000000000E+00 -0.00000000000E+00 -0.10528832111E+04  0.10528832111E+04  0.50400000000E-02 0.  1.
    8880022    1    1    2    0    0 -0.64355488045E+03 -0.94983591419E+01 -0.78194139416E+03  0.10242446485E+04  0.15294330000E+03 0.  0.
    8880022    1    1    2    0    0  0.64355488045E+03  0.94983591419E+01  0.58063941416E+03  0.88021979373E+03  0.15294330000E+03 0.  0.
<mgrwt>
<rscale>  0 0.66154724E+03</rscale>
<asrwt>0</asrwt>
<pdfrwt beam="1">  1        1 0.13101250E+00 0.66154724E+03</pdfrwt>
<pdfrwt beam="2">  1       -1 0.16198203E+00 0.66154724E+03</pdfrwt>
<totfact> 0.59155010E+00</totfact>
</mgrwt>
</event>
<event>
 4    1  0.4964158E-009  0.2610155E+03  0.7818608E-02  0.1106535E+00
          1   -1    0    0  501    0  0.00000000000E+00  0.00000000000E+00  0.82178961363E+03  0.82178961365E+03  0.50400000000E-02 0. -1.
         -1   -1    0    0    0  501 -0.00000000000E+00 -0.00000000000E+00 -0.12427251241E+04  0.12427251241E+04  0.50400000000E-02 0.  1.
    8880022    1    1    2    0    0 -0.77220210338E+02 -0.19691241473E+03  0.78676395811E+03  0.82893102171E+03  0.15294330000E+03 0.  0.
    8880022    1    1    2    0    0  0.77220210338E+02  0.19691241473E+03 -0.12076994686E+04  0.12355837161E+04  0.15294330000E+03 0.  1.
<mgrwt>
<rscale>  0 0.26101554E+03</rscale>
<asrwt>0</asrwt>
<pdfrwt beam="1">  1        1 0.12642917E+00 0.26101554E+03</pdfrwt>
<pdfrwt beam="2">  1       -1 0.19118848E+00 0.26101554E+03</pdfrwt>
<totfact> 0.43345078E+00</totfact>
</mgrwt>
</event>
<event>
 4    1  0.4964158E-009  0.4835097E+03  0.7818608E-02  0.1018175E+00
         -1   -1    0    0    0  501 -0.00000000000E+00  0.00000000000E+00  0.13796013554E+04  0.13796013554E+04  0.50400000000E-02 0.  1.
          1   -1    0    0  501    0  0.00000000000E+00 -0.00000000000E+00 -0.81850402723E+03  0.81850402725E+03  0.50400000000E-02 0. -1.
    8880022    1    1    2    0    0  0.36379512236E+03  0.27936201196E+03 -0.69814445045E+03  0.84922750278E+03  0.15294330000E+03 0.  0.
    8880022    1    1    2    0    0 -0.36379512236E+03 -0.27936201196E+03  0.12592417786E+04  0.13488778799E+04  0.15294330000E+03 0.  0.
<mgrwt>
<rscale>  0 0.48350975E+03</rscale>
<asrwt>0</asrwt>
<pdfrwt beam="1">  1        1 0.12592370E+00 0.48350975E+03</pdfrwt>
<pdfrwt beam="2">  1       -1 0.21224636E+00 0.48350975E+03</pdfrwt>
<totfact> 0.29117422E+00</totfact>
</mgrwt>
</event>
<event>
 4    1  0.4964158E-009  0.7490918E+03  0.7818608E-02  0.9636776E-01
          1   -1    0    0  501    0  0.00000000000E+00  0.00000000000E+00  0.13242798621E+04  0.13242798621E+04  0.50400000000E-02 0. -1.
         -1   -1    0    0    0  501 -0.00000000000E+00 -0.00000000000E+00 -0.13511300133E+04  0.13511300133E+04  0.50400000000E-02 0.  1.
    8880022    1    1    2    0    0 -0.38103811587E+03  0.62654352217E+03  0.10948436162E+04  0.13265824618E+04  0.15294330000E+03 0. -1.
    8880022    1    1    2    0    0  0.38103811587E+03 -0.62654352217E+03 -0.11216937674E+04  0.13488274137E+04  0.15294330000E+03 0.  0.
<mgrwt>
<rscale>  0 0.74909177E+03</rscale>
<asrwt>0</asrwt>
<pdfrwt beam="1">  1        1 0.20373536E+00 0.74909177E+03</pdfrwt>
<pdfrwt beam="2">  1       -1 0.20786616E+00 0.74909177E+03</pdfrwt>
<totfact> 0.12135382E+00</totfact>
</mgrwt>
</event>
<event>
 4    1  0.4964158E-009  0.1039459E+04  0.7818608E-02  0.9266295E-01
          1   -1    0    0  501    0  0.00000000000E+00  0.00000000000E+00  0.17622781172E+04  0.17622781172E+04  0.50400000000E-02 0. -1.
         -1   -1    0    0    0  501 -0.00000000000E+00 -0.00000000000E+00 -0.78711901219E+03  0.78711901220E+03  0.50400000000E-02 0.  1.
    8880022    1    1    2    0    0  0.25497452784E+03 -0.99602817906E+03 -0.11175497780E+03  0.10454496503E+04  0.15294330000E+03 0.  0.
    8880022    1    1    2    0    0 -0.25497452784E+03  0.99602817906E+03  0.10869140828E+04  0.15039474790E+04  0.15294330000E+03 0.  0.
<mgrwt>
<rscale>  0 0.10394594E+04</rscale>
<asrwt>0</asrwt>
<pdfrwt beam="1">  1        1 0.27111971E+00 0.10394594E+04</pdfrwt>
<pdfrwt beam="2">  1       -1 0.12109523E+00 0.10394594E+04</pdfrwt>
<totfact> 0.26236661E+00</totfact>
</mgrwt>
</event>
<event>
 4    1  0.4964158E-009  0.7436363E+03  0.7818608E-02  0.9645387E-01
         -1   -1    0    0    0  501 -0.00000000000E+00  0.00000000000E+00  0.36396015732E+03  0.36396015735E+03  0.50400000000E-02 0.  1.
          1   -1    0    0  501    0  0.00000000000E+00 -0.00000000000E+00 -0.15825549750E+04  0.15825549750E+04  0.50400000000E-02 0. -1.
    8880022    1    1    2    0    0  0.19312886619E+03 -0.70164419879E+03 -0.41484671392E+03  0.85152380456E+03  0.15294330000E+03 0.  0.
    8880022    1    1    2    0    0 -0.19312886619E+03  0.70164419879E+03 -0.80374810375E+03  0.10949913278E+04  0.15294330000E+03 0.  0.
<mgrwt>
<rscale>  0 0.74363633E+03</rscale>
<asrwt>0</asrwt>
<pdfrwt beam="1">  1        1 0.24346999E+00 0.74363633E+03</pdfrwt>
<pdfrwt beam="2">  1       -1 0.55993871E-01 0.74363633E+03</pdfrwt>
<totfact> 0.19189262E+01</totfact>
</mgrwt>
</event>
<event>
 4    1  0.4964158E-009  0.1027672E+04  0.7818608E-02  0.9278705E-01
         -1   -1    0    0    0  501 -0.00000000000E+00  0.00000000000E+00  0.45054219819E+03  0.45054219822E+03  0.50400000000E-02 0.  1.
          1   -1    0    0  501    0  0.00000000000E+00 -0.00000000000E+00 -0.36467189872E+04  0.36467189872E+04  0.50400000000E-02 0. -1.
    8880022    1    1    2    0    0 -0.68864668555E+03  0.74731778957E+03 -0.37368791059E+03  0.10935046610E+04  0.15294330000E+03 0.  0.
    8880022    1    1    2    0    0  0.68864668555E+03 -0.74731778957E+03 -0.28224888784E+04  0.30037565244E+04  0.15294330000E+03 0.  0.
<mgrwt>
<rscale>  0 0.10276720E+04</rscale>
<asrwt>0</asrwt>
<pdfrwt beam="1">  1        1 0.56103367E+00 0.10276720E+04</pdfrwt>
<pdfrwt beam="2">  1       -1 0.69314187E-01 0.10276720E+04</pdfrwt>
<totfact> 0.41702031E-01</totfact>
</mgrwt>
</event>
<event>
 4    1  0.4964158E-009  0.6853779E+03  0.7818608E-02  0.9742570E-01
          1   -1    0    0  501    0  0.00000000000E+00  0.00000000000E+00  0.14204031214E+04  0.14204031214E+04  0.50400000000E-02 0. -1.
         -1   -1    0    0    0  501 -0.00000000000E+00 -0.00000000000E+00 -0.10024927481E+04  0.10024927481E+04  0.50400000000E-02 0.  1.
    8880022    1    1    2    0    0  0.34920137034E+03 -0.56956967829E+03 -0.78274010127E+03  0.10403965276E+04  0.15294330000E+03 0.  0.
    8880022    1    1    2    0    0 -0.34920137034E+03  0.56956967829E+03  0.12006504746E+04  0.13824993420E+04  0.15294330000E+03 0.  0.
<mgrwt>
<rscale>  0 0.68537790E+03</rscale>
<asrwt>0</asrwt>
<pdfrwt beam="1">  1        1 0.21852356E+00 0.68537790E+03</pdfrwt>
<pdfrwt beam="2">  1       -1 0.15422965E+00 0.68537790E+03</pdfrwt>
<totfact> 0.25439117E+00</totfact>
</mgrwt>
</event>
<event>
 4    1  0.4964158E-009  0.1034099E+04  0.7818608E-02  0.9271916E-01
         -1   -1    0    0    0  501 -0.00000000000E+00  0.00000000000E+00  0.97716350905E+03  0.97716350906E+03  0.50400000000E-02 0.  1.
          1   -1    0    0  501    0  0.00000000000E+00 -0.00000000000E+00 -0.14864918961E+04  0.14864918962E+04  0.50400000000E-02 0. -1.
    8880022    1    1    2    0    0 -0.89128894312E+03  0.50157166300E+03 -0.88735086269E+03  0.13626273591E+04  0.15294330000E+03 0.  0.
    8880022    1    1    2    0    0  0.89128894312E+03 -0.50157166300E+03  0.37802247559E+03  0.11010280461E+04  0.15294330000E+03 0.  0.
<mgrwt>
<rscale>  0 0.10340995E+04</rscale>
<asrwt>0</asrwt>
<pdfrwt beam="1">  1        1 0.22869106E+00 0.10340995E+04</pdfrwt>
<pdfrwt beam="2">  1       -1 0.15033285E+00 0.10340995E+04</pdfrwt>
<totfact> 0.23202400E+00</totfact>
</mgrwt>
</event>
<event>
 4    1  0.4964158E-009  0.7230229E+03  0.7818608E-02  0.9678650E-01
         -1   -1    0    0    0  501 -0.00000000000E+00  0.00000000000E+00  0.14545411521E+04  0.14545411521E+04  0.50400000000E-02 0.  1.
          1   -1    0    0  501    0  0.00000000000E+00 -0.00000000000E+00 -0.26446046768E+04  0.26446046768E+04  0.50400000000E-02 0. -1.
    8880022    1    1    2    0    0 -0.33865992705E+03  0.62022575208E+03 -0.25002535457E+04  0.26026966737E+04  0.15294330000E+03 0.  0.
    8880022    1    1    2    0    0  0.33865992705E+03 -0.62022575208E+03  0.13101900210E+04  0.14964491552E+04  0.15294330000E+03 0.  0.
<mgrwt>
<rscale>  0 0.72302295E+03</rscale>
<asrwt>0</asrwt>
<pdfrwt beam="1">  1        1 0.40686226E+00 0.72302295E+03</pdfrwt>
<pdfrwt beam="2">  1       -1 0.22377556E+00 0.72302295E+03</pdfrwt>
<totfact> 0.12205911E-01</totfact>
</mgrwt>
</event>
<event>
 4    1  0.4964158E-009  0.9667855E+03  0.7818608E-02  0.9345743E-01
         -1   -1    0    0    0  501 -0.00000000000E+00  0.00000000000E+00  0.75929176880E+03  0.75929176881E+03  0.50400000000E-02 0.  1.
          1   -1    0    0  501    0  0.00000000000E+00 -0.00000000000E+00 -0.26062948597E+04  0.26062948598E+04  0.50400000000E-02 0. -1.
    8880022    1    1    2    0    0  0.72348636045E+03  0.62277605634E+03  0.29891669595E+03  0.10119413887E+04  0.15294330000E+03 0.  0.
    8880022    1    1    2    0    0 -0.72348636045E+03 -0.62277605634E+03 -0.21459197869E+04  0.23536452398E+04  0.15294330000E+03 0.  0.
<mgrwt>
<rscale>  0 0.96678549E+03</rscale>
<asrwt>0</asrwt>
<pdfrwt beam="1">  1        1 0.40096844E+00 0.96678549E+03</pdfrwt>
<pdfrwt beam="2">  1       -1 0.11681412E+00 0.96678549E+03</pdfrwt>
<totfact> 0.77467934E-01</totfact>
</mgrwt>
</event>
<event>
 4    1  0.4964158E-009  0.1337734E+04  0.7818608E-02  0.9000166E-01
          1   -1    0    0  501    0  0.00000000000E+00  0.00000000000E+00  0.12425199754E+04  0.12425199754E+04  0.50400000000E-02 0. -1.
         -1   -1    0    0    0  501 -0.00000000000E+00 -0.00000000000E+00 -0.19991237957E+04  0.19991237958E+04  0.50400000000E-02 0.  1.
    8880022    1    1    2    0    0  0.13094149272E+04  0.22709594577E+03  0.47868608046E+03  0.14207997877E+04  0.15294330000E+03 0.  0.
    8880022    1    1    2    0    0 -0.13094149272E+04 -0.22709594577E+03 -0.12352899008E+04  0.18208439835E+04  0.15294330000E+03 0.  0.
<mgrwt>
<rscale>  0 0.13377338E+04</rscale>
<asrwt>0</asrwt>
<pdfrwt beam="1">  1        1 0.19115692E+00 0.13377338E+04</pdfrwt>
<pdfrwt beam="2">  1       -1 0.30755751E+00 0.13377338E+04</pdfrwt>
<totfact> 0.28374635E-01</totfact>
</mgrwt>
</event>
<event>
 4    1  0.4964158E-009  0.6221396E+03  0.7818608E-02  0.9860509E-01
         -1   -1    0    0    0  501 -0.00000000000E+00  0.00000000000E+00  0.28602054278E+04  0.28602054278E+04  0.50400000000E-02 0.  1.
          1   -1    0    0  501    0  0.00000000000E+00 -0.00000000000E+00 -0.89031010595E+03  0.89031010597E+03  0.50400000000E-02 0. -1.
    8880022    1    1    2    0    0 -0.31270733938E+03  0.51563568008E+03 -0.74192166137E+03  0.96824864539E+03  0.15294330000E+03 0.  0.
    8880022    1    1    2    0    0  0.31270733938E+03 -0.51563568008E+03  0.27118169832E+04  0.27822668883E+04  0.15294330000E+03 0.  0.
<mgrwt>
<rscale>  0 0.62213960E+03</rscale>
<asrwt>0</asrwt>
<pdfrwt beam="1">  1        1 0.13697079E+00 0.62213960E+03</pdfrwt>
<pdfrwt beam="2">  1       -1 0.44003160E+00 0.62213960E+03</pdfrwt>
<totfact> 0.78936410E-02</totfact>
</mgrwt>
</event>
<event>
 4    1  0.4964158E-009  0.1377779E+04  0.7818608E-02  0.8970062E-01
         -1   -1    0    0    0  501 -0.00000000000E+00  0.00000000000E+00  0.13982105856E+04  0.13982105856E+04  0.50400000000E-02 0.  1.
          1   -1    0    0  501    0  0.00000000000E+00 -0.00000000000E+00 -0.15025609039E+04  0.15025609039E+04  0.50400000000E-02 0. -1.
    8880022    1    1    2    0    0  0.85820094615E+03  0.10669460699E+04  0.39825205687E+03  0.14341823921E+04  0.15294330000E+03 0.  0.
    8880022    1    1    2    0    0 -0.85820094615E+03 -0.10669460699E+04 -0.50260237515E+03  0.14665890974E+04  0.15294330000E+03 0.  0.
<mgrwt>
<rscale>  0 0.13777788E+04</rscale>
<asrwt>0</asrwt>
<pdfrwt beam="1">  1        1 0.23116322E+00 0.13777788E+04</pdfrwt>
<pdfrwt beam="2">  1       -1 0.21510932E+00 0.13777788E+04</pdfrwt>
<totfact> 0.74197742E-01</totfact>
</mgrwt>
</event>
<event>
 4    1  0.4964158E-009  0.6614531E+03  0.7818608E-02  0.9785523E-01
         -1   -1    0    0    0  501 -0.00000000000E+00  0.00000000000E+00  0.61788773449E+03  0.61788773451E+03  0.50400000000E-02 0.  1.
          1   -1    0    0  501    0  0.00000000000E+00 -0.00000000000E+00 -0.14975135007E+04  0.14975135007E+04  0.50400000000E-02 0. -1.
    8880022    1    1    2    0    0 -0.62843762500E+03 -0.13854475422E+03  0.32813615242E+03  0.73837218595E+03  0.15294330000E+03 0.  0.
    8880022    1    1    2    0    0  0.62843762500E+03  0.13854475422E+03 -0.12077619186E+04  0.13770290493E+04  0.15294330000E+03 0.  0.
<mgrwt>
<rscale>  0 0.66145306E+03</rscale>
<asrwt>0</asrwt>
<pdfrwt beam="1">  1        1 0.23038669E+00 0.66145306E+03</pdfrwt>
<pdfrwt beam="2">  1       -1 0.95059652E-01 0.66145306E+03</pdfrwt>
<totfact> 0.74127532E+00</totfact>
</mgrwt>
</event>
<event>
 4    1  0.4964158E-009  0.1591156E+03  0.7818608E-02  0.1189699E+00
         -1   -1    0    0    0  501 -0.00000000000E+00  0.00000000000E+00  0.66155238710E+02  0.66155238902E+02  0.50400000000E-02 0.  1.
          1   -1    0    0  501    0  0.00000000000E+00 -0.00000000000E+00 -0.80449105539E+03  0.80449105540E+03  0.50400000000E-02 0. -1.
    8880022    1    1    2    0    0  0.13396114192E+02 -0.41793213036E+02 -0.53958989465E+02  0.16801593404E+03  0.15294330000E+03 0.  0.
    8880022    1    1    2    0    0 -0.13396114192E+02  0.41793213036E+02 -0.68437682721E+03  0.70263036027E+03  0.15294330000E+03 0. -1.
<mgrwt>
<rscale>  0 0.15911562E+03</rscale>
<asrwt>0</asrwt>
<pdfrwt beam="1">  1        1 0.12376785E+00 0.15911562E+03</pdfrwt>
<pdfrwt beam="2">  1       -1 0.10177730E-01 0.15911562E+03</pdfrwt>
<totfact> 0.13516809E+03</totfact>
</mgrwt>
</event>
<event>
 4    1  0.4964158E-009  0.1098907E+04  0.7818608E-02  0.9206258E-01
          1   -1    0    0  501    0  0.00000000000E+00  0.00000000000E+00  0.17537353597E+04  0.17537353597E+04  0.50400000000E-02 0. -1.
         -1   -1    0    0    0  501 -0.00000000000E+00 -0.00000000000E+00 -0.82619778291E+03  0.82619778293E+03  0.50400000000E-02 0.  1.
    8880022    1    1    2    0    0 -0.30173259557E+03  0.10455440990E+04  0.99022845085E+03  0.14792393519E+04  0.15294330000E+03 0.  0.
    8880022    1    1    2    0    0  0.30173259557E+03 -0.10455440990E+04 -0.62690874089E+02  0.11006937907E+04  0.15294330000E+03 0.  0.
<mgrwt>
<rscale>  0 0.10989070E+04</rscale>
<asrwt>0</asrwt>
<pdfrwt beam="1">  1        1 0.26980544E+00 0.10989070E+04</pdfrwt>
<pdfrwt beam="2">  1       -1 0.12710735E+00 0.10989070E+04</pdfrwt>
<totfact> 0.23390194E+00</totfact>
</mgrwt>
</event>
<event>
 4    1  0.4964158E-009  0.1362370E+04  0.7818608E-02  0.8981517E-01
         -1   -1    0    0    0  501 -0.00000000000E+00  0.00000000000E+00  0.29875504052E+04  0.29875504052E+04  0.50400000000E-02 0.  1.
          1   -1    0    0  501    0  0.00000000000E+00 -0.00000000000E+00 -0.96544222290E+03  0.96544222292E+03  0.50400000000E-02 0. -1.
    8880022    1    1    2    0    0 -0.11274202017E+04  0.74938889864E+03 -0.16906487336E+03  0.13728199507E+04  0.15294330000E+03 0.  0.
    8880022    1    1    2    0    0  0.11274202017E+04 -0.74938889864E+03  0.21911730557E+04  0.25801726775E+04  0.15294330000E+03 0.  0.
<mgrwt>
<rscale>  0 0.13623699E+04</rscale>
<asrwt>0</asrwt>
<pdfrwt beam="1">  1        1 0.14852957E+00 0.13623699E+04</pdfrwt>
<pdfrwt beam="2">  1       -1 0.45962314E+00 0.13623699E+04</pdfrwt>
<totfact> 0.43326962E-02</totfact>
</mgrwt>
</event>
<event>
 4    1  0.4964158E-009  0.1678590E+03  0.7818608E-02  0.1180099E+00
          1   -1    0    0  501    0  0.00000000000E+00  0.00000000000E+00  0.77769974590E+03  0.77769974591E+03  0.50400000000E-02 0. -1.
         -1   -1    0    0    0  501 -0.00000000000E+00 -0.00000000000E+00 -0.18327446614E+04  0.18327446614E+04  0.50400000000E-02 0.  1.
    8880022    1    1    2    0    0 -0.11442335017E+01  0.69164214858E+02  0.76473415415E+03  0.78293995774E+03  0.15294330000E+03 0. -1.
    8880022    1    1    2    0    0  0.11442335017E+01 -0.69164214858E+02 -0.18197790696E+04  0.18275044495E+04  0.15294330000E+03 0.  0.
<mgrwt>
<rscale>  0 0.16785902E+03</rscale>
<asrwt>0</asrwt>
<pdfrwt beam="1">  1        1 0.11964612E+00 0.16785902E+03</pdfrwt>
<pdfrwt beam="2">  1       -1 0.28196072E+00 0.16785902E+03</pdfrwt>
<totfact> 0.13236829E+00</totfact>
</mgrwt>
</event>
<event>
 4    1  0.4964158E-009  0.5871057E+03  0.7818608E-02  0.9932525E-01
         -1   -1    0    0    0  501 -0.00000000000E+00  0.00000000000E+00  0.71403466695E+03  0.71403466697E+03  0.50400000000E-02 0.  1.
          1   -1    0    0  501    0  0.00000000000E+00 -0.00000000000E+00 -0.96238797090E+03  0.96238797091E+03  0.50400000000E-02 0. -1.
    8880022    1    1    2    0    0  0.46049300980E+03 -0.33052637700E+03  0.46757529904E+03  0.75054634184E+03  0.15294330000E+03 0.  1.
    8880022    1    1    2    0    0 -0.46049300980E+03  0.33052637700E+03 -0.71592860299E+03  0.92587629603E+03  0.15294330000E+03 0.  0.
<mgrwt>
<rscale>  0 0.58710574E+03</rscale>
<asrwt>0</asrwt>
<pdfrwt beam="1">  1        1 0.14805969E+00 0.58710574E+03</pdfrwt>
<pdfrwt beam="2">  1       -1 0.10985149E+00 0.58710574E+03</pdfrwt>
<totfact> 0.13102170E+01</totfact>
</mgrwt>
</event>
<event>
 4    1  0.4964158E-009  0.7078414E+03  0.7818608E-02  0.9703915E-01
         -1   -1    0    0    0  501 -0.00000000000E+00  0.00000000000E+00  0.63745464057E+03  0.63745464059E+03  0.50400000000E-02 0.  1.
          1   -1    0    0  501    0  0.00000000000E+00 -0.00000000000E+00 -0.22828047526E+04  0.22828047526E+04  0.50400000000E-02 0. -1.
    8880022    1    1    2    0    0  0.35049427837E+03 -0.59565224141E+03  0.35965735594E+03  0.79397285758E+03  0.15294330000E+03 0.  0.
    8880022    1    1    2    0    0 -0.35049427837E+03  0.59565224141E+03 -0.20050074680E+04  0.21262865356E+04  0.15294330000E+03 0.  0.
<mgrwt>
<rscale>  0 0.70784143E+03</rscale>
<asrwt>0</asrwt>
<pdfrwt beam="1">  1        1 0.35120073E+00 0.70784143E+03</pdfrwt>
<pdfrwt beam="2">  1       -1 0.98069946E-01 0.70784143E+03</pdfrwt>
<totfact> 0.20369613E+00</totfact>
</mgrwt>
</event>
<event>
 4    1  0.4964158E-009  0.3848242E+03  0.7818608E-02  0.1049165E+00
         -1   -1    0    0    0  501 -0.00000000000E+00  0.00000000000E+00  0.12294493428E+04  0.12294493428E+04  0.50400000000E-02 0.  1.
          1   -1    0    0  501    0  0.00000000000E+00 -0.00000000000E+00 -0.86073692451E+03  0.86073692452E+03  0.50400000000E-02 0. -1.
    8880022    1    1    2    0    0 -0.33813864951E+03  0.10178520538E+03  0.11535692104E+04  0.12160639582E+04  0.15294330000E+03 0.  0.
    8880022    1    1    2    0    0  0.33813864951E+03 -0.10178520538E+03 -0.78485679205E+03  0.87412230916E+03  0.15294330000E+03 0.  0.
<mgrwt>
<rscale>  0 0.38482415E+03</rscale>
<asrwt>0</asrwt>
<pdfrwt beam="1">  1        1 0.13242107E+00 0.38482415E+03</pdfrwt>
<pdfrwt beam="2">  1       -1 0.18914605E+00 0.38482415E+03</pdfrwt>
<totfact> 0.39609199E+00</totfact>
</mgrwt>
</event>
<event>
 4    1  0.4964158E-009  0.1111454E+04  0.7818608E-02  0.9194099E-01
          1   -1    0    0  501    0  0.00000000000E+00  0.00000000000E+00  0.23651323766E+04  0.23651323766E+04  0.50400000000E-02 0. -1.
         -1   -1    0    0    0  501 -0.00000000000E+00 -0.00000000000E+00 -0.10621266621E+04  0.10621266622E+04  0.50400000000E-02 0.  1.
    8880022    1    1    2    0    0  0.63455136014E+03  0.89960203618E+03  0.18731679308E+04  0.21780929737E+04  0.15294330000E+03 0.  0.
    8880022    1    1    2    0    0 -0.63455136014E+03 -0.89960203618E+03 -0.57016221634E+03  0.12491660651E+04  0.15294330000E+03 0.  0.
<mgrwt>
<rscale>  0 0.11114544E+04</rscale>
<asrwt>0</asrwt>
<pdfrwt beam="1">  1        1 0.36386652E+00 0.11114544E+04</pdfrwt>
<pdfrwt beam="2">  1       -1 0.16340410E+00 0.11114544E+04</pdfrwt>
<totfact> 0.46164711E-01</totfact>
</mgrwt>
</event>
<event>
 4    1  0.4964158E-009  0.7110704E+03  0.7818608E-02  0.9698485E-01
         -1   -1    0    0    0  501 -0.00000000000E+00  0.00000000000E+00  0.74183362265E+03  0.74183362267E+03  0.50400000000E-02 0.  1.
          1   -1    0    0  501    0  0.00000000000E+00 -0.00000000000E+00 -0.12070009226E+04  0.12070009227E+04  0.50400000000E-02 0. -1.
    8880022    1    1    2    0    0  0.62607034541E+03  0.30044191895E+03 -0.87548401880E+03  0.11278711559E+04  0.15294330000E+03 0.  0.
    8880022    1    1    2    0    0 -0.62607034541E+03 -0.30044191895E+03  0.41031671881E+03  0.82096338945E+03  0.15294330000E+03 0.  0.
<mgrwt>
<rscale>  0 0.71107037E+03</rscale>
<asrwt>0</asrwt>
<pdfrwt beam="1">  1        1 0.18569245E+00 0.71107037E+03</pdfrwt>
<pdfrwt beam="2">  1       -1 0.11412825E+00 0.71107037E+03</pdfrwt>
<totfact> 0.76942740E+00</totfact>
</mgrwt>
</event>
<event>
 4    1  0.4964158E-009  0.1157320E+04  0.7818608E-02  0.9151057E-01
         -1   -1    0    0    0  501 -0.00000000000E+00  0.00000000000E+00  0.18184798883E+04  0.18184798883E+04  0.50400000000E-02 0.  1.
          1   -1    0    0  501    0  0.00000000000E+00 -0.00000000000E+00 -0.15142425653E+04  0.15142425653E+04  0.50400000000E-02 0. -1.
    8880022    1    1    2    0    0 -0.65465950200E+03  0.94202950987E+03  0.13463187435E+04  0.17753772763E+04  0.15294330000E+03 0.  0.
    8880022    1    1    2    0    0  0.65465950200E+03 -0.94202950987E+03 -0.10420814206E+04  0.15573451773E+04  0.15294330000E+03 0.  0.
<mgrwt>
<rscale>  0 0.11573203E+04</rscale>
<asrwt>0</asrwt>
<pdfrwt beam="1">  1        1 0.23296039E+00 0.11573203E+04</pdfrwt>
<pdfrwt beam="2">  1       -1 0.27976614E+00 0.11573203E+04</pdfrwt>
<totfact> 0.28244156E-01</totfact>
</mgrwt>
</event>
<event>
 4    1  0.4964158E-009  0.4313470E+03  0.7818608E-02  0.1033435E+00
          1   -1    0    0  501    0  0.00000000000E+00  0.00000000000E+00  0.24809136505E+04  0.24809136505E+04  0.50400000000E-02 0. -1.
         -1   -1    0    0    0  501 -0.00000000000E+00 -0.00000000000E+00 -0.43101257437E+03  0.43101257440E+03  0.50400000000E-02 0.  1.
    8880022    1    1    2    0    0 -0.21716110853E+03  0.33986712733E+03 -0.29829397309E+03  0.52444214046E+03  0.15294330000E+03 0.  0.
    8880022    1    1    2    0    0  0.21716110853E+03 -0.33986712733E+03  0.23481950492E+04  0.23874840844E+04  0.15294330000E+03 0.  0.
<mgrwt>
<rscale>  0 0.43134703E+03</rscale>
<asrwt>0</asrwt>
<pdfrwt beam="1">  1        1 0.38167902E+00 0.43134703E+03</pdfrwt>
<pdfrwt beam="2">  1       -1 0.66309628E-01 0.43134703E+03</pdfrwt>
<totfact> 0.37004735E+00</totfact>
</mgrwt>
</event>
<event>
 4    1  0.4964158E-009  0.1045651E+04  0.7818608E-02  0.9259845E-01
          1   -1    0    0  501    0  0.00000000000E+00  0.00000000000E+00  0.29433817035E+04  0.29433817035E+04  0.50400000000E-02 0. -1.
         -1   -1    0    0    0  501 -0.00000000000E+00 -0.00000000000E+00 -0.58750682501E+03  0.58750682503E+03  0.50400000000E-02 0.  1.
    8880022    1    1    2    0    0  0.54556188081E+03  0.87883845724E+03  0.10738348445E+03  0.10511506388E+04  0.15294330000E+03 0.  0.
    8880022    1    1    2    0    0 -0.54556188081E+03 -0.87883845724E+03  0.22484913941E+04  0.24797378898E+04  0.15294330000E+03 0.  0.
<mgrwt>
<rscale>  0 0.10456512E+04</rscale>
<asrwt>0</asrwt>
<pdfrwt beam="1">  1        1 0.45282796E+00 0.10456512E+04</pdfrwt>
<pdfrwt beam="2">  1       -1 0.90385665E-01 0.10456512E+04</pdfrwt>
<totfact> 0.80151684E-01</totfact>
</mgrwt>
</event>
<event>
 4    1  0.4964158E-009  0.9991074E+03  0.7818608E-02  0.9309524E-01
         -1   -1    0    0    0  501 -0.00000000000E+00  0.00000000000E+00  0.66399722271E+03  0.66399722273E+03  0.50400000000E-02 0.  1.
          1   -1    0    0  501    0  0.00000000000E+00 -0.00000000000E+00 -0.36275467061E+04  0.36275467061E+04  0.50400000000E-02 0. -1.
    8880022    1    1    2    0    0 -0.18882108850E+03 -0.96910815204E+03 -0.31237822079E+04  0.32796693354E+04  0.15294330000E+03 0.  0.
    8880022    1    1    2    0    0  0.18882108850E+03  0.96910815204E+03  0.16023272457E+03  0.10118745934E+04  0.15294330000E+03 0.  0.
<mgrwt>
<rscale>  0 0.99910744E+03</rscale>
<asrwt>0</asrwt>
<pdfrwt beam="1">  1        1 0.55808410E+00 0.99910744E+03</pdfrwt>
<pdfrwt beam="2">  1       -1 0.10215342E+00 0.99910744E+03</pdfrwt>
<totfact> 0.18711994E-01</totfact>
</mgrwt>
</event>
<event>
 4    1  0.4964158E-009  0.8958152E+03  0.7818608E-02  0.9430828E-01
         -1   -1    0    0    0  501 -0.00000000000E+00  0.00000000000E+00  0.49120402454E+03  0.49120402457E+03  0.50400000000E-02 0.  1.
          1   -1    0    0  501    0  0.00000000000E+00 -0.00000000000E+00 -0.35270737304E+04  0.35270737304E+04  0.50400000000E-02 0. -1.
    8880022    1    1    2    0    0 -0.83795198376E+03 -0.27736209378E+03 -0.29899752170E+04  0.31212876685E+04  0.15294330000E+03 0.  0.
    8880022    1    1    2    0    0  0.83795198376E+03  0.27736209378E+03 -0.45894488879E+02  0.89699008650E+03  0.15294330000E+03 0.  0.
<mgrwt>
<rscale>  0 0.89581522E+03</rscale>
<asrwt>0</asrwt>
<pdfrwt beam="1">  1        1 0.54262671E+00 0.89581522E+03</pdfrwt>
<pdfrwt beam="2">  1       -1 0.75569852E-01 0.89581522E+03</pdfrwt>
<totfact> 0.44440716E-01</totfact>
</mgrwt>
</event>
<event>
 4    1  0.4964158E-009  0.3426878E+03  0.7818608E-02  0.1065657E+00
         -1   -1    0    0    0  501 -0.00000000000E+00  0.00000000000E+00  0.10039769675E+04  0.10039769675E+04  0.50400000000E-02 0.  1.
          1   -1    0    0  501    0  0.00000000000E+00 -0.00000000000E+00 -0.64572703949E+03  0.64572703951E+03  0.50400000000E-02 0. -1.
    8880022    1    1    2    0    0  0.28786417472E+03  0.10572375736E+03  0.92553887597E+03  0.98694334179E+03  0.15294330000E+03 0.  0.
    8880022    1    1    2    0    0 -0.28786417472E+03 -0.10572375736E+03 -0.56728894793E+03  0.66276066526E+03  0.15294330000E+03 0.  0.
<mgrwt>
<rscale>  0 0.34268783E+03</rscale>
<asrwt>0</asrwt>
<pdfrwt beam="1">  1        1 0.99342622E-01 0.34268783E+03</pdfrwt>
<pdfrwt beam="2">  1       -1 0.15445799E+00 0.34268783E+03</pdfrwt>
<totfact> 0.11023070E+01</totfact>
</mgrwt>
</event>
<event>
 4    1  0.4964158E-009  0.4421570E+03  0.7818608E-02  0.1030087E+00
          1   -1    0    0  501    0  0.00000000000E+00  0.00000000000E+00  0.43308459954E+04  0.43308459954E+04  0.50400000000E-02 0. -1.
         -1   -1    0    0    0  501 -0.00000000000E+00 -0.00000000000E+00 -0.18711755268E+03  0.18711755274E+03  0.50400000000E-02 0.  1.
    8880022    1    1    2    0    0  0.17597499972E+03  0.37569125640E+03  0.10414855130E+03  0.45425729979E+03  0.15294330000E+03 0.  0.
    8880022    1    1    2    0    0 -0.17597499972E+03 -0.37569125640E+03  0.40395798914E+04  0.40637062483E+04  0.15294330000E+03 0.  0.
<mgrwt>
<rscale>  0 0.44215696E+03</rscale>
<asrwt>0</asrwt>
<pdfrwt beam="1">  1        1 0.66628401E+00 0.44215696E+03</pdfrwt>
<pdfrwt beam="2">  1       -1 0.28787315E-01 0.44215696E+03</pdfrwt>
<totfact> 0.64519057E-01</totfact>
</mgrwt>
</event>
<event>
 4    1  0.4964158E-009  0.9583598E+03  0.7818608E-02  0.9355432E-01
          1   -1    0    0  501    0  0.00000000000E+00  0.00000000000E+00  0.29241371296E+04  0.29241371296E+04  0.50400000000E-02 0. -1.
         -1   -1    0    0    0  501 -0.00000000000E+00 -0.00000000000E+00 -0.79616015686E+03  0.79616015688E+03  0.50400000000E-02 0.  1.
    8880022    1    1    2    0    0  0.93938618409E+03 -0.11231809544E+03  0.25114293559E+04  0.26880719522E+04  0.15294330000E+03 0.  0.
    8880022    1    1    2    0    0 -0.93938618409E+03  0.11231809544E+03 -0.38345238323E+03  0.10322253342E+04  0.15294330000E+03 0.  0.
<mgrwt>
<rscale>  0 0.95835975E+03</rscale>
<asrwt>0</asrwt>
<pdfrwt beam="1">  1        1 0.44986725E+00 0.95835975E+03</pdfrwt>
<pdfrwt beam="2">  1       -1 0.12248618E+00 0.95835975E+03</pdfrwt>
<totfact> 0.41310240E-01</totfact>
</mgrwt>
</event>
<event>
 4    1  0.4964158E-009  0.3777695E+03  0.7818608E-02  0.1051761E+00
         -1   -1    0    0    0  501 -0.00000000000E+00  0.00000000000E+00  0.72990906448E+02  0.72990906622E+02  0.50400000000E-02 0.  1.
          1   -1    0    0  501    0  0.00000000000E+00 -0.00000000000E+00 -0.31144032225E+04  0.31144032225E+04  0.50400000000E-02 0. -1.
    8880022    1    1    2    0    0 -0.16903368715E+03 -0.30124040180E+03 -0.24930128533E+04  0.25214723688E+04  0.15294330000E+03 0.  0.
    8880022    1    1    2    0    0  0.16903368715E+03  0.30124040180E+03 -0.54839946275E+03  0.66592176029E+03  0.15294330000E+03 0.  0.
<mgrwt>
<rscale>  0 0.37776953E+03</rscale>
<asrwt>0</asrwt>
<pdfrwt beam="1">  1        1 0.47913885E+00 0.37776953E+03</pdfrwt>
<pdfrwt beam="2">  1       -1 0.11229373E-01 0.37776953E+03</pdfrwt>
<totfact> 0.29545185E+01</totfact>
</mgrwt>
</event>
<event>
 4    1  0.4964158E-009  0.3212316E+03  0.7818608E-02  0.1075084E+00
          1   -1    0    0  501    0  0.00000000000E+00  0.00000000000E+00  0.13914110534E+04  0.13914110534E+04  0.50400000000E-02 0. -1.
         -1   -1    0    0    0  501 -0.00000000000E+00 -0.00000000000E+00 -0.56200266778E+03  0.56200266780E+03  0.50400000000E-02 0.  1.
    8880022    1    1    2    0    0 -0.28064221013E+03 -0.32218631136E+02  0.13246888650E+04  0.13630811907E+04  0.15294330000E+03 0.  0.
    8880022    1    1    2    0    0  0.28064221013E+03  0.32218631136E+02 -0.49528047939E+03  0.59033253051E+03  0.15294330000E+03 0.  0.
<mgrwt>
<rscale>  0 0.32123160E+03</rscale>
<asrwt>0</asrwt>
<pdfrwt beam="1">  1        1 0.21406324E+00 0.32123160E+03</pdfrwt>
<pdfrwt beam="2">  1       -1 0.86461949E-01 0.32123160E+03</pdfrwt>
<totfact> 0.11711914E+01</totfact>
</mgrwt>
</event>
<event>
 4    1  0.4964158E-009  0.3690951E+03  0.7818608E-02  0.1055039E+00
          1   -1    0    0  501    0  0.00000000000E+00  0.00000000000E+00  0.36385199089E+03  0.36385199093E+03  0.50400000000E-02 0. -1.
         -1   -1    0    0    0  501 -0.00000000000E+00 -0.00000000000E+00 -0.82399943380E+03  0.82399943381E+03  0.50400000000E-02 0.  1.
    8880022    1    1    2    0    0  0.24178885168E+03 -0.23319028597E+03 -0.66878103753E+03  0.76387125057E+03  0.15294330000E+03 0.  0.
    8880022    1    1    2    0    0 -0.24178885168E+03  0.23319028597E+03  0.20863359463E+03  0.42398017417E+03  0.15294330000E+03 0. -1.
<mgrwt>
<rscale>  0 0.36909512E+03</rscale>
<asrwt>0</asrwt>
<pdfrwt beam="1">  1        1 0.55977229E-01 0.36909512E+03</pdfrwt>
<pdfrwt beam="2">  1       -1 0.12676914E+00 0.36909512E+03</pdfrwt>
<totfact> 0.39354323E+01</totfact>
</mgrwt>
</event>
<event>
 4    1  0.4964158E-009  0.3610332E+03  0.7818608E-02  0.1058176E+00
         -1   -1    0    0    0  501 -0.00000000000E+00  0.00000000000E+00  0.40565954636E+03  0.40565954639E+03  0.50400000000E-02 0.  1.
          1   -1    0    0  501    0  0.00000000000E+00 -0.00000000000E+00 -0.38128001022E+03  0.38128001025E+03  0.50400000000E-02 0. -1.
    8880022    1    1    2    0    0 -0.32613901115E+03 -0.24221200010E+02 -0.14384955600E+03  0.38863565058E+03  0.15294330000E+03 0.  0.
    8880022    1    1    2    0    0  0.32613901115E+03  0.24221200010E+02  0.16822909215E+03  0.39830390606E+03  0.15294330000E+03 0.  0.
<mgrwt>
<rscale>  0 0.36103320E+03</rscale>
<asrwt>0</asrwt>
<pdfrwt beam="1">  1        1 0.58658463E-01 0.36103320E+03</pdfrwt>
<pdfrwt beam="2">  1       -1 0.62409161E-01 0.36103320E+03</pdfrwt>
<totfact> 0.17348526E+02</totfact>
</mgrwt>
</event>
<event>
 4    1  0.4964158E-009  0.1323368E+04  0.7818608E-02  0.9011236E-01
         -1   -1    0    0    0  501 -0.00000000000E+00  0.00000000000E+00  0.14634002783E+04  0.14634002783E+04  0.50400000000E-02 0.  1.
          1   -1    0    0  501    0  0.00000000000E+00 -0.00000000000E+00 -0.13662787001E+04  0.13662787001E+04  0.50400000000E-02 0. -1.
    8880022    1    1    2    0    0  0.11174037519E+04  0.69232993568E+03 -0.44983836557E+03  0.13977331980E+04  0.15294330000E+03 0.  0.
    8880022    1    1    2    0    0 -0.11174037519E+04 -0.69232993568E+03  0.54695994378E+03  0.14319457803E+04  0.15294330000E+03 0.  0.
<mgrwt>
<rscale>  0 0.13233683E+04</rscale>
<asrwt>0</asrwt>
<pdfrwt beam="1">  1        1 0.21019672E+00 0.13233683E+04</pdfrwt>
<pdfrwt beam="2">  1       -1 0.22513850E+00 0.13233683E+04</pdfrwt>
<totfact> 0.79689937E-01</totfact>
</mgrwt>
</event>
<event>
 4    1  0.4964158E-009  0.4884132E+03  0.7818608E-02  0.1016848E+00
          1   -1    0    0  501    0  0.00000000000E+00  0.00000000000E+00  0.25367335602E+04  0.25367335602E+04  0.50400000000E-02 0. -1.
         -1   -1    0    0    0  501 -0.00000000000E+00 -0.00000000000E+00 -0.73011673820E+03  0.73011673822E+03  0.50400000000E-02 0.  1.
    8880022    1    1    2    0    0 -0.38313900820E+03 -0.26145804426E+03  0.24279184643E+04  0.24765571932E+04  0.15294330000E+03 0. -1.
    8880022    1    1    2    0    0  0.38313900820E+03  0.26145804426E+03 -0.62130164232E+03  0.79029310529E+03  0.15294330000E+03 0.  0.
<mgrwt>
<rscale>  0 0.48841321E+03</rscale>
<asrwt>0</asrwt>
<pdfrwt beam="1">  1        1 0.39026670E+00 0.48841321E+03</pdfrwt>
<pdfrwt beam="2">  1       -1 0.11232565E+00 0.48841321E+03</pdfrwt>
<totfact> 0.10654602E+00</totfact>
</mgrwt>
</event>
<event>
 4    1  0.4964158E-009  0.5872371E+03  0.7818608E-02  0.9932245E-01
          1   -1    0    0  501    0  0.00000000000E+00  0.00000000000E+00  0.12660273327E+04  0.12660273327E+04  0.50400000000E-02 0. -1.
         -1   -1    0    0    0  501 -0.00000000000E+00 -0.00000000000E+00 -0.84183406357E+03  0.84183406359E+03  0.50400000000E-02 0.  1.
    8880022    1    1    2    0    0  0.17762154165E+03  0.53842951669E+03 -0.65471769396E+03  0.87949000466E+03  0.15294330000E+03 0.  1.
    8880022    1    1    2    0    0 -0.17762154165E+03 -0.53842951669E+03  0.10789109631E+04  0.12283713916E+04  0.15294330000E+03 0.  0.
<mgrwt>
<rscale>  0 0.58723710E+03</rscale>
<asrwt>0</asrwt>
<pdfrwt beam="1">  1        1 0.19477344E+00 0.58723710E+03</pdfrwt>
<pdfrwt beam="2">  1       -1 0.12951293E+00 0.58723710E+03</pdfrwt>
<totfact> 0.52430359E+00</totfact>
</mgrwt>
</event>
<event>
 4    1  0.4964158E-009  0.3097974E+03  0.7818608E-02  0.1080443E+00
         -1   -1    0    0    0  501 -0.00000000000E+00  0.00000000000E+00  0.42727415634E+03  0.42727415637E+03  0.50400000000E-02 0.  1.
          1   -1    0    0  501    0  0.00000000000E+00 -0.00000000000E+00 -0.24769539308E+04  0.24769539308E+04  0.50400000000E-02 0. -1.
    8880022    1    1    2    0    0 -0.17176139888E+03 -0.20755911334E+03  0.35986788256E+03  0.47484661691E+03  0.15294330000E+03 0.  0.
    8880022    1    1    2    0    0  0.17176139888E+03  0.20755911334E+03 -0.24095476570E+04  0.24293814703E+04  0.15294330000E+03 0.  0.
<mgrwt>
<rscale>  0 0.30979738E+03</rscale>
<asrwt>0</asrwt>
<pdfrwt beam="1">  1        1 0.38106983E+00 0.30979738E+03</pdfrwt>
<pdfrwt beam="2">  1       -1 0.65734487E-01 0.30979738E+03</pdfrwt>
<totfact> 0.39808657E+00</totfact>
</mgrwt>
</event>
<event>
 4    1  0.4964158E-009  0.7745167E+03  0.7818608E-02  0.9597654E-01
          1   -1    0    0  501    0  0.00000000000E+00  0.00000000000E+00  0.58415819349E+03  0.58415819351E+03  0.50400000000E-02 0. -1.
         -1   -1    0    0    0  501 -0.00000000000E+00 -0.00000000000E+00 -0.13300504028E+04  0.13300504028E+04  0.50400000000E-02 0.  1.
    8880022    1    1    2    0    0 -0.72175237419E+03  0.23570733388E+03 -0.82987575092E+03  0.11351519070E+04  0.15294330000E+03 0.  0.
    8880022    1    1    2    0    0  0.72175237419E+03 -0.23570733388E+03  0.83983541648E+02  0.77905668932E+03  0.15294330000E+03 0.  0.
<mgrwt>
<rscale>  0 0.77451668E+03</rscale>
<asrwt>0</asrwt>
<pdfrwt beam="1">  1        1 0.89870491E-01 0.77451668E+03</pdfrwt>
<pdfrwt beam="2">  1       -1 0.20462314E+00 0.77451668E+03</pdfrwt>
<totfact> 0.51415210E+00</totfact>
</mgrwt>
</event>
<event>
 4    1  0.4964158E-009  0.9102950E+03  0.7818608E-02  0.9412803E-01
         -1   -1    0    0    0  501 -0.00000000000E+00  0.00000000000E+00  0.45671227693E+03  0.45671227696E+03  0.50400000000E-02 0.  1.
          1   -1    0    0  501    0  0.00000000000E+00 -0.00000000000E+00 -0.22776898261E+04  0.22776898261E+04  0.50400000000E-02 0. -1.
    8880022    1    1    2    0    0  0.45566247235E+03 -0.77305694592E+03 -0.29384575880E+03  0.95654707846E+03  0.15294330000E+03 0.  0.
    8880022    1    1    2    0    0 -0.45566247235E+03  0.77305694592E+03 -0.15271317904E+04  0.17778550246E+04  0.15294330000E+03 0.  0.
<mgrwt>
<rscale>  0 0.91029500E+03</rscale>
<asrwt>0</asrwt>
<pdfrwt beam="1">  1        1 0.35041381E+00 0.91029500E+03</pdfrwt>
<pdfrwt beam="2">  1       -1 0.70263429E-01 0.91029500E+03</pdfrwt>
<totfact> 0.40585913E+00</totfact>
</mgrwt>
</event>
<event>
 4    1  0.4964158E-009  0.6553056E+03  0.7818608E-02  0.9796874E-01
         -1   -1    0    0    0  501 -0.00000000000E+00  0.00000000000E+00  0.43156274222E+03  0.43156274225E+03  0.50400000000E-02 0.  1.
          1   -1    0    0  501    0  0.00000000000E+00 -0.00000000000E+00 -0.13955361464E+04  0.13955361464E+04  0.50400000000E-02 0. -1.
    8880022    1    1    2    0    0 -0.53563414925E+03  0.34515191510E+03  0.74050014106E+01  0.65534744480E+03  0.15294330000E+03 0.  0.
    8880022    1    1    2    0    0  0.53563414925E+03 -0.34515191510E+03 -0.97137840562E+03  0.11717514439E+04  0.15294330000E+03 0.  0.
<mgrwt>
<rscale>  0 0.65530561E+03</rscale>
<asrwt>0</asrwt>
<pdfrwt beam="1">  1        1 0.21469787E+00 0.65530561E+03</pdfrwt>
<pdfrwt beam="2">  1       -1 0.66394269E-01 0.65530561E+03</pdfrwt>
<totfact> 0.18638843E+01</totfact>
</mgrwt>
</event>
<event>
 4    1  0.4964158E-009  0.4289636E+03  0.7818608E-02  0.1034188E+00
         -1   -1    0    0    0  501 -0.00000000000E+00  0.00000000000E+00  0.74849147313E+03  0.74849147315E+03  0.50400000000E-02 0.  1.
          1   -1    0    0  501    0  0.00000000000E+00 -0.00000000000E+00 -0.12057536406E+04  0.12057536406E+04  0.50400000000E-02 0. -1.
    8880022    1    1    2    0    0 -0.39916258530E+03 -0.35880112646E+02 -0.11004687537E+04  0.11811186574E+04  0.15294330000E+03 0.  0.
    8880022    1    1    2    0    0  0.39916258530E+03  0.35880112646E+02  0.64320658621E+03  0.77312645638E+03  0.15294330000E+03 0.  0.
<mgrwt>
<rscale>  0 0.42896364E+03</rscale>
<asrwt>0</asrwt>
<pdfrwt beam="1">  1        1 0.18550056E+00 0.42896364E+03</pdfrwt>
<pdfrwt beam="2">  1       -1 0.11515253E+00 0.42896364E+03</pdfrwt>
<totfact> 0.79976728E+00</totfact>
</mgrwt>
</event>
<event>
 4    1  0.4964158E-009  0.7329197E+03  0.7818608E-02  0.9662534E-01
          1   -1    0    0  501    0  0.00000000000E+00  0.00000000000E+00  0.19288669605E+04  0.19288669605E+04  0.50400000000E-02 0. -1.
         -1   -1    0    0    0  501 -0.00000000000E+00 -0.00000000000E+00 -0.85680346495E+03  0.85680346497E+03  0.50400000000E-02 0.  1.
    8880022    1    1    2    0    0  0.71423686416E+03  0.60376160541E+02  0.16803335294E+04  0.18332190273E+04  0.15294330000E+03 0.  0.
    8880022    1    1    2    0    0 -0.71423686416E+03 -0.60376160541E+02 -0.60827003384E+03  0.95245139822E+03  0.15294330000E+03 0.  0.
<mgrwt>
<rscale>  0 0.73291966E+03</rscale>
<asrwt>0</asrwt>
<pdfrwt beam="1">  1        1 0.29674876E+00 0.73291966E+03</pdfrwt>
<pdfrwt beam="2">  1       -1 0.13181592E+00 0.73291966E+03</pdfrwt>
<totfact> 0.17248690E+00</totfact>
</mgrwt>
</event>
<event>
 4    1  0.4964158E-009  0.4180859E+03  0.7818608E-02  0.1037691E+00
         -1   -1    0    0    0  501 -0.00000000000E+00  0.00000000000E+00  0.63028465899E+03  0.63028465901E+03  0.50400000000E-02 0.  1.
          1   -1    0    0  501    0  0.00000000000E+00 -0.00000000000E+00 -0.15127537202E+04  0.15127537202E+04  0.50400000000E-02 0. -1.
    8880022    1    1    2    0    0 -0.38890902914E+03 -0.12408477044E+02  0.52709701828E+03  0.67277568545E+03  0.15294330000E+03 0.  1.
    8880022    1    1    2    0    0  0.38890902914E+03  0.12408477044E+02 -0.14095660795E+04  0.14702626937E+04  0.15294330000E+03 0.  0.
<mgrwt>
<rscale>  0 0.41808594E+03</rscale>
<asrwt>0</asrwt>
<pdfrwt beam="1">  1        1 0.23273134E+00 0.41808594E+03</pdfrwt>
<pdfrwt beam="2">  1       -1 0.96966871E-01 0.41808594E+03</pdfrwt>
<totfact> 0.73198798E+00</totfact>
</mgrwt>
</event>
<event>
 4    1  0.4964158E-009  0.1018043E+04  0.7818608E-02  0.9288974E-01
          1   -1    0    0  501    0  0.00000000000E+00  0.00000000000E+00  0.10911782788E+04  0.10911782788E+04  0.50400000000E-02 0. -1.
         -1   -1    0    0    0  501 -0.00000000000E+00 -0.00000000000E+00 -0.14832727647E+04  0.14832727647E+04  0.50400000000E-02 0.  1.
    8880022    1    1    2    0    0 -0.52888173883E+03  0.85633130097E+03 -0.96801050574E+03  0.14047972035E+04  0.15294330000E+03 0.  0.
    8880022    1    1    2    0    0  0.52888173883E+03 -0.85633130097E+03  0.57591601984E+03  0.11696538401E+04  0.15294330000E+03 0.  0.
<mgrwt>
<rscale>  0 0.10180427E+04</rscale>
<asrwt>0</asrwt>
<pdfrwt beam="1">  1        1 0.16787358E+00 0.10180427E+04</pdfrwt>
<pdfrwt beam="2">  1       -1 0.22819581E+00 0.10180427E+04</pdfrwt>
<totfact> 0.12542444E+00</totfact>
</mgrwt>
</event>
<event>
 4    1  0.4964158E-009  0.5776171E+03  0.7818608E-02  0.9952963E-01
         -1   -1    0    0    0  501 -0.00000000000E+00  0.00000000000E+00  0.19399646093E+03  0.19399646100E+03  0.50400000000E-02 0.  1.
          1   -1    0    0  501    0  0.00000000000E+00 -0.00000000000E+00 -0.18065151938E+04  0.18065151938E+04  0.50400000000E-02 0. -1.
    8880022    1    1    2    0    0  0.51925711353E+03  0.20154885593E+03 -0.58715307114E+03  0.82364450660E+03  0.15294330000E+03 0.  0.
    8880022    1    1    2    0    0 -0.51925711353E+03 -0.20154885593E+03 -0.10253656618E+04  0.11768671482E+04  0.15294330000E+03 0.  0.
<mgrwt>
<rscale>  0 0.57761713E+03</rscale>
<asrwt>0</asrwt>
<pdfrwt beam="1">  1        1 0.27792540E+00 0.57761713E+03</pdfrwt>
<pdfrwt beam="2">  1       -1 0.29845611E-01 0.57761713E+03</pdfrwt>
<totfact> 0.43870993E+01</totfact>
</mgrwt>
</event>
<event>
 4    1  0.4964158E-009  0.2813078E+03  0.7818608E-02  0.1094977E+00
          1   -1    0    0  501    0  0.00000000000E+00  0.00000000000E+00  0.67210623370E+03  0.67210623371E+03  0.50400000000E-02 0. -1.
         -1   -1    0    0    0  501 -0.00000000000E+00 -0.00000000000E+00 -0.15735249477E+04  0.15735249477E+04  0.50400000000E-02 0.  1.
    8880022    1    1    2    0    0  0.22559194028E+02 -0.23501806649E+03  0.62928172524E+03  0.68929641777E+03  0.15294330000E+03 0.  0.
    8880022    1    1    2    0    0 -0.22559194028E+02  0.23501806649E+03 -0.15307004392E+04  0.15563347636E+04  0.15294330000E+03 0.  0.
<mgrwt>
<rscale>  0 0.28130777E+03</rscale>
<asrwt>0</asrwt>
<pdfrwt beam="1">  1        1 0.10340096E+00 0.28130777E+03</pdfrwt>
<pdfrwt beam="2">  1       -1 0.24208076E+00 0.28130777E+03</pdfrwt>
<totfact> 0.26984627E+00</totfact>
</mgrwt>
</event>
<event>
 4    1  0.4964158E-009  0.9420309E+03  0.7818608E-02  0.9374514E-01
          1   -1    0    0  501    0  0.00000000000E+00  0.00000000000E+00  0.87777780636E+03  0.87777780638E+03  0.50400000000E-02 0. -1.
         -1   -1    0    0    0  501 -0.00000000000E+00 -0.00000000000E+00 -0.23508191385E+04  0.23508191385E+04  0.50400000000E-02 0.  1.
    8880022    1    1    2    0    0 -0.63888941262E+03  0.67516728570E+03  0.48218653364E+03  0.10582655865E+04  0.15294330000E+03 0.  0.
    8880022    1    1    2    0    0  0.63888941262E+03 -0.67516728570E+03 -0.19552278658E+04  0.21703313584E+04  0.15294330000E+03 0.  0.
<mgrwt>
<rscale>  0 0.94203089E+03</rscale>
<asrwt>0</asrwt>
<pdfrwt beam="1">  1        1 0.13504274E+00 0.94203089E+03</pdfrwt>
<pdfrwt beam="2">  1       -1 0.36166448E+00 0.94203089E+03</pdfrwt>
<totfact> 0.25462117E-01</totfact>
</mgrwt>
</event>
<event>
 4    1  0.4964158E-009  0.5119233E+03  0.7818608E-02  0.1010713E+00
          1   -1    0    0  501    0  0.00000000000E+00  0.00000000000E+00  0.62389254791E+03  0.62389254793E+03  0.50400000000E-02 0. -1.
         -1   -1    0    0    0  501 -0.00000000000E+00 -0.00000000000E+00 -0.79683492728E+03  0.79683492730E+03  0.50400000000E-02 0.  1.
    8880022    1    1    2    0    0 -0.16986539780E+03 -0.45806063046E+03  0.40200560066E+03  0.65090241244E+03  0.15294330000E+03 0.  0.
    8880022    1    1    2    0    0  0.16986539780E+03  0.45806063046E+03 -0.57494798003E+03  0.76982506279E+03  0.15294330000E+03 0.  0.
<mgrwt>
<rscale>  0 0.51192328E+03</rscale>
<asrwt>0</asrwt>
<pdfrwt beam="1">  1        1 0.95983469E-01 0.51192328E+03</pdfrwt>
<pdfrwt beam="2">  1       -1 0.12258999E+00 0.51192328E+03</pdfrwt>
<totfact> 0.20144195E+01</totfact>
</mgrwt>
</event>
<event>
 4    1  0.4964158E-009  0.3404929E+03  0.7818608E-02  0.1066586E+00
         -1   -1    0    0    0  501 -0.00000000000E+00  0.00000000000E+00  0.62859537479E+03  0.62859537481E+03  0.50400000000E-02 0.  1.
          1   -1    0    0  501    0  0.00000000000E+00 -0.00000000000E+00 -0.12765595797E+04  0.12765595797E+04  0.50400000000E-02 0. -1.
    8880022    1    1    2    0    0  0.30399249426E+03  0.11502461194E+02 -0.12050628792E+04  0.12522427636E+04  0.15294330000E+03 0. -1.
    8880022    1    1    2    0    0 -0.30399249426E+03 -0.11502461194E+02  0.55709867426E+03  0.65291219093E+03  0.15294330000E+03 0.  0.
<mgrwt>
<rscale>  0 0.34049287E+03</rscale>
<asrwt>0</asrwt>
<pdfrwt beam="1">  1        1 0.19639378E+00 0.34049287E+03</pdfrwt>
<pdfrwt beam="2">  1       -1 0.96706981E-01 0.34049287E+03</pdfrwt>
<totfact> 0.10930039E+01</totfact>
</mgrwt>
</event>
<event>
 4    1  0.4964158E-009  0.4556933E+03  0.7818608E-02  0.1026038E+00
          1   -1    0    0  501    0  0.00000000000E+00  0.00000000000E+00  0.15067442828E+04  0.15067442828E+04  0.50400000000E-02 0. -1.
         -1   -1    0    0    0  501 -0.00000000000E+00 -0.00000000000E+00 -0.24210356144E+03  0.24210356149E+03  0.50400000000E-02 0.  1.
    8880022    1    1    2    0    0  0.31986283696E+03 -0.28627345419E+03  0.58423724845E+02  0.45942323590E+03  0.15294330000E+03 0.  0.
    8880022    1    1    2    0    0 -0.31986283696E+03  0.28627345419E+03  0.12062169966E+04  0.12894246084E+04  0.15294330000E+03 0.  0.
<mgrwt>
<rscale>  0 0.45569329E+03</rscale>
<asrwt>0</asrwt>
<pdfrwt beam="1">  1        1 0.23180682E+00 0.45569329E+03</pdfrwt>
<pdfrwt beam="2">  1       -1 0.37246701E-01 0.45569329E+03</pdfrwt>
<totfact> 0.48146536E+01</totfact>
</mgrwt>
</event>
<event>
 4    1  0.4964158E-009  0.3490920E+03  0.7818608E-02  0.1062988E+00
         -1   -1    0    0    0  501 -0.00000000000E+00  0.00000000000E+00  0.70602408129E+03  0.70602408131E+03  0.50400000000E-02 0.  1.
          1   -1    0    0  501    0  0.00000000000E+00 -0.00000000000E+00 -0.10577520583E+04  0.10577520584E+04  0.50400000000E-02 0. -1.
    8880022    1    1    2    0    0  0.49058580750E+02 -0.30994647474E+03 -0.98259466800E+03  0.10427643531E+04  0.15294330000E+03 0.  0.
    8880022    1    1    2    0    0 -0.49058580750E+02  0.30994647474E+03  0.63086669095E+03  0.72101178653E+03  0.15294330000E+03 0.  0.
<mgrwt>
<rscale>  0 0.34909199E+03</rscale>
<asrwt>0</asrwt>
<pdfrwt beam="1">  1        1 0.16273109E+00 0.34909199E+03</pdfrwt>
<pdfrwt beam="2">  1       -1 0.10861909E+00 0.34909199E+03</pdfrwt>
<totfact> 0.12007953E+01</totfact>
</mgrwt>
</event>
<event>
 4    1  0.4964158E-009  0.1410209E+04  0.7818608E-02  0.8946462E-01
          1   -1    0    0  501    0  0.00000000000E+00  0.00000000000E+00  0.32094029448E+04  0.32094029448E+04  0.50400000000E-02 0. -1.
         -1   -1    0    0    0  501 -0.00000000000E+00 -0.00000000000E+00 -0.90781280718E+03  0.90781280719E+03  0.50400000000E-02 0.  1.
    8880022    1    1    2    0    0 -0.40085329943E+03  0.13433594227E+04  0.23106359871E+04  0.27069776918E+04  0.15294330000E+03 0.  0.
    8880022    1    1    2    0    0  0.40085329943E+03 -0.13433594227E+04 -0.90458494320E+01  0.14102380602E+04  0.15294330000E+03 0.  0.
<mgrwt>
<rscale>  0 0.14102090E+04</rscale>
<asrwt>0</asrwt>
<pdfrwt beam="1">  1        1 0.49375430E+00 0.14102090E+04</pdfrwt>
<pdfrwt beam="2">  1       -1 0.13966351E+00 0.14102090E+04</pdfrwt>
<totfact> 0.17042251E-01</totfact>
</mgrwt>
</event>
<event>
 4    1  0.4964158E-009  0.1147157E+04  0.7818608E-02  0.9160411E-01
         -1   -1    0    0    0  501 -0.00000000000E+00  0.00000000000E+00  0.15732877993E+04  0.15732877993E+04  0.50400000000E-02 0.  1.
          1   -1    0    0  501    0  0.00000000000E+00 -0.00000000000E+00 -0.14764460819E+04  0.14764460819E+04  0.50400000000E-02 0. -1.
    8880022    1    1    2    0    0 -0.97552008946E+03  0.58389835094E+03  0.10523743136E+04  0.15567466326E+04  0.15294330000E+03 0.  0.
    8880022    1    1    2    0    0  0.97552008946E+03 -0.58389835094E+03 -0.95553259619E+03  0.14929872486E+04  0.15294330000E+03 0.  0.
<mgrwt>
<rscale>  0 0.11471567E+04</rscale>
<asrwt>0</asrwt>
<pdfrwt beam="1">  1        1 0.22714555E+00 0.11471567E+04</pdfrwt>
<pdfrwt beam="2">  1       -1 0.24204428E+00 0.11471567E+04</pdfrwt>
<totfact> 0.52748852E-01</totfact>
</mgrwt>
</event>
<event>
 4    1  0.4964158E-009  0.6713897E+03  0.7818608E-02  0.9767451E-01
          1   -1    0    0  501    0  0.00000000000E+00  0.00000000000E+00  0.12550665989E+04  0.12550665989E+04  0.50400000000E-02 0. -1.
         -1   -1    0    0    0  501 -0.00000000000E+00 -0.00000000000E+00 -0.64850343334E+03  0.64850343336E+03  0.50400000000E-02 0.  1.
    8880022    1    1    2    0    0 -0.54485870868E+03 -0.36124988442E+03  0.93904110351E+03  0.11543666396E+04  0.15294330000E+03 0.  0.
    8880022    1    1    2    0    0  0.54485870868E+03  0.36124988442E+03 -0.33247793796E+03  0.74920339272E+03  0.15294330000E+03 0.  0.
<mgrwt>
<rscale>  0 0.67138971E+03</rscale>
<asrwt>0</asrwt>
<pdfrwt beam="1">  1        1 0.19308717E+00 0.67138971E+03</pdfrwt>
<pdfrwt beam="2">  1       -1 0.99769760E-01 0.67138971E+03</pdfrwt>
<totfact> 0.97850646E+00</totfact>
</mgrwt>
</event>
<event>
 4    1  0.4964158E-009  0.1208514E+04  0.7818608E-02  0.9105437E-01
          1   -1    0    0  501    0  0.00000000000E+00  0.00000000000E+00  0.29924881086E+04  0.29924881086E+04  0.50400000000E-02 0. -1.
         -1   -1    0    0    0  501 -0.00000000000E+00 -0.00000000000E+00 -0.87353365266E+03  0.87353365268E+03  0.50400000000E-02 0.  1.
    8880022    1    1    2    0    0  0.83823861967E+03 -0.85701265832E+03 -0.22460614740E+03  0.12292087921E+04  0.15294330000E+03 0.  0.
    8880022    1    1    2    0    0 -0.83823861967E+03  0.85701265832E+03  0.23435606033E+04  0.26368129692E+04  0.15294330000E+03 0.  0.
<mgrwt>
<rscale>  0 0.12085141E+04</rscale>
<asrwt>0</asrwt>
<pdfrwt beam="1">  1        1 0.46038279E+00 0.12085141E+04</pdfrwt>
<pdfrwt beam="2">  1       -1 0.13438979E+00 0.12085141E+04</pdfrwt>
<totfact> 0.27990689E-01</totfact>
</mgrwt>
</event>
<event>
 4    1  0.4964158E-009  0.1501624E+04  0.7818608E-02  0.8883373E-01
          1   -1    0    0  501    0  0.00000000000E+00  0.00000000000E+00  0.32020785259E+04  0.32020785259E+04  0.50400000000E-02 0. -1.
         -1   -1    0    0    0  501 -0.00000000000E+00 -0.00000000000E+00 -0.78149218807E+03  0.78149218809E+03  0.50400000000E-02 0.  1.
    8880022    1    1    2    0    0 -0.52414452383E+03  0.13988412022E+04  0.18367230316E+04  0.23724306815E+04  0.15294330000E+03 0.  0.
    8880022    1    1    2    0    0  0.52414452383E+03 -0.13988412022E+04  0.58386330618E+03  0.16111400324E+04  0.15294330000E+03 0.  0.
<mgrwt>
<rscale>  0 0.15016244E+04</rscale>
<asrwt>0</asrwt>
<pdfrwt beam="1">  1        1 0.49262747E+00 0.15016244E+04</pdfrwt>
<pdfrwt beam="2">  1       -1 0.12022957E+00 0.15016244E+04</pdfrwt>
<totfact> 0.24978233E-01</totfact>
</mgrwt>
</event>
<event>
 4    1  0.4964158E-009  0.4589599E+03  0.7818608E-02  0.1025083E+00
         -1   -1    0    0    0  501 -0.00000000000E+00  0.00000000000E+00  0.12335312103E+04  0.12335312103E+04  0.50400000000E-02 0.  1.
          1   -1    0    0  501    0  0.00000000000E+00 -0.00000000000E+00 -0.27963075536E+03  0.27963075541E+03  0.50400000000E-02 0. -1.
    8880022    1    1    2    0    0 -0.11418993095E+03  0.41738849553E+03  0.94902227641E+03  0.10541761858E+04  0.15294330000E+03 0.  0.
    8880022    1    1    2    0    0  0.11418993095E+03 -0.41738849553E+03  0.48781785155E+01  0.45898577993E+03  0.15294330000E+03 0.  0.
<mgrwt>
<rscale>  0 0.45895986E+03</rscale>
<asrwt>0</asrwt>
<pdfrwt beam="1">  1        1 0.43020117E-01 0.45895986E+03</pdfrwt>
<pdfrwt beam="2">  1       -1 0.18977403E+00 0.45895986E+03</pdfrwt>
<totfact> 0.18194849E+01</totfact>
</mgrwt>
</event>
<event>
 4    1  0.4964158E-009  0.1162828E+04  0.7818608E-02  0.9146030E-01
          1   -1    0    0  501    0  0.00000000000E+00  0.00000000000E+00  0.39705539405E+04  0.39705539405E+04  0.50400000000E-02 0. -1.
         -1   -1    0    0    0  501 -0.00000000000E+00 -0.00000000000E+00 -0.99497462690E+03  0.99497462691E+03  0.50400000000E-02 0.  1.
    8880022    1    1    2    0    0  0.11419058217E+04 -0.15757152779E+03  0.35013262986E+04  0.36893705689E+04  0.15294330000E+03 0.  0.
    8880022    1    1    2    0    0 -0.11419058217E+04  0.15757152779E+03 -0.52574698499E+03  0.12761579986E+04  0.15294330000E+03 0.  0.
<mgrwt>
<rscale>  0 0.11628282E+04</rscale>
<asrwt>0</asrwt>
<pdfrwt beam="1">  1        1 0.61085446E+00 0.11628282E+04</pdfrwt>
<pdfrwt beam="2">  1       -1 0.15307302E+00 0.11628282E+04</pdfrwt>
<totfact> 0.34231950E-02</totfact>
</mgrwt>
</event>
<event>
 4    1  0.4964158E-009  0.6875643E+03  0.7818608E-02  0.9738738E-01
          1   -1    0    0  501    0  0.00000000000E+00  0.00000000000E+00  0.17356212212E+04  0.17356212212E+04  0.50400000000E-02 0. -1.
         -1   -1    0    0    0  501 -0.00000000000E+00 -0.00000000000E+00 -0.74263106175E+03  0.74263106177E+03  0.50400000000E-02 0.  1.
    8880022    1    1    2    0    0 -0.19262077870E+03 -0.64206718952E+03  0.14825358482E+04  0.16342145619E+04  0.15294330000E+03 0.  0.
    8880022    1    1    2    0    0  0.19262077870E+03  0.64206718952E+03 -0.48954568871E+03  0.84403772107E+03  0.15294330000E+03 0.  0.
<mgrwt>
<rscale>  0 0.68756432E+03</rscale>
<asrwt>0</asrwt>
<pdfrwt beam="1">  1        1 0.26701865E+00 0.68756432E+03</pdfrwt>
<pdfrwt beam="2">  1       -1 0.11425093E+00 0.68756432E+03</pdfrwt>
<totfact> 0.33310385E+00</totfact>
</mgrwt>
</event>
<event>
 4    1  0.4964158E-009  0.1681190E+03  0.7818608E-02  0.1179824E+00
          1   -1    0    0  501    0  0.00000000000E+00  0.00000000000E+00  0.16139516147E+03  0.16139516155E+03  0.50400000000E-02 0. -1.
         -1   -1    0    0    0  501 -0.00000000000E+00 -0.00000000000E+00 -0.10815789864E+04  0.10815789864E+04  0.50400000000E-02 0.  1.
    8880022    1    1    2    0    0 -0.69800581297E+02  0.48856751565E+00 -0.10290448300E+04  0.10426875251E+04  0.15294330000E+03 0.  0.
    8880022    1    1    2    0    0  0.69800581297E+02 -0.48856751565E+00  0.10886100508E+03  0.20028662284E+03  0.15294330000E+03 0. -1.
<mgrwt>
<rscale>  0 0.16811904E+03</rscale>
<asrwt>0</asrwt>
<pdfrwt beam="1">  1        1 0.24830026E-01 0.16811904E+03</pdfrwt>
<pdfrwt beam="2">  1       -1 0.16639676E+00 0.16811904E+03</pdfrwt>
<totfact> 0.56906907E+01</totfact>
</mgrwt>
</event>
<event>
 4    1  0.4964158E-009  0.4783184E+03  0.7818608E-02  0.1019598E+00
         -1   -1    0    0    0  501 -0.00000000000E+00  0.00000000000E+00  0.40261782069E+03  0.40261782072E+03  0.50400000000E-02 0.  1.
          1   -1    0    0  501    0  0.00000000000E+00 -0.00000000000E+00 -0.12465281958E+04  0.12465281958E+04  0.50400000000E-02 0. -1.
    8880022    1    1    2    0    0  0.22028188436E+03 -0.39607162357E+03  0.18629361271E+03  0.51331647424E+03  0.15294330000E+03 0.  0.
    8880022    1    1    2    0    0 -0.22028188436E+03  0.39607162357E+03 -0.10302039878E+04  0.11358295423E+04  0.15294330000E+03 0.  0.
<mgrwt>
<rscale>  0 0.47831840E+03</rscale>
<asrwt>0</asrwt>
<pdfrwt beam="1">  1        1 0.19177357E+00 0.47831840E+03</pdfrwt>
<pdfrwt beam="2">  1       -1 0.61941204E-01 0.47831840E+03</pdfrwt>
<totfact> 0.28025981E+01</totfact>
</mgrwt>
</event>
<event>
 4    1  0.4964158E-009  0.7876917E+03  0.7818608E-02  0.9578006E-01
          1   -1    0    0  501    0  0.00000000000E+00  0.00000000000E+00  0.18896446609E+04  0.18896446609E+04  0.50400000000E-02 0. -1.
         -1   -1    0    0    0  501 -0.00000000000E+00 -0.00000000000E+00 -0.83631912543E+03  0.83631912544E+03  0.50400000000E-02 0.  1.
    8880022    1    1    2    0    0 -0.75912166790E+03 -0.14422500490E+03 -0.53558108450E+03  0.95252575283E+03  0.15294330000E+03 0.  0.
    8880022    1    1    2    0    0  0.75912166790E+03  0.14422500490E+03  0.15889066200E+04  0.17734380335E+04  0.15294330000E+03 0.  0.
<mgrwt>
<rscale>  0 0.78769170E+03</rscale>
<asrwt>0</asrwt>
<pdfrwt beam="1">  1        1 0.29071456E+00 0.78769170E+03</pdfrwt>
<pdfrwt beam="2">  1       -1 0.12866448E+00 0.78769170E+03</pdfrwt>
<totfact> 0.19267527E+00</totfact>
</mgrwt>
</event>
<event>
 4    1  0.4964158E-009  0.5037993E+03  0.7818608E-02  0.1012792E+00
         -1   -1    0    0    0  501 -0.00000000000E+00  0.00000000000E+00  0.18254049725E+03  0.18254049731E+03  0.50400000000E-02 0.  1.
          1   -1    0    0  501    0  0.00000000000E+00 -0.00000000000E+00 -0.36494520206E+04  0.36494520206E+04  0.50400000000E-02 0. -1.
    8880022    1    1    2    0    0 -0.37134367494E+03 -0.30418073203E+03 -0.22601935551E+03  0.55217609939E+03  0.15294330000E+03 0.  0.
    8880022    1    1    2    0    0  0.37134367494E+03  0.30418073203E+03 -0.32408921678E+04  0.32798164185E+04  0.15294330000E+03 0.  0.
<mgrwt>
<rscale>  0 0.50379926E+03</rscale>
<asrwt>0</asrwt>
<pdfrwt beam="1">  1        1 0.56145410E+00 0.50379926E+03</pdfrwt>
<pdfrwt beam="2">  1       -1 0.28083156E-01 0.50379926E+03</pdfrwt>
<totfact> 0.25173624E+00</totfact>
</mgrwt>
</event>
<event>
 4    1  0.4964158E-009  0.9626140E+03  0.7818608E-02  0.9350527E-01
         -1   -1    0    0    0  501 -0.00000000000E+00  0.00000000000E+00  0.10188309199E+04  0.10188309199E+04  0.50400000000E-02 0.  1.
          1   -1    0    0  501    0  0.00000000000E+00 -0.00000000000E+00 -0.19930169431E+04  0.19930169431E+04  0.50400000000E-02 0. -1.
    8880022    1    1    2    0    0 -0.94968406456E+03 -0.36528379799E+02  0.62327150472E+03  0.11467751160E+04  0.15294330000E+03 0.  0.
    8880022    1    1    2    0    0  0.94968406456E+03  0.36528379799E+02 -0.15974575279E+04  0.18650727470E+04  0.15294330000E+03 0.  0.
<mgrwt>
<rscale>  0 0.96261404E+03</rscale>
<asrwt>0</asrwt>
<pdfrwt beam="1">  1        1 0.30661799E+00 0.96261404E+03</pdfrwt>
<pdfrwt beam="2">  1       -1 0.15674322E+00 0.96261404E+03</pdfrwt>
<totfact> 0.94828858E-01</totfact>
</mgrwt>
</event>
<event>
 4    1  0.4964158E-009  0.2566878E+04  0.7818608E-02  0.8379540E-01
         -1   -1    0    0    0  501 -0.00000000000E+00  0.00000000000E+00  0.27174247623E+04  0.27174247623E+04  0.50400000000E-02 0.  1.
          1   -1    0    0  501    0  0.00000000000E+00 -0.00000000000E+00 -0.34897554443E+04  0.34897554444E+04  0.50400000000E-02 0. -1.
    8880022    1    1    2    0    0  0.36727566971E+03 -0.25358591022E+04  0.13284180970E+04  0.28902524279E+04  0.15294330000E+03 0.  0.
    8880022    1    1    2    0    0 -0.36727566971E+03  0.25358591022E+04 -0.21007487790E+04  0.33169277787E+04  0.15294330000E+03 0.  0.
<mgrwt>
<rscale>  0 0.25668783E+04</rscale>
<asrwt>0</asrwt>
<pdfrwt beam="1">  1        1 0.53688545E+00 0.25668783E+04</pdfrwt>
<pdfrwt beam="2">  1       -1 0.41806535E+00 0.25668783E+04</pdfrwt>
<totfact> 0.11267793E-03</totfact>
</mgrwt>
</event>
<event>
 4    1  0.4964158E-009  0.9101513E+03  0.7818608E-02  0.9412980E-01
         -1   -1    0    0    0  501 -0.00000000000E+00  0.00000000000E+00  0.51323906807E+03  0.51323906809E+03  0.50400000000E-02 0.  1.
          1   -1    0    0  501    0  0.00000000000E+00 -0.00000000000E+00 -0.22193815540E+04  0.22193815541E+04  0.50400000000E-02 0. -1.
    8880022    1    1    2    0    0 -0.28700557256E+03 -0.85006557479E+03 -0.13949114997E+03  0.92077853692E+03  0.15294330000E+03 0.  0.
    8880022    1    1    2    0    0  0.28700557256E+03  0.85006557479E+03 -0.15666513360E+04  0.18118420852E+04  0.15294330000E+03 0.  0.
<mgrwt>
<rscale>  0 0.91015127E+03</rscale>
<asrwt>0</asrwt>
<pdfrwt beam="1">  1        1 0.34144331E+00 0.91015127E+03</pdfrwt>
<pdfrwt beam="2">  1       -1 0.78959858E-01 0.91015127E+03</pdfrwt>
<totfact> 0.34831040E+00</totfact>
</mgrwt>
</event>
<event>
 4    1  0.4964158E-009  0.1447043E+04  0.7818608E-02  0.8920453E-01
          1   -1    0    0  501    0  0.00000000000E+00  0.00000000000E+00  0.13504976093E+04  0.13504976093E+04  0.50400000000E-02 0. -1.
         -1   -1    0    0    0  501 -0.00000000000E+00 -0.00000000000E+00 -0.21305524081E+04  0.21305524081E+04  0.50400000000E-02 0.  1.
    8880022    1    1    2    0    0  0.14218582848E+04  0.22104316237E+03 -0.12982067172E+04  0.19440353379E+04  0.15294330000E+03 0.  0.
    8880022    1    1    2    0    0 -0.14218582848E+04 -0.22104316237E+03  0.51815191833E+03  0.15370146795E+04  0.15294330000E+03 0.  0.
<mgrwt>
<rscale>  0 0.14470427E+04</rscale>
<asrwt>0</asrwt>
<pdfrwt beam="1">  1        1 0.20776886E+00 0.14470427E+04</pdfrwt>
<pdfrwt beam="2">  1       -1 0.32777729E+00 0.14470427E+04</pdfrwt>
<totfact> 0.17285359E-01</totfact>
</mgrwt>
</event>
<event>
 4    1  0.4964158E-009  0.1155560E+04  0.7818608E-02  0.9152669E-01
          1   -1    0    0  501    0  0.00000000000E+00  0.00000000000E+00  0.15734399975E+04  0.15734399975E+04  0.50400000000E-02 0. -1.
         -1   -1    0    0    0  501 -0.00000000000E+00 -0.00000000000E+00 -0.11658702918E+04  0.11658702919E+04  0.50400000000E-02 0.  1.
    8880022    1    1    2    0    0 -0.33163119020E+03 -0.10963339844E+04  0.91821244625E+03  0.14759516256E+04  0.15294330000E+03 0.  0.
    8880022    1    1    2    0    0  0.33163119020E+03  0.10963339844E+04 -0.51064274064E+03  0.12633586637E+04  0.15294330000E+03 0.  0.
<mgrwt>
<rscale>  0 0.11555601E+04</rscale>
<asrwt>0</asrwt>
<pdfrwt beam="1">  1        1 0.24206769E+00 0.11555601E+04</pdfrwt>
<pdfrwt beam="2">  1       -1 0.17936466E+00 0.11555601E+04</pdfrwt>
<totfact> 0.12064464E+00</totfact>
</mgrwt>
</event>
<event>
 4    1  0.4964158E-009  0.8214477E+03  0.7818608E-02  0.9529481E-01
         -1   -1    0    0    0  501 -0.00000000000E+00  0.00000000000E+00  0.91657959405E+03  0.91657959407E+03  0.50400000000E-02 0.  1.
          1   -1    0    0  501    0  0.00000000000E+00 -0.00000000000E+00 -0.24406241257E+04  0.24406241257E+04  0.50400000000E-02 0. -1.
    8880022    1    1    2    0    0  0.38045516639E+03  0.71178542982E+03  0.64075081286E+03  0.10417955121E+04  0.15294330000E+03 0.  0.
    8880022    1    1    2    0    0 -0.38045516639E+03 -0.71178542982E+03 -0.21647953445E+04  0.23154082077E+04  0.15294330000E+03 0.  0.
<mgrwt>
<rscale>  0 0.82144768E+03</rscale>
<asrwt>0</asrwt>
<pdfrwt beam="1">  1        1 0.37548063E+00 0.82144768E+03</pdfrwt>
<pdfrwt beam="2">  1       -1 0.14101225E+00 0.82144768E+03</pdfrwt>
<totfact> 0.64456305E-01</totfact>
</mgrwt>
</event>
<event>
 4    1  0.4964158E-009  0.9481336E+03  0.7818608E-02  0.9367335E-01
          1   -1    0    0  501    0  0.00000000000E+00  0.00000000000E+00  0.15728021232E+04  0.15728021232E+04  0.50400000000E-02 0. -1.
         -1   -1    0    0    0  501 -0.00000000000E+00 -0.00000000000E+00 -0.12533564142E+04  0.12533564142E+04  0.50400000000E-02 0.  1.
    8880022    1    1    2    0    0 -0.74508826617E+03 -0.56604697594E+03 -0.88248719361E+03  0.12952764196E+04  0.15294330000E+03 0.  0.
    8880022    1    1    2    0    0  0.74508826617E+03  0.56604697594E+03  0.12019329026E+04  0.15308821178E+04  0.15294330000E+03 0.  0.
<mgrwt>
<rscale>  0 0.94813362E+03</rscale>
<asrwt>0</asrwt>
<pdfrwt beam="1">  1        1 0.24196956E+00 0.94813362E+03</pdfrwt>
<pdfrwt beam="2">  1       -1 0.19282406E+00 0.94813362E+03</pdfrwt>
<totfact> 0.99907111E-01</totfact>
</mgrwt>
</event>
<event>
 4    1  0.4964158E-009  0.1483053E+04  0.7818608E-02  0.8895801E-01
          1   -1    0    0  501    0  0.00000000000E+00  0.00000000000E+00  0.35601728840E+04  0.35601728840E+04  0.50400000000E-02 0. -1.
         -1   -1    0    0    0  501 -0.00000000000E+00 -0.00000000000E+00 -0.17436241725E+04  0.17436241725E+04  0.50400000000E-02 0.  1.
    8880022    1    1    2    0    0 -0.13186809800E+04  0.66116216449E+03  0.30391949916E+04  0.33817381307E+04  0.15294330000E+03 0.  0.
    8880022    1    1    2    0    0  0.13186809800E+04 -0.66116216449E+03 -0.12226462801E+04  0.19220589258E+04  0.15294330000E+03 0.  0.
<mgrwt>
<rscale>  0 0.14830531E+04</rscale>
<asrwt>0</asrwt>
<pdfrwt beam="1">  1        1 0.54771890E+00 0.14830531E+04</pdfrwt>
<pdfrwt beam="2">  1       -1 0.26824988E+00 0.14830531E+04</pdfrwt>
<totfact> 0.11312126E-02</totfact>
</mgrwt>
</event>
<event>
 4    1  0.4964158E-009  0.8715403E+03  0.7818608E-02  0.9461874E-01
          1   -1    0    0  501    0  0.00000000000E+00  0.00000000000E+00  0.12356300482E+04  0.12356300482E+04  0.50400000000E-02 0. -1.
         -1   -1    0    0    0  501 -0.00000000000E+00 -0.00000000000E+00 -0.13479236875E+04  0.13479236875E+04  0.50400000000E-02 0.  1.
    8880022    1    1    2    0    0 -0.90975281433E+02  0.85317900425E+03  0.89656887637E+03  0.12503672733E+04  0.15294330000E+03 0.  0.
    8880022    1    1    2    0    0  0.90975281433E+02 -0.85317900425E+03 -0.10088625156E+04  0.13331864624E+04  0.15294330000E+03 0.  0.
<mgrwt>
<rscale>  0 0.87154034E+03</rscale>
<asrwt>0</asrwt>
<pdfrwt beam="1">  1        1 0.19009693E+00 0.87154034E+03</pdfrwt>
<pdfrwt beam="2">  1       -1 0.20737288E+00 0.87154034E+03</pdfrwt>
<totfact> 0.13829745E+00</totfact>
</mgrwt>
</event>
<event>
 4    1  0.4964158E-009  0.9944088E+03  0.7818608E-02  0.9314698E-01
         -1   -1    0    0    0  501 -0.00000000000E+00  0.00000000000E+00  0.69472800904E+03  0.69472800906E+03  0.50400000000E-02 0.  1.
          1   -1    0    0  501    0  0.00000000000E+00 -0.00000000000E+00 -0.18306231954E+04  0.18306231954E+04  0.50400000000E-02 0. -1.
    8880022    1    1    2    0    0 -0.69567798592E+03 -0.69389431094E+03 -0.11635127760E+04  0.15305589854E+04  0.15294330000E+03 0.  0.
    8880022    1    1    2    0    0  0.69567798592E+03  0.69389431094E+03  0.27617589648E+02  0.99479221907E+03  0.15294330000E+03 0.  0.
<mgrwt>
<rscale>  0 0.99440878E+03</rscale>
<asrwt>0</asrwt>
<pdfrwt beam="1">  1        1 0.28163434E+00 0.99440878E+03</pdfrwt>
<pdfrwt beam="2">  1       -1 0.10688123E+00 0.99440878E+03</pdfrwt>
<totfact> 0.32024837E+00</totfact>
</mgrwt>
</event>
<event>
 4    1  0.4964158E-009  0.2964411E+03  0.7818608E-02  0.1087033E+00
          1   -1    0    0  501    0  0.00000000000E+00  0.00000000000E+00  0.68885524503E+03  0.68885524505E+03  0.50400000000E-02 0. -1.
         -1   -1    0    0    0  501 -0.00000000000E+00 -0.00000000000E+00 -0.32330030472E+03  0.32330030476E+03  0.50400000000E-02 0.  1.
    8880022    1    1    2    0    0  0.13826142293E+03 -0.21300102682E+03 -0.21099302079E+03  0.36386174068E+03  0.15294330000E+03 0.  0.
    8880022    1    1    2    0    0 -0.13826142293E+03  0.21300102682E+03  0.57654796110E+03  0.64829380913E+03  0.15294330000E+03 0. -1.
<mgrwt>
<rscale>  0 0.29644108E+03</rscale>
<asrwt>0</asrwt>
<pdfrwt beam="1">  1        1 0.10597773E+00 0.29644108E+03</pdfrwt>
<pdfrwt beam="2">  1       -1 0.49738509E-01 0.29644108E+03</pdfrwt>
<totfact> 0.12069739E+02</totfact>
</mgrwt>
</event>
<event>
 4    1  0.4964158E-009  0.5578217E+03  0.7818608E-02  0.9996996E-01
          1   -1    0    0  501    0  0.00000000000E+00  0.00000000000E+00  0.14713846585E+04  0.14713846585E+04  0.50400000000E-02 0. -1.
         -1   -1    0    0    0  501 -0.00000000000E+00 -0.00000000000E+00 -0.57033405139E+03  0.57033405142E+03  0.50400000000E-02 0.  1.
    8880022    1    1    2    0    0  0.53386789256E+03 -0.52520638453E+02 -0.35924454086E+03  0.66349200246E+03  0.15294330000E+03 0.  0.
    8880022    1    1    2    0    0 -0.53386789256E+03  0.52520638453E+02  0.12602951480E+04  0.13782267075E+04  0.15294330000E+03 0.  0.
<mgrwt>
<rscale>  0 0.55782165E+03</rscale>
<asrwt>0</asrwt>
<pdfrwt beam="1">  1        1 0.22636687E+00 0.55782165E+03</pdfrwt>
<pdfrwt beam="2">  1       -1 0.87743701E-01 0.55782165E+03</pdfrwt>
<totfact> 0.93976038E+00</totfact>
</mgrwt>
</event>
<event>
 4    1  0.4964158E-009  0.8664882E+03  0.7818608E-02  0.9468470E-01
          1   -1    0    0  501    0  0.00000000000E+00  0.00000000000E+00  0.14074946867E+04  0.14074946867E+04  0.50400000000E-02 0. -1.
         -1   -1    0    0    0  501 -0.00000000000E+00 -0.00000000000E+00 -0.16116225160E+04  0.16116225160E+04  0.50400000000E-02 0.  1.
    8880022    1    1    2    0    0  0.71653927697E+03 -0.46258149230E+03 -0.13367774060E+04  0.15930397542E+04  0.15294330000E+03 0.  0.
    8880022    1    1    2    0    0 -0.71653927697E+03  0.46258149230E+03  0.11326495767E+04  0.14260774485E+04  0.15294330000E+03 0.  0.
<mgrwt>
<rscale>  0 0.86648821E+03</rscale>
<asrwt>0</asrwt>
<pdfrwt beam="1">  1        1 0.21653764E+00 0.86648821E+03</pdfrwt>
<pdfrwt beam="2">  1       -1 0.24794193E+00 0.86648821E+03</pdfrwt>
<totfact> 0.56446166E-01</totfact>
</mgrwt>
</event>
<event>
 4    1  0.4964158E-009  0.9574181E+03  0.7818608E-02  0.9356522E-01
          1   -1    0    0  501    0  0.00000000000E+00  0.00000000000E+00  0.12415348749E+04  0.12415348749E+04  0.50400000000E-02 0. -1.
         -1   -1    0    0    0  501 -0.00000000000E+00 -0.00000000000E+00 -0.83051430459E+03  0.83051430460E+03  0.50400000000E-02 0.  1.
    8880022    1    1    2    0    0  0.22383068378E+02 -0.94485801762E+03 -0.13967309761E+03  0.96755253212E+03  0.15294330000E+03 0.  0.
    8880022    1    1    2    0    0 -0.22383068378E+02  0.94485801762E+03  0.55069366793E+03  0.11044966474E+04  0.15294330000E+03 0.  0.
<mgrwt>
<rscale>  0 0.95741805E+03</rscale>
<asrwt>0</asrwt>
<pdfrwt beam="1">  1        1 0.19100536E+00 0.95741805E+03</pdfrwt>
<pdfrwt beam="2">  1       -1 0.12777143E+00 0.95741805E+03</pdfrwt>
<totfact> 0.53255131E+00</totfact>
</mgrwt>
</event>
<event>
 4    1  0.4964158E-009  0.6762386E+03  0.7818608E-02  0.9758753E-01
         -1   -1    0    0    0  501 -0.00000000000E+00  0.00000000000E+00  0.10633811944E+04  0.10633811944E+04  0.50400000000E-02 0.  1.
          1   -1    0    0  501    0  0.00000000000E+00 -0.00000000000E+00 -0.70072231427E+03  0.70072231429E+03  0.50400000000E-02 0. -1.
    8880022    1    1    2    0    0 -0.37915752832E+03 -0.53865252953E+03 -0.36688363304E+03  0.76935182593E+03  0.15294330000E+03 0.  0.
    8880022    1    1    2    0    0  0.37915752832E+03  0.53865252953E+03  0.72954251315E+03  0.99475168276E+03  0.15294330000E+03 0.  0.
<mgrwt>
<rscale>  0 0.67623859E+03</rscale>
<asrwt>0</asrwt>
<pdfrwt beam="1">  1        1 0.10780343E+00 0.67623859E+03</pdfrwt>
<pdfrwt beam="2">  1       -1 0.16359711E+00 0.67623859E+03</pdfrwt>
<totfact> 0.77932302E+00</totfact>
</mgrwt>
</event>
<event>
 4    1  0.4964158E-009  0.4049593E+03  0.7818608E-02  0.1042076E+00
          1   -1    0    0  501    0  0.00000000000E+00  0.00000000000E+00  0.92393567555E+03  0.92393567556E+03  0.50400000000E-02 0. -1.
         -1   -1    0    0    0  501 -0.00000000000E+00 -0.00000000000E+00 -0.59102203508E+03  0.59102203510E+03  0.50400000000E-02 0.  1.
    8880022    1    1    2    0    0 -0.10372222685E+03 -0.36033608584E+03 -0.46715273735E+03  0.61824245093E+03  0.15294330000E+03 0.  0.
    8880022    1    1    2    0    0  0.10372222685E+03  0.36033608584E+03  0.80006637782E+03  0.89671525973E+03  0.15294330000E+03 0.  0.
<mgrwt>
<rscale>  0 0.40495932E+03</rscale>
<asrwt>0</asrwt>
<pdfrwt beam="1">  1        1 0.14214395E+00 0.40495932E+03</pdfrwt>
<pdfrwt beam="2">  1       -1 0.90926467E-01 0.40495932E+03</pdfrwt>
<totfact> 0.22313969E+01</totfact>
</mgrwt>
</event>
<event>
 4    1  0.5252833E-009  0.1067896E+04  0.7818608E-02  0.9237061E-01
          1   -1    0    0  501    0  0.00000000000E+00  0.00000000000E+00  0.10028728289E+04  0.10028728289E+04  0.50400000000E-02 0. -1.
         -1   -1    0    0    0  501 -0.00000000000E+00 -0.00000000000E+00 -0.27214471287E+04  0.27214471287E+04  0.50400000000E-02 0.  1.
    8880022    1    1    2    0    0 -0.46161318265E+03  0.95074838639E+03 -0.22801021604E+04  0.25177900508E+04  0.15294330000E+03 0.  0.
    8880022    1    1    2    0    0  0.46161318265E+03 -0.95074838639E+03  0.56152786065E+03  0.12065299068E+04  0.15294330000E+03 0.  0.
<mgrwt>
<rscale>  0 0.10678955E+04</rscale>
<asrwt>0</asrwt>
<pdfrwt beam="1">  1        1 0.15428813E+00 0.10678955E+04</pdfrwt>
<pdfrwt beam="2">  1       -1 0.41868417E+00 0.10678955E+04</pdfrwt>
<totfact> 0.81272354E-02</totfact>
</mgrwt>
</event>
<event>
 4    1  0.4964158E-009  0.1035135E+04  0.7818608E-02  0.9270827E-01
         -1   -1    0    0    0  501 -0.00000000000E+00  0.00000000000E+00  0.76604553578E+03  0.76604553579E+03  0.50400000000E-02 0.  1.
          1   -1    0    0  501    0  0.00000000000E+00 -0.00000000000E+00 -0.27938607477E+04  0.27938607478E+04  0.50400000000E-02 0. -1.
    8880022    1    1    2    0    0  0.54235505813E+03 -0.86831131888E+03 -0.22717051247E+04  0.24964273237E+04  0.15294330000E+03 0. -1.
    8880022    1    1    2    0    0 -0.54235505813E+03  0.86831131888E+03  0.24388991276E+03  0.10634789599E+04  0.15294330000E+03 0.  0.
<mgrwt>
<rscale>  0 0.10351354E+04</rscale>
<asrwt>0</asrwt>
<pdfrwt beam="1">  1        1 0.42982473E+00 0.10351354E+04</pdfrwt>
<pdfrwt beam="2">  1       -1 0.11785316E+00 0.10351354E+04</pdfrwt>
<totfact> 0.55420154E-01</totfact>
</mgrwt>
</event>
<event>
 4    1  0.4964158E-009  0.1646490E+04  0.7818608E-02  0.8792486E-01
          1   -1    0    0  501    0  0.00000000000E+00  0.00000000000E+00  0.43341297699E+04  0.43341297699E+04  0.50400000000E-02 0. -1.
         -1   -1    0    0    0  501 -0.00000000000E+00 -0.00000000000E+00 -0.15434459277E+04  0.15434459277E+04  0.50400000000E-02 0.  1.
    8880022    1    1    2    0    0  0.15887386166E+04  0.40428481002E+03  0.36617332073E+04  0.40148746349E+04  0.15294330000E+03 0.  0.
    8880022    1    1    2    0    0 -0.15887386166E+04 -0.40428481002E+03 -0.87104936509E+03  0.18627010627E+04  0.15294330000E+03 0.  0.
<mgrwt>
<rscale>  0 0.16464897E+04</rscale>
<asrwt>0</asrwt>
<pdfrwt beam="1">  1        1 0.66678918E+00 0.16464897E+04</pdfrwt>
<pdfrwt beam="2">  1       -1 0.23745323E+00 0.16464897E+04</pdfrwt>
<totfact> 0.37316180E-03</totfact>
</mgrwt>
</event>
<event>
 4    1  0.4964158E-009  0.6381273E+03  0.7818608E-02  0.9829316E-01
          1   -1    0    0  501    0  0.00000000000E+00  0.00000000000E+00  0.79179817336E+03  0.79179817338E+03  0.50400000000E-02 0. -1.
         -1   -1    0    0    0  501 -0.00000000000E+00 -0.00000000000E+00 -0.82065722709E+03  0.82065722710E+03  0.50400000000E-02 0.  1.
    8880022    1    1    2    0    0  0.23197389420E+03  0.57445883579E+03 -0.50704106796E+03  0.81504425599E+03  0.15294330000E+03 0.  0.
    8880022    1    1    2    0    0 -0.23197389420E+03 -0.57445883579E+03  0.47818201424E+03  0.79741114449E+03  0.15294330000E+03 0.  0.
<mgrwt>
<rscale>  0 0.63812733E+03</rscale>
<asrwt>0</asrwt>
<pdfrwt beam="1">  1        1 0.12181510E+00 0.63812733E+03</pdfrwt>
<pdfrwt beam="2">  1       -1 0.12625496E+00 0.63812733E+03</pdfrwt>
<totfact> 0.12831695E+01</totfact>
</mgrwt>
</event>
<event>
 4    1  0.4964158E-009  0.1101936E+04  0.7818608E-02  0.9203307E-01
          1   -1    0    0  501    0  0.00000000000E+00  0.00000000000E+00  0.15459679276E+04  0.15459679276E+04  0.50400000000E-02 0. -1.
         -1   -1    0    0    0  501 -0.00000000000E+00 -0.00000000000E+00 -0.12625389031E+04  0.12625389031E+04  0.50400000000E-02 0.  1.
    8880022    1    1    2    0    0  0.10077449266E+04 -0.41871490482E+03  0.10049468909E+04  0.14913691412E+04  0.15294330000E+03 0.  0.
    8880022    1    1    2    0    0 -0.10077449266E+04  0.41871490482E+03 -0.72151786645E+03  0.13171376896E+04  0.15294330000E+03 0.  0.
<mgrwt>
<rscale>  0 0.11019363E+04</rscale>
<asrwt>0</asrwt>
<pdfrwt beam="1">  1        1 0.23784122E+00 0.11019363E+04</pdfrwt>
<pdfrwt beam="2">  1       -1 0.19423676E+00 0.11019363E+04</pdfrwt>
<totfact> 0.99587836E-01</totfact>
</mgrwt>
</event>
<event>
 4    1  0.4964158E-009  0.4767702E+03  0.7818608E-02  0.1020027E+00
         -1   -1    0    0    0  501 -0.00000000000E+00  0.00000000000E+00  0.78915220847E+03  0.78915220848E+03  0.50400000000E-02 0.  1.
          1   -1    0    0  501    0  0.00000000000E+00 -0.00000000000E+00 -0.55475381042E+03  0.55475381044E+03  0.50400000000E-02 0. -1.
    8880022    1    1    2    0    0  0.44546855964E+03  0.73999739081E+02  0.58311665382E+03  0.75321635934E+03  0.15294330000E+03 0.  0.
    8880022    1    1    2    0    0 -0.44546855964E+03 -0.73999739081E+02 -0.34871825576E+03  0.59068965958E+03  0.15294330000E+03 0. -1.
<mgrwt>
<rscale>  0 0.47677023E+03</rscale>
<asrwt>0</asrwt>
<pdfrwt beam="1">  1        1 0.85346740E-01 0.47677023E+03</pdfrwt>
<pdfrwt beam="2">  1       -1 0.12140803E+00 0.47677023E+03</pdfrwt>
<totfact> 0.24493467E+01</totfact>
</mgrwt>
</event>
<event>
 4    1  0.4964158E-009  0.3870104E+03  0.7818608E-02  0.1048373E+00
          1   -1    0    0  501    0  0.00000000000E+00  0.00000000000E+00  0.87125819643E+03  0.87125819644E+03  0.50400000000E-02 0. -1.
         -1   -1    0    0    0  501 -0.00000000000E+00 -0.00000000000E+00 -0.31024731024E+03  0.31024731028E+03  0.50400000000E-02 0.  1.
    8880022    1    1    2    0    0  0.34364748453E+03 -0.91059464578E+02  0.67498369955E+03  0.77806173752E+03  0.15294330000E+03 0.  0.
    8880022    1    1    2    0    0 -0.34364748453E+03  0.91059464578E+02 -0.11397281336E+03  0.40344376920E+03  0.15294330000E+03 0.  0.
<mgrwt>
<rscale>  0 0.38701043E+03</rscale>
<asrwt>0</asrwt>
<pdfrwt beam="1">  1        1 0.13403972E+00 0.38701043E+03</pdfrwt>
<pdfrwt beam="2">  1       -1 0.47730355E-01 0.38701043E+03</pdfrwt>
<totfact> 0.89454800E+01</totfact>
</mgrwt>
</event>
<event>
 4    1  0.4964158E-009  0.5245562E+03  0.7818608E-02  0.1007561E+00
         -1   -1    0    0    0  501 -0.00000000000E+00  0.00000000000E+00  0.37199705518E+03  0.37199705522E+03  0.50400000000E-02 0.  1.
          1   -1    0    0  501    0  0.00000000000E+00 -0.00000000000E+00 -0.20572797117E+04  0.20572797117E+04  0.50400000000E-02 0. -1.
    8880022    1    1    2    0    0 -0.42851441016E+03 -0.26104195927E+03 -0.18146987235E+04  0.18889919572E+04  0.15294330000E+03 0. -1.
    8880022    1    1    2    0    0  0.42851441016E+03  0.26104195927E+03  0.12941606699E+03  0.54028480973E+03  0.15294330000E+03 0.  0.
<mgrwt>
<rscale>  0 0.52455615E+03</rscale>
<asrwt>0</asrwt>
<pdfrwt beam="1">  1        1 0.31650456E+00 0.52455615E+03</pdfrwt>
<pdfrwt beam="2">  1       -1 0.57230318E-01 0.52455615E+03</pdfrwt>
<totfact> 0.92193478E+00</totfact>
</mgrwt>
</event>
<event>
 4    1  0.4964158E-009  0.1279090E+04  0.7818608E-02  0.9046314E-01
         -1   -1    0    0    0  501 -0.00000000000E+00  0.00000000000E+00  0.15393400809E+04  0.15393400809E+04  0.50400000000E-02 0.  1.
          1   -1    0    0  501    0  0.00000000000E+00 -0.00000000000E+00 -0.16059607345E+04  0.16059607345E+04  0.50400000000E-02 0. -1.
    8880022    1    1    2    0    0 -0.44759659897E+03 -0.11884173405E+04  0.88125231902E+03  0.15532790455E+04  0.15294330000E+03 0.  0.
    8880022    1    1    2    0    0  0.44759659897E+03  0.11884173405E+04 -0.94787297265E+03  0.15920217699E+04  0.15294330000E+03 0. -1.
<mgrwt>
<rscale>  0 0.12790896E+04</rscale>
<asrwt>0</asrwt>
<pdfrwt beam="1">  1        1 0.24707088E+00 0.12790896E+04</pdfrwt>
<pdfrwt beam="2">  1       -1 0.23682155E+00 0.12790896E+04</pdfrwt>
<totfact> 0.45633077E-01</totfact>
</mgrwt>
</event>
<event>
 4    1  0.4964158E-009  0.7798033E+03  0.7818608E-02  0.9589720E-01
          1   -1    0    0  501    0  0.00000000000E+00  0.00000000000E+00  0.66755128052E+03  0.66755128054E+03  0.50400000000E-02 0. -1.
         -1   -1    0    0    0  501 -0.00000000000E+00 -0.00000000000E+00 -0.11329377284E+04  0.11329377285E+04  0.50400000000E-02 0.  1.
    8880022    1    1    2    0    0  0.66443073813E+02  0.76176564777E+03 -0.63120431050E+03  0.10032507756E+04  0.15294330000E+03 0.  0.
    8880022    1    1    2    0    0 -0.66443073813E+02 -0.76176564777E+03  0.16581786257E+03  0.79723823337E+03  0.15294330000E+03 0.  0.
<mgrwt>
<rscale>  0 0.77980333E+03</rscale>
<asrwt>0</asrwt>
<pdfrwt beam="1">  1        1 0.10270020E+00 0.77980333E+03</pdfrwt>
<pdfrwt beam="2">  1       -1 0.17429811E+00 0.77980333E+03</pdfrwt>
<totfact> 0.68938750E+00</totfact>
</mgrwt>
</event>
<event>
 4    1  0.4964158E-009  0.8363993E+03  0.7818608E-02  0.9508775E-01
          1   -1    0    0  501    0  0.00000000000E+00  0.00000000000E+00  0.15489846560E+04  0.15489846560E+04  0.50400000000E-02 0. -1.
         -1   -1    0    0    0  501 -0.00000000000E+00 -0.00000000000E+00 -0.78617130639E+03  0.78617130641E+03  0.50400000000E-02 0.  1.
    8880022    1    1    2    0    0 -0.80770672630E+03  0.15421411904E+03  0.11430539795E+04  0.14163813764E+04  0.15294330000E+03 0.  0.
    8880022    1    1    2    0    0  0.80770672630E+03 -0.15421411904E+03 -0.38024062994E+03  0.91877458601E+03  0.15294330000E+03 0.  0.
<mgrwt>
<rscale>  0 0.83639931E+03</rscale>
<asrwt>0</asrwt>
<pdfrwt beam="1">  1        1 0.23830533E+00 0.83639931E+03</pdfrwt>
<pdfrwt beam="2">  1       -1 0.12094943E+00 0.83639931E+03</pdfrwt>
<totfact> 0.37814351E+00</totfact>
</mgrwt>
</event>
<event>
 4    1  0.4964158E-009  0.1174102E+04  0.7818608E-02  0.9135832E-01
          1   -1    0    0  501    0  0.00000000000E+00  0.00000000000E+00  0.10610474963E+04  0.10610474963E+04  0.50400000000E-02 0. -1.
         -1   -1    0    0    0  501 -0.00000000000E+00 -0.00000000000E+00 -0.13288127759E+04  0.13288127759E+04  0.50400000000E-02 0.  1.
    8880022    1    1    2    0    0 -0.11295608729E+04 -0.28145192574E+03  0.44494190615E+02  0.11749443978E+04  0.15294330000E+03 0.  0.
    8880022    1    1    2    0    0  0.11295608729E+04  0.28145192574E+03 -0.31225947020E+03  0.12149158743E+04  0.15294330000E+03 0.  0.
<mgrwt>
<rscale>  0 0.11741016E+04</rscale>
<asrwt>0</asrwt>
<pdfrwt beam="1">  1        1 0.16323808E+00 0.11741016E+04</pdfrwt>
<pdfrwt beam="2">  1       -1 0.20443273E+00 0.11741016E+04</pdfrwt>
<totfact> 0.18729407E+00</totfact>
</mgrwt>
</event>
<event>
 4    1  0.4964158E-009  0.5943955E+03  0.7818608E-02  0.9917102E-01
         -1   -1    0    0    0  501 -0.00000000000E+00  0.00000000000E+00  0.61872775406E+03  0.61872775408E+03  0.50400000000E-02 0.  1.
          1   -1    0    0  501    0  0.00000000000E+00 -0.00000000000E+00 -0.11810732798E+04  0.11810732798E+04  0.50400000000E-02 0. -1.
    8880022    1    1    2    0    0  0.15516189351E+03 -0.55302720163E+03  0.36558246092E+03  0.69782267639E+03  0.15294330000E+03 0.  0.
    8880022    1    1    2    0    0 -0.15516189351E+03  0.55302720163E+03 -0.92792798666E+03  0.11019783575E+04  0.15294330000E+03 0.  0.
<mgrwt>
<rscale>  0 0.59439545E+03</rscale>
<asrwt>0</asrwt>
<pdfrwt beam="1">  1        1 0.18170358E+00 0.59439545E+03</pdfrwt>
<pdfrwt beam="2">  1       -1 0.95188885E-01 0.59439545E+03</pdfrwt>
<totfact> 0.12450957E+01</totfact>
</mgrwt>
</event>
<event>
 4    1  0.4964158E-009  0.9146945E+03  0.7818608E-02  0.9407397E-01
          1   -1    0    0  501    0  0.00000000000E+00  0.00000000000E+00  0.16195732845E+04  0.16195732845E+04  0.50400000000E-02 0. -1.
         -1   -1    0    0    0  501 -0.00000000000E+00 -0.00000000000E+00 -0.10012491200E+04  0.10012491200E+04  0.50400000000E-02 0.  1.
    8880022    1    1    2    0    0  0.42642644969E+03 -0.79462878071E+03 -0.60253750112E+03  0.10953161687E+04  0.15294330000E+03 0.  0.
    8880022    1    1    2    0    0 -0.42642644969E+03  0.79462878071E+03  0.12208616656E+04  0.15255062359E+04  0.15294330000E+03 0.  0.
<mgrwt>
<rscale>  0 0.91469452E+03</rscale>
<asrwt>0</asrwt>
<pdfrwt beam="1">  1        1 0.24916512E+00 0.91469452E+03</pdfrwt>
<pdfrwt beam="2">  1       -1 0.15403833E+00 0.91469452E+03</pdfrwt>
<totfact> 0.17906180E+00</totfact>
</mgrwt>
</event>
<event>
 4    1  0.4964158E-009  0.7226159E+03  0.7818608E-02  0.9679319E-01
          1   -1    0    0  501    0  0.00000000000E+00  0.00000000000E+00  0.67476128302E+03  0.67476128304E+03  0.50400000000E-02 0. -1.
         -1   -1    0    0    0  501 -0.00000000000E+00 -0.00000000000E+00 -0.14047408147E+04  0.14047408147E+04  0.50400000000E-02 0.  1.
    8880022    1    1    2    0    0  0.69008892397E+03  0.15019796681E+03  0.33180258879E+03  0.79515203776E+03  0.15294330000E+03 0.  0.
    8880022    1    1    2    0    0 -0.69008892397E+03 -0.15019796681E+03 -0.10617821204E+04  0.12843500600E+04  0.15294330000E+03 0.  0.
<mgrwt>
<rscale>  0 0.72261595E+03</rscale>
<asrwt>0</asrwt>
<pdfrwt beam="1">  1        1 0.10380943E+00 0.72261595E+03</pdfrwt>
<pdfrwt beam="2">  1       -1 0.21611397E+00 0.72261595E+03</pdfrwt>
<totfact> 0.35145309E+00</totfact>
</mgrwt>
</event>
<event>
 4    1  0.4964158E-009  0.8283738E+03  0.7818608E-02  0.9519832E-01
         -1   -1    0    0    0  501 -0.00000000000E+00  0.00000000000E+00  0.65248206726E+03  0.65248206728E+03  0.50400000000E-02 0.  1.
          1   -1    0    0  501    0  0.00000000000E+00 -0.00000000000E+00 -0.15399106619E+04  0.15399106619E+04  0.50400000000E-02 0. -1.
    8880022    1    1    2    0    0  0.67846678680E+03  0.44999366041E+03 -0.10609521942E+04  0.13460396304E+04  0.15294330000E+03 0.  0.
    8880022    1    1    2    0    0 -0.67846678680E+03 -0.44999366041E+03  0.17352359957E+03  0.84635309879E+03  0.15294330000E+03 0.  0.
<mgrwt>
<rscale>  0 0.82837379E+03</rscale>
<asrwt>0</asrwt>
<pdfrwt beam="1">  1        1 0.23690933E+00 0.82837379E+03</pdfrwt>
<pdfrwt beam="2">  1       -1 0.10038186E+00 0.82837379E+03</pdfrwt>
<totfact> 0.59681335E+00</totfact>
</mgrwt>
</event>
<event>
 4    1  0.4964158E-009  0.1313201E+04  0.7818608E-02  0.9019162E-01
          1   -1    0    0  501    0  0.00000000000E+00  0.00000000000E+00  0.15859162786E+04  0.15859162786E+04  0.50400000000E-02 0. -1.
         -1   -1    0    0    0  501 -0.00000000000E+00 -0.00000000000E+00 -0.17243198007E+04  0.17243198007E+04  0.50400000000E-02 0.  1.
    8880022    1    1    2    0    0 -0.12746745170E+04 -0.27624326639E+03  0.93672997770E+03  0.16130592583E+04  0.15294330000E+03 0.  0.
    8880022    1    1    2    0    0  0.12746745170E+04  0.27624326639E+03 -0.10751334998E+04  0.16971768211E+04  0.15294330000E+03 0.  0.
<mgrwt>
<rscale>  0 0.13132011E+04</rscale>
<asrwt>0</asrwt>
<pdfrwt beam="1">  1        1 0.24398712E+00 0.13132011E+04</pdfrwt>
<pdfrwt beam="2">  1       -1 0.26527997E+00 0.13132011E+04</pdfrwt>
<totfact> 0.30585378E-01</totfact>
</mgrwt>
</event>
<event>
 4    1  0.4964158E-009  0.9682630E+03  0.7818608E-02  0.9344055E-01
         -1   -1    0    0    0  501 -0.00000000000E+00  0.00000000000E+00  0.68839390676E+03  0.68839390678E+03  0.50400000000E-02 0.  1.
          1   -1    0    0  501    0  0.00000000000E+00 -0.00000000000E+00 -0.27676904977E+04  0.27676904977E+04  0.50400000000E-02 0. -1.
    8880022    1    1    2    0    0  0.22214794593E+03  0.92994188689E+03  0.19190646605E+03  0.98709744584E+03  0.15294330000E+03 0.  0.
    8880022    1    1    2    0    0 -0.22214794593E+03 -0.92994188689E+03 -0.22712030570E+04  0.24689869587E+04  0.15294330000E+03 0.  0.
<mgrwt>
<rscale>  0 0.96826302E+03</rscale>
<asrwt>0</asrwt>
<pdfrwt beam="1">  1        1 0.42579853E+00 0.96826302E+03</pdfrwt>
<pdfrwt beam="2">  1       -1 0.10590676E+00 0.96826302E+03</pdfrwt>
<totfact> 0.75446641E-01</totfact>
</mgrwt>
</event>
<event>
 4    1  0.4964158E-009  0.5268410E+03  0.7818608E-02  0.1007001E+00
          1   -1    0    0  501    0  0.00000000000E+00  0.00000000000E+00  0.21068178633E+04  0.21068178633E+04  0.50400000000E-02 0. -1.
         -1   -1    0    0    0  501 -0.00000000000E+00 -0.00000000000E+00 -0.43675164209E+03  0.43675164212E+03  0.50400000000E-02 0.  1.
    8880022    1    1    2    0    0  0.10250501667E+03  0.49362180313E+03 -0.22776660539E+03  0.57396780617E+03  0.15294330000E+03 0.  0.
    8880022    1    1    2    0    0 -0.10250501667E+03 -0.49362180313E+03  0.18978328266E+04  0.19696016993E+04  0.15294330000E+03 0.  0.
<mgrwt>
<rscale>  0 0.52684098E+03</rscale>
<asrwt>0</asrwt>
<pdfrwt beam="1">  1        1 0.32412583E+00 0.52684098E+03</pdfrwt>
<pdfrwt beam="2">  1       -1 0.67192560E-01 0.52684098E+03</pdfrwt>
<totfact> 0.62243930E+00</totfact>
</mgrwt>
</event>
<event>
 4    1  0.4964158E-009  0.7401077E+03  0.7818608E-02  0.9650999E-01
         -1   -1    0    0    0  501 -0.00000000000E+00  0.00000000000E+00  0.31167549077E+03  0.31167549081E+03  0.50400000000E-02 0.  1.
          1   -1    0    0  501    0  0.00000000000E+00 -0.00000000000E+00 -0.25637509543E+04  0.25637509543E+04  0.50400000000E-02 0. -1.
    8880022    1    1    2    0    0  0.40375481368E+03  0.60112380125E+03 -0.31977176950E+03  0.80623409230E+03  0.15294330000E+03 0.  0.
    8880022    1    1    2    0    0 -0.40375481368E+03 -0.60112380125E+03 -0.19323036940E+04  0.20691923528E+04  0.15294330000E+03 0.  0.
<mgrwt>
<rscale>  0 0.74010771E+03</rscale>
<asrwt>0</asrwt>
<pdfrwt beam="1">  1        1 0.39442321E+00 0.74010771E+03</pdfrwt>
<pdfrwt beam="2">  1       -1 0.47950077E-01 0.74010771E+03</pdfrwt>
<totfact> 0.56395373E+00</totfact>
</mgrwt>
</event>
<event>
 4    1  0.4964158E-009  0.1618648E+03  0.7818608E-02  0.1186607E+00
         -1   -1    0    0    0  501 -0.00000000000E+00  0.00000000000E+00  0.14954234785E+03  0.14954234794E+03  0.50400000000E-02 0.  1.
          1   -1    0    0  501    0  0.00000000000E+00 -0.00000000000E+00 -0.22931701242E+04  0.22931701242E+04  0.50400000000E-02 0. -1.
    8880022    1    1    2    0    0  0.72150974823E+01  0.52502408559E+02 -0.22455862015E+04  0.22514123571E+04  0.15294330000E+03 0.  0.
    8880022    1    1    2    0    0 -0.72150974823E+01 -0.52502408559E+02  0.10195842513E+03  0.19130011502E+03  0.15294330000E+03 0.  1.
<mgrwt>
<rscale>  0 0.16186480E+03</rscale>
<asrwt>0</asrwt>
<pdfrwt beam="1">  1        1 0.35279538E+00 0.16186480E+03</pdfrwt>
<pdfrwt beam="2">  1       -1 0.23006517E-01 0.16186480E+03</pdfrwt>
<totfact> 0.36992695E+01</totfact>
</mgrwt>
</event>
<event>
 4    1  0.4964158E-009  0.4472723E+03  0.7818608E-02  0.1028539E+00
         -1   -1    0    0    0  501 -0.00000000000E+00  0.00000000000E+00  0.89378688059E+03  0.89378688060E+03  0.50400000000E-02 0.  1.
          1   -1    0    0  501    0  0.00000000000E+00 -0.00000000000E+00 -0.94779461124E+03  0.94779461126E+03  0.50400000000E-02 0. -1.
    8880022    1    1    2    0    0 -0.42017489633E+03  0.10673366554E+02 -0.83175902980E+03  0.94439165654E+03  0.15294330000E+03 0. -1.
    8880022    1    1    2    0    0  0.42017489633E+03 -0.10673366554E+02  0.77775129915E+03  0.89718983532E+03  0.15294330000E+03 0.  0.
<mgrwt>
<rscale>  0 0.44727231E+03</rscale>
<asrwt>0</asrwt>
<pdfrwt beam="1">  1        1 0.14581456E+00 0.44727231E+03</pdfrwt>
<pdfrwt beam="2">  1       -1 0.13750567E+00 0.44727231E+03</pdfrwt>
<totfact> 0.79962780E+00</totfact>
</mgrwt>
</event>
<event>
 4    1  0.4964158E-009  0.1202543E+04  0.7818608E-02  0.9110634E-01
          1   -1    0    0  501    0  0.00000000000E+00  0.00000000000E+00  0.16057254253E+04  0.16057254253E+04  0.50400000000E-02 0. -1.
         -1   -1    0    0    0  501 -0.00000000000E+00 -0.00000000000E+00 -0.12871436336E+04  0.12871436336E+04  0.50400000000E-02 0.  1.
    8880022    1    1    2    0    0 -0.11478539925E+03 -0.11872414016E+04 -0.63336907452E+03  0.13591415935E+04  0.15294330000E+03 0.  0.
    8880022    1    1    2    0    0  0.11478539925E+03  0.11872414016E+04  0.95195086614E+03  0.15337274654E+04  0.15294330000E+03 0.  0.
<mgrwt>
<rscale>  0 0.12025429E+04</rscale>
<asrwt>0</asrwt>
<pdfrwt beam="1">  1        1 0.24703468E+00 0.12025429E+04</pdfrwt>
<pdfrwt beam="2">  1       -1 0.19802210E+00 0.12025429E+04</pdfrwt>
<totfact> 0.84147721E-01</totfact>
</mgrwt>
</event>
<event>
 4    1  0.4964158E-009  0.7829568E+03  0.7818608E-02  0.9585019E-01
         -1   -1    0    0    0  501 -0.00000000000E+00  0.00000000000E+00  0.66155730478E+03  0.66155730480E+03  0.50400000000E-02 0.  1.
          1   -1    0    0  501    0  0.00000000000E+00 -0.00000000000E+00 -0.10751381740E+04  0.10751381740E+04  0.50400000000E-02 0. -1.
    8880022    1    1    2    0    0  0.74669256633E+03 -0.17910860651E+03 -0.52951439774E+03  0.94520200591E+03  0.15294330000E+03 0.  0.
    8880022    1    1    2    0    0 -0.74669256633E+03  0.17910860651E+03  0.11593352856E+03  0.79149347287E+03  0.15294330000E+03 0.  0.
<mgrwt>
<rscale>  0 0.78295679E+03</rscale>
<asrwt>0</asrwt>
<pdfrwt beam="1">  1        1 0.16540587E+00 0.78295679E+03</pdfrwt>
<pdfrwt beam="2">  1       -1 0.10177805E+00 0.78295679E+03</pdfrwt>
<totfact> 0.12454316E+01</totfact>
</mgrwt>
</event>
<event>
 4    1  0.4964158E-009  0.1603777E+04  0.7818608E-02  0.8818231E-01
          1   -1    0    0  501    0  0.00000000000E+00  0.00000000000E+00  0.23827255254E+04  0.23827255254E+04  0.50400000000E-02 0. -1.
         -1   -1    0    0    0  501 -0.00000000000E+00 -0.00000000000E+00 -0.14470150070E+04  0.14470150070E+04  0.50400000000E-02 0.  1.
    8880022    1    1    2    0    0 -0.15959471915E+04 -0.40761826744E+02 -0.49720219268E+03  0.16790802953E+04  0.15294330000E+03 0.  0.
    8880022    1    1    2    0    0  0.15959471915E+04  0.40761826744E+02  0.14329127112E+04  0.21506602371E+04  0.15294330000E+03 0.  0.
<mgrwt>
<rscale>  0 0.16037770E+04</rscale>
<asrwt>0</asrwt>
<pdfrwt beam="1">  1        1 0.36657315E+00 0.16037770E+04</pdfrwt>
<pdfrwt beam="2">  1       -1 0.22261770E+00 0.16037770E+04</pdfrwt>
<totfact> 0.16093590E-01</totfact>
</mgrwt>
</event>
<event>
 4    1  0.4964158E-009  0.1205670E+04  0.7818608E-02  0.9107908E-01
         -1   -1    0    0    0  501 -0.00000000000E+00  0.00000000000E+00  0.92191356924E+03  0.92191356926E+03  0.50400000000E-02 0.  1.
          1   -1    0    0  501    0  0.00000000000E+00 -0.00000000000E+00 -0.18243061222E+04  0.18243061222E+04  0.50400000000E-02 0. -1.
    8880022    1    1    2    0    0  0.37573268970E+03  0.11353740822E+04  0.54605249058E+02  0.12069062709E+04  0.15294330000E+03 0.  0.
    8880022    1    1    2    0    0 -0.37573268970E+03 -0.11353740822E+04 -0.95699780200E+03  0.15393134205E+04  0.15294330000E+03 0.  0.
<mgrwt>
<rscale>  0 0.12056704E+04</rscale>
<asrwt>0</asrwt>
<pdfrwt beam="1">  1        1 0.28066248E+00 0.12056704E+04</pdfrwt>
<pdfrwt beam="2">  1       -1 0.14183286E+00 0.12056704E+04</pdfrwt>
<totfact> 0.15595901E+00</totfact>
</mgrwt>
</event>
<event>
 4    1  0.4964158E-009  0.4399739E+03  0.7818608E-02  0.1030755E+00
         -1   -1    0    0    0  501 -0.00000000000E+00  0.00000000000E+00  0.28571829646E+03  0.28571829650E+03  0.50400000000E-02 0.  1.
          1   -1    0    0  501    0  0.00000000000E+00 -0.00000000000E+00 -0.18860539491E+04  0.18860539491E+04  0.50400000000E-02 0. -1.
    8880022    1    1    2    0    0 -0.34565519837E+03 -0.22518405175E+03  0.69069639409E+02  0.44536237091E+03  0.15294330000E+03 0.  0.
    8880022    1    1    2    0    0  0.34565519837E+03  0.22518405175E+03 -0.16694052920E+04  0.17264098747E+04  0.15294330000E+03 0.  0.
<mgrwt>
<rscale>  0 0.43997389E+03</rscale>
<asrwt>0</asrwt>
<pdfrwt beam="1">  1        1 0.29016214E+00 0.43997389E+03</pdfrwt>
<pdfrwt beam="2">  1       -1 0.43956662E-01 0.43997389E+03</pdfrwt>
<totfact> 0.20050532E+01</totfact>
</mgrwt>
</event>
<event>
 4    1  0.4964158E-009  0.1346771E+04  0.7818608E-02  0.8993276E-01
          1   -1    0    0  501    0  0.00000000000E+00  0.00000000000E+00  0.12381050990E+04  0.12381050990E+04  0.50400000000E-02 0. -1.
         -1   -1    0    0    0  501 -0.00000000000E+00 -0.00000000000E+00 -0.21669198251E+04  0.21669198251E+04  0.50400000000E-02 0.  1.
    8880022    1    1    2    0    0  0.52080767304E+03  0.12325421849E+04 -0.14334000289E+04  0.19668320126E+04  0.15294330000E+03 0.  0.
    8880022    1    1    2    0    0 -0.52080767304E+03 -0.12325421849E+04  0.50458530273E+03  0.14381929115E+04  0.15294330000E+03 0.  0.
<mgrwt>
<rscale>  0 0.13467711E+04</rscale>
<asrwt>0</asrwt>
<pdfrwt beam="1">  1        1 0.19047771E+00 0.13467711E+04</pdfrwt>
<pdfrwt beam="2">  1       -1 0.33337228E+00 0.13467711E+04</pdfrwt>
<totfact> 0.19389415E-01</totfact>
</mgrwt>
</event>
<event>
 4    1  0.4964158E-009  0.2973486E+03  0.7818608E-02  0.1086574E+00
          1   -1    0    0  501    0  0.00000000000E+00  0.00000000000E+00  0.17872452590E+04  0.17872452590E+04  0.50400000000E-02 0. -1.
         -1   -1    0    0    0  501 -0.00000000000E+00 -0.00000000000E+00 -0.36757765614E+03  0.36757765617E+03  0.50400000000E-02 0.  1.
    8880022    1    1    2    0    0  0.14829696791E+03 -0.20744290281E+03 -0.29245677769E+03  0.41706974051E+03  0.15294330000E+03 0.  0.
    8880022    1    1    2    0    0 -0.14829696791E+03  0.20744290281E+03  0.17121243805E+04  0.17377531746E+04  0.15294330000E+03 0.  0.
<mgrwt>
<rscale>  0 0.29734862E+03</rscale>
<asrwt>0</asrwt>
<pdfrwt beam="1">  1        1 0.27496081E+00 0.29734862E+03</pdfrwt>
<pdfrwt beam="2">  1       -1 0.56550408E-01 0.29734862E+03</pdfrwt>
<totfact> 0.15193707E+01</totfact>
</mgrwt>
</event>
<event>
 4    1  0.4964158E-009  0.1141538E+04  0.7818608E-02  0.9165626E-01
         -1   -1    0    0    0  501 -0.00000000000E+00  0.00000000000E+00  0.16761137797E+04  0.16761137797E+04  0.50400000000E-02 0.  1.
          1   -1    0    0  501    0  0.00000000000E+00 -0.00000000000E+00 -0.97047575254E+03  0.97047575256E+03  0.50400000000E-02 0. -1.
    8880022    1    1    2    0    0  0.10288968607E+04  0.47019970479E+03 -0.23733152997E+03  0.11659478636E+04  0.15294330000E+03 0.  0.
    8880022    1    1    2    0    0 -0.10288968607E+04 -0.47019970479E+03  0.94296955710E+03  0.14806416687E+04  0.15294330000E+03 0.  0.
<mgrwt>
<rscale>  0 0.11415376E+04</rscale>
<asrwt>0</asrwt>
<pdfrwt beam="1">  1        1 0.14930396E+00 0.11415376E+04</pdfrwt>
<pdfrwt beam="2">  1       -1 0.25786366E+00 0.11415376E+04</pdfrwt>
<totfact> 0.97900518E-01</totfact>
</mgrwt>
</event>
<event>
 4    1  0.4964158E-009  0.5045990E+03  0.7818608E-02  0.1012585E+00
         -1   -1    0    0    0  501 -0.00000000000E+00  0.00000000000E+00  0.10768877095E+04  0.10768877095E+04  0.50400000000E-02 0.  1.
          1   -1    0    0  501    0  0.00000000000E+00 -0.00000000000E+00 -0.88750490283E+03  0.88750490284E+03  0.50400000000E-02 0. -1.
    8880022    1    1    2    0    0  0.46144796808E+03 -0.13525614058E+03 -0.74655809563E+03  0.90109327707E+03  0.15294330000E+03 0.  0.
    8880022    1    1    2    0    0 -0.46144796808E+03  0.13525614058E+03  0.93594090229E+03  0.10632993353E+04  0.15294330000E+03 0.  1.
<mgrwt>
<rscale>  0 0.50459895E+03</rscale>
<asrwt>0</asrwt>
<pdfrwt beam="1">  1        1 0.13653922E+00 0.50459895E+03</pdfrwt>
<pdfrwt beam="2">  1       -1 0.16567503E+00 0.50459895E+03</pdfrwt>
<totfact> 0.53522693E+00</totfact>
</mgrwt>
</event>
<event>
 4    1  0.4964158E-009  0.7397128E+03  0.7818608E-02  0.9651629E-01
         -1   -1    0    0    0  501 -0.00000000000E+00  0.00000000000E+00  0.15930478075E+04  0.15930478075E+04  0.50400000000E-02 0.  1.
          1   -1    0    0  501    0  0.00000000000E+00 -0.00000000000E+00 -0.87467867971E+03  0.87467867973E+03  0.50400000000E-02 0. -1.
    8880022    1    1    2    0    0 -0.68672136587E+03  0.22846692552E+03  0.13207360484E+04  0.15137763153E+04  0.15294330000E+03 0.  0.
    8880022    1    1    2    0    0  0.68672136587E+03 -0.22846692552E+03 -0.60236692059E+03  0.95395017189E+03  0.15294330000E+03 0.  0.
<mgrwt>
<rscale>  0 0.73971280E+03</rscale>
<asrwt>0</asrwt>
<pdfrwt beam="1">  1        1 0.13456595E+00 0.73971280E+03</pdfrwt>
<pdfrwt beam="2">  1       -1 0.24508428E+00 0.73971280E+03</pdfrwt>
<totfact> 0.15056115E+00</totfact>
</mgrwt>
</event>
<event>
 4    1  0.4964158E-009  0.4872098E+03  0.7818608E-02  0.1017172E+00
         -1   -1    0    0    0  501 -0.00000000000E+00  0.00000000000E+00  0.10204203326E+04  0.10204203326E+04  0.50400000000E-02 0.  1.
          1   -1    0    0  501    0  0.00000000000E+00 -0.00000000000E+00 -0.73106904822E+03  0.73106904824E+03  0.50400000000E-02 0. -1.
    8880022    1    1    2    0    0 -0.43725716047E+03 -0.15095668899E+03  0.86779056557E+03  0.99520543861E+03  0.15294330000E+03 0.  0.
    8880022    1    1    2    0    0  0.43725716047E+03  0.15095668899E+03 -0.57843928116E+03  0.75628394227E+03  0.15294330000E+03 0.  0.
<mgrwt>
<rscale>  0 0.48720981E+03</rscale>
<asrwt>0</asrwt>
<pdfrwt beam="1">  1        1 0.11247216E+00 0.48720981E+03</pdfrwt>
<pdfrwt beam="2">  1       -1 0.15698774E+00 0.48720981E+03</pdfrwt>
<totfact> 0.84743801E+00</totfact>
</mgrwt>
</event>
<event>
 4    1  0.4964158E-009  0.6977079E+03  0.7818608E-02  0.9721160E-01
         -1   -1    0    0    0  501 -0.00000000000E+00  0.00000000000E+00  0.93344542658E+03  0.93344542659E+03  0.50400000000E-02 0.  1.
          1   -1    0    0  501    0  0.00000000000E+00 -0.00000000000E+00 -0.99457319746E+03  0.99457319747E+03  0.50400000000E-02 0. -1.
    8880022    1    1    2    0    0 -0.59041909875E+03  0.33883618879E+03 -0.69541560060E+03  0.98508841511E+03  0.15294330000E+03 0.  0.
    8880022    1    1    2    0    0  0.59041909875E+03 -0.33883618879E+03  0.63428782973E+03  0.94293020895E+03  0.15294330000E+03 0.  0.
<mgrwt>
<rscale>  0 0.69770791E+03</rscale>
<asrwt>0</asrwt>
<pdfrwt beam="1">  1        1 0.15301126E+00 0.69770791E+03</pdfrwt>
<pdfrwt beam="2">  1       -1 0.14360699E+00 0.69770791E+03</pdfrwt>
<totfact> 0.62511977E+00</totfact>
</mgrwt>
</event>
<event>
 4    1  0.4964158E-009  0.6866965E+03  0.7818608E-02  0.9740257E-01
         -1   -1    0    0    0  501 -0.00000000000E+00  0.00000000000E+00  0.26879420115E+04  0.26879420115E+04  0.50400000000E-02 0.  1.
          1   -1    0    0  501    0  0.00000000000E+00 -0.00000000000E+00 -0.24232868882E+03  0.24232868887E+03  0.50400000000E-02 0. -1.
    8880022    1    1    2    0    0 -0.53994314993E+03 -0.39575480661E+03  0.45300944736E+03  0.82266012698E+03  0.15294330000E+03 0.  0.
    8880022    1    1    2    0    0  0.53994314993E+03  0.39575480661E+03  0.19926038753E+04  0.21076105734E+04  0.15294330000E+03 0.  0.
<mgrwt>
<rscale>  0 0.68669653E+03</rscale>
<asrwt>0</asrwt>
<pdfrwt beam="1">  1        1 0.37281338E-01 0.68669653E+03</pdfrwt>
<pdfrwt beam="2">  1       -1 0.41352952E+00 0.68669653E+03</pdfrwt>
<totfact> 0.72349363E-01</totfact>
</mgrwt>
</event>
<event>
 4    1  0.4964158E-009  0.1446182E+04  0.7818608E-02  0.8921052E-01
         -1   -1    0    0    0  501 -0.00000000000E+00  0.00000000000E+00  0.12058820843E+04  0.12058820843E+04  0.50400000000E-02 0.  1.
          1   -1    0    0  501    0  0.00000000000E+00 -0.00000000000E+00 -0.20217512578E+04  0.20217512578E+04  0.50400000000E-02 0. -1.
    8880022    1    1    2    0    0 -0.12871939417E+04 -0.64123424204E+03  0.20051185018E+03  0.14600158396E+04  0.15294330000E+03 0.  0.
    8880022    1    1    2    0    0  0.12871939417E+04  0.64123424204E+03 -0.10163810236E+04  0.17676175025E+04  0.15294330000E+03 0.  0.
<mgrwt>
<rscale>  0 0.14461816E+04</rscale>
<asrwt>0</asrwt>
<pdfrwt beam="1">  1        1 0.31103866E+00 0.14461816E+04</pdfrwt>
<pdfrwt beam="2">  1       -1 0.18552032E+00 0.14461816E+04</pdfrwt>
<totfact> 0.52121841E-01</totfact>
</mgrwt>
</event>
<event>
 4    1  0.4964158E-009  0.1932032E+04  0.7818608E-02  0.8639074E-01
         -1   -1    0    0    0  501 -0.00000000000E+00  0.00000000000E+00  0.16113754576E+04  0.16113754576E+04  0.50400000000E-02 0.  1.
          1   -1    0    0  501    0  0.00000000000E+00 -0.00000000000E+00 -0.25697299606E+04  0.25697299606E+04  0.50400000000E-02 0. -1.
    8880022    1    1    2    0    0  0.18136950249E+04 -0.64797019514E+03  0.17708489931E+03  0.19401303388E+04  0.15294330000E+03 0.  0.
    8880022    1    1    2    0    0 -0.18136950249E+04  0.64797019514E+03 -0.11354394023E+04  0.22409750794E+04  0.15294330000E+03 0.  0.
<mgrwt>
<rscale>  0 0.19320317E+04</rscale>
<asrwt>0</asrwt>
<pdfrwt beam="1">  1        1 0.39534307E+00 0.19320317E+04</pdfrwt>
<pdfrwt beam="2">  1       -1 0.24790392E+00 0.19320317E+04</pdfrwt>
<totfact> 0.78232249E-02</totfact>
</mgrwt>
</event>
<event>
 4    1  0.4964158E-009  0.6115933E+03  0.7818608E-02  0.9881641E-01
          1   -1    0    0  501    0  0.00000000000E+00  0.00000000000E+00  0.14954344737E+04  0.14954344737E+04  0.50400000000E-02 0. -1.
         -1   -1    0    0    0  501 -0.00000000000E+00 -0.00000000000E+00 -0.73980814327E+03  0.73980814329E+03  0.50400000000E-02 0.  1.
    8880022    1    1    2    0    0 -0.21561374317E+03 -0.55151196732E+03 -0.53145596557E+03  0.81024183593E+03  0.15294330000E+03 0.  0.
    8880022    1    1    2    0    0  0.21561374317E+03  0.55151196732E+03  0.12870822960E+04  0.14250007811E+04  0.15294330000E+03 0.  0.
<mgrwt>
<rscale>  0 0.61159332E+03</rscale>
<asrwt>0</asrwt>
<pdfrwt beam="1">  1        1 0.23006684E+00 0.61159332E+03</pdfrwt>
<pdfrwt beam="2">  1       -1 0.11381664E+00 0.61159332E+03</pdfrwt>
<totfact> 0.49576557E+00</totfact>
</mgrwt>
</event>
<event>
 4    1  0.4964158E-009  0.2185031E+04  0.7818608E-02  0.8524684E-01
          1   -1    0    0  501    0  0.00000000000E+00  0.00000000000E+00  0.21110950310E+04  0.21110950310E+04  0.50400000000E-02 0. -1.
         -1   -1    0    0    0  501 -0.00000000000E+00 -0.00000000000E+00 -0.26987265073E+04  0.26987265073E+04  0.50400000000E-02 0.  1.
    8880022    1    1    2    0    0  0.15636599086E+04 -0.15185316056E+04  0.67411516052E+03  0.22866555161E+04  0.15294330000E+03 0.  0.
    8880022    1    1    2    0    0 -0.15636599086E+04  0.15185316056E+04 -0.12617466368E+04  0.25231660222E+04  0.15294330000E+03 0.  0.
<mgrwt>
<rscale>  0 0.21850314E+04</rscale>
<asrwt>0</asrwt>
<pdfrwt beam="1">  1        1 0.32478385E+00 0.21850314E+04</pdfrwt>
<pdfrwt beam="2">  1       -1 0.41518870E+00 0.21850314E+04</pdfrwt>
<totfact> 0.12235807E-02</totfact>
</mgrwt>
</event>
<event>
 4    1  0.4964158E-009  0.5185274E+03  0.7818608E-02  0.1009053E+00
         -1   -1    0    0    0  501 -0.00000000000E+00  0.00000000000E+00  0.49165639371E+03  0.49165639374E+03  0.50400000000E-02 0.  1.
          1   -1    0    0  501    0  0.00000000000E+00 -0.00000000000E+00 -0.10551822176E+04  0.10551822176E+04  0.50400000000E-02 0. -1.
    8880022    1    1    2    0    0 -0.48501150161E+03  0.10120703115E+03  0.25504365330E+03  0.57785632985E+03  0.15294330000E+03 0.  1.
    8880022    1    1    2    0    0  0.48501150161E+03 -0.10120703115E+03 -0.81856947716E+03  0.96898228147E+03  0.15294330000E+03 0.  0.
<mgrwt>
<rscale>  0 0.51852741E+03</rscale>
<asrwt>0</asrwt>
<pdfrwt beam="1">  1        1 0.16233573E+00 0.51852741E+03</pdfrwt>
<pdfrwt beam="2">  1       -1 0.75639445E-01 0.51852741E+03</pdfrwt>
<totfact> 0.25592758E+01</totfact>
</mgrwt>
</event>
<event>
 4    1  0.4964158E-009  0.7532686E+03  0.7818608E-02  0.9630236E-01
          1   -1    0    0  501    0  0.00000000000E+00  0.00000000000E+00  0.63966637132E+03  0.63966637134E+03  0.50400000000E-02 0. -1.
         -1   -1    0    0    0  501 -0.00000000000E+00 -0.00000000000E+00 -0.95954513451E+03  0.95954513452E+03  0.50400000000E-02 0.  1.
    8880022    1    1    2    0    0  0.72190128589E+03  0.15126272461E+03  0.59851388913E+02  0.75564258760E+03  0.15294330000E+03 0.  0.
    8880022    1    1    2    0    0 -0.72190128589E+03 -0.15126272461E+03 -0.37973015210E+03  0.84356891826E+03  0.15294330000E+03 0.  0.
<mgrwt>
<rscale>  0 0.75326857E+03</rscale>
<asrwt>0</asrwt>
<pdfrwt beam="1">  1        1 0.98410211E-01 0.75326857E+03</pdfrwt>
<pdfrwt beam="2">  1       -1 0.14762233E+00 0.75326857E+03</pdfrwt>
<totfact> 0.11691010E+01</totfact>
</mgrwt>
</event>
<event>
 4    1  0.4964158E-009  0.1299152E+04  0.7818608E-02  0.9030238E-01
         -1   -1    0    0    0  501 -0.00000000000E+00  0.00000000000E+00  0.17141682836E+04  0.17141682836E+04  0.50400000000E-02 0.  1.
          1   -1    0    0  501    0  0.00000000000E+00 -0.00000000000E+00 -0.20756313432E+04  0.20756313432E+04  0.50400000000E-02 0. -1.
    8880022    1    1    2    0    0  0.78106993463E+03  0.10268079782E+04  0.11930785168E+04  0.17638687216E+04  0.15294330000E+03 0.  0.
    8880022    1    1    2    0    0 -0.78106993463E+03 -0.10268079782E+04 -0.15545415764E+04  0.20259309052E+04  0.15294330000E+03 0.  0.
<mgrwt>
<rscale>  0 0.12991522E+04</rscale>
<asrwt>0</asrwt>
<pdfrwt beam="1">  1        1 0.31932790E+00 0.12991522E+04</pdfrwt>
<pdfrwt beam="2">  1       -1 0.26371820E+00 0.12991522E+04</pdfrwt>
<totfact> 0.14562881E-01</totfact>
</mgrwt>
</event>
<event>
 4    1  0.4964158E-009  0.1892511E+04  0.7818608E-02  0.8658593E-01
         -1   -1    0    0    0  501 -0.00000000000E+00  0.00000000000E+00  0.12809959197E+04  0.12809959197E+04  0.50400000000E-02 0.  1.
          1   -1    0    0  501    0  0.00000000000E+00 -0.00000000000E+00 -0.29511181519E+04  0.29511181519E+04  0.50400000000E-02 0. -1.
    8880022    1    1    2    0    0 -0.62470338140E+03  0.17798737299E+04 -0.13202823759E+04  0.23075402520E+04  0.15294330000E+03 0.  0.
    8880022    1    1    2    0    0  0.62470338140E+03 -0.17798737299E+04 -0.34983985632E+03  0.19245738197E+04  0.15294330000E+03 0.  0.
<mgrwt>
<rscale>  0 0.18925106E+04</rscale>
<asrwt>0</asrwt>
<pdfrwt beam="1">  1        1 0.45401818E+00 0.18925106E+04</pdfrwt>
<pdfrwt beam="2">  1       -1 0.19707630E+00 0.18925106E+04</pdfrwt>
<totfact> 0.92599370E-02</totfact>
</mgrwt>
</event>
<event>
 4    1  0.4964158E-009  0.1649626E+04  0.7818608E-02  0.8790628E-01
          1   -1    0    0  501    0  0.00000000000E+00  0.00000000000E+00  0.30151287946E+04  0.30151287946E+04  0.50400000000E-02 0. -1.
         -1   -1    0    0    0  501 -0.00000000000E+00 -0.00000000000E+00 -0.20862584675E+04  0.20862584675E+04  0.50400000000E-02 0.  1.
    8880022    1    1    2    0    0  0.69429389814E+03  0.14885666383E+04  0.23857517947E+04  0.29005306295E+04  0.15294330000E+03 0.  0.
    8880022    1    1    2    0    0 -0.69429389814E+03 -0.14885666383E+04 -0.14568814676E+04  0.22008566326E+04  0.15294330000E+03 0.  0.
<mgrwt>
<rscale>  0 0.16496261E+04</rscale>
<asrwt>0</asrwt>
<pdfrwt beam="1">  1        1 0.46386597E+00 0.16496261E+04</pdfrwt>
<pdfrwt beam="2">  1       -1 0.32096284E+00 0.16496261E+04</pdfrwt>
<totfact> 0.13003630E-02</totfact>
</mgrwt>
</event>
<event>
 4    1  0.4964158E-009  0.1424736E+04  0.7818608E-02  0.8936105E-01
         -1   -1    0    0    0  501 -0.00000000000E+00  0.00000000000E+00  0.13802902557E+04  0.13802902557E+04  0.50400000000E-02 0.  1.
          1   -1    0    0  501    0  0.00000000000E+00 -0.00000000000E+00 -0.22603646385E+04  0.22603646385E+04  0.50400000000E-02 0. -1.
    8880022    1    1    2    0    0  0.79671658887E+03  0.11712061830E+04  0.63594606208E+03  0.15602244368E+04  0.15294330000E+03 0.  0.
    8880022    1    1    2    0    0 -0.79671658887E+03 -0.11712061830E+04 -0.15160204449E+04  0.20804304575E+04  0.15294330000E+03 0.  0.
<mgrwt>
<rscale>  0 0.14247361E+04</rscale>
<asrwt>0</asrwt>
<pdfrwt beam="1">  1        1 0.34774841E+00 0.14247361E+04</pdfrwt>
<pdfrwt beam="2">  1       -1 0.21235235E+00 0.14247361E+04</pdfrwt>
<totfact> 0.23406553E-01</totfact>
</mgrwt>
</event>
<event>
 4    1  0.4964158E-009  0.6568632E+03  0.7818608E-02  0.9793985E-01
         -1   -1    0    0    0  501 -0.00000000000E+00  0.00000000000E+00  0.55226171080E+03  0.55226171082E+03  0.50400000000E-02 0.  1.
          1   -1    0    0  501    0  0.00000000000E+00 -0.00000000000E+00 -0.99362487201E+03  0.99362487202E+03  0.50400000000E-02 0. -1.
    8880022    1    1    2    0    0 -0.30715201606E+03  0.56012077144E+03 -0.57800420083E+03  0.87496179846E+03  0.15294330000E+03 0.  0.
    8880022    1    1    2    0    0  0.30715201606E+03 -0.56012077144E+03  0.13664103962E+03  0.67092478438E+03  0.15294330000E+03 0.  0.
<mgrwt>
<rscale>  0 0.65686322E+03</rscale>
<asrwt>0</asrwt>
<pdfrwt beam="1">  1        1 0.15286536E+00 0.65686322E+03</pdfrwt>
<pdfrwt beam="2">  1       -1 0.84963340E-01 0.65686322E+03</pdfrwt>
<totfact> 0.21834260E+01</totfact>
</mgrwt>
</event>
<event>
 4    1  0.4964158E-009  0.8147832E+03  0.7818608E-02  0.9538862E-01
          1   -1    0    0  501    0  0.00000000000E+00  0.00000000000E+00  0.12231011946E+04  0.12231011946E+04  0.50400000000E-02 0. -1.
         -1   -1    0    0    0  501 -0.00000000000E+00 -0.00000000000E+00 -0.12866142479E+04  0.12866142479E+04  0.50400000000E-02 0.  1.
    8880022    1    1    2    0    0 -0.34528619316E+03  0.72198161940E+03  0.92237700315E+03  0.12307115840E+04  0.15294330000E+03 0.  0.
    8880022    1    1    2    0    0  0.34528619316E+03 -0.72198161940E+03 -0.98589005639E+03  0.12790038586E+04  0.15294330000E+03 0.  0.
<mgrwt>
<rscale>  0 0.81478320E+03</rscale>
<asrwt>0</asrwt>
<pdfrwt beam="1">  1        1 0.18816941E+00 0.81478320E+03</pdfrwt>
<pdfrwt beam="2">  1       -1 0.19794065E+00 0.81478320E+03</pdfrwt>
<totfact> 0.16535229E+00</totfact>
</mgrwt>
</event>
<event>
 4    1  0.5737545E-009  0.7913827E+03  0.7818608E-02  0.9572575E-01
         -1   -1    0    0    0  501 -0.00000000000E+00  0.00000000000E+00  0.15006915035E+04  0.15006915035E+04  0.50400000000E-02 0.  1.
          1   -1    0    0  501    0  0.00000000000E+00 -0.00000000000E+00 -0.17981451986E+04  0.17981451986E+04  0.50400000000E-02 0. -1.
    8880022    1    1    2    0    0  0.31308971645E+02  0.77583163824E+03  0.12966660054E+04  0.15190883336E+04  0.15294330000E+03 0.  0.
    8880022    1    1    2    0    0 -0.31308971645E+02 -0.77583163824E+03 -0.15941197006E+04  0.17797483685E+04  0.15294330000E+03 0.  0.
<mgrwt>
<rscale>  0 0.79138274E+03</rscale>
<asrwt>0</asrwt>
<pdfrwt beam="1">  1        1 0.27663772E+00 0.79138274E+03</pdfrwt>
<pdfrwt beam="2">  1       -1 0.23087562E+00 0.79138274E+03</pdfrwt>
<totfact> 0.40143614E-01</totfact>
</mgrwt>
</event>
<event>
 4    1  0.4964158E-009  0.6800821E+03  0.7818608E-02  0.9751914E-01
         -1   -1    0    0    0  501 -0.00000000000E+00  0.00000000000E+00  0.40155950048E+03  0.40155950051E+03  0.50400000000E-02 0.  1.
          1   -1    0    0  501    0  0.00000000000E+00 -0.00000000000E+00 -0.27851434178E+04  0.27851434178E+04  0.50400000000E-02 0. -1.
    8880022    1    1    2    0    0 -0.65493153377E+03 -0.10091937886E+03 -0.24119836365E+04  0.25060280826E+04  0.15294330000E+03 0.  0.
    8880022    1    1    2    0    0  0.65493153377E+03  0.10091937886E+03  0.28399719163E+02  0.68067483575E+03  0.15294330000E+03 0.  1.
<mgrwt>
<rscale>  0 0.68008212E+03</rscale>
<asrwt>0</asrwt>
<pdfrwt beam="1">  1        1 0.42848359E+00 0.68008212E+03</pdfrwt>
<pdfrwt beam="2">  1       -1 0.61778386E-01 0.68008212E+03</pdfrwt>
<totfact> 0.24620566E+00</totfact>
</mgrwt>
</event>
<event>
 4    1  0.4964158E-009  0.5197002E+03  0.7818608E-02  0.1008761E+00
         -1   -1    0    0    0  501 -0.00000000000E+00  0.00000000000E+00  0.61407691838E+03  0.61407691840E+03  0.50400000000E-02 0.  1.
          1   -1    0    0  501    0  0.00000000000E+00 -0.00000000000E+00 -0.19143296046E+04  0.19143296046E+04  0.50400000000E-02 0. -1.
    8880022    1    1    2    0    0  0.24946974079E+03 -0.42948984590E+03 -0.17596361546E+04  0.18347772969E+04  0.15294330000E+03 0. -1.
    8880022    1    1    2    0    0 -0.24946974079E+03  0.42948984590E+03  0.45938346842E+03  0.69362922615E+03  0.15294330000E+03 0.  0.
<mgrwt>
<rscale>  0 0.51970023E+03</rscale>
<asrwt>0</asrwt>
<pdfrwt beam="1">  1        1 0.29451224E+00 0.51970023E+03</pdfrwt>
<pdfrwt beam="2">  1       -1 0.94473373E-01 0.51970023E+03</pdfrwt>
<totfact> 0.40767458E+00</totfact>
</mgrwt>
</event>
<event>
 4    1  0.4964158E-009  0.9618501E+03  0.7818608E-02  0.9351406E-01
          1   -1    0    0  501    0  0.00000000000E+00  0.00000000000E+00  0.89008734632E+03  0.89008734634E+03  0.50400000000E-02 0. -1.
         -1   -1    0    0    0  501 -0.00000000000E+00 -0.00000000000E+00 -0.12785377514E+04  0.12785377514E+04  0.50400000000E-02 0.  1.
    8880022    1    1    2    0    0 -0.86382031923E+03  0.39443441551E+03 -0.66317125152E+03  0.11683115226E+04  0.15294330000E+03 0.  0.
    8880022    1    1    2    0    0  0.86382031923E+03 -0.39443441551E+03  0.27472084645E+03  0.10003135751E+04  0.15294330000E+03 0.  0.
<mgrwt>
<rscale>  0 0.96185015E+03</rscale>
<asrwt>0</asrwt>
<pdfrwt beam="1">  1        1 0.13693651E+00 0.96185015E+03</pdfrwt>
<pdfrwt beam="2">  1       -1 0.19669812E+00 0.96185015E+03</pdfrwt>
<totfact> 0.29671231E+00</totfact>
</mgrwt>
</event>
<event>
 4    1  0.6885999E-009  0.1595875E+04  0.7818608E-02  0.8823086E-01
          1   -1    0    0  501    0  0.00000000000E+00  0.00000000000E+00  0.45647852264E+04  0.45647852264E+04  0.50400000000E-02 0. -1.
         -1   -1    0    0    0  501 -0.00000000000E+00 -0.00000000000E+00 -0.12774363683E+04  0.12774363683E+04  0.50400000000E-02 0.  1.
    8880022    1    1    2    0    0 -0.10546972282E+04  0.11878711848E+04  0.38359578005E+04  0.41546826708E+04  0.15294330000E+03 0.  0.
    8880022    1    1    2    0    0  0.10546972282E+04 -0.11878711848E+04 -0.54860894243E+03  0.16875389239E+04  0.15294330000E+03 0.  0.
<mgrwt>
<rscale>  0 0.15958746E+04</rscale>
<asrwt>0</asrwt>
<pdfrwt beam="1">  1        1 0.70227464E+00 0.15958746E+04</pdfrwt>
<pdfrwt beam="2">  1       -1 0.19652867E+00 0.15958746E+04</pdfrwt>
<totfact> 0.41826360E-03</totfact>
</mgrwt>
</event>
<event>
 4    1  0.4964158E-009  0.4771557E+03  0.7818608E-02  0.1019920E+00
         -1   -1    0    0    0  501 -0.00000000000E+00  0.00000000000E+00  0.15268318552E+04  0.15268318552E+04  0.50400000000E-02 0.  1.
          1   -1    0    0  501    0  0.00000000000E+00 -0.00000000000E+00 -0.30997250618E+03  0.30997250622E+03  0.50400000000E-02 0. -1.
    8880022    1    1    2    0    0 -0.31049105118E+03 -0.32845279552E+03 -0.53159517065E+02  0.48010782019E+03  0.15294330000E+03 0.  0.
    8880022    1    1    2    0    0  0.31049105118E+03  0.32845279552E+03  0.12700188661E+04  0.13566965412E+04  0.15294330000E+03 0.  0.
<mgrwt>
<rscale>  0 0.47715572E+03</rscale>
<asrwt>0</asrwt>
<pdfrwt beam="1">  1        1 0.47688079E-01 0.47715572E+03</pdfrwt>
<pdfrwt beam="2">  1       -1 0.23489721E+00 0.47715572E+03</pdfrwt>
<totfact> 0.79592355E+00</totfact>
</mgrwt>
</event>
<event>
 4    1  0.4964158E-009  0.3404715E+03  0.7818608E-02  0.1066595E+00
          1   -1    0    0  501    0  0.00000000000E+00  0.00000000000E+00  0.25283156226E+04  0.25283156227E+04  0.50400000000E-02 0. -1.
         -1   -1    0    0    0  501 -0.00000000000E+00 -0.00000000000E+00 -0.66141817268E+02  0.66141817460E+02  0.50400000000E-02 0.  1.
    8880022    1    1    2    0    0  0.13885642277E+03  0.27064378017E+03  0.51254952889E+03  0.61532742054E+03  0.15294330000E+03 0.  1.
    8880022    1    1    2    0    0 -0.13885642277E+03 -0.27064378017E+03  0.19496242765E+04  0.19791300196E+04  0.15294330000E+03 0.  0.
<mgrwt>
<rscale>  0 0.34047146E+03</rscale>
<asrwt>0</asrwt>
<pdfrwt beam="1">  1        1 0.38897157E+00 0.34047146E+03</pdfrwt>
<pdfrwt beam="2">  1       -1 0.10175666E-01 0.34047146E+03</pdfrwt>
<totfact> 0.88559944E+01</totfact>
</mgrwt>
</event>
<event>
 4    1  0.4964158E-009  0.4681511E+03  0.7818608E-02  0.1022443E+00
          1   -1    0    0  501    0  0.00000000000E+00  0.00000000000E+00  0.25842819323E+04  0.25842819323E+04  0.50400000000E-02 0. -1.
         -1   -1    0    0    0  501 -0.00000000000E+00 -0.00000000000E+00 -0.33015614124E+03  0.33015614128E+03  0.50400000000E-02 0.  1.
    8880022    1    1    2    0    0 -0.42175072591E+03  0.13379133852E+03 -0.12913288659E+03  0.48563438149E+03  0.15294330000E+03 0.  1.
    8880022    1    1    2    0    0  0.42175072591E+03 -0.13379133852E+03  0.23832586776E+04  0.24288036921E+04  0.15294330000E+03 0.  0.
<mgrwt>
<rscale>  0 0.46815110E+03</rscale>
<asrwt>0</asrwt>
<pdfrwt beam="1">  1        1 0.39758184E+00 0.46815110E+03</pdfrwt>
<pdfrwt beam="2">  1       -1 0.50793252E-01 0.46815110E+03</pdfrwt>
<totfact> 0.52182444E+00</totfact>
</mgrwt>
</event>
<event>
 4    1  0.4964158E-009  0.1010673E+04  0.7818608E-02  0.9296915E-01
          1   -1    0    0  501    0  0.00000000000E+00  0.00000000000E+00  0.10327971705E+04  0.10327971705E+04  0.50400000000E-02 0. -1.
         -1   -1    0    0    0  501 -0.00000000000E+00 -0.00000000000E+00 -0.17151527229E+04  0.17151527229E+04  0.50400000000E-02 0.  1.
    8880022    1    1    2    0    0  0.94516193125E+03 -0.32363209275E+03  0.55281587389E+03  0.11519834422E+04  0.15294330000E+03 0.  0.
    8880022    1    1    2    0    0 -0.94516193125E+03  0.32363209275E+03 -0.12351714263E+04  0.15959664511E+04  0.15294330000E+03 0.  0.
<mgrwt>
<rscale>  0 0.10106733E+04</rscale>
<asrwt>0</asrwt>
<pdfrwt beam="1">  1        1 0.15889187E+00 0.10106733E+04</pdfrwt>
<pdfrwt beam="2">  1       -1 0.26386965E+00 0.10106733E+04</pdfrwt>
<totfact> 0.81457487E-01</totfact>
</mgrwt>
</event>
<event>
 4    1  0.4964158E-009  0.1969934E+03  0.7818608E-02  0.1152301E+00
          1   -1    0    0  501    0  0.00000000000E+00  0.00000000000E+00  0.65258419828E+03  0.65258419830E+03  0.50400000000E-02 0. -1.
         -1   -1    0    0    0  501 -0.00000000000E+00 -0.00000000000E+00 -0.41170679876E+03  0.41170679879E+03  0.50400000000E-02 0.  1.
    8880022    1    1    2    0    0 -0.12299796929E+03  0.16918773095E+02  0.61265542421E+03  0.64354725324E+03  0.15294330000E+03 0. -1.
    8880022    1    1    2    0    0  0.12299796929E+03 -0.16918773095E+02 -0.37177802469E+03  0.42074374385E+03  0.15294330000E+03 0.  0.
<mgrwt>
<rscale>  0 0.19699340E+03</rscale>
<asrwt>0</asrwt>
<pdfrwt beam="1">  1        1 0.10039757E+00 0.19699340E+03</pdfrwt>
<pdfrwt beam="2">  1       -1 0.63339507E-01 0.19699340E+03</pdfrwt>
<totfact> 0.84280499E+01</totfact>
</mgrwt>
</event>
<event>
 4    1  0.4964158E-009  0.1095347E+04  0.7818608E-02  0.9209739E-01
         -1   -1    0    0    0  501 -0.00000000000E+00  0.00000000000E+00  0.96819917495E+03  0.96819917496E+03  0.50400000000E-02 0.  1.
          1   -1    0    0  501    0  0.00000000000E+00 -0.00000000000E+00 -0.34557999237E+04  0.34557999237E+04  0.50400000000E-02 0. -1.
    8880022    1    1    2    0    0 -0.10719393375E+04  0.16534878991E+03 -0.30153571015E+04  0.32081403131E+04  0.15294330000E+03 0.  0.
    8880022    1    1    2    0    0  0.10719393375E+04 -0.16534878991E+03  0.52775635276E+03  0.12158587856E+04  0.15294330000E+03 0.  0.
<mgrwt>
<rscale>  0 0.10953474E+04</rscale>
<asrwt>0</asrwt>
<pdfrwt beam="1">  1        1 0.53166152E+00 0.10953474E+04</pdfrwt>
<pdfrwt beam="2">  1       -1 0.14895372E+00 0.10953474E+04</pdfrwt>
<totfact> 0.98078276E-02</totfact>
</mgrwt>
</event>
<event>
 4    1  0.4964158E-009  0.7216101E+03  0.7818608E-02  0.9680973E-01
          1   -1    0    0  501    0  0.00000000000E+00  0.00000000000E+00  0.10345522671E+04  0.10345522671E+04  0.50400000000E-02 0. -1.
         -1   -1    0    0    0  501 -0.00000000000E+00 -0.00000000000E+00 -0.13516235100E+04  0.13516235100E+04  0.50400000000E-02 0.  1.
    8880022    1    1    2    0    0 -0.57209723201E+02 -0.70289159753E+03  0.78665115704E+03  0.10674929724E+04  0.15294330000E+03 0.  0.
    8880022    1    1    2    0    0  0.57209723201E+02  0.70289159753E+03 -0.11037224000E+04  0.13186828047E+04  0.15294330000E+03 0.  1.
<mgrwt>
<rscale>  0 0.72161015E+03</rscale>
<asrwt>0</asrwt>
<pdfrwt beam="1">  1        1 0.15916189E+00 0.72161015E+03</pdfrwt>
<pdfrwt beam="2">  1       -1 0.20794208E+00 0.72161015E+03</pdfrwt>
<totfact> 0.19826666E+00</totfact>
</mgrwt>
</event>
<event>
 4    1  0.4964158E-009  0.9934419E+03  0.7818608E-02  0.9315767E-01
          1   -1    0    0  501    0  0.00000000000E+00  0.00000000000E+00  0.15653245536E+04  0.15653245536E+04  0.50400000000E-02 0. -1.
         -1   -1    0    0    0  501 -0.00000000000E+00 -0.00000000000E+00 -0.95153669367E+03  0.95153669368E+03  0.50400000000E-02 0.  1.
    8880022    1    1    2    0    0 -0.87950746059E+03 -0.43589183601E+03 -0.42407403486E+03  0.10801692025E+04  0.15294330000E+03 0.  0.
    8880022    1    1    2    0    0  0.87950746059E+03  0.43589183601E+03  0.10378618948E+04  0.14366920448E+04  0.15294330000E+03 0.  0.
<mgrwt>
<rscale>  0 0.99344185E+03</rscale>
<asrwt>0</asrwt>
<pdfrwt beam="1">  1        1 0.24081916E+00 0.99344185E+03</pdfrwt>
<pdfrwt beam="2">  1       -1 0.14639026E+00 0.99344185E+03</pdfrwt>
<totfact> 0.22113418E+00</totfact>
</mgrwt>
</event>
<event>
 4    1  0.4964158E-009  0.7452815E+03  0.7818608E-02  0.9642782E-01
          1   -1    0    0  501    0  0.00000000000E+00  0.00000000000E+00  0.12486313239E+04  0.12486313239E+04  0.50400000000E-02 0. -1.
         -1   -1    0    0    0  501 -0.00000000000E+00 -0.00000000000E+00 -0.11423717145E+04  0.11423717145E+04  0.50400000000E-02 0.  1.
    8880022    1    1    2    0    0 -0.42473411156E+03 -0.59300403856E+03  0.98730333104E+03  0.12370175325E+04  0.15294330000E+03 0.  0.
    8880022    1    1    2    0    0  0.42473411156E+03  0.59300403856E+03 -0.88104372166E+03  0.11539855059E+04  0.15294330000E+03 0.  0.
<mgrwt>
<rscale>  0 0.74528150E+03</rscale>
<asrwt>0</asrwt>
<pdfrwt beam="1">  1        1 0.19209713E+00 0.74528150E+03</pdfrwt>
<pdfrwt beam="2">  1       -1 0.17574950E+00 0.74528150E+03</pdfrwt>
<totfact> 0.22986074E+00</totfact>
</mgrwt>
</event>
<event>
 4    1  0.4964158E-009  0.4006354E+03  0.7818608E-02  0.1043560E+00
          1   -1    0    0  501    0  0.00000000000E+00  0.00000000000E+00  0.22142014745E+03  0.22142014751E+03  0.50400000000E-02 0. -1.
         -1   -1    0    0    0  501 -0.00000000000E+00 -0.00000000000E+00 -0.12515495700E+04  0.12515495700E+04  0.50400000000E-02 0.  1.
    8880022    1    1    2    0    0  0.27239870664E+03  0.25083072731E+03 -0.99281201674E+03  0.10706000480E+04  0.15294330000E+03 0.  0.
    8880022    1    1    2    0    0 -0.27239870664E+03 -0.25083072731E+03 -0.37317405768E+02  0.40236966949E+03  0.15294330000E+03 0.  0.
<mgrwt>
<rscale>  0 0.40063545E+03</rscale>
<asrwt>0</asrwt>
<pdfrwt beam="1">  1        1 0.34064639E-01 0.40063545E+03</pdfrwt>
<pdfrwt beam="2">  1       -1 0.19254608E+00 0.40063545E+03</pdfrwt>
<totfact> 0.23704872E+01</totfact>
</mgrwt>
</event>
<event>
 4    1  0.4964158E-009  0.1746276E+04  0.7818608E-02  0.8735403E-01
          1   -1    0    0  501    0  0.00000000000E+00  0.00000000000E+00  0.15687968088E+04  0.15687968088E+04  0.50400000000E-02 0. -1.
         -1   -1    0    0    0  501 -0.00000000000E+00 -0.00000000000E+00 -0.23855516624E+04  0.23855516624E+04  0.50400000000E-02 0.  1.
    8880022    1    1    2    0    0  0.24761227654E+03  0.17218529103E+04 -0.12591682539E+04  0.21529016766E+04  0.15294330000E+03 0.  0.
    8880022    1    1    2    0    0 -0.24761227654E+03 -0.17218529103E+04  0.44241340035E+03  0.18014467947E+04  0.15294330000E+03 0.  0.
<mgrwt>
<rscale>  0 0.17462763E+04</rscale>
<asrwt>0</asrwt>
<pdfrwt beam="1">  1        1 0.24135336E+00 0.17462763E+04</pdfrwt>
<pdfrwt beam="2">  1       -1 0.36700795E+00 0.17462763E+04</pdfrwt>
<totfact> 0.64449318E-02</totfact>
</mgrwt>
</event>
<event>
 4    1  0.4964158E-009  0.3821995E+03  0.7818608E-02  0.1050124E+00
         -1   -1    0    0    0  501 -0.00000000000E+00  0.00000000000E+00  0.14805747165E+04  0.14805747165E+04  0.50400000000E-02 0.  1.
          1   -1    0    0  501    0  0.00000000000E+00 -0.00000000000E+00 -0.14883760295E+04  0.14883760295E+04  0.50400000000E-02 0. -1.
    8880022    1    1    2    0    0  0.26125574801E+03  0.23330285780E+03  0.14305294331E+04  0.14807062171E+04  0.15294330000E+03 0.  0.
    8880022    1    1    2    0    0 -0.26125574801E+03 -0.23330285780E+03 -0.14383307462E+04  0.14882445289E+04  0.15294330000E+03 0.  0.
<mgrwt>
<rscale>  0 0.38219948E+03</rscale>
<asrwt>0</asrwt>
<pdfrwt beam="1">  1        1 0.22898093E+00 0.38219948E+03</pdfrwt>
<pdfrwt beam="2">  1       -1 0.22778073E+00 0.38219948E+03</pdfrwt>
<totfact> 0.77025497E-01</totfact>
</mgrwt>
</event>
<event>
 4    1  0.6303592E-009  0.1122167E+04  0.7818608E-02  0.9183852E-01
         -1   -1    0    0    0  501 -0.00000000000E+00  0.00000000000E+00  0.10485029781E+04  0.10485029781E+04  0.50400000000E-02 0.  1.
          1   -1    0    0  501    0  0.00000000000E+00 -0.00000000000E+00 -0.29598220294E+04  0.29598220294E+04  0.50400000000E-02 0. -1.
    8880022    1    1    2    0    0 -0.81678024893E+03 -0.75414682846E+03  0.58927563989E+03  0.12674797224E+04  0.15294330000E+03 0.  0.
    8880022    1    1    2    0    0  0.81678024893E+03  0.75414682846E+03 -0.25005946912E+04  0.27408452851E+04  0.15294330000E+03 0.  0.
<mgrwt>
<rscale>  0 0.11221671E+04</rscale>
<asrwt>0</asrwt>
<pdfrwt beam="1">  1        1 0.45535723E+00 0.11221671E+04</pdfrwt>
<pdfrwt beam="2">  1       -1 0.16130815E+00 0.11221671E+04</pdfrwt>
<totfact> 0.18349963E-01</totfact>
</mgrwt>
</event>
<event>
 4    1  0.4964158E-009  0.5459578E+03  0.7818608E-02  0.1002434E+00
          1   -1    0    0  501    0  0.00000000000E+00  0.00000000000E+00  0.39633529855E+03  0.39633529859E+03  0.50400000000E-02 0. -1.
         -1   -1    0    0    0  501 -0.00000000000E+00 -0.00000000000E+00 -0.87775556316E+03  0.87775556317E+03  0.50400000000E-02 0.  1.
    8880022    1    1    2    0    0 -0.30102619250E+03  0.42902383907E+03 -0.48177564163E+03  0.72813298576E+03  0.15294330000E+03 0.  0.
    8880022    1    1    2    0    0  0.30102619250E+03 -0.42902383907E+03  0.35537702857E+00  0.54595787600E+03  0.15294330000E+03 0.  0.
<mgrwt>
<rscale>  0 0.54595776E+03</rscale>
<asrwt>0</asrwt>
<pdfrwt beam="1">  1        1 0.60974661E-01 0.54595776E+03</pdfrwt>
<pdfrwt beam="2">  1       -1 0.13503932E+00 0.54595776E+03</pdfrwt>
<totfact> 0.29274138E+01</totfact>
</mgrwt>
</event>
<event>
 4    1  0.4964158E-009  0.4565504E+03  0.7818608E-02  0.1025786E+00
          1   -1    0    0  501    0  0.00000000000E+00  0.00000000000E+00  0.50871624690E+03  0.50871624692E+03  0.50400000000E-02 0. -1.
         -1   -1    0    0    0  501 -0.00000000000E+00 -0.00000000000E+00 -0.90025215150E+03  0.90025215152E+03  0.50400000000E-02 0.  1.
    8880022    1    1    2    0    0  0.27075005252E+03  0.33427681312E+03 -0.71578407751E+03  0.84899062266E+03  0.15294330000E+03 0.  0.
    8880022    1    1    2    0    0 -0.27075005252E+03 -0.33427681312E+03  0.32424817291E+03  0.55997777578E+03  0.15294330000E+03 0.  0.
<mgrwt>
<rscale>  0 0.45655036E+03</rscale>
<asrwt>0</asrwt>
<pdfrwt beam="1">  1        1 0.78264038E-01 0.45655036E+03</pdfrwt>
<pdfrwt beam="2">  1       -1 0.13850033E+00 0.45655036E+03</pdfrwt>
<totfact> 0.19939465E+01</totfact>
</mgrwt>
</event>
<event>
 4    1  0.4964158E-009  0.5581730E+03  0.7818608E-02  0.9996197E-01
         -1   -1    0    0    0  501 -0.00000000000E+00  0.00000000000E+00  0.56962639975E+03  0.56962639978E+03  0.50400000000E-02 0.  1.
          1   -1    0    0  501    0  0.00000000000E+00 -0.00000000000E+00 -0.10221384324E+04  0.10221384324E+04  0.50400000000E-02 0. -1.
    8880022    1    1    2    0    0 -0.21914361122E+03  0.49004241008E+03  0.31640296715E+03  0.64161357268E+03  0.15294330000E+03 0.  0.
    8880022    1    1    2    0    0  0.21914361122E+03 -0.49004241008E+03 -0.76891499981E+03  0.95015125951E+03  0.15294330000E+03 0.  0.
<mgrwt>
<rscale>  0 0.55817304E+03</rscale>
<asrwt>0</asrwt>
<pdfrwt beam="1">  1        1 0.15725207E+00 0.55817304E+03</pdfrwt>
<pdfrwt beam="2">  1       -1 0.87634831E-01 0.55817304E+03</pdfrwt>
<totfact> 0.19706822E+01</totfact>
</mgrwt>
</event>
<event>
 4    1  0.1039848E-008  0.1528120E+04  0.7818608E-02  0.8865966E-01
         -1   -1    0    0    0  501 -0.00000000000E+00  0.00000000000E+00  0.22249145461E+04  0.22249145461E+04  0.50400000000E-02 0.  1.
          1   -1    0    0  501    0  0.00000000000E+00 -0.00000000000E+00 -0.24644467722E+04  0.24644467722E+04  0.50400000000E-02 0. -1.
    8880022    1    1    2    0    0 -0.10757876908E+04 -0.10744479640E+04 -0.18963553857E+04  0.24354287066E+04  0.15294330000E+03 0.  0.
    8880022    1    1    2    0    0  0.10757876908E+04  0.10744479640E+04  0.16568231595E+04  0.22539326117E+04  0.15294330000E+03 0.  0.
<mgrwt>
<rscale>  0 0.15281195E+04</rscale>
<asrwt>0</asrwt>
<pdfrwt beam="1">  1        1 0.37914565E+00 0.15281195E+04</pdfrwt>
<pdfrwt beam="2">  1       -1 0.34229455E+00 0.15281195E+04</pdfrwt>
<totfact> 0.23553151E-02</totfact>
</mgrwt>
</event>
<event>
 4    1  0.4964158E-009  0.7304259E+03  0.7818608E-02  0.9666570E-01
         -1   -1    0    0    0  501 -0.00000000000E+00  0.00000000000E+00  0.59675673780E+04  0.59675673780E+04  0.50400000000E-02 0.  1.
          1   -1    0    0  501    0  0.00000000000E+00 -0.00000000000E+00 -0.13592766791E+04  0.13592766791E+04  0.50400000000E-02 0. -1.
    8880022    1    1    2    0    0  0.11742998289E+03  0.70451440187E+03 -0.12367507066E+04  0.14363405957E+04  0.15294330000E+03 0.  0.
    8880022    1    1    2    0    0 -0.11742998289E+03 -0.70451440187E+03  0.58450414056E+04  0.58905034614E+04  0.15294330000E+03 0.  0.
<mgrwt>
<rscale>  0 0.73042590E+03</rscale>
<asrwt>0</asrwt>
<pdfrwt beam="1">  1        1 0.20911949E+00 0.73042590E+03</pdfrwt>
<pdfrwt beam="2">  1       -1 0.91808729E+00 0.73042590E+03</pdfrwt>
<totfact> 0.44867584E-05</totfact>
</mgrwt>
</event>
<event>
 4    1  0.4964158E-009  0.4198394E+03  0.7818608E-02  0.1037119E+00
         -1   -1    0    0    0  501 -0.00000000000E+00  0.00000000000E+00  0.10220246981E+04  0.10220246981E+04  0.50400000000E-02 0.  1.
          1   -1    0    0  501    0  0.00000000000E+00 -0.00000000000E+00 -0.10296843444E+04  0.10296843445E+04  0.50400000000E-02 0. -1.
    8880022    1    1    2    0    0  0.19405873732E+03  0.33943292056E+03  0.93217759561E+03  0.10223601244E+04  0.15294330000E+03 0.  0.
    8880022    1    1    2    0    0 -0.19405873732E+03 -0.33943292056E+03 -0.93983724194E+03  0.10293489182E+04  0.15294330000E+03 0.  0.
<mgrwt>
<rscale>  0 0.41983944E+03</rscale>
<asrwt>0</asrwt>
<pdfrwt beam="1">  1        1 0.15841298E+00 0.41983944E+03</pdfrwt>
<pdfrwt beam="2">  1       -1 0.15723457E+00 0.41983944E+03</pdfrwt>
<totfact> 0.48976928E+00</totfact>
</mgrwt>
</event>
<event>
 4    1  0.4964158E-009  0.6686450E+03  0.7818608E-02  0.9772409E-01
          1   -1    0    0  501    0  0.00000000000E+00  0.00000000000E+00  0.12690036431E+04  0.12690036431E+04  0.50400000000E-02 0. -1.
         -1   -1    0    0    0  501 -0.00000000000E+00 -0.00000000000E+00 -0.11450580123E+04  0.11450580123E+04  0.50400000000E-02 0.  1.
    8880022    1    1    2    0    0 -0.48463357949E+02  0.64911152085E+03  0.10662912973E+04  0.12585957442E+04  0.15294330000E+03 0.  0.
    8880022    1    1    2    0    0  0.48463357949E+02 -0.64911152085E+03 -0.94234566661E+03  0.11554659112E+04  0.15294330000E+03 0.  0.
<mgrwt>
<rscale>  0 0.66864499E+03</rscale>
<asrwt>0</asrwt>
<pdfrwt beam="1">  1        1 0.19523133E+00 0.66864499E+03</pdfrwt>
<pdfrwt beam="2">  1       -1 0.17616277E+00 0.66864499E+03</pdfrwt>
<totfact> 0.22410187E+00</totfact>
</mgrwt>
</event>
<event>
 4    1  0.4964158E-009  0.5899978E+03  0.7818608E-02  0.9926378E-01
          1   -1    0    0  501    0  0.00000000000E+00  0.00000000000E+00  0.16104222838E+04  0.16104222838E+04  0.50400000000E-02 0. -1.
         -1   -1    0    0    0  501 -0.00000000000E+00 -0.00000000000E+00 -0.31575790987E+03  0.31575790991E+03  0.50400000000E-02 0.  1.
    8880022    1    1    2    0    0 -0.13847662201E+03 -0.55274764734E+03  0.11882489831E+04  0.13266623667E+04  0.15294330000E+03 0.  0.
    8880022    1    1    2    0    0  0.13847662201E+03  0.55274764734E+03  0.10641539088E+03  0.59951782702E+03  0.15294330000E+03 0.  0.
<mgrwt>
<rscale>  0 0.58999779E+03</rscale>
<asrwt>0</asrwt>
<pdfrwt beam="1">  1        1 0.24775727E+00 0.58999779E+03</pdfrwt>
<pdfrwt beam="2">  1       -1 0.48578140E-01 0.58999779E+03</pdfrwt>
<totfact> 0.24650532E+01</totfact>
</mgrwt>
</event>
<event>
 4    1  0.4964158E-009  0.3599826E+03  0.7818608E-02  0.1058591E+00
          1   -1    0    0  501    0  0.00000000000E+00  0.00000000000E+00  0.10210309757E+04  0.10210309758E+04  0.50400000000E-02 0. -1.
         -1   -1    0    0    0  501 -0.00000000000E+00 -0.00000000000E+00 -0.25015796020E+03  0.25015796025E+03  0.50400000000E-02 0.  1.
    8880022    1    1    2    0    0 -0.29107404289E+03  0.14653223860E+03  0.83155302941E+03  0.90612796509E+03  0.15294330000E+03 0.  0.
    8880022    1    1    2    0    0  0.29107404289E+03 -0.14653223860E+03 -0.60680013861E+02  0.36506097092E+03  0.15294330000E+03 0.  0.
<mgrwt>
<rscale>  0 0.35998257E+03</rscale>
<asrwt>0</asrwt>
<pdfrwt beam="1">  1        1 0.15708169E+00 0.35998257E+03</pdfrwt>
<pdfrwt beam="2">  1       -1 0.38485840E-01 0.35998257E+03</pdfrwt>
<totfact> 0.10154570E+02</totfact>
</mgrwt>
</event>
<event>
 4    1  0.4964158E-009  0.1540402E+04  0.7818608E-02  0.8858022E-01
          1   -1    0    0  501    0  0.00000000000E+00  0.00000000000E+00  0.24324455959E+04  0.24324455959E+04  0.50400000000E-02 0. -1.
         -1   -1    0    0    0  501 -0.00000000000E+00 -0.00000000000E+00 -0.10600193545E+04  0.10600193545E+04  0.50400000000E-02 0.  1.
    8880022    1    1    2    0    0 -0.39740884445E+03  0.14803761771E+04  0.19311254261E+03  0.15524598296E+04  0.15294330000E+03 0.  0.
    8880022    1    1    2    0    0  0.39740884445E+03 -0.14803761771E+04  0.11793136988E+04  0.19400051208E+04  0.15294330000E+03 0.  0.
<mgrwt>
<rscale>  0 0.15404022E+04</rscale>
<asrwt>0</asrwt>
<pdfrwt beam="1">  1        1 0.37422240E+00 0.15404022E+04</pdfrwt>
<pdfrwt beam="2">  1       -1 0.16307990E+00 0.15404022E+04</pdfrwt>
<totfact> 0.39459691E-01</totfact>
</mgrwt>
</event>
<event>
 4    1  0.4964158E-009  0.1969345E+04  0.7818608E-02  0.8621089E-01
          1   -1    0    0  501    0  0.00000000000E+00  0.00000000000E+00  0.30767317561E+04  0.30767317561E+04  0.50400000000E-02 0. -1.
         -1   -1    0    0    0  501 -0.00000000000E+00 -0.00000000000E+00 -0.19690296650E+04  0.19690296650E+04  0.50400000000E-02 0.  1.
    8880022    1    1    2    0    0  0.20884762145E+03  0.19522573877E+04  0.20672028271E+04  0.28551086526E+04  0.15294330000E+03 0.  0.
    8880022    1    1    2    0    0 -0.20884762145E+03 -0.19522573877E+04 -0.95950073595E+03  0.21906527685E+04  0.15294330000E+03 0.  0.
<mgrwt>
<rscale>  0 0.19693445E+04</rscale>
<asrwt>0</asrwt>
<pdfrwt beam="1">  1        1 0.47334335E+00 0.19693445E+04</pdfrwt>
<pdfrwt beam="2">  1       -1 0.30292764E+00 0.19693445E+04</pdfrwt>
<totfact> 0.14746492E-02</totfact>
</mgrwt>
</event>
<event>
 4    1  0.4964158E-009  0.4556730E+03  0.7818608E-02  0.1026044E+00
          1   -1    0    0  501    0  0.00000000000E+00  0.00000000000E+00  0.23483116012E+04  0.23483116012E+04  0.50400000000E-02 0. -1.
         -1   -1    0    0    0  501 -0.00000000000E+00 -0.00000000000E+00 -0.31979538936E+03  0.31979538940E+03  0.50400000000E-02 0.  1.
    8880022    1    1    2    0    0 -0.15205590030E+03  0.40140411795E+03 -0.12048001719E+03  0.47133146541E+03  0.15294330000E+03 0.  1.
    8880022    1    1    2    0    0  0.15205590030E+03 -0.40140411795E+03  0.21489962290E+04  0.21967755252E+04  0.15294330000E+03 0.  0.
<mgrwt>
<rscale>  0 0.45567304E+03</rscale>
<asrwt>0</asrwt>
<pdfrwt beam="1">  1        1 0.36127870E+00 0.45567304E+03</pdfrwt>
<pdfrwt beam="2">  1       -1 0.49199292E-01 0.45567304E+03</pdfrwt>
<totfact> 0.80161893E+00</totfact>
</mgrwt>
</event>
<event>
 4    1  0.4964158E-009  0.7961586E+03  0.7818608E-02  0.9565594E-01
          1   -1    0    0  501    0  0.00000000000E+00  0.00000000000E+00  0.11043927923E+04  0.11043927923E+04  0.50400000000E-02 0. -1.
         -1   -1    0    0    0  501 -0.00000000000E+00 -0.00000000000E+00 -0.93895780934E+03  0.93895780935E+03  0.50400000000E-02 0.  1.
    8880022    1    1    2    0    0  0.49663612765E+03 -0.60318280052E+03  0.71971784111E+03  0.10732485071E+04  0.15294330000E+03 0.  0.
    8880022    1    1    2    0    0 -0.49663612765E+03  0.60318280052E+03 -0.55428285812E+03  0.97010209461E+03  0.15294330000E+03 0.  0.
<mgrwt>
<rscale>  0 0.79615864E+03</rscale>
<asrwt>0</asrwt>
<pdfrwt beam="1">  1        1 0.16990658E+00 0.79615864E+03</pdfrwt>
<pdfrwt beam="2">  1       -1 0.14445505E+00 0.79615864E+03</pdfrwt>
<totfact> 0.50018439E+00</totfact>
</mgrwt>
</event>
<event>
 4    1  0.4964158E-009  0.1135686E+04  0.7818608E-02  0.9171091E-01
          1   -1    0    0  501    0  0.00000000000E+00  0.00000000000E+00  0.10176270478E+04  0.10176270478E+04  0.50400000000E-02 0. -1.
         -1   -1    0    0    0  501 -0.00000000000E+00 -0.00000000000E+00 -0.15289937580E+04  0.15289937580E+04  0.50400000000E-02 0.  1.
    8880022    1    1    2    0    0 -0.83036792347E+03 -0.75952627738E+03  0.27095283976E+03  0.11675607688E+04  0.15294330000E+03 0.  0.
    8880022    1    1    2    0    0  0.83036792347E+03  0.75952627738E+03 -0.78231955005E+03  0.13790600370E+04  0.15294330000E+03 0.  0.
<mgrwt>
<rscale>  0 0.11356860E+04</rscale>
<asrwt>0</asrwt>
<pdfrwt beam="1">  1        1 0.15655801E+00 0.11356860E+04</pdfrwt>
<pdfrwt beam="2">  1       -1 0.23522981E+00 0.11356860E+04</pdfrwt>
<totfact> 0.12638251E+00</totfact>
</mgrwt>
</event>
<event>
 4    1  0.4964158E-009  0.3645012E+03  0.7818608E-02  0.1056816E+00
          1   -1    0    0  501    0  0.00000000000E+00  0.00000000000E+00  0.61317298646E+03  0.61317298648E+03  0.50400000000E-02 0. -1.
         -1   -1    0    0    0  501 -0.00000000000E+00 -0.00000000000E+00 -0.15820709819E+04  0.15820709819E+04  0.50400000000E-02 0.  1.
    8880022    1    1    2    0    0  0.44768861847E+02 -0.32781882957E+03  0.53524215105E+03  0.64756872167E+03  0.15294330000E+03 0.  0.
    8880022    1    1    2    0    0 -0.44768861847E+02  0.32781882957E+03 -0.15041401465E+04  0.15476752467E+04  0.15294330000E+03 0.  0.
<mgrwt>
<rscale>  0 0.36450115E+03</rscale>
<asrwt>0</asrwt>
<pdfrwt beam="1">  1        1 0.94334306E-01 0.36450115E+03</pdfrwt>
<pdfrwt beam="2">  1       -1 0.24339553E+00 0.36450115E+03</pdfrwt>
<totfact> 0.29185101E+00</totfact>
</mgrwt>
</event>
<event>
 4    1  0.4964158E-009  0.2424956E+03  0.7818608E-02  0.1118141E+00
          1   -1    0    0  501    0  0.00000000000E+00  0.00000000000E+00  0.10163307097E+04  0.10163307098E+04  0.50400000000E-02 0. -1.
         -1   -1    0    0    0  501 -0.00000000000E+00 -0.00000000000E+00 -0.36187142364E+03  0.36187142368E+03  0.50400000000E-02 0.  1.
    8880022    1    1    2    0    0  0.18736045696E+03 -0.17564896075E+02  0.95884295439E+03  0.98903181476E+03  0.15294330000E+03 0. -1.
    8880022    1    1    2    0    0 -0.18736045696E+03  0.17564896075E+02 -0.30438366828E+03  0.38917031868E+03  0.15294330000E+03 0.  0.
<mgrwt>
<rscale>  0 0.24249561E+03</rscale>
<asrwt>0</asrwt>
<pdfrwt beam="1">  1        1 0.15635857E+00 0.24249561E+03</pdfrwt>
<pdfrwt beam="2">  1       -1 0.55672527E-01 0.24249561E+03</pdfrwt>
<totfact> 0.53440404E+01</totfact>
</mgrwt>
</event>
<event>
 4    1  0.4964158E-009  0.1038204E+04  0.7818608E-02  0.9267608E-01
         -1   -1    0    0    0  501 -0.00000000000E+00  0.00000000000E+00  0.69922618861E+03  0.69922618863E+03  0.50400000000E-02 0.  1.
          1   -1    0    0  501    0  0.00000000000E+00 -0.00000000000E+00 -0.23708844714E+04  0.23708844714E+04  0.50400000000E-02 0. -1.
    8880022    1    1    2    0    0  0.56744165333E+03 -0.85585362321E+03 -0.17437396999E+04  0.20294076102E+04  0.15294330000E+03 0.  0.
    8880022    1    1    2    0    0 -0.56744165333E+03  0.85585362321E+03  0.72081417078E+02  0.10407030499E+04  0.15294330000E+03 0.  0.
<mgrwt>
<rscale>  0 0.10382038E+04</rscale>
<asrwt>0</asrwt>
<pdfrwt beam="1">  1        1 0.36475145E+00 0.10382038E+04</pdfrwt>
<pdfrwt beam="2">  1       -1 0.10757326E+00 0.10382038E+04</pdfrwt>
<totfact> 0.13524706E+00</totfact>
</mgrwt>
</event>
<event>
 4    1  0.4964158E-009  0.6938087E+03  0.7818608E-02  0.9727879E-01
          1   -1    0    0  501    0  0.00000000000E+00  0.00000000000E+00  0.74902628793E+03  0.74902628795E+03  0.50400000000E-02 0. -1.
         -1   -1    0    0    0  501 -0.00000000000E+00 -0.00000000000E+00 -0.26144847085E+04  0.26144847085E+04  0.50400000000E-02 0.  1.
    8880022    1    1    2    0    0 -0.41875642735E+03 -0.53162192400E+03  0.52777823042E+03  0.87173409308E+03  0.15294330000E+03 0.  0.
    8880022    1    1    2    0    0  0.41875642735E+03  0.53162192400E+03 -0.23932366510E+04  0.24917769033E+04  0.15294330000E+03 0.  0.
<mgrwt>
<rscale>  0 0.69380867E+03</rscale>
<asrwt>0</asrwt>
<pdfrwt beam="1">  1        1 0.11523481E+00 0.69380867E+03</pdfrwt>
<pdfrwt beam="2">  1       -1 0.40222841E+00 0.69380867E+03</pdfrwt>
<totfact> 0.18530244E-01</totfact>
</mgrwt>
</event>
<event>
 4    1  0.4964158E-009  0.1309248E+04  0.7818608E-02  0.9022263E-01
         -1   -1    0    0    0  501 -0.00000000000E+00  0.00000000000E+00  0.10588036432E+04  0.10588036432E+04  0.50400000000E-02 0.  1.
          1   -1    0    0  501    0  0.00000000000E+00 -0.00000000000E+00 -0.17246877277E+04  0.17246877277E+04  0.50400000000E-02 0. -1.
    8880022    1    1    2    0    0  0.69386624726E+03  0.10996765226E+04 -0.67757579165E+03  0.14741911103E+04  0.15294330000E+03 0.  0.
    8880022    1    1    2    0    0 -0.69386624726E+03 -0.10996765226E+04  0.11691707195E+02  0.13093002606E+04  0.15294330000E+03 0.  0.
<mgrwt>
<rscale>  0 0.13092481E+04</rscale>
<asrwt>0</asrwt>
<pdfrwt beam="1">  1        1 0.26533657E+00 0.13092481E+04</pdfrwt>
<pdfrwt beam="2">  1       -1 0.16289287E+00 0.13092481E+04</pdfrwt>
<totfact> 0.12339764E+00</totfact>
</mgrwt>
</event>
<event>
 4    1  0.4964158E-009  0.2240378E+03  0.7818608E-02  0.1130908E+00
          1   -1    0    0  501    0  0.00000000000E+00  0.00000000000E+00  0.20936583939E+04  0.20936583939E+04  0.50400000000E-02 0. -1.
         -1   -1    0    0    0  501 -0.00000000000E+00 -0.00000000000E+00 -0.12808270597E+04  0.12808270597E+04  0.50400000000E-02 0.  1.
    8880022    1    1    2    0    0 -0.14193172735E+03  0.81588442299E+02 -0.12649620428E+04  0.12846485558E+04  0.15294330000E+03 0.  0.
    8880022    1    1    2    0    0  0.14193172735E+03 -0.81588442299E+02  0.20777933770E+04  0.20898368979E+04  0.15294330000E+03 0. -1.
<mgrwt>
<rscale>  0 0.22403781E+03</rscale>
<asrwt>0</asrwt>
<pdfrwt beam="1">  1        1 0.32210129E+00 0.22403781E+03</pdfrwt>
<pdfrwt beam="2">  1       -1 0.19705032E+00 0.22403781E+03</pdfrwt>
<totfact> 0.54328665E-01</totfact>
</mgrwt>
</event>
<event>
 4    1  0.4964158E-009  0.1187196E+04  0.7818608E-02  0.9124139E-01
          1   -1    0    0  501    0  0.00000000000E+00  0.00000000000E+00  0.19728177824E+04  0.19728177824E+04  0.50400000000E-02 0. -1.
         -1   -1    0    0    0  501 -0.00000000000E+00 -0.00000000000E+00 -0.11087553336E+04  0.11087553336E+04  0.50400000000E-02 0.  1.
    8880022    1    1    2    0    0  0.10117846471E+04  0.60194143070E+03  0.13509008273E+04  0.17984344182E+04  0.15294330000E+03 0.  0.
    8880022    1    1    2    0    0 -0.10117846471E+04 -0.60194143070E+03 -0.48683837847E+03  0.12831386978E+04  0.15294330000E+03 0.  0.
<mgrwt>
<rscale>  0 0.11871956E+04</rscale>
<asrwt>0</asrwt>
<pdfrwt beam="1">  1        1 0.30351042E+00 0.11871956E+04</pdfrwt>
<pdfrwt beam="2">  1       -1 0.17057775E+00 0.11871956E+04</pdfrwt>
<totfact> 0.74524985E-01</totfact>
</mgrwt>
</event>
<event>
 4    1  0.4964158E-009  0.6916251E+03  0.7818608E-02  0.9731663E-01
          1   -1    0    0  501    0  0.00000000000E+00  0.00000000000E+00  0.10736315419E+04  0.10736315419E+04  0.50400000000E-02 0. -1.
         -1   -1    0    0    0  501 -0.00000000000E+00 -0.00000000000E+00 -0.12514654810E+04  0.12514654810E+04  0.50400000000E-02 0.  1.
    8880022    1    1    2    0    0  0.10847740419E+03 -0.66572238003E+03  0.84401337324E+03  0.10911937783E+04  0.15294330000E+03 0.  0.
    8880022    1    1    2    0    0 -0.10847740419E+03  0.66572238003E+03 -0.10218473123E+04  0.12339032446E+04  0.15294330000E+03 0.  0.
<mgrwt>
<rscale>  0 0.69162511E+03</rscale>
<asrwt>0</asrwt>
<pdfrwt beam="1">  1        1 0.16517408E+00 0.69162511E+03</pdfrwt>
<pdfrwt beam="2">  1       -1 0.19253315E+00 0.69162511E+03</pdfrwt>
<totfact> 0.23736883E+00</totfact>
</mgrwt>
</event>
<event>
 4    1  0.4964158E-009  0.5781011E+03  0.7818608E-02  0.9951911E-01
          1   -1    0    0  501    0  0.00000000000E+00  0.00000000000E+00  0.31191969422E+04  0.31191969422E+04  0.50400000000E-02 0. -1.
         -1   -1    0    0    0  501 -0.00000000000E+00 -0.00000000000E+00 -0.28826843788E+03  0.28826843793E+03  0.50400000000E-02 0.  1.
    8880022    1    1    2    0    0  0.49756169991E+03 -0.25147874423E+03  0.27659572888E+04  0.28257247886E+04  0.15294330000E+03 0. -1.
    8880022    1    1    2    0    0 -0.49756169991E+03  0.25147874423E+03  0.64971215474E+02  0.58174059156E+03  0.15294330000E+03 0.  0.
<mgrwt>
<rscale>  0 0.57810108E+03</rscale>
<asrwt>0</asrwt>
<pdfrwt beam="1">  1        1 0.47987645E+00 0.57810108E+03</pdfrwt>
<pdfrwt beam="2">  1       -1 0.44348991E-01 0.57810108E+03</pdfrwt>
<totfact> 0.27498638E+00</totfact>
</mgrwt>
</event>
<event>
 4    1  0.4964158E-009  0.5485523E+03  0.7818608E-02  0.1001830E+00
          1   -1    0    0  501    0  0.00000000000E+00  0.00000000000E+00  0.56147138859E+03  0.56147138862E+03  0.50400000000E-02 0. -1.
         -1   -1    0    0    0  501 -0.00000000000E+00 -0.00000000000E+00 -0.12852167912E+04  0.12852167912E+04  0.50400000000E-02 0.  1.
    8880022    1    1    2    0    0  0.38746265751E+03  0.35691828106E+03  0.34314379895E+03  0.64703731739E+03  0.15294330000E+03 0.  0.
    8880022    1    1    2    0    0 -0.38746265751E+03 -0.35691828106E+03 -0.10668892015E+04  0.11996508624E+04  0.15294330000E+03 0.  0.
<mgrwt>
<rscale>  0 0.54855230E+03</rscale>
<asrwt>0</asrwt>
<pdfrwt beam="1">  1        1 0.86380214E-01 0.54855230E+03</pdfrwt>
<pdfrwt beam="2">  1       -1 0.19772566E+00 0.54855230E+03</pdfrwt>
<totfact> 0.62867972E+00</totfact>
</mgrwt>
</event>
<event>
 4    1  0.4964158E-009  0.2085292E+03  0.7818608E-02  0.1142736E+00
         -1   -1    0    0    0  501 -0.00000000000E+00  0.00000000000E+00  0.19766656765E+04  0.19766656765E+04  0.50400000000E-02 0.  1.
          1   -1    0    0  501    0  0.00000000000E+00 -0.00000000000E+00 -0.36321364702E+03  0.36321364705E+03  0.50400000000E-02 0. -1.
    8880022    1    1    2    0    0  0.13733912306E+03  0.35081755492E+02  0.19406822638E+04  0.19518534951E+04  0.15294330000E+03 0.  0.
    8880022    1    1    2    0    0 -0.13733912306E+03 -0.35081755492E+02 -0.32723023431E+03  0.38802582846E+03  0.15294330000E+03 0. -1.
<mgrwt>
<rscale>  0 0.20852918E+03</rscale>
<asrwt>0</asrwt>
<pdfrwt beam="1">  1        1 0.55879022E-01 0.20852918E+03</pdfrwt>
<pdfrwt beam="2">  1       -1 0.30410241E+00 0.20852918E+03</pdfrwt>
<totfact> 0.26186522E+00</totfact>
</mgrwt>
</event>
<event>
 4    1  0.4964158E-009  0.1851779E+03  0.7818608E-02  0.1162884E+00
          1   -1    0    0  501    0  0.00000000000E+00  0.00000000000E+00  0.62052860653E+03  0.62052860655E+03  0.50400000000E-02 0. -1.
         -1   -1    0    0    0  501 -0.00000000000E+00 -0.00000000000E+00 -0.13617682746E+03  0.13617682755E+03  0.50400000000E-02 0.  1.
    8880022    1    1    2    0    0 -0.11237468437E+02 -0.10379268914E+03  0.53382640548E+03  0.56503228865E+03  0.15294330000E+03 0. -1.
    8880022    1    1    2    0    0  0.11237468437E+02  0.10379268914E+03 -0.49474626404E+02  0.19167314545E+03  0.15294330000E+03 0.  0.
<mgrwt>
<rscale>  0 0.18517790E+03</rscale>
<asrwt>0</asrwt>
<pdfrwt beam="1">  1        1 0.95465940E-01 0.18517790E+03</pdfrwt>
<pdfrwt beam="2">  1       -1 0.20950281E-01 0.18517790E+03</pdfrwt>
<totfact> 0.63160159E+02</totfact>
</mgrwt>
</event>
<event>
 4    1  0.4964158E-009  0.7009047E+03  0.7818608E-02  0.9715686E-01
          1   -1    0    0  501    0  0.00000000000E+00  0.00000000000E+00  0.17034514842E+04  0.17034514842E+04  0.50400000000E-02 0. -1.
         -1   -1    0    0    0  501 -0.00000000000E+00 -0.00000000000E+00 -0.73084085074E+03  0.73084085076E+03  0.50400000000E-02 0.  1.
    8880022    1    1    2    0    0  0.22428744884E+03 -0.64619728047E+03  0.14333298598E+04  0.15955255953E+04  0.15294330000E+03 0.  0.
    8880022    1    1    2    0    0 -0.22428744884E+03  0.64619728047E+03 -0.46071922641E+03  0.83876673968E+03  0.15294330000E+03 0.  0.
<mgrwt>
<rscale>  0 0.70090473E+03</rscale>
<asrwt>0</asrwt>
<pdfrwt beam="1">  1        1 0.26206945E+00 0.70090473E+03</pdfrwt>
<pdfrwt beam="2">  1       -1 0.11243706E+00 0.70090473E+03</pdfrwt>
<totfact> 0.36269476E+00</totfact>
</mgrwt>
</event>
<event>
 4    1  0.4964158E-009  0.3986462E+03  0.7818608E-02  0.1044249E+00
          1   -1    0    0  501    0  0.00000000000E+00  0.00000000000E+00  0.72665702095E+03  0.72665702096E+03  0.50400000000E-02 0. -1.
         -1   -1    0    0    0  501 -0.00000000000E+00 -0.00000000000E+00 -0.52662306975E+03  0.52662306977E+03  0.50400000000E-02 0.  1.
    8880022    1    1    2    0    0 -0.11091511200E+03 -0.35103414777E+03  0.57918782384E+03  0.70311970764E+03  0.15294330000E+03 0.  0.
    8880022    1    1    2    0    0  0.11091511200E+03  0.35103414777E+03 -0.37915387264E+03  0.55016038310E+03  0.15294330000E+03 0.  0.
<mgrwt>
<rscale>  0 0.39864619E+03</rscale>
<asrwt>0</asrwt>
<pdfrwt beam="1">  1        1 0.11179339E+00 0.39864619E+03</pdfrwt>
<pdfrwt beam="2">  1       -1 0.81018934E-01 0.39864619E+03</pdfrwt>
<totfact> 0.41858207E+01</totfact>
</mgrwt>
</event>
<event>
 4    1  0.4964158E-009  0.2837212E+03  0.7818608E-02  0.1093674E+00
         -1   -1    0    0    0  501 -0.00000000000E+00  0.00000000000E+00  0.15379281491E+03  0.15379281499E+03  0.50400000000E-02 0.  1.
          1   -1    0    0  501    0  0.00000000000E+00 -0.00000000000E+00 -0.17069470579E+04  0.17069470579E+04  0.50400000000E-02 0. -1.
    8880022    1    1    2    0    0  0.15631614572E+03 -0.18075212627E+03 -0.15512803236E+04  0.15770124806E+04  0.15294330000E+03 0. -1.
    8880022    1    1    2    0    0 -0.15631614572E+03  0.18075212627E+03 -0.18739194086E+01  0.28372739232E+03  0.15294330000E+03 0.  0.
<mgrwt>
<rscale>  0 0.28372120E+03</rscale>
<asrwt>0</asrwt>
<pdfrwt beam="1">  1        1 0.26260723E+00 0.28372120E+03</pdfrwt>
<pdfrwt beam="2">  1       -1 0.23660434E-01 0.28372120E+03</pdfrwt>
<totfact> 0.80338641E+01</totfact>
</mgrwt>
</event>
<event>
 4    1  0.4964158E-009  0.2512384E+04  0.7818608E-02  0.8398587E-01
          1   -1    0    0  501    0  0.00000000000E+00  0.00000000000E+00  0.26062660883E+04  0.26062660883E+04  0.50400000000E-02 0. -1.
         -1   -1    0    0    0  501 -0.00000000000E+00 -0.00000000000E+00 -0.28808897480E+04  0.28808897480E+04  0.50400000000E-02 0.  1.
    8880022    1    1    2    0    0  0.14001281986E+04  0.20804624389E+04  0.95781132300E+03  0.26887686988E+04  0.15294330000E+03 0.  0.
    8880022    1    1    2    0    0 -0.14001281986E+04 -0.20804624389E+04 -0.12324349827E+04  0.27983871376E+04  0.15294330000E+03 0.  0.
<mgrwt>
<rscale>  0 0.25123842E+04</rscale>
<asrwt>0</asrwt>
<pdfrwt beam="1">  1        1 0.40096401E+00 0.25123842E+04</pdfrwt>
<pdfrwt beam="2">  1       -1 0.44321381E+00 0.25123842E+04</pdfrwt>
<totfact> 0.34300333E-03</totfact>
</mgrwt>
</event>
<event>
 4    1  0.4964158E-009  0.2701861E+03  0.7818608E-02  0.1101173E+00
          1   -1    0    0  501    0  0.00000000000E+00  0.00000000000E+00  0.52176079249E+03  0.52176079252E+03  0.50400000000E-02 0. -1.
         -1   -1    0    0    0  501 -0.00000000000E+00 -0.00000000000E+00 -0.53328904774E+03  0.53328904777E+03  0.50400000000E-02 0.  1.
    8880022    1    1    2    0    0 -0.19022020363E+03 -0.11586689308E+03  0.44730684776E+03  0.52257433141E+03  0.15294330000E+03 0.  1.
    8880022    1    1    2    0    0  0.19022020363E+03  0.11586689308E+03 -0.45883510301E+03  0.53247550887E+03  0.15294330000E+03 0.  0.
<mgrwt>
<rscale>  0 0.27018608E+03</rscale>
<asrwt>0</asrwt>
<pdfrwt beam="1">  1        1 0.80270890E-01 0.27018608E+03</pdfrwt>
<pdfrwt beam="2">  1       -1 0.82044470E-01 0.27018608E+03</pdfrwt>
<totfact> 0.66890437E+01</totfact>
</mgrwt>
</event>
<event>
 4    1  0.4964158E-009  0.8007437E+03  0.7818608E-02  0.9558941E-01
          1   -1    0    0  501    0  0.00000000000E+00  0.00000000000E+00  0.11107569986E+04  0.11107569986E+04  0.50400000000E-02 0. -1.
         -1   -1    0    0    0  501 -0.00000000000E+00 -0.00000000000E+00 -0.11562632301E+04  0.11562632301E+04  0.50400000000E-02 0.  1.
    8880022    1    1    2    0    0 -0.63658756542E+03 -0.46103693254E+03 -0.82487298517E+03  0.11496111848E+04  0.15294330000E+03 0.  0.
    8880022    1    1    2    0    0  0.63658756542E+03  0.46103693254E+03  0.77936675368E+03  0.11174090439E+04  0.15294330000E+03 0.  0.
<mgrwt>
<rscale>  0 0.80074368E+03</rscale>
<asrwt>0</asrwt>
<pdfrwt beam="1">  1        1 0.17088569E+00 0.80074368E+03</pdfrwt>
<pdfrwt beam="2">  1       -1 0.17788665E+00 0.80074368E+03</pdfrwt>
<totfact> 0.27701116E+00</totfact>
</mgrwt>
</event>
<event>
 4    1  0.4964158E-009  0.5090789E+03  0.7818608E-02  0.1011436E+00
          1   -1    0    0  501    0  0.00000000000E+00  0.00000000000E+00  0.13451742677E+04  0.13451742677E+04  0.50400000000E-02 0. -1.
         -1   -1    0    0    0  501 -0.00000000000E+00 -0.00000000000E+00 -0.36287735344E+03  0.36287735348E+03  0.50400000000E-02 0.  1.
    8880022    1    1    2    0    0 -0.16385660925E+03 -0.45707837501E+03  0.10760637454E+04  0.11904093693E+04  0.15294330000E+03 0.  0.
    8880022    1    1    2    0    0  0.16385660925E+03  0.45707837501E+03 -0.93766831159E+02  0.51764225189E+03  0.15294330000E+03 0.  0.
<mgrwt>
<rscale>  0 0.50907886E+03</rscale>
<asrwt>0</asrwt>
<pdfrwt beam="1">  1        1 0.20694989E+00 0.50907886E+03</pdfrwt>
<pdfrwt beam="2">  1       -1 0.55827285E-01 0.50907886E+03</pdfrwt>
<totfact> 0.29103177E+01</totfact>
</mgrwt>
</event>
<event>
 4    1  0.4964158E-009  0.3145949E+03  0.7818608E-02  0.1078164E+00
          1   -1    0    0  501    0  0.00000000000E+00  0.00000000000E+00  0.22980794338E+04  0.22980794338E+04  0.50400000000E-02 0. -1.
         -1   -1    0    0    0  501 -0.00000000000E+00 -0.00000000000E+00 -0.60039453973E+02  0.60039454184E+02  0.50400000000E-02 0.  1.
    8880022    1    1    2    0    0  0.21382867092E+03  0.17278779591E+03  0.17459188940E+04  0.17740357269E+04  0.15294330000E+03 0.  0.
    8880022    1    1    2    0    0 -0.21382867092E+03 -0.17278779591E+03  0.49212108583E+03  0.58408316108E+03  0.15294330000E+03 0.  0.
<mgrwt>
<rscale>  0 0.31459494E+03</rscale>
<asrwt>0</asrwt>
<pdfrwt beam="1">  1        1 0.35355069E+00 0.31459494E+03</pdfrwt>
<pdfrwt beam="2">  1       -1 0.92368390E-02 0.31459494E+03</pdfrwt>
<totfact> 0.14736173E+02</totfact>
</mgrwt>
</event>
<event>
 4    1  0.4964158E-009  0.4408763E+03  0.7818608E-02  0.1030478E+00
         -1   -1    0    0    0  501 -0.00000000000E+00  0.00000000000E+00  0.36740585342E+03  0.36740585345E+03  0.50400000000E-02 0.  1.
          1   -1    0    0  501    0  0.00000000000E+00 -0.00000000000E+00 -0.30424613795E+04  0.30424613795E+04  0.50400000000E-02 0. -1.
    8880022    1    1    2    0    0  0.35627713057E+03  0.20987337760E+03  0.21210114534E+03  0.48924306563E+03  0.15294330000E+03 0.  0.
    8880022    1    1    2    0    0 -0.35627713057E+03 -0.20987337760E+03 -0.28871566714E+04  0.29206241673E+04  0.15294330000E+03 0. -1.
<mgrwt>
<rscale>  0 0.44087627E+03</rscale>
<asrwt>0</asrwt>
<pdfrwt beam="1">  1        1 0.46807096E+00 0.44087627E+03</pdfrwt>
<pdfrwt beam="2">  1       -1 0.56523979E-01 0.44087627E+03</pdfrwt>
<totfact> 0.20650870E+00</totfact>
</mgrwt>
</event>
<event>
 4    1  0.5092184E-009  0.7333769E+03  0.7818608E-02  0.9661796E-01
          1   -1    0    0  501    0  0.00000000000E+00  0.00000000000E+00  0.22889654290E+04  0.22889654290E+04  0.50400000000E-02 0. -1.
         -1   -1    0    0    0  501 -0.00000000000E+00 -0.00000000000E+00 -0.10379073877E+04  0.10379073878E+04  0.50400000000E-02 0.  1.
    8880022    1    1    2    0    0  0.71696103643E+03  0.20418000264E+02 -0.83754848017E+03  0.11132516033E+04  0.15294330000E+03 0.  0.
    8880022    1    1    2    0    0 -0.71696103643E+03 -0.20418000264E+02  0.20886065214E+04  0.22136212135E+04  0.15294330000E+03 0.  0.
<mgrwt>
<rscale>  0 0.73337690E+03</rscale>
<asrwt>0</asrwt>
<pdfrwt beam="1">  1        1 0.35214852E+00 0.73337690E+03</pdfrwt>
<pdfrwt beam="2">  1       -1 0.15967806E+00 0.73337690E+03</pdfrwt>
<totfact> 0.59606927E-01</totfact>
</mgrwt>
</event>
<event>
 4    1  0.4964158E-009  0.3233325E+03  0.7818608E-02  0.1074126E+00
         -1   -1    0    0    0  501 -0.00000000000E+00  0.00000000000E+00  0.21381036864E+03  0.21381036870E+03  0.50400000000E-02 0.  1.
          1   -1    0    0  501    0  0.00000000000E+00 -0.00000000000E+00 -0.15887093093E+04  0.15887093093E+04  0.50400000000E-02 0. -1.
    8880022    1    1    2    0    0 -0.63221116237E+02 -0.27776855192E+03 -0.14373011599E+04  0.14732204707E+04  0.15294330000E+03 0.  0.
    8880022    1    1    2    0    0  0.63221116237E+02  0.27776855192E+03  0.62402219229E+02  0.32929920734E+03  0.15294330000E+03 0.  0.
<mgrwt>
<rscale>  0 0.32333254E+03</rscale>
<asrwt>0</asrwt>
<pdfrwt beam="1">  1        1 0.24441681E+00 0.32333254E+03</pdfrwt>
<pdfrwt beam="2">  1       -1 0.32893904E-01 0.32333254E+03</pdfrwt>
<totfact> 0.54358923E+01</totfact>
</mgrwt>
</event>
<event>
 4    1  0.4964158E-009  0.1355839E+04  0.7818608E-02  0.8986420E-01
          1   -1    0    0  501    0  0.00000000000E+00  0.00000000000E+00  0.23229030974E+04  0.23229030974E+04  0.50400000000E-02 0. -1.
         -1   -1    0    0    0  501 -0.00000000000E+00 -0.00000000000E+00 -0.14468628795E+04  0.14468628796E+04  0.50400000000E-02 0.  1.
    8880022    1    1    2    0    0  0.75192473195E+03  0.11178179076E+04 -0.83065770299E+03  0.15900602346E+04  0.15294330000E+03 0.  0.
    8880022    1    1    2    0    0 -0.75192473195E+03 -0.11178179076E+04  0.17066979208E+04  0.21797057423E+04  0.15294330000E+03 0.  0.
<mgrwt>
<rscale>  0 0.13558390E+04</rscale>
<asrwt>0</asrwt>
<pdfrwt beam="1">  1        1 0.35736971E+00 0.13558390E+04</pdfrwt>
<pdfrwt beam="2">  1       -1 0.22259429E+00 0.13558390E+04</pdfrwt>
<totfact> 0.18259753E-01</totfact>
</mgrwt>
</event>
<event>
 4    1  0.4964158E-009  0.1103081E+04  0.7818608E-02  0.9202194E-01
          1   -1    0    0  501    0  0.00000000000E+00  0.00000000000E+00  0.32554678839E+04  0.32554678839E+04  0.50400000000E-02 0. -1.
         -1   -1    0    0    0  501 -0.00000000000E+00 -0.00000000000E+00 -0.59767458761E+03  0.59767458763E+03  0.50400000000E-02 0.  1.
    8880022    1    1    2    0    0 -0.10918028930E+04 -0.36912397399E+02  0.25080945654E+04  0.27399500149E+04  0.15294330000E+03 0.  0.
    8880022    1    1    2    0    0  0.10918028930E+04  0.36912397399E+02  0.14969873089E+03  0.11131924566E+04  0.15294330000E+03 0.  0.
<mgrwt>
<rscale>  0 0.11030810E+04</rscale>
<asrwt>0</asrwt>
<pdfrwt beam="1">  1        1 0.50084121E+00 0.11030810E+04</pdfrwt>
<pdfrwt beam="2">  1       -1 0.91949938E-01 0.11030810E+04</pdfrwt>
<totfact> 0.45169478E-01</totfact>
</mgrwt>
</event>
<event>
 4    1  0.4964158E-009  0.9625747E+03  0.7818608E-02  0.9350572E-01
          1   -1    0    0  501    0  0.00000000000E+00  0.00000000000E+00  0.11499386118E+04  0.11499386118E+04  0.50400000000E-02 0. -1.
         -1   -1    0    0    0  501 -0.00000000000E+00 -0.00000000000E+00 -0.14529239128E+04  0.14529239128E+04  0.50400000000E-02 0.  1.
    8880022    1    1    2    0    0 -0.95018023127E+03 -0.17774070807E+02 -0.10200811842E+04  0.14025390065E+04  0.15294330000E+03 0.  0.
    8880022    1    1    2    0    0  0.95018023127E+03  0.17774070807E+02  0.71709588320E+03  0.12003235181E+04  0.15294330000E+03 0.  0.
<mgrwt>
<rscale>  0 0.96257469E+03</rscale>
<asrwt>0</asrwt>
<pdfrwt beam="1">  1        1 0.17691363E+00 0.96257469E+03</pdfrwt>
<pdfrwt beam="2">  1       -1 0.22352675E+00 0.96257469E+03</pdfrwt>
<totfact> 0.12271189E+00</totfact>
</mgrwt>
</event>
<event>
 4    1  0.4964158E-009  0.2163355E+04  0.7818608E-02  0.8533837E-01
          1   -1    0    0  501    0  0.00000000000E+00  0.00000000000E+00  0.26583375101E+04  0.26583375101E+04  0.50400000000E-02 0. -1.
         -1   -1    0    0    0  501 -0.00000000000E+00 -0.00000000000E+00 -0.21308026610E+04  0.21308026610E+04  0.50400000000E-02 0.  1.
    8880022    1    1    2    0    0  0.69264425838E+03  0.20437609482E+04  0.12619536100E+04  0.25045225990E+04  0.15294330000E+03 0.  0.
    8880022    1    1    2    0    0 -0.69264425838E+03 -0.20437609482E+04 -0.73441876088E+03  0.22846175722E+04  0.15294330000E+03 0.  0.
<mgrwt>
<rscale>  0 0.21633554E+04</rscale>
<asrwt>0</asrwt>
<pdfrwt beam="1">  1        1 0.40897500E+00 0.21633554E+04</pdfrwt>
<pdfrwt beam="2">  1       -1 0.32781579E+00 0.21633554E+04</pdfrwt>
<totfact> 0.19883047E-02</totfact>
</mgrwt>
</event>
<event>
 4    1  0.4964158E-009  0.4459730E+03  0.7818608E-02  0.1028930E+00
          1   -1    0    0  501    0  0.00000000000E+00  0.00000000000E+00  0.19254825437E+04  0.19254825437E+04  0.50400000000E-02 0. -1.
         -1   -1    0    0    0  501 -0.00000000000E+00 -0.00000000000E+00 -0.26710545027E+03  0.26710545031E+03  0.50400000000E-02 0.  1.
    8880022    1    1    2    0    0  0.37346660064E+02  0.41725946934E+03 -0.29344533365E+02  0.44693734732E+03  0.15294330000E+03 0.  0.
    8880022    1    1    2    0    0 -0.37346660064E+02 -0.41725946934E+03  0.16877216268E+04  0.17456506467E+04  0.15294330000E+03 0.  0.
<mgrwt>
<rscale>  0 0.44597297E+03</rscale>
<asrwt>0</asrwt>
<pdfrwt beam="1">  1        1 0.29622809E+00 0.44597297E+03</pdfrwt>
<pdfrwt beam="2">  1       -1 0.41093145E-01 0.44597297E+03</pdfrwt>
<totfact> 0.21317791E+01</totfact>
</mgrwt>
</event>
<event>
 4    1  0.4964158E-009  0.4795442E+03  0.7818608E-02  0.1019261E+00
          1   -1    0    0  501    0  0.00000000000E+00  0.00000000000E+00  0.57055798551E+03  0.57055798553E+03  0.50400000000E-02 0. -1.
         -1   -1    0    0    0  501 -0.00000000000E+00 -0.00000000000E+00 -0.79290696923E+03  0.79290696925E+03  0.50400000000E-02 0.  1.
    8880022    1    1    2    0    0  0.37220382817E+03 -0.26083581256E+03  0.36685669661E+03  0.60377686249E+03  0.15294330000E+03 0.  0.
    8880022    1    1    2    0    0 -0.37220382817E+03  0.26083581256E+03 -0.58920568033E+03  0.75968809229E+03  0.15294330000E+03 0.  0.
<mgrwt>
<rscale>  0 0.47954423E+03</rscale>
<asrwt>0</asrwt>
<pdfrwt beam="1">  1        1 0.87778152E-01 0.47954423E+03</pdfrwt>
<pdfrwt beam="2">  1       -1 0.12198569E+00 0.47954423E+03</pdfrwt>
<totfact> 0.23270570E+01</totfact>
</mgrwt>
</event>
<event>
 4    1  0.4964158E-009  0.2204796E+03  0.7818608E-02  0.1133526E+00
          1   -1    0    0  501    0  0.00000000000E+00  0.00000000000E+00  0.27393341810E+04  0.27393341810E+04  0.50400000000E-02 0. -1.
         -1   -1    0    0    0  501 -0.00000000000E+00 -0.00000000000E+00 -0.18974792860E+03  0.18974792867E+03  0.50400000000E-02 0.  1.
    8880022    1    1    2    0    0 -0.90817025084E+02 -0.13027614195E+03  0.26691698750E+04  0.26782604578E+04  0.15294330000E+03 0.  0.
    8880022    1    1    2    0    0  0.90817025084E+02  0.13027614195E+03 -0.11958362265E+03  0.25082165183E+03  0.15294330000E+03 0.  1.
<mgrwt>
<rscale>  0 0.22047961E+03</rscale>
<asrwt>0</asrwt>
<pdfrwt beam="1">  1        1 0.42143602E+00 0.22047961E+03</pdfrwt>
<pdfrwt beam="2">  1       -1 0.29191990E-01 0.22047961E+03</pdfrwt>
<totfact> 0.12178961E+01</totfact>
</mgrwt>
</event>
<event>
 4    1  0.4964158E-009  0.8309748E+03  0.7818608E-02  0.9516234E-01
          1   -1    0    0  501    0  0.00000000000E+00  0.00000000000E+00  0.21580008053E+04  0.21580008053E+04  0.50400000000E-02 0. -1.
         -1   -1    0    0    0  501 -0.00000000000E+00 -0.00000000000E+00 -0.58415908083E+03  0.58415908085E+03  0.50400000000E-02 0.  1.
    8880022    1    1    2    0    0 -0.55861187686E+03 -0.59588609827E+03  0.17089521367E+04  0.19002727514E+04  0.15294330000E+03 0.  0.
    8880022    1    1    2    0    0  0.55861187686E+03  0.59588609827E+03 -0.13511041229E+03  0.84188713472E+03  0.15294330000E+03 0.  0.
<mgrwt>
<rscale>  0 0.83097480E+03</rscale>
<asrwt>0</asrwt>
<pdfrwt beam="1">  1        1 0.33200013E+00 0.83097480E+03</pdfrwt>
<pdfrwt beam="2">  1       -1 0.89870626E-01 0.83097480E+03</pdfrwt>
<totfact> 0.29330281E+00</totfact>
</mgrwt>
</event>
<event>
 4    1  0.4964158E-009  0.5267661E+03  0.7818608E-02  0.1007019E+00
          1   -1    0    0  501    0  0.00000000000E+00  0.00000000000E+00  0.22228711244E+04  0.22228711244E+04  0.50400000000E-02 0. -1.
         -1   -1    0    0    0  501 -0.00000000000E+00 -0.00000000000E+00 -0.75658414053E+03  0.75658414055E+03  0.50400000000E-02 0.  1.
    8880022    1    1    2    0    0  0.50266142772E+03 -0.37713576829E+02 -0.62815096805E+03  0.81979028811E+03  0.15294330000E+03 0.  0.
    8880022    1    1    2    0    0 -0.50266142772E+03  0.37713576829E+02  0.20944379520E+04  0.21596649769E+04  0.15294330000E+03 0.  0.
<mgrwt>
<rscale>  0 0.52676606E+03</rscale>
<asrwt>0</asrwt>
<pdfrwt beam="1">  1        1 0.34198016E+00 0.52676606E+03</pdfrwt>
<pdfrwt beam="2">  1       -1 0.11639756E+00 0.52676606E+03</pdfrwt>
<totfact> 0.15708088E+00</totfact>
</mgrwt>
</event>
<event>
 4    1  0.4964158E-009  0.1145720E+04  0.7818608E-02  0.9161741E-01
          1   -1    0    0  501    0  0.00000000000E+00  0.00000000000E+00  0.27034536647E+04  0.27034536647E+04  0.50400000000E-02 0. -1.
         -1   -1    0    0    0  501 -0.00000000000E+00 -0.00000000000E+00 -0.88355163337E+03  0.88355163338E+03  0.50400000000E-02 0.  1.
    8880022    1    1    2    0    0 -0.23400869952E+03 -0.11110905250E+04 -0.29377063082E+03  0.11827827622E+04  0.15294330000E+03 0.  0.
    8880022    1    1    2    0    0  0.23400869952E+03  0.11110905250E+04  0.21136726621E+04  0.24042225358E+04  0.15294330000E+03 0.  0.
<mgrwt>
<rscale>  0 0.11457198E+04</rscale>
<asrwt>0</asrwt>
<pdfrwt beam="1">  1        1 0.41591594E+00 0.11457198E+04</pdfrwt>
<pdfrwt beam="2">  1       -1 0.13593102E+00 0.11457198E+04</pdfrwt>
<totfact> 0.44070175E-01</totfact>
</mgrwt>
</event>
<event>
 4    1  0.4964158E-009  0.1363941E+04  0.7818608E-02  0.8980342E-01
         -1   -1    0    0    0  501 -0.00000000000E+00  0.00000000000E+00  0.96284065827E+03  0.96284065828E+03  0.50400000000E-02 0.  1.
          1   -1    0    0  501    0  0.00000000000E+00 -0.00000000000E+00 -0.24276744329E+04  0.24276744329E+04  0.50400000000E-02 0. -1.
    8880022    1    1    2    0    0 -0.12165941178E+04 -0.59736279693E+03  0.33498693156E+02  0.13643523643E+04  0.15294330000E+03 0.  0.
    8880022    1    1    2    0    0  0.12165941178E+04  0.59736279693E+03 -0.14983324678E+04  0.20261627269E+04  0.15294330000E+03 0.  0.
<mgrwt>
<rscale>  0 0.13639411E+04</rscale>
<asrwt>0</asrwt>
<pdfrwt beam="1">  1        1 0.37348837E+00 0.13639411E+04</pdfrwt>
<pdfrwt beam="2">  1       -1 0.14812933E+00 0.13639411E+04</pdfrwt>
<totfact> 0.52961835E-01</totfact>
</mgrwt>
</event>
<event>
 4    1  0.4964158E-009  0.8477697E+03  0.7818608E-02  0.9493335E-01
         -1   -1    0    0    0  501 -0.00000000000E+00  0.00000000000E+00  0.74898703938E+03  0.74898703939E+03  0.50400000000E-02 0.  1.
          1   -1    0    0  501    0  0.00000000000E+00 -0.00000000000E+00 -0.13330379035E+04  0.13330379035E+04  0.50400000000E-02 0. -1.
    8880022    1    1    2    0    0  0.65841702025E+03  0.51167258950E+03  0.25897905716E+03  0.88644436738E+03  0.15294330000E+03 0.  0.
    8880022    1    1    2    0    0 -0.65841702025E+03 -0.51167258950E+03 -0.84302992132E+03  0.11955805756E+04  0.15294330000E+03 0.  0.
<mgrwt>
<rscale>  0 0.84776970E+03</rscale>
<asrwt>0</asrwt>
<pdfrwt beam="1">  1        1 0.20508275E+00 0.84776970E+03</pdfrwt>
<pdfrwt beam="2">  1       -1 0.11522878E+00 0.84776970E+03</pdfrwt>
<totfact> 0.59920987E+00</totfact>
</mgrwt>
</event>
<event>
 4    1  0.4964158E-009  0.1284843E+04  0.7818608E-02  0.9041672E-01
         -1   -1    0    0    0  501 -0.00000000000E+00  0.00000000000E+00  0.20562626377E+04  0.20562626377E+04  0.50400000000E-02 0.  1.
          1   -1    0    0  501    0  0.00000000000E+00 -0.00000000000E+00 -0.13666088779E+04  0.13666088779E+04  0.50400000000E-02 0. -1.
    8880022    1    1    2    0    0 -0.11256473099E+04 -0.60029080920E+03 -0.75441723506E+03  0.14899556837E+04  0.15294330000E+03 0.  0.
    8880022    1    1    2    0    0  0.11256473099E+04  0.60029080920E+03  0.14440709948E+04  0.19329158319E+04  0.15294330000E+03 0.  0.
<mgrwt>
<rscale>  0 0.12848434E+04</rscale>
<asrwt>0</asrwt>
<pdfrwt beam="1">  1        1 0.21024752E+00 0.12848434E+04</pdfrwt>
<pdfrwt beam="2">  1       -1 0.31634810E+00 0.12848434E+04</pdfrwt>
<totfact> 0.20411068E-01</totfact>
</mgrwt>
</event>
<event>
 4    1  0.4964158E-009  0.4747083E+03  0.7818608E-02  0.1020600E+00
         -1   -1    0    0    0  501 -0.00000000000E+00  0.00000000000E+00  0.74254301169E+03  0.74254301171E+03  0.50400000000E-02 0.  1.
          1   -1    0    0  501    0  0.00000000000E+00 -0.00000000000E+00 -0.11546092719E+04  0.11546092719E+04  0.50400000000E-02 0. -1.
    8880022    1    1    2    0    0 -0.37405556985E+03 -0.24907579895E+03 -0.10204599912E+04  0.11254717099E+04  0.15294330000E+03 0.  0.
    8880022    1    1    2    0    0  0.37405556985E+03  0.24907579895E+03  0.60839373102E+03  0.77168057376E+03  0.15294330000E+03 0.  0.
<mgrwt>
<rscale>  0 0.47470831E+03</rscale>
<asrwt>0</asrwt>
<pdfrwt beam="1">  1        1 0.17763220E+00 0.47470831E+03</pdfrwt>
<pdfrwt beam="2">  1       -1 0.11423739E+00 0.47470831E+03</pdfrwt>
<totfact> 0.87659492E+00</totfact>
</mgrwt>
</event>
<event>
 4    1  0.4964158E-009  0.1132405E+04  0.7818608E-02  0.9174171E-01
         -1   -1    0    0    0  501 -0.00000000000E+00  0.00000000000E+00  0.74168072071E+03  0.74168072073E+03  0.50400000000E-02 0.  1.
          1   -1    0    0  501    0  0.00000000000E+00 -0.00000000000E+00 -0.26531784312E+04  0.26531784312E+04  0.50400000000E-02 0. -1.
    8880022    1    1    2    0    0 -0.76129096578E+03 -0.82424799018E+03 -0.19575800935E+04  0.22615172251E+04  0.15294330000E+03 0.  0.
    8880022    1    1    2    0    0  0.76129096578E+03  0.82424799018E+03  0.46082383098E+02  0.11333419268E+04  0.15294330000E+03 0.  0.
<mgrwt>
<rscale>  0 0.11324047E+04</rscale>
<asrwt>0</asrwt>
<pdfrwt beam="1">  1        1 0.40818129E+00 0.11324047E+04</pdfrwt>
<pdfrwt beam="2">  1       -1 0.11410473E+00 0.11324047E+04</pdfrwt>
<totfact> 0.74074528E-01</totfact>
</mgrwt>
</event>
<event>
 4    1  0.4964158E-009  0.4945391E+03  0.7818608E-02  0.1015214E+00
          1   -1    0    0  501    0  0.00000000000E+00  0.00000000000E+00  0.48243114637E+04  0.48243114637E+04  0.50400000000E-02 0. -1.
         -1   -1    0    0    0  501 -0.00000000000E+00 -0.00000000000E+00 -0.25889249679E+03  0.25889249683E+03  0.50400000000E-02 0.  1.
    8880022    1    1    2    0    0 -0.41747058182E+03 -0.21655386213E+03  0.45619253722E+04  0.45886525273E+04  0.15294330000E+03 0.  0.
    8880022    1    1    2    0    0  0.41747058182E+03  0.21655386213E+03  0.34935947146E+01  0.49455143322E+03  0.15294330000E+03 0.  0.
<mgrwt>
<rscale>  0 0.49453909E+03</rscale>
<asrwt>0</asrwt>
<pdfrwt beam="1">  1        1 0.74220174E+00 0.49453909E+03</pdfrwt>
<pdfrwt beam="2">  1       -1 0.39829616E-01 0.49453909E+03</pdfrwt>
<totfact> 0.11074346E-01</totfact>
</mgrwt>
</event>
<event>
 4    1  0.4964158E-009  0.7657264E+03  0.7818608E-02  0.9610996E-01
         -1   -1    0    0    0  501 -0.00000000000E+00  0.00000000000E+00  0.68310312717E+03  0.68310312719E+03  0.50400000000E-02 0.  1.
          1   -1    0    0  501    0  0.00000000000E+00 -0.00000000000E+00 -0.18703822207E+04  0.18703822207E+04  0.50400000000E-02 0. -1.
    8880022    1    1    2    0    0  0.67057576855E+03 -0.33656125395E+03 -0.15327935180E+04  0.17134155832E+04  0.15294330000E+03 0.  0.
    8880022    1    1    2    0    0 -0.67057576855E+03  0.33656125395E+03  0.34551442445E+03  0.84006976469E+03  0.15294330000E+03 0.  0.
<mgrwt>
<rscale>  0 0.76572645E+03</rscale>
<asrwt>0</asrwt>
<pdfrwt beam="1">  1        1 0.28775111E+00 0.76572645E+03</pdfrwt>
<pdfrwt beam="2">  1       -1 0.10509279E+00 0.76572645E+03</pdfrwt>
<totfact> 0.32457264E+00</totfact>
</mgrwt>
</event>
<event>
 4    1  0.4964158E-009  0.8403596E+03  0.7818608E-02  0.9503368E-01
         -1   -1    0    0    0  501 -0.00000000000E+00  0.00000000000E+00  0.21697467260E+04  0.21697467260E+04  0.50400000000E-02 0.  1.
          1   -1    0    0  501    0  0.00000000000E+00 -0.00000000000E+00 -0.15364344994E+04  0.15364344994E+04  0.50400000000E-02 0. -1.
    8880022    1    1    2    0    0  0.23451199469E+03  0.79234886029E+03 -0.13284880085E+04  0.15719683946E+04  0.15294330000E+03 0.  0.
    8880022    1    1    2    0    0 -0.23451199469E+03 -0.79234886029E+03  0.19618002350E+04  0.21342128308E+04  0.15294330000E+03 0.  0.
<mgrwt>
<rscale>  0 0.84035959E+03</rscale>
<asrwt>0</asrwt>
<pdfrwt beam="1">  1        1 0.23637454E+00 0.84035959E+03</pdfrwt>
<pdfrwt beam="2">  1       -1 0.33380719E+00 0.84035959E+03</pdfrwt>
<totfact> 0.12966994E-01</totfact>
</mgrwt>
</event>
<event>
 4    1  0.4964158E-009  0.1004608E+04  0.7818608E-02  0.9303505E-01
          1   -1    0    0  501    0  0.00000000000E+00  0.00000000000E+00  0.17623209534E+04  0.17623209534E+04  0.50400000000E-02 0. -1.
         -1   -1    0    0    0  501 -0.00000000000E+00 -0.00000000000E+00 -0.71843699670E+03  0.71843699671E+03  0.50400000000E-02 0.  1.
    8880022    1    1    2    0    0 -0.28550343562E+03 -0.95096470696E+03  0.10806458878E+04  0.14754773036E+04  0.15294330000E+03 0.  0.
    8880022    1    1    2    0    0  0.28550343562E+03  0.95096470696E+03 -0.36761931108E+02  0.10052806465E+04  0.15294330000E+03 0.  0.
<mgrwt>
<rscale>  0 0.10046083E+04</rscale>
<asrwt>0</asrwt>
<pdfrwt beam="1">  1        1 0.27112630E+00 0.10046083E+04</pdfrwt>
<pdfrwt beam="2">  1       -1 0.11052877E+00 0.10046083E+04</pdfrwt>
<totfact> 0.32856052E+00</totfact>
</mgrwt>
</event>
<event>
 4    1  0.4964158E-009  0.7301265E+03  0.7818608E-02  0.9667055E-01
          1   -1    0    0  501    0  0.00000000000E+00  0.00000000000E+00  0.16794203239E+04  0.16794203239E+04  0.50400000000E-02 0. -1.
         -1   -1    0    0    0  501 -0.00000000000E+00 -0.00000000000E+00 -0.87852094899E+03  0.87852094901E+03  0.50400000000E-02 0.  1.
    8880022    1    1    2    0    0  0.62197955599E+03  0.35047743623E+03 -0.62167601755E+03  0.95893989655E+03  0.15294330000E+03 0.  0.
    8880022    1    1    2    0    0 -0.62197955599E+03 -0.35047743623E+03  0.14225753925E+04  0.15990013764E+04  0.15294330000E+03 0.  0.
<mgrwt>
<rscale>  0 0.73012646E+03</rscale>
<asrwt>0</asrwt>
<pdfrwt beam="1">  1        1 0.25837235E+00 0.73012646E+03</pdfrwt>
<pdfrwt beam="2">  1       -1 0.13515707E+00 0.73012646E+03</pdfrwt>
<totfact> 0.23794804E+00</totfact>
</mgrwt>
</event>
<event>
 4    1  0.4964158E-009  0.1189416E+04  0.7818608E-02  0.9122172E-01
          1   -1    0    0  501    0  0.00000000000E+00  0.00000000000E+00  0.86843525474E+03  0.86843525475E+03  0.50400000000E-02 0. -1.
         -1   -1    0    0    0  501 -0.00000000000E+00 -0.00000000000E+00 -0.17279222760E+04  0.17279222760E+04  0.50400000000E-02 0.  1.
    8880022    1    1    2    0    0  0.11772256419E+04 -0.73876889030E+02 -0.74030462083E+03  0.14009855785E+04  0.15294330000E+03 0.  0.
    8880022    1    1    2    0    0 -0.11772256419E+04  0.73876889030E+02 -0.11918240047E+03  0.11953719523E+04  0.15294330000E+03 0.  0.
<mgrwt>
<rscale>  0 0.11894157E+04</rscale>
<asrwt>0</asrwt>
<pdfrwt beam="1">  1        1 0.13360542E+00 0.11894157E+04</pdfrwt>
<pdfrwt beam="2">  1       -1 0.26583420E+00 0.11894157E+04</pdfrwt>
<totfact> 0.10470398E+00</totfact>
</mgrwt>
</event>
<event>
 4    1  0.4964158E-009  0.8095681E+03  0.7818608E-02  0.9546270E-01
          1   -1    0    0  501    0  0.00000000000E+00  0.00000000000E+00  0.20403621679E+04  0.20403621679E+04  0.50400000000E-02 0. -1.
         -1   -1    0    0    0  501 -0.00000000000E+00 -0.00000000000E+00 -0.41090721736E+03  0.41090721739E+03  0.50400000000E-02 0.  1.
    8880022    1    1    2    0    0  0.79072705882E+03 -0.82216999224E+02  0.13873386957E+04  0.16062718407E+04  0.15294330000E+03 0.  0.
    8880022    1    1    2    0    0 -0.79072705882E+03  0.82216999224E+02  0.24211625478E+03  0.84499754458E+03  0.15294330000E+03 0.  0.
<mgrwt>
<rscale>  0 0.80956814E+03</rscale>
<asrwt>0</asrwt>
<pdfrwt beam="1">  1        1 0.31390187E+00 0.80956814E+03</pdfrwt>
<pdfrwt beam="2">  1       -1 0.63216495E-01 0.80956814E+03</pdfrwt>
<totfact> 0.73737592E+00</totfact>
</mgrwt>
</event>
<event>
 4    1  0.4964158E-009  0.1123121E+04  0.7818608E-02  0.9182945E-01
         -1   -1    0    0    0  501 -0.00000000000E+00  0.00000000000E+00  0.93695933213E+03  0.93695933215E+03  0.50400000000E-02 0.  1.
          1   -1    0    0  501    0  0.00000000000E+00 -0.00000000000E+00 -0.26016477118E+04  0.26016477118E+04  0.50400000000E-02 0. -1.
    8880022    1    1    2    0    0 -0.10697104802E+04  0.30615312756E+03  0.39669292453E+03  0.11911201360E+04  0.15294330000E+03 0.  0.
    8880022    1    1    2    0    0  0.10697104802E+04 -0.30615312756E+03 -0.20613813042E+04  0.23474869080E+04  0.15294330000E+03 0.  0.
<mgrwt>
<rscale>  0 0.11231215E+04</rscale>
<asrwt>0</asrwt>
<pdfrwt beam="1">  1        1 0.40025349E+00 0.11231215E+04</pdfrwt>
<pdfrwt beam="2">  1       -1 0.14414759E+00 0.11231215E+04</pdfrwt>
<totfact> 0.44648568E-01</totfact>
</mgrwt>
</event>
<event>
 4    1  0.4964158E-009  0.3182843E+03  0.7818608E-02  0.1076442E+00
          1   -1    0    0  501    0  0.00000000000E+00  0.00000000000E+00  0.34277165572E+04  0.34277165572E+04  0.50400000000E-02 0. -1.
         -1   -1    0    0    0  501 -0.00000000000E+00 -0.00000000000E+00 -0.26351413016E+03  0.26351413021E+03  0.50400000000E-02 0.  1.
    8880022    1    1    2    0    0 -0.27589764106E+03  0.42352303459E+02  0.33211412670E+04  0.33363579236E+04  0.15294330000E+03 0. -1.
    8880022    1    1    2    0    0  0.27589764106E+03 -0.42352303459E+02 -0.15693884001E+03  0.35487276377E+03  0.15294330000E+03 0.  0.
<mgrwt>
<rscale>  0 0.31828427E+03</rscale>
<asrwt>0</asrwt>
<pdfrwt beam="1">  1        1 0.52734095E+00 0.31828427E+03</pdfrwt>
<pdfrwt beam="2">  1       -1 0.40540640E-01 0.31828427E+03</pdfrwt>
<totfact> 0.21137221E+00</totfact>
</mgrwt>
</event>
<event>
 4    1  0.4964158E-009  0.3173538E+03  0.7818608E-02  0.1076874E+00
          1   -1    0    0  501    0  0.00000000000E+00  0.00000000000E+00  0.93833847095E+03  0.93833847096E+03  0.50400000000E-02 0. -1.
         -1   -1    0    0    0  501 -0.00000000000E+00 -0.00000000000E+00 -0.14171319859E+03  0.14171319868E+03  0.50400000000E-02 0.  1.
    8880022    1    1    2    0    0 -0.26006896370E+02 -0.27684907075E+03  0.13231848839E+03  0.34383368365E+03  0.15294330000E+03 0.  0.
    8880022    1    1    2    0    0  0.26006896370E+02  0.27684907075E+03  0.66430678397E+03  0.73621798598E+03  0.15294330000E+03 0.  0.
<mgrwt>
<rscale>  0 0.31735378E+03</rscale>
<asrwt>0</asrwt>
<pdfrwt beam="1">  1        1 0.14435977E+00 0.31735378E+03</pdfrwt>
<pdfrwt beam="2">  1       -1 0.21802030E-01 0.31735378E+03</pdfrwt>
<totfact> 0.31235378E+02</totfact>
</mgrwt>
</event>
<event>
 4    1  0.4964158E-009  0.3231297E+03  0.7818608E-02  0.1074218E+00
          1   -1    0    0  501    0  0.00000000000E+00  0.00000000000E+00  0.16363703293E+04  0.16363703293E+04  0.50400000000E-02 0. -1.
         -1   -1    0    0    0  501 -0.00000000000E+00 -0.00000000000E+00 -0.62671079167E+03  0.62671079169E+03  0.50400000000E-02 0.  1.
    8880022    1    1    2    0    0 -0.27214521376E+03  0.83415483565E+02 -0.56756183941E+03  0.65309972810E+03  0.15294330000E+03 0.  0.
    8880022    1    1    2    0    0  0.27214521376E+03 -0.83415483565E+02  0.15772213770E+04  0.16099813929E+04  0.15294330000E+03 0. -1.
<mgrwt>
<rscale>  0 0.32312972E+03</rscale>
<asrwt>0</asrwt>
<pdfrwt beam="1">  1        1 0.25174928E+00 0.32312972E+03</pdfrwt>
<pdfrwt beam="2">  1       -1 0.96417047E-01 0.32312972E+03</pdfrwt>
<totfact> 0.63382998E+00</totfact>
</mgrwt>
</event>
<event>
 4    1  0.4964158E-009  0.5710424E+03  0.7818608E-02  0.9967375E-01
          1   -1    0    0  501    0  0.00000000000E+00  0.00000000000E+00  0.64884079416E+03  0.64884079418E+03  0.50400000000E-02 0. -1.
         -1   -1    0    0    0  501 -0.00000000000E+00 -0.00000000000E+00 -0.94480120121E+03  0.94480120122E+03  0.50400000000E-02 0.  1.
    8880022    1    1    2    0    0  0.54952051261E+03  0.26924577900E+02  0.39716743570E+03  0.69557986721E+03  0.15294330000E+03 0.  0.
    8880022    1    1    2    0    0 -0.54952051261E+03 -0.26924577900E+02 -0.69312784275E+03  0.89806212819E+03  0.15294330000E+03 0.  0.
<mgrwt>
<rscale>  0 0.57104236E+03</rscale>
<asrwt>0</asrwt>
<pdfrwt beam="1">  1        1 0.99821661E-01 0.57104236E+03</pdfrwt>
<pdfrwt beam="2">  1       -1 0.14535403E+00 0.57104236E+03</pdfrwt>
<totfact> 0.12242912E+01</totfact>
</mgrwt>
</event>
<event>
 4    1  0.4964158E-009  0.1015337E+04  0.7818608E-02  0.9291882E-01
         -1   -1    0    0    0  501 -0.00000000000E+00  0.00000000000E+00  0.23342357823E+04  0.23342357823E+04  0.50400000000E-02 0.  1.
          1   -1    0    0  501    0  0.00000000000E+00 -0.00000000000E+00 -0.12622433022E+04  0.12622433022E+04  0.50400000000E-02 0. -1.
    8880022    1    1    2    0    0 -0.57443150904E+03  0.82313159762E+03 -0.91391265675E+03  0.13660692452E+04  0.15294330000E+03 0.  0.
    8880022    1    1    2    0    0  0.57443150904E+03 -0.82313159762E+03  0.19859051369E+04  0.22304098393E+04  0.15294330000E+03 0.  0.
<mgrwt>
<rscale>  0 0.10153368E+04</rscale>
<asrwt>0</asrwt>
<pdfrwt beam="1">  1        1 0.19419128E+00 0.10153368E+04</pdfrwt>
<pdfrwt beam="2">  1       -1 0.35911320E+00 0.10153368E+04</pdfrwt>
<totfact> 0.13272114E-01</totfact>
</mgrwt>
</event>
<event>
 4    1  0.4964158E-009  0.3232331E+03  0.7818608E-02  0.1074171E+00
         -1   -1    0    0    0  501 -0.00000000000E+00  0.00000000000E+00  0.43673744223E+03  0.43673744226E+03  0.50400000000E-02 0.  1.
          1   -1    0    0  501    0  0.00000000000E+00 -0.00000000000E+00 -0.26997362404E+03  0.26997362409E+03  0.50400000000E-02 0. -1.
    8880022    1    1    2    0    0  0.94784734162E+02 -0.26852158210E+03 -0.35864659671E+02  0.32521671654E+03  0.15294330000E+03 0.  0.
    8880022    1    1    2    0    0 -0.94784734162E+02  0.26852158210E+03  0.20262847786E+03  0.38149434981E+03  0.15294330000E+03 0.  0.
<mgrwt>
<rscale>  0 0.32323310E+03</rscale>
<asrwt>0</asrwt>
<pdfrwt beam="1">  1        1 0.41534404E-01 0.32323310E+03</pdfrwt>
<pdfrwt beam="2">  1       -1 0.67190375E-01 0.32323310E+03</pdfrwt>
<totfact> 0.23381960E+02</totfact>
</mgrwt>
</event>
<event>
 4    1  0.4964158E-009  0.8711429E+03  0.7818608E-02  0.9462391E-01
         -1   -1    0    0    0  501 -0.00000000000E+00  0.00000000000E+00  0.12649317914E+04  0.12649317914E+04  0.50400000000E-02 0.  1.
          1   -1    0    0  501    0  0.00000000000E+00 -0.00000000000E+00 -0.67852388284E+03  0.67852388285E+03  0.50400000000E-02 0. -1.
    8880022    1    1    2    0    0  0.40972493899E+03  0.75340811934E+03  0.62388855752E+03  0.10715068386E+04  0.15294330000E+03 0.  0.
    8880022    1    1    2    0    0 -0.40972493899E+03 -0.75340811934E+03 -0.37480648982E+02  0.87194883565E+03  0.15294330000E+03 0.  0.
<mgrwt>
<rscale>  0 0.87114291E+03</rscale>
<asrwt>0</asrwt>
<pdfrwt beam="1">  1        1 0.10438829E+00 0.87114291E+03</pdfrwt>
<pdfrwt beam="2">  1       -1 0.19460489E+00 0.87114291E+03</pdfrwt>
<totfact> 0.47753936E+00</totfact>
</mgrwt>
</event>
<event>
 4    1  0.4964158E-009  0.1830867E+03  0.7818608E-02  0.1164849E+00
          1   -1    0    0  501    0  0.00000000000E+00  0.00000000000E+00  0.23767603477E+04  0.23767603477E+04  0.50400000000E-02 0. -1.
         -1   -1    0    0    0  501 -0.00000000000E+00 -0.00000000000E+00 -0.55049276005E+02  0.55049276235E+02  0.50400000000E-02 0.  1.
    8880022    1    1    2    0    0 -0.53919690394E+02  0.84980877350E+02  0.11221145318E+03  0.21473738791E+03  0.15294330000E+03 0.  0.
    8880022    1    1    2    0    0  0.53919690394E+02 -0.84980877350E+02  0.22094996185E+04  0.22170722360E+04  0.15294330000E+03 0. -1.
<mgrwt>
<rscale>  0 0.18308669E+03</rscale>
<asrwt>0</asrwt>
<pdfrwt beam="1">  1        1 0.36565548E+00 0.18308669E+03</pdfrwt>
<pdfrwt beam="2">  1       -1 0.84691184E-02 0.18308669E+03</pdfrwt>
<totfact> 0.15538223E+02</totfact>
</mgrwt>
</event>
<event>
 4    1  0.4964158E-009  0.1534616E+04  0.7818608E-02  0.8861754E-01
         -1   -1    0    0    0  501 -0.00000000000E+00  0.00000000000E+00  0.11766129015E+04  0.11766129016E+04  0.50400000000E-02 0.  1.
          1   -1    0    0  501    0  0.00000000000E+00 -0.00000000000E+00 -0.24928771004E+04  0.24928771004E+04  0.50400000000E-02 0. -1.
    8880022    1    1    2    0    0 -0.13124052221E+04  0.78054324484E+03  0.15640645190E+03  0.15425659971E+04  0.15294330000E+03 0.  1.
    8880022    1    1    2    0    0  0.13124052221E+04 -0.78054324484E+03 -0.14726706507E+04  0.21269240049E+04  0.15294330000E+03 0.  0.
<mgrwt>
<rscale>  0 0.15346162E+04</rscale>
<asrwt>0</asrwt>
<pdfrwt beam="1">  1        1 0.38351955E+00 0.15346162E+04</pdfrwt>
<pdfrwt beam="2">  1       -1 0.18101737E+00 0.15346162E+04</pdfrwt>
<totfact> 0.26442757E-01</totfact>
</mgrwt>
</event>
<event>
 4    1  0.4964158E-009  0.1411272E+04  0.7818608E-02  0.8945699E-01
         -1   -1    0    0    0  501 -0.00000000000E+00  0.00000000000E+00  0.64435122931E+03  0.64435122933E+03  0.50400000000E-02 0.  1.
          1   -1    0    0  501    0  0.00000000000E+00 -0.00000000000E+00 -0.32943462925E+04  0.32943462925E+04  0.50400000000E-02 0. -1.
    8880022    1    1    2    0    0 -0.84500699895E+03 -0.11199379047E+04 -0.18142765208E+04  0.22985405556E+04  0.15294330000E+03 0.  0.
    8880022    1    1    2    0    0  0.84500699895E+03  0.11199379047E+04 -0.83571854231E+03  0.16401569662E+04  0.15294330000E+03 0.  0.
<mgrwt>
<rscale>  0 0.14112723E+04</rscale>
<asrwt>0</asrwt>
<pdfrwt beam="1">  1        1 0.50682249E+00 0.14112723E+04</pdfrwt>
<pdfrwt beam="2">  1       -1 0.99130961E-01 0.14112723E+04</pdfrwt>
<totfact> 0.34086809E-01</totfact>
</mgrwt>
</event>
<event>
 4    1  0.4964158E-009  0.9973548E+03  0.7818608E-02  0.9311451E-01
          1   -1    0    0  501    0  0.00000000000E+00  0.00000000000E+00  0.14263371212E+04  0.14263371212E+04  0.50400000000E-02 0. -1.
         -1   -1    0    0    0  501 -0.00000000000E+00 -0.00000000000E+00 -0.91220284302E+03  0.91220284304E+03  0.50400000000E-02 0.  1.
    8880022    1    1    2    0    0  0.76238288648E+03  0.62457772366E+03  0.82447689272E+03  0.12940165370E+04  0.15294330000E+03 0.  0.
    8880022    1    1    2    0    0 -0.76238288648E+03 -0.62457772366E+03 -0.31034261457E+03  0.10445234272E+04  0.15294330000E+03 0.  0.
<mgrwt>
<rscale>  0 0.99735483E+03</rscale>
<asrwt>0</asrwt>
<pdfrwt beam="1">  1        1 0.21943648E+00 0.99735483E+03</pdfrwt>
<pdfrwt beam="2">  1       -1 0.14033890E+00 0.99735483E+03</pdfrwt>
<totfact> 0.30825482E+00</totfact>
</mgrwt>
</event>
<event>
 4    1  0.4964158E-009  0.8079170E+03  0.7818608E-02  0.9548628E-01
         -1   -1    0    0    0  501 -0.00000000000E+00  0.00000000000E+00  0.53261625214E+03  0.53261625217E+03  0.50400000000E-02 0.  1.
          1   -1    0    0  501    0  0.00000000000E+00 -0.00000000000E+00 -0.34063204298E+04  0.34063204298E+04  0.50400000000E-02 0. -1.
    8880022    1    1    2    0    0 -0.63456928352E+03 -0.47608835928E+03  0.13899681645E+03  0.81978659993E+03  0.15294330000E+03 0.  0.
    8880022    1    1    2    0    0  0.63456928352E+03  0.47608835928E+03 -0.30127009941E+04  0.31191500821E+04  0.15294330000E+03 0.  0.
<mgrwt>
<rscale>  0 0.80791705E+03</rscale>
<asrwt>0</asrwt>
<pdfrwt beam="1">  1        1 0.52404928E+00 0.80791705E+03</pdfrwt>
<pdfrwt beam="2">  1       -1 0.81940964E-01 0.80791705E+03</pdfrwt>
<totfact> 0.47281709E-01</totfact>
</mgrwt>
</event>
<event>
 4    1  0.4964158E-009  0.5741617E+03  0.7818608E-02  0.9960511E-01
          1   -1    0    0  501    0  0.00000000000E+00  0.00000000000E+00  0.71797003393E+03  0.71797003395E+03  0.50400000000E-02 0. -1.
         -1   -1    0    0    0  501 -0.00000000000E+00 -0.00000000000E+00 -0.61340539194E+03  0.61340539196E+03  0.50400000000E-02 0.  1.
    8880022    1    1    2    0    0  0.54171176562E+03 -0.11321825764E+03  0.38609720912E+03  0.69190513713E+03  0.15294330000E+03 0.  0.
    8880022    1    1    2    0    0 -0.54171176562E+03  0.11321825764E+03 -0.28153256713E+03  0.63947028879E+03  0.15294330000E+03 0.  0.
<mgrwt>
<rscale>  0 0.57416171E+03</rscale>
<asrwt>0</asrwt>
<pdfrwt beam="1">  1        1 0.11045693E+00 0.57416171E+03</pdfrwt>
<pdfrwt beam="2">  1       -1 0.94370060E-01 0.57416171E+03</pdfrwt>
<totfact> 0.29816158E+01</totfact>
</mgrwt>
</event>
<event>
 4    1  0.4964158E-009  0.2866046E+03  0.7818608E-02  0.1092135E+00
         -1   -1    0    0    0  501 -0.00000000000E+00  0.00000000000E+00  0.55271490288E+02  0.55271490518E+02  0.50400000000E-02 0.  1.
          1   -1    0    0  501    0  0.00000000000E+00 -0.00000000000E+00 -0.22946930339E+04  0.22946930339E+04  0.50400000000E-02 0. -1.
    8880022    1    1    2    0    0  0.20236531365E+03 -0.13341228857E+03 -0.42225251823E+03  0.51033263768E+03  0.15294330000E+03 0.  0.
    8880022    1    1    2    0    0 -0.20236531365E+03  0.13341228857E+03 -0.18171690254E+04  0.18396318867E+04  0.15294330000E+03 0.  0.
<mgrwt>
<rscale>  0 0.28660463E+03</rscale>
<asrwt>0</asrwt>
<pdfrwt beam="1">  1        1 0.35302962E+00 0.28660463E+03</pdfrwt>
<pdfrwt beam="2">  1       -1 0.85033080E-02 0.28660463E+03</pdfrwt>
<totfact> 0.16941171E+02</totfact>
</mgrwt>
</event>
<event>
 4    1  0.4964158E-009  0.8824792E+03  0.7818608E-02  0.9447752E-01
         -1   -1    0    0    0  501 -0.00000000000E+00  0.00000000000E+00  0.80053091373E+03  0.80053091374E+03  0.50400000000E-02 0.  1.
          1   -1    0    0  501    0  0.00000000000E+00 -0.00000000000E+00 -0.21892662190E+04  0.21892662190E+04  0.50400000000E-02 0. -1.
    8880022    1    1    2    0    0 -0.54206990772E+03 -0.67936589525E+03  0.41995143212E+03  0.97730684170E+03  0.15294330000E+03 0.  0.
    8880022    1    1    2    0    0  0.54206990772E+03  0.67936589525E+03 -0.18086867373E+04  0.20124902910E+04  0.15294330000E+03 0.  0.
<mgrwt>
<rscale>  0 0.88247915E+03</rscale>
<asrwt>0</asrwt>
<pdfrwt beam="1">  1        1 0.33681019E+00 0.88247915E+03</pdfrwt>
<pdfrwt beam="2">  1       -1 0.12315860E+00 0.88247915E+03</pdfrwt>
<totfact> 0.13293443E+00</totfact>
</mgrwt>
</event>
<event>
 4    1  0.4964158E-009  0.2638031E+03  0.7818608E-02  0.1104880E+00
          1   -1    0    0  501    0  0.00000000000E+00  0.00000000000E+00  0.11425619671E+04  0.11425619671E+04  0.50400000000E-02 0. -1.
         -1   -1    0    0    0  501 -0.00000000000E+00 -0.00000000000E+00 -0.50999769617E+03  0.50999769620E+03  0.50400000000E-02 0.  1.
    8880022    1    1    2    0    0 -0.37715745951E+02 -0.21160795317E+03 -0.45908825643E+03  0.52948473400E+03  0.15294330000E+03 0.  0.
    8880022    1    1    2    0    0  0.37715745951E+02  0.21160795317E+03  0.10916525273E+04  0.11230749293E+04  0.15294330000E+03 0. -1.
<mgrwt>
<rscale>  0 0.26380306E+03</rscale>
<asrwt>0</asrwt>
<pdfrwt beam="1">  1        1 0.17577876E+00 0.26380306E+03</pdfrwt>
<pdfrwt beam="2">  1       -1 0.78461184E-01 0.26380306E+03</pdfrwt>
<totfact> 0.21811202E+01</totfact>
</mgrwt>
</event>
<event>
 4    1  0.4964158E-009  0.9606685E+03  0.7818608E-02  0.9352767E-01
         -1   -1    0    0    0  501 -0.00000000000E+00  0.00000000000E+00  0.82958467774E+03  0.82958467776E+03  0.50400000000E-02 0.  1.
          1   -1    0    0  501    0  0.00000000000E+00 -0.00000000000E+00 -0.31474728963E+04  0.31474728963E+04  0.50400000000E-02 0. -1.
    8880022    1    1    2    0    0  0.94759006793E+03  0.39564040168E+02 -0.27578906152E+04  0.29204185571E+04  0.15294330000E+03 0.  0.
    8880022    1    1    2    0    0 -0.94759006793E+03 -0.39564040168E+02  0.44000239665E+03  0.10566390170E+04  0.15294330000E+03 0.  0.
<mgrwt>
<rscale>  0 0.96066847E+03</rscale>
<asrwt>0</asrwt>
<pdfrwt beam="1">  1        1 0.48422659E+00 0.96066847E+03</pdfrwt>
<pdfrwt beam="2">  1       -1 0.12762841E+00 0.96066847E+03</pdfrwt>
<totfact> 0.25680377E-01</totfact>
</mgrwt>
</event>
<event>
 4    1  0.4964158E-009  0.7157152E+03  0.7818608E-02  0.9690728E-01
          1   -1    0    0  501    0  0.00000000000E+00  0.00000000000E+00  0.83775322034E+03  0.83775322035E+03  0.50400000000E-02 0. -1.
         -1   -1    0    0    0  501 -0.00000000000E+00 -0.00000000000E+00 -0.12369824740E+04  0.12369824740E+04  0.50400000000E-02 0.  1.
    8880022    1    1    2    0    0 -0.69306010449E+03 -0.92327326707E+02  0.53807596610E+03  0.89541836144E+03  0.15294330000E+03 0.  0.
    8880022    1    1    2    0    0  0.69306010449E+03  0.92327326707E+02 -0.93730521973E+03  0.11793173329E+04  0.15294330000E+03 0.  0.
<mgrwt>
<rscale>  0 0.71571523E+03</rscale>
<asrwt>0</asrwt>
<pdfrwt beam="1">  1        1 0.12888511E+00 0.71571523E+03</pdfrwt>
<pdfrwt beam="2">  1       -1 0.19030500E+00 0.71571523E+03</pdfrwt>
<totfact> 0.37657468E+00</totfact>
</mgrwt>
</event>
<event>
 4    1  0.4964158E-009  0.7911937E+03  0.7818608E-02  0.9572852E-01
         -1   -1    0    0    0  501 -0.00000000000E+00  0.00000000000E+00  0.65113848128E+03  0.65113848130E+03  0.50400000000E-02 0.  1.
          1   -1    0    0  501    0  0.00000000000E+00 -0.00000000000E+00 -0.14724478178E+04  0.14724478178E+04  0.50400000000E-02 0. -1.
    8880022    1    1    2    0    0 -0.47688603220E+03 -0.61251573074E+03  0.21489510898E+03  0.81985813955E+03  0.15294330000E+03 0.  0.
    8880022    1    1    2    0    0  0.47688603220E+03  0.61251573074E+03 -0.10362044455E+04  0.13037281595E+04  0.15294330000E+03 0.  0.
<mgrwt>
<rscale>  0 0.79119369E+03</rscale>
<asrwt>0</asrwt>
<pdfrwt beam="1">  1        1 0.22653043E+00 0.79119369E+03</pdfrwt>
<pdfrwt beam="2">  1       -1 0.10017515E+00 0.79119369E+03</pdfrwt>
<totfact> 0.67073122E+00</totfact>
</mgrwt>
</event>
<event>
 4    1  0.4964158E-009  0.7552047E+03  0.7818608E-02  0.9627220E-01
         -1   -1    0    0    0  501 -0.00000000000E+00  0.00000000000E+00  0.15362796473E+04  0.15362796473E+04  0.50400000000E-02 0.  1.
          1   -1    0    0  501    0  0.00000000000E+00 -0.00000000000E+00 -0.12600304991E+04  0.12600304992E+04  0.50400000000E-02 0. -1.
    8880022    1    1    2    0    0 -0.26078073648E+03 -0.69205191992E+03  0.13123828172E+04  0.15141607458E+04  0.15294330000E+03 0.  0.
    8880022    1    1    2    0    0  0.26078073648E+03  0.69205191992E+03 -0.10361336690E+04  0.12821494006E+04  0.15294330000E+03 0.  0.
<mgrwt>
<rscale>  0 0.75520468E+03</rscale>
<asrwt>0</asrwt>
<pdfrwt beam="1">  1        1 0.19385085E+00 0.75520468E+03</pdfrwt>
<pdfrwt beam="2">  1       -1 0.23635071E+00 0.75520468E+03</pdfrwt>
<totfact> 0.87172509E-01</totfact>
</mgrwt>
</event>
<event>
 4    1  0.4964158E-009  0.1484869E+04  0.7818608E-02  0.8894578E-01
         -1   -1    0    0    0  501 -0.00000000000E+00  0.00000000000E+00  0.14940017026E+04  0.14940017026E+04  0.50400000000E-02 0.  1.
          1   -1    0    0  501    0  0.00000000000E+00 -0.00000000000E+00 -0.19288687351E+04  0.19288687352E+04  0.50400000000E-02 0. -1.
    8880022    1    1    2    0    0 -0.12006150282E+04  0.86021350090E+03  0.61202588859E+03  0.16060544992E+04  0.15294330000E+03 0.  0.
    8880022    1    1    2    0    0  0.12006150282E+04 -0.86021350090E+03 -0.10468929212E+04  0.18168159385E+04  0.15294330000E+03 0.  0.
<mgrwt>
<rscale>  0 0.14848688E+04</rscale>
<asrwt>0</asrwt>
<pdfrwt beam="1">  1        1 0.29674904E+00 0.14848688E+04</pdfrwt>
<pdfrwt beam="2">  1       -1 0.22984641E+00 0.14848688E+04</pdfrwt>
<totfact> 0.29803231E-01</totfact>
</mgrwt>
</event>
<event>
 4    1  0.4964158E-009  0.3564389E+03  0.7818608E-02  0.1060003E+00
         -1   -1    0    0    0  501 -0.00000000000E+00  0.00000000000E+00  0.14618035977E+04  0.14618035977E+04  0.50400000000E-02 0.  1.
          1   -1    0    0  501    0  0.00000000000E+00 -0.00000000000E+00 -0.48034154681E+03  0.48034154683E+03  0.50400000000E-02 0. -1.
    8880022    1    1    2    0    0 -0.28246551744E+03 -0.15450010861E+03  0.13695712680E+04  0.14151940373E+04  0.15294330000E+03 0.  0.
    8880022    1    1    2    0    0  0.28246551744E+03  0.15450010861E+03 -0.38810921704E+03  0.52695110729E+03  0.15294330000E+03 0.  0.
<mgrwt>
<rscale>  0 0.35643892E+03</rscale>
<asrwt>0</asrwt>
<pdfrwt beam="1">  1        1 0.73898701E-01 0.35643892E+03</pdfrwt>
<pdfrwt beam="2">  1       -1 0.22489286E+00 0.35643892E+03</pdfrwt>
<totfact> 0.53807774E+00</totfact>
</mgrwt>
</event>
<event>
 4    1  0.4964158E-009  0.2211271E+03  0.7818608E-02  0.1133046E+00
         -1   -1    0    0    0  501 -0.00000000000E+00  0.00000000000E+00  0.12337172359E+03  0.12337172369E+03  0.50400000000E-02 0.  1.
          1   -1    0    0  501    0  0.00000000000E+00 -0.00000000000E+00 -0.13304719103E+04  0.13304719103E+04  0.50400000000E-02 0. -1.
    8880022    1    1    2    0    0 -0.48680442438E+02  0.15210448960E+03  0.55502291907E+01  0.22119678861E+03  0.15294330000E+03 0.  1.
    8880022    1    1    2    0    0  0.48680442438E+02 -0.15210448960E+03 -0.12126504159E+04  0.12326468454E+04  0.15294330000E+03 0.  0.
<mgrwt>
<rscale>  0 0.22112714E+03</rscale>
<asrwt>0</asrwt>
<pdfrwt beam="1">  1        1 0.20468798E+00 0.22112714E+03</pdfrwt>
<pdfrwt beam="2">  1       -1 0.18980266E-01 0.22112714E+03</pdfrwt>
<totfact> 0.20803877E+02</totfact>
</mgrwt>
</event>
<event>
 4    1  0.4964158E-009  0.8118296E+03  0.7818608E-02  0.9543050E-01
         -1   -1    0    0    0  501 -0.00000000000E+00  0.00000000000E+00  0.13844838454E+04  0.13844838454E+04  0.50400000000E-02 0.  1.
          1   -1    0    0  501    0  0.00000000000E+00 -0.00000000000E+00 -0.13065779750E+04  0.13065779750E+04  0.50400000000E-02 0. -1.
    8880022    1    1    2    0    0  0.76080496836E+03  0.23843524717E+03  0.11117219627E+04  0.13765874263E+04  0.15294330000E+03 0.  0.
    8880022    1    1    2    0    0 -0.76080496836E+03 -0.23843524717E+03 -0.10338160923E+04  0.13144743941E+04  0.15294330000E+03 0.  0.
<mgrwt>
<rscale>  0 0.81182955E+03</rscale>
<asrwt>0</asrwt>
<pdfrwt beam="1">  1        1 0.20101200E+00 0.81182955E+03</pdfrwt>
<pdfrwt beam="2">  1       -1 0.21299751E+00 0.81182955E+03</pdfrwt>
<totfact> 0.11397283E+00</totfact>
</mgrwt>
</event>
<event>
 4    1  0.4964158E-009  0.5876256E+03  0.7818608E-02  0.9931417E-01
          1   -1    0    0  501    0  0.00000000000E+00  0.00000000000E+00  0.11379573774E+04  0.11379573774E+04  0.50400000000E-02 0. -1.
         -1   -1    0    0    0  501 -0.00000000000E+00 -0.00000000000E+00 -0.54664107157E+03  0.54664107160E+03  0.50400000000E-02 0.  1.
    8880022    1    1    2    0    0  0.56736984280E+03 -0.19077152523E+01  0.85747713602E+03  0.10395051081E+04  0.15294330000E+03 0.  0.
    8880022    1    1    2    0    0 -0.56736984280E+03  0.19077152523E+01 -0.26616083023E+03  0.64509334089E+03  0.15294330000E+03 0.  1.
<mgrwt>
<rscale>  0 0.58762559E+03</rscale>
<asrwt>0</asrwt>
<pdfrwt beam="1">  1        1 0.17507037E+00 0.58762559E+03</pdfrwt>
<pdfrwt beam="2">  1       -1 0.84098626E-01 0.58762559E+03</pdfrwt>
<totfact> 0.17566417E+01</totfact>
</mgrwt>
</event>
<event>
 4    1  0.4964158E-009  0.9596027E+03  0.7818608E-02  0.9353996E-01
          1   -1    0    0  501    0  0.00000000000E+00  0.00000000000E+00  0.20497571021E+04  0.20497571021E+04  0.50400000000E-02 0. -1.
         -1   -1    0    0    0  501 -0.00000000000E+00 -0.00000000000E+00 -0.73014952748E+03  0.73014952750E+03  0.50400000000E-02 0.  1.
    8880022    1    1    2    0    0 -0.19645446000E+03 -0.92674230111E+03 -0.20233240499E+03  0.98070163793E+03  0.15294330000E+03 0.  0.
    8880022    1    1    2    0    0  0.19645446000E+03  0.92674230111E+03  0.15219399796E+04  0.17992049917E+04  0.15294330000E+03 0.  0.
<mgrwt>
<rscale>  0 0.95960268E+03</rscale>
<asrwt>0</asrwt>
<pdfrwt beam="1">  1        1 0.31534724E+00 0.95960268E+03</pdfrwt>
<pdfrwt beam="2">  1       -1 0.11233070E+00 0.95960268E+03</pdfrwt>
<totfact> 0.20373927E+00</totfact>
</mgrwt>
</event>
<event>
 4    1  0.4964158E-009  0.7557429E+03  0.7818608E-02  0.9626383E-01
         -1   -1    0    0    0  501 -0.00000000000E+00  0.00000000000E+00  0.15897658298E+04  0.15897658299E+04  0.50400000000E-02 0.  1.
          1   -1    0    0  501    0  0.00000000000E+00 -0.00000000000E+00 -0.42643413143E+03  0.42643413146E+03  0.50400000000E-02 0. -1.
    8880022    1    1    2    0    0 -0.16050266029E+03  0.72249191590E+03  0.98176007246E+03  0.12389512361E+04  0.15294330000E+03 0.  0.
    8880022    1    1    2    0    0  0.16050266029E+03 -0.72249191590E+03  0.18157162596E+03  0.77724872523E+03  0.15294330000E+03 0.  0.
<mgrwt>
<rscale>  0 0.75574290E+03</rscale>
<asrwt>0</asrwt>
<pdfrwt beam="1">  1        1 0.65605251E-01 0.75574290E+03</pdfrwt>
<pdfrwt beam="2">  1       -1 0.24457936E+00 0.75574290E+03</pdfrwt>
<totfact> 0.43294693E+00</totfact>
</mgrwt>
</event>
<event>
 4    1  0.4964158E-009  0.6451535E+03  0.7818608E-02  0.9815916E-01
          1   -1    0    0  501    0  0.00000000000E+00  0.00000000000E+00  0.99057716187E+03  0.99057716188E+03  0.50400000000E-02 0. -1.
         -1   -1    0    0    0  501 -0.00000000000E+00 -0.00000000000E+00 -0.33796273778E+04  0.33796273778E+04  0.50400000000E-02 0.  1.
    8880022    1    1    2    0    0 -0.50421595111E+03 -0.37228710237E+03  0.85023561867E+03  0.10672973682E+04  0.15294330000E+03 0. -1.
    8880022    1    1    2    0    0  0.50421595111E+03  0.37228710237E+03 -0.32392858346E+04  0.33029071714E+04  0.15294330000E+03 0.  0.
<mgrwt>
<rscale>  0 0.64515352E+03</rscale>
<asrwt>0</asrwt>
<pdfrwt beam="1">  1        1 0.15239649E+00 0.64515352E+03</pdfrwt>
<pdfrwt beam="2">  1       -1 0.51994267E+00 0.64515352E+03</pdfrwt>
<totfact> 0.18929921E-02</totfact>
</mgrwt>
</event>
<event>
 4    1  0.1416833E-008  0.1013616E+04  0.7818608E-02  0.9293736E-01
          1   -1    0    0  501    0  0.00000000000E+00  0.00000000000E+00  0.30827263246E+04  0.30827263246E+04  0.50400000000E-02 0. -1.
         -1   -1    0    0    0  501 -0.00000000000E+00 -0.00000000000E+00 -0.15324572228E+04  0.15324572228E+04  0.50400000000E-02 0.  1.
    8880022    1    1    2    0    0 -0.39986068457E+03  0.91876906117E+03 -0.12661622169E+04  0.16219073856E+04  0.15294330000E+03 0.  0.
    8880022    1    1    2    0    0  0.39986068457E+03 -0.91876906117E+03  0.28164313187E+04  0.29932761618E+04  0.15294330000E+03 0. -1.
<mgrwt>
<rscale>  0 0.10136157E+04</rscale>
<asrwt>0</asrwt>
<pdfrwt beam="1">  1        1 0.47426558E+00 0.10136157E+04</pdfrwt>
<pdfrwt beam="2">  1       -1 0.23576265E+00 0.10136157E+04</pdfrwt>
<totfact> 0.46322725E-02</totfact>
</mgrwt>
</event>
<event>
 4    1  0.5042103E-009  0.1101334E+04  0.7818608E-02  0.9203893E-01
          1   -1    0    0  501    0  0.00000000000E+00  0.00000000000E+00  0.26455895919E+04  0.26455895919E+04  0.50400000000E-02 0. -1.
         -1   -1    0    0    0  501 -0.00000000000E+00 -0.00000000000E+00 -0.11176135958E+04  0.11176135959E+04  0.50400000000E-02 0.  1.
    8880022    1    1    2    0    0  0.96314711000E+03 -0.51175429348E+03 -0.68101994075E+03  0.12948840199E+04  0.15294330000E+03 0.  0.
    8880022    1    1    2    0    0 -0.96314711000E+03  0.51175429348E+03  0.22089959368E+04  0.24683191678E+04  0.15294330000E+03 0.  0.
<mgrwt>
<rscale>  0 0.11013339E+04</rscale>
<asrwt>0</asrwt>
<pdfrwt beam="1">  1        1 0.40701378E+00 0.11013339E+04</pdfrwt>
<pdfrwt beam="2">  1       -1 0.17194055E+00 0.11013339E+04</pdfrwt>
<totfact> 0.25611226E-01</totfact>
</mgrwt>
</event>
<event>
 4    1  0.4964158E-009  0.4181470E+03  0.7818608E-02  0.1037671E+00
         -1   -1    0    0    0  501 -0.00000000000E+00  0.00000000000E+00  0.79060618989E+03  0.79060618991E+03  0.50400000000E-02 0.  1.
          1   -1    0    0  501    0  0.00000000000E+00 -0.00000000000E+00 -0.78838068749E+03  0.78838068750E+03  0.50400000000E-02 0. -1.
    8880022    1    1    2    0    0 -0.20661765844E+03 -0.32979447009E+03  0.67077881733E+03  0.79043729927E+03  0.15294330000E+03 0.  0.
    8880022    1    1    2    0    0  0.20661765844E+03  0.32979447009E+03 -0.66855331492E+03  0.78854957814E+03  0.15294330000E+03 0.  0.
<mgrwt>
<rscale>  0 0.41814699E+03</rscale>
<asrwt>0</asrwt>
<pdfrwt beam="1">  1        1 0.12128934E+00 0.41814699E+03</pdfrwt>
<pdfrwt beam="2">  1       -1 0.12163172E+00 0.41814699E+03</pdfrwt>
<totfact> 0.14740592E+01</totfact>
</mgrwt>
</event>
<event>
 4    1  0.4964158E-009  0.7102976E+03  0.7818608E-02  0.9699782E-01
          1   -1    0    0  501    0  0.00000000000E+00  0.00000000000E+00  0.46254367617E+03  0.46254367619E+03  0.50400000000E-02 0. -1.
         -1   -1    0    0    0  501 -0.00000000000E+00 -0.00000000000E+00 -0.20690914845E+04  0.20690914845E+04  0.50400000000E-02 0.  1.
    8880022    1    1    2    0    0  0.29909692238E+03  0.62583708173E+03 -0.16736861544E+04  0.18181716141E+04  0.15294330000E+03 0.  0.
    8880022    1    1    2    0    0 -0.29909692238E+03 -0.62583708173E+03  0.67138346045E+02  0.71346354663E+03  0.15294330000E+03 0.  0.
<mgrwt>
<rscale>  0 0.71029760E+03</rscale>
<asrwt>0</asrwt>
<pdfrwt beam="1">  1        1 0.71160567E-01 0.71029760E+03</pdfrwt>
<pdfrwt beam="2">  1       -1 0.31832176E+00 0.71029760E+03</pdfrwt>
<totfact> 0.13178506E+00</totfact>
</mgrwt>
</event>
<event>
 4    1  0.4964158E-009  0.1339584E+04  0.7818608E-02  0.8998751E-01
          1   -1    0    0  501    0  0.00000000000E+00  0.00000000000E+00  0.12150222454E+04  0.12150222454E+04  0.50400000000E-02 0. -1.
         -1   -1    0    0    0  501 -0.00000000000E+00 -0.00000000000E+00 -0.20571088106E+04  0.20571088106E+04  0.50400000000E-02 0.  1.
    8880022    1    1    2    0    0 -0.25640083044E+03  0.13058910291E+04  0.44783442973E+03  0.14124588827E+04  0.15294330000E+03 0.  0.
    8880022    1    1    2    0    0  0.25640083044E+03 -0.13058910291E+04 -0.12899209949E+04  0.18596721733E+04  0.15294330000E+03 0.  0.
<mgrwt>
<rscale>  0 0.13395837E+04</rscale>
<asrwt>0</asrwt>
<pdfrwt beam="1">  1        1 0.18692650E+00 0.13395837E+04</pdfrwt>
<pdfrwt beam="2">  1       -1 0.31647828E+00 0.13395837E+04</pdfrwt>
<totfact> 0.26003373E-01</totfact>
</mgrwt>
</event>
<event>
 4    1  0.4964158E-009  0.4600741E+03  0.7818608E-02  0.1024760E+00
          1   -1    0    0  501    0  0.00000000000E+00  0.00000000000E+00  0.24988172028E+04  0.24988172028E+04  0.50400000000E-02 0. -1.
         -1   -1    0    0    0  501 -0.00000000000E+00 -0.00000000000E+00 -0.39512510149E+03  0.39512510152E+03  0.50400000000E-02 0.  1.
    8880022    1    1    2    0    0 -0.43149595105E+03  0.45692001416E+02 -0.23067895491E+03  0.51466586056E+03  0.15294330000E+03 0.  0.
    8880022    1    1    2    0    0  0.43149595105E+03 -0.45692001416E+02  0.23343710562E+04  0.23792764438E+04  0.15294330000E+03 0.  0.
<mgrwt>
<rscale>  0 0.46007409E+03</rscale>
<asrwt>0</asrwt>
<pdfrwt beam="1">  1        1 0.38443342E+00 0.46007409E+03</pdfrwt>
<pdfrwt beam="2">  1       -1 0.60788476E-01 0.46007409E+03</pdfrwt>
<totfact> 0.42340536E+00</totfact>
</mgrwt>
</event>
<event>
 4    1  0.4964158E-009  0.1106260E+04  0.7818608E-02  0.9199112E-01
         -1   -1    0    0    0  501 -0.00000000000E+00  0.00000000000E+00  0.76345608119E+03  0.76345608120E+03  0.50400000000E-02 0.  1.
          1   -1    0    0  501    0  0.00000000000E+00 -0.00000000000E+00 -0.24661710072E+04  0.24661710072E+04  0.50400000000E-02 0. -1.
    8880022    1    1    2    0    0  0.10928980575E+04  0.77414274663E+02  0.10399203527E+03  0.11111368640E+04  0.15294330000E+03 0.  0.
    8880022    1    1    2    0    0 -0.10928980575E+04 -0.77414274663E+02 -0.18067069613E+04  0.21184902245E+04  0.15294330000E+03 0.  0.
<mgrwt>
<rscale>  0 0.11062598E+04</rscale>
<asrwt>0</asrwt>
<pdfrwt beam="1">  1        1 0.37941092E+00 0.11062598E+04</pdfrwt>
<pdfrwt beam="2">  1       -1 0.11745478E+00 0.11062598E+04</pdfrwt>
<totfact> 0.93411733E-01</totfact>
</mgrwt>
</event>
<event>
 4    1  0.4964158E-009  0.7618632E+03  0.7818608E-02  0.9616921E-01
          1   -1    0    0  501    0  0.00000000000E+00  0.00000000000E+00  0.87261386863E+03  0.87261386864E+03  0.50400000000E-02 0. -1.
         -1   -1    0    0    0  501 -0.00000000000E+00 -0.00000000000E+00 -0.49452940869E+04  0.49452940869E+04  0.50400000000E-02 0.  1.
    8880022    1    1    2    0    0  0.72787785387E+03  0.16503854913E+03  0.66991683503E+03  0.10145068318E+04  0.15294330000E+03 0.  0.
    8880022    1    1    2    0    0 -0.72787785387E+03 -0.16503854913E+03 -0.47425970533E+04  0.48034011237E+04  0.15294330000E+03 0.  0.
<mgrwt>
<rscale>  0 0.76186321E+03</rscale>
<asrwt>0</asrwt>
<pdfrwt beam="1">  1        1 0.13424829E+00 0.76186321E+03</pdfrwt>
<pdfrwt beam="2">  1       -1 0.76081446E+00 0.76186321E+03</pdfrwt>
<totfact> 0.24285690E-03</totfact>
</mgrwt>
</event>
<event>
 4    1  0.4964158E-009  0.1779705E+04  0.7818608E-02  0.8717167E-01
          1   -1    0    0  501    0  0.00000000000E+00  0.00000000000E+00  0.28062930765E+04  0.28062930765E+04  0.50400000000E-02 0. -1.
         -1   -1    0    0    0  501 -0.00000000000E+00 -0.00000000000E+00 -0.12343347254E+04  0.12343347254E+04  0.50400000000E-02 0.  1.
    8880022    1    1    2    0    0  0.14558652022E+04 -0.10121331471E+04  0.13771179916E+04  0.22502894503E+04  0.15294330000E+03 0.  0.
    8880022    1    1    2    0    0 -0.14558652022E+04  0.10121331471E+04  0.19484035943E+03  0.17903383516E+04  0.15294330000E+03 0.  0.
<mgrwt>
<rscale>  0 0.17797047E+04</rscale>
<asrwt>0</asrwt>
<pdfrwt beam="1">  1        1 0.43173740E+00 0.17797047E+04</pdfrwt>
<pdfrwt beam="2">  1       -1 0.18989765E+00 0.17797047E+04</pdfrwt>
<totfact> 0.13386002E-01</totfact>
</mgrwt>
</event>
<event>
 4    1  0.4964158E-009  0.5340486E+03  0.7818608E-02  0.1005255E+00
          1   -1    0    0  501    0  0.00000000000E+00  0.00000000000E+00  0.18279936278E+04  0.18279936278E+04  0.50400000000E-02 0. -1.
         -1   -1    0    0    0  501 -0.00000000000E+00 -0.00000000000E+00 -0.43119124857E+03  0.43119124860E+03  0.50400000000E-02 0.  1.
    8880022    1    1    2    0    0 -0.32755487431E+03  0.39309553572E+03  0.16007749175E+04  0.16875094919E+04  0.15294330000E+03 0.  0.
    8880022    1    1    2    0    0  0.32755487431E+03 -0.39309553572E+03 -0.20397253822E+03  0.57167538451E+03  0.15294330000E+03 0.  0.
<mgrwt>
<rscale>  0 0.53404864E+03</rscale>
<asrwt>0</asrwt>
<pdfrwt beam="1">  1        1 0.28122979E+00 0.53404864E+03</pdfrwt>
<pdfrwt beam="2">  1       -1 0.66337115E-01 0.53404864E+03</pdfrwt>
<totfact> 0.97563587E+00</totfact>
</mgrwt>
</event>
<event>
 4    1  0.4964158E-009  0.1313523E+04  0.7818608E-02  0.9018909E-01
         -1   -1    0    0    0  501 -0.00000000000E+00  0.00000000000E+00  0.12533466319E+04  0.12533466320E+04  0.50400000000E-02 0.  1.
          1   -1    0    0  501    0  0.00000000000E+00 -0.00000000000E+00 -0.23208327573E+04  0.23208327573E+04  0.50400000000E-02 0. -1.
    8880022    1    1    2    0    0 -0.12663780705E+04  0.31343061858E+03  0.60615593552E+03  0.14466405363E+04  0.15294330000E+03 0.  0.
    8880022    1    1    2    0    0  0.12663780705E+04 -0.31343061858E+03 -0.16736420608E+04  0.21275388530E+04  0.15294330000E+03 0.  0.
<mgrwt>
<rscale>  0 0.13135234E+04</rscale>
<asrwt>0</asrwt>
<pdfrwt beam="1">  1        1 0.35705119E+00 0.13135234E+04</pdfrwt>
<pdfrwt beam="2">  1       -1 0.19282256E+00 0.13135234E+04</pdfrwt>
<totfact> 0.29439918E-01</totfact>
</mgrwt>
</event>
<event>
 4    1  0.4964158E-009  0.2940849E+03  0.7818608E-02  0.1088235E+00
          1   -1    0    0  501    0  0.00000000000E+00  0.00000000000E+00  0.37981264852E+04  0.37981264852E+04  0.50400000000E-02 0. -1.
         -1   -1    0    0    0  501 -0.00000000000E+00 -0.00000000000E+00 -0.20120127253E+03  0.20120127259E+03  0.50400000000E-02 0.  1.
    8880022    1    1    2    0    0  0.12475978950E+03 -0.21801203048E+03  0.36815752754E+04  0.36933023722E+04  0.15294330000E+03 0.  0.
    8880022    1    1    2    0    0 -0.12475978950E+03  0.21801203048E+03 -0.84650062760E+02  0.30602538563E+03  0.15294330000E+03 0.  0.
<mgrwt>
<rscale>  0 0.29408486E+03</rscale>
<asrwt>0</asrwt>
<pdfrwt beam="1">  1        1 0.58432712E+00 0.29408486E+03</pdfrwt>
<pdfrwt beam="2">  1       -1 0.30954043E-01 0.29408486E+03</pdfrwt>
<totfact> 0.17749004E+00</totfact>
</mgrwt>
</event>
<event>
 4    1  0.4964158E-009  0.1036565E+04  0.7818608E-02  0.9269326E-01
         -1   -1    0    0    0  501 -0.00000000000E+00  0.00000000000E+00  0.95733254981E+03  0.95733254983E+03  0.50400000000E-02 0.  1.
          1   -1    0    0  501    0  0.00000000000E+00 -0.00000000000E+00 -0.14236299003E+04  0.14236299003E+04  0.50400000000E-02 0. -1.
    8880022    1    1    2    0    0  0.54383053359E+03  0.86909355700E+03 -0.78080173907E+03  0.12977358240E+04  0.15294330000E+03 0.  0.
    8880022    1    1    2    0    0 -0.54383053359E+03 -0.86909355700E+03  0.31450438861E+03  0.10832266261E+04  0.15294330000E+03 0.  0.
<mgrwt>
<rscale>  0 0.10365650E+04</rscale>
<asrwt>0</asrwt>
<pdfrwt beam="1">  1        1 0.21901999E+00 0.10365650E+04</pdfrwt>
<pdfrwt beam="2">  1       -1 0.14728193E+00 0.10365650E+04</pdfrwt>
<totfact> 0.27103885E+00</totfact>
</mgrwt>
</event>
<event>
 4    1  0.4964158E-009  0.4869310E+03  0.7818608E-02  0.1017248E+00
         -1   -1    0    0    0  501 -0.00000000000E+00  0.00000000000E+00  0.71754046091E+02  0.71754046268E+02  0.50400000000E-02 0.  1.
          1   -1    0    0  501    0  0.00000000000E+00 -0.00000000000E+00 -0.34401540243E+04  0.34401540243E+04  0.50400000000E-02 0. -1.
    8880022    1    1    2    0    0 -0.45404176171E+03 -0.86926468659E+02 -0.13353397413E+04  0.14213493624E+04  0.15294330000E+03 0.  0.
    8880022    1    1    2    0    0  0.45404176171E+03  0.86926468659E+02 -0.20330602369E+04  0.20905587081E+04  0.15294330000E+03 0.  0.
<mgrwt>
<rscale>  0 0.48693099E+03</rscale>
<asrwt>0</asrwt>
<pdfrwt beam="1">  1        1 0.52925434E+00 0.48693099E+03</pdfrwt>
<pdfrwt beam="2">  1       -1 0.11039087E-01 0.48693099E+03</pdfrwt>
<totfact> 0.16961751E+01</totfact>
</mgrwt>
</event>
<event>
 4    1  0.4964158E-009  0.2285294E+03  0.7818608E-02  0.1127679E+00
          1   -1    0    0  501    0  0.00000000000E+00  0.00000000000E+00  0.27524764394E+04  0.27524764394E+04  0.50400000000E-02 0. -1.
         -1   -1    0    0    0  501 -0.00000000000E+00 -0.00000000000E+00 -0.10003778924E+03  0.10003778937E+03  0.50400000000E-02 0.  1.
    8880022    1    1    2    0    0  0.93729225403E+02 -0.14159396240E+03  0.26101129820E+04  0.26200983664E+04  0.15294330000E+03 0.  0.
    8880022    1    1    2    0    0 -0.93729225403E+02  0.14159396240E+03  0.42325668181E+02  0.23241586238E+03  0.15294330000E+03 0.  1.
<mgrwt>
<rscale>  0 0.22852937E+03</rscale>
<asrwt>0</asrwt>
<pdfrwt beam="1">  1        1 0.42345795E+00 0.22852937E+03</pdfrwt>
<pdfrwt beam="2">  1       -1 0.15390428E-01 0.22852937E+03</pdfrwt>
<totfact> 0.33874682E+01</totfact>
</mgrwt>
</event>
<event>
 4    1  0.4964158E-009  0.1484425E+04  0.7818608E-02  0.8894877E-01
         -1   -1    0    0    0  501 -0.00000000000E+00  0.00000000000E+00  0.17234904053E+04  0.17234904053E+04  0.50400000000E-02 0.  1.
          1   -1    0    0  501    0  0.00000000000E+00 -0.00000000000E+00 -0.17499769029E+04  0.17499769029E+04  0.50400000000E-02 0. -1.
    8880022    1    1    2    0    0  0.52134396880E+03 -0.13814215280E+04 -0.91468599596E+03  0.17436074948E+04  0.15294330000E+03 0.  0.
    8880022    1    1    2    0    0 -0.52134396880E+03  0.13814215280E+04  0.88819949834E+03  0.17298598133E+04  0.15294330000E+03 0.  0.
<mgrwt>
<rscale>  0 0.14844247E+04</rscale>
<asrwt>0</asrwt>
<pdfrwt beam="1">  1        1 0.26922722E+00 0.14844247E+04</pdfrwt>
<pdfrwt beam="2">  1       -1 0.26515237E+00 0.14844247E+04</pdfrwt>
<totfact> 0.23151215E-01</totfact>
</mgrwt>
</event>
<event>
 4    1  0.4964158E-009  0.6452972E+03  0.7818608E-02  0.9815644E-01
          1   -1    0    0  501    0  0.00000000000E+00  0.00000000000E+00  0.14968114418E+04  0.14968114418E+04  0.50400000000E-02 0. -1.
         -1   -1    0    0    0  501 -0.00000000000E+00 -0.00000000000E+00 -0.63999313829E+03  0.63999313831E+03  0.50400000000E-02 0.  1.
    8880022    1    1    2    0    0  0.53286939581E+03  0.33025290624E+03  0.12317116632E+04  0.13905114345E+04  0.15294330000E+03 0. -1.
    8880022    1    1    2    0    0 -0.53286939581E+03 -0.33025290624E+03 -0.37489335971E+03  0.74629314565E+03  0.15294330000E+03 0.  0.
<mgrwt>
<rscale>  0 0.64529716E+03</rscale>
<asrwt>0</asrwt>
<pdfrwt beam="1">  1        1 0.23027868E+00 0.64529716E+03</pdfrwt>
<pdfrwt beam="2">  1       -1 0.98460484E-01 0.64529716E+03</pdfrwt>
<totfact> 0.68777631E+00</totfact>
</mgrwt>
</event>
<event>
 4    1  0.4964158E-009  0.7246605E+03  0.7818608E-02  0.9675965E-01
          1   -1    0    0  501    0  0.00000000000E+00  0.00000000000E+00  0.98120858814E+03  0.98120858815E+03  0.50400000000E-02 0. -1.
         -1   -1    0    0    0  501 -0.00000000000E+00 -0.00000000000E+00 -0.14481099552E+04  0.14481099552E+04  0.50400000000E-02 0.  1.
    8880022    1    1    2    0    0  0.14062301444E+02  0.70819731468E+03 -0.11978793157E+04  0.14000170330E+04  0.15294330000E+03 0.  0.
    8880022    1    1    2    0    0 -0.14062301444E+02 -0.70819731468E+03  0.73097794860E+03  0.10293015103E+04  0.15294330000E+03 0.  0.
<mgrwt>
<rscale>  0 0.72466050E+03</rscale>
<asrwt>0</asrwt>
<pdfrwt beam="1">  1        1 0.15095517E+00 0.72466050E+03</pdfrwt>
<pdfrwt beam="2">  1       -1 0.22278615E+00 0.72466050E+03</pdfrwt>
<totfact> 0.17343605E+00</totfact>
</mgrwt>
</event>
<event>
 4    1  0.4964158E-009  0.9065885E+03  0.7818608E-02  0.9417383E-01
          1   -1    0    0  501    0  0.00000000000E+00  0.00000000000E+00  0.18207956492E+04  0.18207956492E+04  0.50400000000E-02 0. -1.
         -1   -1    0    0    0  501 -0.00000000000E+00 -0.00000000000E+00 -0.85833156649E+03  0.85833156650E+03  0.50400000000E-02 0.  1.
    8880022    1    1    2    0    0 -0.84291157646E+03 -0.29666655199E+03 -0.44112234429E+03  0.10082120533E+04  0.15294330000E+03 0.  0.
    8880022    1    1    2    0    0  0.84291157646E+03  0.29666655199E+03  0.14035864270E+04  0.16709151624E+04  0.15294330000E+03 0.  0.
<mgrwt>
<rscale>  0 0.90658845E+03</rscale>
<asrwt>0</asrwt>
<pdfrwt beam="1">  1        1 0.28012241E+00 0.90658845E+03</pdfrwt>
<pdfrwt beam="2">  1       -1 0.13205101E+00 0.90658845E+03</pdfrwt>
<totfact> 0.19662990E+00</totfact>
</mgrwt>
</event>
<event>
 4    1  0.5545762E-009  0.1071576E+04  0.7818608E-02  0.9233347E-01
         -1   -1    0    0    0  501 -0.00000000000E+00  0.00000000000E+00  0.12692175743E+04  0.12692175743E+04  0.50400000000E-02 0.  1.
          1   -1    0    0  501    0  0.00000000000E+00 -0.00000000000E+00 -0.21493540356E+04  0.21493540356E+04  0.50400000000E-02 0. -1.
    8880022    1    1    2    0    0 -0.19000227543E+03  0.10434475582E+04  0.86064956889E+03  0.13744064191E+04  0.15294330000E+03 0.  0.
    8880022    1    1    2    0    0  0.19000227543E+03 -0.10434475582E+04 -0.17407860302E+04  0.20441651908E+04  0.15294330000E+03 0.  0.
<mgrwt>
<rscale>  0 0.10715761E+04</rscale>
<asrwt>0</asrwt>
<pdfrwt beam="1">  1        1 0.33066985E+00 0.10715761E+04</pdfrwt>
<pdfrwt beam="2">  1       -1 0.19526424E+00 0.10715761E+04</pdfrwt>
<totfact> 0.38375866E-01</totfact>
</mgrwt>
</event>
<event>
 4    1  0.4964158E-009  0.6820377E+03  0.7818608E-02  0.9748453E-01
         -1   -1    0    0    0  501 -0.00000000000E+00  0.00000000000E+00  0.82841298146E+03  0.82841298148E+03  0.50400000000E-02 0.  1.
          1   -1    0    0  501    0  0.00000000000E+00 -0.00000000000E+00 -0.94362147971E+03  0.94362147972E+03  0.50400000000E-02 0. -1.
    8880022    1    1    2    0    0  0.21937456770E+03  0.62742218145E+03 -0.62140960222E+03  0.92267293310E+03  0.15294330000E+03 0.  0.
    8880022    1    1    2    0    0 -0.21937456770E+03 -0.62742218145E+03  0.50620110397E+03  0.84936152810E+03  0.15294330000E+03 0.  0.
<mgrwt>
<rscale>  0 0.68203772E+03</rscale>
<asrwt>0</asrwt>
<pdfrwt beam="1">  1        1 0.14517254E+00 0.68203772E+03</pdfrwt>
<pdfrwt beam="2">  1       -1 0.12744815E+00 0.68203772E+03</pdfrwt>
<totfact> 0.93240560E+00</totfact>
</mgrwt>
</event>
<event>
 4    1  0.4964158E-009  0.4994288E+03  0.7818608E-02  0.1013928E+00
          1   -1    0    0  501    0  0.00000000000E+00  0.00000000000E+00  0.27955318347E+04  0.27955318347E+04  0.50400000000E-02 0. -1.
         -1   -1    0    0    0  501 -0.00000000000E+00 -0.00000000000E+00 -0.24419510238E+03  0.24419510243E+03  0.50400000000E-02 0.  1.
    8880022    1    1    2    0    0  0.21886406030E+03  0.42206165276E+03  0.64899781305E+02  0.50362798796E+03  0.15294330000E+03 0.  0.
    8880022    1    1    2    0    0 -0.21886406030E+03 -0.42206165276E+03  0.24864369510E+04  0.25360989492E+04  0.15294330000E+03 0.  0.
<mgrwt>
<rscale>  0 0.49942884E+03</rscale>
<asrwt>0</asrwt>
<pdfrwt beam="1">  1        1 0.43008181E+00 0.49942884E+03</pdfrwt>
<pdfrwt beam="2">  1       -1 0.37568478E-01 0.49942884E+03</pdfrwt>
<totfact> 0.64354394E+00</totfact>
</mgrwt>
</event>
<event>
 4    1  0.4964158E-009  0.1171510E+04  0.7818608E-02  0.9138166E-01
         -1   -1    0    0    0  501 -0.00000000000E+00  0.00000000000E+00  0.73689299440E+03  0.73689299441E+03  0.50400000000E-02 0.  1.
          1   -1    0    0  501    0  0.00000000000E+00 -0.00000000000E+00 -0.25766591498E+04  0.25766591498E+04  0.50400000000E-02 0. -1.
    8880022    1    1    2    0    0 -0.81997895309E+03 -0.82260417786E+03 -0.17921402745E+04  0.21410748547E+04  0.15294330000E+03 0.  0.
    8880022    1    1    2    0    0  0.81997895309E+03  0.82260417786E+03 -0.47625880943E+02  0.11724772895E+04  0.15294330000E+03 0.  0.
<mgrwt>
<rscale>  0 0.11715096E+04</rscale>
<asrwt>0</asrwt>
<pdfrwt beam="1">  1        1 0.39640910E+00 0.11715096E+04</pdfrwt>
<pdfrwt beam="2">  1       -1 0.11336815E+00 0.11715096E+04</pdfrwt>
<totfact> 0.84571632E-01</totfact>
</mgrwt>
</event>
<event>
 4    1  0.4964158E-009  0.7193753E+03  0.7818608E-02  0.9684660E-01
         -1   -1    0    0    0  501 -0.00000000000E+00  0.00000000000E+00  0.10467368119E+04  0.10467368119E+04  0.50400000000E-02 0.  1.
          1   -1    0    0  501    0  0.00000000000E+00 -0.00000000000E+00 -0.83626023475E+03  0.83626023476E+03  0.50400000000E-02 0. -1.
    8880022    1    1    2    0    0  0.23999402145E+03  0.66069059648E+03  0.70721092826E+03  0.10087854800E+04  0.15294330000E+03 0.  0.
    8880022    1    1    2    0    0 -0.23999402145E+03 -0.66069059648E+03 -0.49673435114E+03  0.87421156663E+03  0.15294330000E+03 0.  0.
<mgrwt>
<rscale>  0 0.71937532E+03</rscale>
<asrwt>0</asrwt>
<pdfrwt beam="1">  1        1 0.12865542E+00 0.71937532E+03</pdfrwt>
<pdfrwt beam="2">  1       -1 0.16103643E+00 0.71937532E+03</pdfrwt>
<totfact> 0.61357778E+00</totfact>
</mgrwt>
</event>
<event>
 4    1  0.4964158E-009  0.1773450E+04  0.7818608E-02  0.8720547E-01
          1   -1    0    0  501    0  0.00000000000E+00  0.00000000000E+00  0.49265008341E+04  0.49265008341E+04  0.50400000000E-02 0. -1.
         -1   -1    0    0    0  501 -0.00000000000E+00 -0.00000000000E+00 -0.16963573656E+04  0.16963573656E+04  0.50400000000E-02 0.  1.
    8880022    1    1    2    0    0  0.16586405823E+04  0.60880484493E+03 -0.10000323353E+04  0.20359735374E+04  0.15294330000E+03 0.  0.
    8880022    1    1    2    0    0 -0.16586405823E+04 -0.60880484493E+03  0.42301758038E+04  0.45868846622E+04  0.15294330000E+03 0.  0.
<mgrwt>
<rscale>  0 0.17734496E+04</rscale>
<asrwt>0</asrwt>
<pdfrwt beam="1">  1        1 0.75792321E+00 0.17734496E+04</pdfrwt>
<pdfrwt beam="2">  1       -1 0.26097806E+00 0.17734496E+04</pdfrwt>
<totfact> 0.58720588E-04</totfact>
</mgrwt>
</event>
<event>
 4    1  0.4964158E-009  0.2655250E+03  0.7818608E-02  0.1103868E+00
         -1   -1    0    0    0  501 -0.00000000000E+00  0.00000000000E+00  0.78107232159E+03  0.78107232160E+03  0.50400000000E-02 0.  1.
          1   -1    0    0  501    0  0.00000000000E+00 -0.00000000000E+00 -0.13330655495E+04  0.13330655495E+04  0.50400000000E-02 0. -1.
    8880022    1    1    2    0    0 -0.74408893198E+02  0.20389998392E+03  0.74465673655E+03  0.79058029013E+03  0.15294330000E+03 0.  0.
    8880022    1    1    2    0    0  0.74408893198E+02 -0.20389998392E+03 -0.12966499645E+04  0.13235575810E+04  0.15294330000E+03 0. -1.
<mgrwt>
<rscale>  0 0.26552503E+03</rscale>
<asrwt>0</asrwt>
<pdfrwt beam="1">  1        1 0.20508701E+00 0.26552503E+03</pdfrwt>
<pdfrwt beam="2">  1       -1 0.12016497E+00 0.26552503E+03</pdfrwt>
<totfact> 0.62510874E+00</totfact>
</mgrwt>
</event>
<event>
 4    1  0.4964158E-009  0.9863010E+03  0.7818608E-02  0.9323699E-01
          1   -1    0    0  501    0  0.00000000000E+00  0.00000000000E+00  0.27275960456E+04  0.27275960456E+04  0.50400000000E-02 0. -1.
         -1   -1    0    0    0  501 -0.00000000000E+00 -0.00000000000E+00 -0.69635680722E+03  0.69635680724E+03  0.50400000000E-02 0.  1.
    8880022    1    1    2    0    0 -0.96996475700E+03  0.92554598893E+02 -0.18011760218E+03  0.10026125808E+04  0.15294330000E+03 0.  0.
    8880022    1    1    2    0    0  0.96996475700E+03 -0.92554598893E+02  0.22113568406E+04  0.24213402720E+04  0.15294330000E+03 0.  0.
<mgrwt>
<rscale>  0 0.98630099E+03</rscale>
<asrwt>0</asrwt>
<pdfrwt beam="1">  1        1 0.41963016E+00 0.98630099E+03</pdfrwt>
<pdfrwt beam="2">  1       -1 0.10713182E+00 0.98630099E+03</pdfrwt>
<totfact> 0.78109541E-01</totfact>
</mgrwt>
</event>
<event>
 4    1  0.4964158E-009  0.5578607E+03  0.7818608E-02  0.9996907E-01
          1   -1    0    0  501    0  0.00000000000E+00  0.00000000000E+00  0.15939988990E+04  0.15939988990E+04  0.50400000000E-02 0. -1.
         -1   -1    0    0    0  501 -0.00000000000E+00 -0.00000000000E+00 -0.26066508128E+03  0.26066508133E+03  0.50400000000E-02 0.  1.
    8880022    1    1    2    0    0 -0.22659306205E+03  0.48628434762E+03  0.11312612129E+04  0.12613328138E+04  0.15294330000E+03 0.  0.
    8880022    1    1    2    0    0  0.22659306205E+03 -0.48628434762E+03  0.20207260487E+03  0.59333116652E+03  0.15294330000E+03 0.  0.
<mgrwt>
<rscale>  0 0.55786068E+03</rscale>
<asrwt>0</asrwt>
<pdfrwt beam="1">  1        1 0.24523060E+00 0.55786068E+03</pdfrwt>
<pdfrwt beam="2">  1       -1 0.40102320E-01 0.55786068E+03</pdfrwt>
<totfact> 0.36185638E+01</totfact>
</mgrwt>
</event>
<event>
 4    1  0.4964158E-009  0.6211956E+03  0.7818608E-02  0.9862382E-01
         -1   -1    0    0    0  501 -0.00000000000E+00  0.00000000000E+00  0.44316421534E+03  0.44316421537E+03  0.50400000000E-02 0.  1.
          1   -1    0    0  501    0  0.00000000000E+00 -0.00000000000E+00 -0.12541858049E+04  0.12541858049E+04  0.50400000000E-02 0. -1.
    8880022    1    1    2    0    0  0.34080694439E+03  0.49632946532E+03  0.63743694979E+02  0.62445754312E+03  0.15294330000E+03 0.  0.
    8880022    1    1    2    0    0 -0.34080694439E+03 -0.49632946532E+03 -0.87476528449E+03  0.10728924771E+04  0.15294330000E+03 0. -1.
<mgrwt>
<rscale>  0 0.62119559E+03</rscale>
<asrwt>0</asrwt>
<pdfrwt beam="1">  1        1 0.19295166E+00 0.62119559E+03</pdfrwt>
<pdfrwt beam="2">  1       -1 0.68179110E-01 0.62119559E+03</pdfrwt>
<totfact> 0.22306367E+01</totfact>
</mgrwt>
</event>
<event>
 4    1  0.4964158E-009  0.4670379E+03  0.7818608E-02  0.1022760E+00
          1   -1    0    0  501    0  0.00000000000E+00  0.00000000000E+00  0.24808932207E+04  0.24808932207E+04  0.50400000000E-02 0. -1.
         -1   -1    0    0    0  501 -0.00000000000E+00 -0.00000000000E+00 -0.22549537747E+03  0.22549537753E+03  0.50400000000E-02 0.  1.
    8880022    1    1    2    0    0  0.43942931348E+03 -0.40430132243E+02  0.21846600067E+04  0.22340241079E+04  0.15294330000E+03 0.  0.
    8880022    1    1    2    0    0 -0.43942931348E+03  0.40430132243E+02  0.70737836549E+02  0.47236449028E+03  0.15294330000E+03 0.  0.
<mgrwt>
<rscale>  0 0.46703787E+03</rscale>
<asrwt>0</asrwt>
<pdfrwt beam="1">  1        1 0.38167588E+00 0.46703787E+03</pdfrwt>
<pdfrwt beam="2">  1       -1 0.34691597E-01 0.46703787E+03</pdfrwt>
<totfact> 0.12269298E+01</totfact>
</mgrwt>
</event>
<event>
 4    1  0.4964158E-009  0.2342411E+03  0.7818608E-02  0.1123690E+00
         -1   -1    0    0    0  501 -0.00000000000E+00  0.00000000000E+00  0.33326765706E+03  0.33326765709E+03  0.50400000000E-02 0.  1.
          1   -1    0    0  501    0  0.00000000000E+00 -0.00000000000E+00 -0.17620400975E+04  0.17620400976E+04  0.50400000000E-02 0. -1.
    8880022    1    1    2    0    0 -0.17661309630E+03 -0.16883580151E+02 -0.17118954065E+04  0.17278468615E+04  0.15294330000E+03 0.  0.
    8880022    1    1    2    0    0  0.17661309630E+03  0.16883580151E+02  0.28312296602E+03  0.36746089311E+03  0.15294330000E+03 0.  1.
<mgrwt>
<rscale>  0 0.23424110E+03</rscale>
<asrwt>0</asrwt>
<pdfrwt beam="1">  1        1 0.27108309E+00 0.23424110E+03</pdfrwt>
<pdfrwt beam="2">  1       -1 0.51271948E-01 0.23424110E+03</pdfrwt>
<totfact> 0.19495083E+01</totfact>
</mgrwt>
</event>
<event>
 4    1  0.4964158E-009  0.1097276E+04  0.7818608E-02  0.9207851E-01
          1   -1    0    0  501    0  0.00000000000E+00  0.00000000000E+00  0.18025363418E+04  0.18025363418E+04  0.50400000000E-02 0. -1.
         -1   -1    0    0    0  501 -0.00000000000E+00 -0.00000000000E+00 -0.12191484830E+04  0.12191484830E+04  0.50400000000E-02 0.  1.
    8880022    1    1    2    0    0  0.47277265454E+03 -0.97831984508E+03  0.13075739621E+04  0.17069754016E+04  0.15294330000E+03 0.  0.
    8880022    1    1    2    0    0 -0.47277265454E+03  0.97831984508E+03 -0.72418610336E+03  0.13147094232E+04  0.15294330000E+03 0.  0.
<mgrwt>
<rscale>  0 0.10972763E+04</rscale>
<asrwt>0</asrwt>
<pdfrwt beam="1">  1        1 0.27731328E+00 0.10972763E+04</pdfrwt>
<pdfrwt beam="2">  1       -1 0.18756131E+00 0.10972763E+04</pdfrwt>
<totfact> 0.74207541E-01</totfact>
</mgrwt>
</event>
<event>
 4    1  0.4964158E-009  0.6214492E+03  0.7818608E-02  0.9861879E-01
         -1   -1    0    0    0  501 -0.00000000000E+00  0.00000000000E+00  0.29388797458E+03  0.29388797463E+03  0.50400000000E-02 0.  1.
          1   -1    0    0  501    0  0.00000000000E+00 -0.00000000000E+00 -0.25146552156E+04  0.25146552156E+04  0.50400000000E-02 0. -1.
    8880022    1    1    2    0    0 -0.33315514206E+03 -0.50181177825E+03 -0.20806755484E+04  0.21714994360E+04  0.15294330000E+03 0.  0.
    8880022    1    1    2    0    0  0.33315514206E+03  0.50181177825E+03 -0.14009169253E+03  0.63704375423E+03  0.15294330000E+03 0.  0.
<mgrwt>
<rscale>  0 0.62144916E+03</rscale>
<asrwt>0</asrwt>
<pdfrwt beam="1">  1        1 0.38687002E+00 0.62144916E+03</pdfrwt>
<pdfrwt beam="2">  1       -1 0.45213536E-01 0.62144916E+03</pdfrwt>
<totfact> 0.69575862E+00</totfact>
</mgrwt>
</event>
<event>
 4    1  0.4964158E-009  0.4134438E+03  0.7818608E-02  0.1039221E+00
          1   -1    0    0  501    0  0.00000000000E+00  0.00000000000E+00  0.16797192867E+04  0.16797192867E+04  0.50400000000E-02 0. -1.
         -1   -1    0    0    0  501 -0.00000000000E+00 -0.00000000000E+00 -0.40371952373E+03  0.40371952376E+03  0.50400000000E-02 0.  1.
    8880022    1    1    2    0    0 -0.13506060307E+03  0.35958696728E+03  0.15389111152E+04  0.15934814800E+04  0.15294330000E+03 0.  0.
    8880022    1    1    2    0    0  0.13506060307E+03 -0.35958696728E+03 -0.26291135224E+03  0.48995733048E+03  0.15294330000E+03 0.  0.
<mgrwt>
<rscale>  0 0.41344384E+03</rscale>
<asrwt>0</asrwt>
<pdfrwt beam="1">  1        1 0.25841835E+00 0.41344384E+03</pdfrwt>
<pdfrwt beam="2">  1       -1 0.62110697E-01 0.41344384E+03</pdfrwt>
<totfact> 0.14361062E+01</totfact>
</mgrwt>
</event>
<event>
 4    1  0.4964158E-009  0.4946793E+03  0.7818608E-02  0.1015177E+00
          1   -1    0    0  501    0  0.00000000000E+00  0.00000000000E+00  0.19525941011E+03  0.19525941018E+03  0.50400000000E-02 0. -1.
         -1   -1    0    0    0  501 -0.00000000000E+00 -0.00000000000E+00 -0.15569154752E+04  0.15569154752E+04  0.50400000000E-02 0.  1.
    8880022    1    1    2    0    0  0.30474032966E+03  0.35839819813E+03 -0.10677445611E+04  0.11767693222E+04  0.15294330000E+03 0.  0.
    8880022    1    1    2    0    0 -0.30474032966E+03 -0.35839819813E+03 -0.29391150400E+03  0.57540556318E+03  0.15294330000E+03 0. -1.
<mgrwt>
<rscale>  0 0.49467928E+03</rscale>
<asrwt>0</asrwt>
<pdfrwt beam="1">  1        1 0.30039910E-01 0.49467928E+03</pdfrwt>
<pdfrwt beam="2">  1       -1 0.23952545E+00 0.49467928E+03</pdfrwt>
<totfact> 0.13396793E+01</totfact>
</mgrwt>
</event>
<event>
 4    1  0.4964158E-009  0.1473574E+04  0.7818608E-02  0.8902219E-01
          1   -1    0    0  501    0  0.00000000000E+00  0.00000000000E+00  0.25225699690E+04  0.25225699690E+04  0.50400000000E-02 0. -1.
         -1   -1    0    0    0  501 -0.00000000000E+00 -0.00000000000E+00 -0.12470287150E+04  0.12470287150E+04  0.50400000000E-02 0.  1.
    8880022    1    1    2    0    0  0.12231499663E+04 -0.80742348004E+03 -0.41117015443E+03  0.15298630870E+04  0.15294330000E+03 0.  0.
    8880022    1    1    2    0    0 -0.12231499663E+04  0.80742348004E+03  0.16867114084E+04  0.22397355970E+04  0.15294330000E+03 0.  0.
<mgrwt>
<rscale>  0 0.14735739E+04</rscale>
<asrwt>0</asrwt>
<pdfrwt beam="1">  1        1 0.38808769E+00 0.14735739E+04</pdfrwt>
<pdfrwt beam="2">  1       -1 0.19185057E+00 0.14735739E+04</pdfrwt>
<totfact> 0.21271827E-01</totfact>
</mgrwt>
</event>
<event>
 4    1  0.4964158E-009  0.6213819E+03  0.7818608E-02  0.9862012E-01
         -1   -1    0    0    0  501 -0.00000000000E+00  0.00000000000E+00  0.13477413373E+03  0.13477413382E+03  0.50400000000E-02 0.  1.
          1   -1    0    0  501    0  0.00000000000E+00 -0.00000000000E+00 -0.33818841788E+04  0.33818841788E+04  0.50400000000E-02 0. -1.
    8880022    1    1    2    0    0  0.44739097506E+02 -0.60060156232E+03 -0.93608125156E+03  0.11235495477E+04  0.15294330000E+03 0.  0.
    8880022    1    1    2    0    0 -0.44739097506E+02  0.60060156232E+03 -0.23110287935E+04  0.23931087650E+04  0.15294330000E+03 0.  0.
<mgrwt>
<rscale>  0 0.62138191E+03</rscale>
<asrwt>0</asrwt>
<pdfrwt beam="1">  1        1 0.52028981E+00 0.62138191E+03</pdfrwt>
<pdfrwt beam="2">  1       -1 0.20734485E-01 0.62138191E+03</pdfrwt>
<totfact> 0.65531830E+00</totfact>
</mgrwt>
</event>
<event>
 4    1  0.4964158E-009  0.1474725E+04  0.7818608E-02  0.8901437E-01
          1   -1    0    0  501    0  0.00000000000E+00  0.00000000000E+00  0.22202999335E+04  0.22202999335E+04  0.50400000000E-02 0. -1.
         -1   -1    0    0    0  501 -0.00000000000E+00 -0.00000000000E+00 -0.19012092238E+04  0.19012092238E+04  0.50400000000E-02 0.  1.
    8880022    1    1    2    0    0 -0.10673489941E+04  0.10060757696E+04 -0.12752999459E+04  0.19496676472E+04  0.15294330000E+03 0.  0.
    8880022    1    1    2    0    0  0.10673489941E+04 -0.10060757696E+04  0.15943906556E+04  0.21718415101E+04  0.15294330000E+03 0.  0.
<mgrwt>
<rscale>  0 0.14747251E+04</rscale>
<asrwt>0</asrwt>
<pdfrwt beam="1">  1        1 0.34158461E+00 0.14747251E+04</pdfrwt>
<pdfrwt beam="2">  1       -1 0.29249373E+00 0.14747251E+04</pdfrwt>
<totfact> 0.73763157E-02</totfact>
</mgrwt>
</event>
<event>
 4    1  0.4964158E-009  0.7225554E+03  0.7818608E-02  0.9679418E-01
         -1   -1    0    0    0  501 -0.00000000000E+00  0.00000000000E+00  0.16229450305E+04  0.16229450305E+04  0.50400000000E-02 0.  1.
          1   -1    0    0  501    0  0.00000000000E+00 -0.00000000000E+00 -0.37001306573E+03  0.37001306576E+03  0.50400000000E-02 0. -1.
    8880022    1    1    2    0    0 -0.58508066834E+03  0.39544313289E+03  0.26635715802E+03  0.77008600069E+03  0.15294330000E+03 0.  0.
    8880022    1    1    2    0    0  0.58508066834E+03 -0.39544313289E+03  0.98657480676E+03  0.12228720956E+04  0.15294330000E+03 0.  0.
<mgrwt>
<rscale>  0 0.72255540E+03</rscale>
<asrwt>0</asrwt>
<pdfrwt beam="1">  1        1 0.56925086E-01 0.72255540E+03</pdfrwt>
<pdfrwt beam="2">  1       -1 0.24968386E+00 0.72255540E+03</pdfrwt>
<totfact> 0.48662023E+00</totfact>
</mgrwt>
</event>
<event>
 4    1  0.4964158E-009  0.6662427E+03  0.7818608E-02  0.9776769E-01
          1   -1    0    0  501    0  0.00000000000E+00  0.00000000000E+00  0.50619580391E+03  0.50619580394E+03  0.50400000000E-02 0. -1.
         -1   -1    0    0    0  501 -0.00000000000E+00 -0.00000000000E+00 -0.17216937684E+04  0.17216937684E+04  0.50400000000E-02 0.  1.
    8880022    1    1    2    0    0 -0.24497425398E+03  0.60039593082E+03 -0.13880514600E+04  0.15396643035E+04  0.15294330000E+03 0.  0.
    8880022    1    1    2    0    0  0.24497425398E+03 -0.60039593082E+03  0.17255349551E+03  0.68822526885E+03  0.15294330000E+03 0.  0.
<mgrwt>
<rscale>  0 0.66624268E+03</rscale>
<asrwt>0</asrwt>
<pdfrwt beam="1">  1        1 0.77876278E-01 0.66624268E+03</pdfrwt>
<pdfrwt beam="2">  1       -1 0.26487596E+00 0.66624268E+03</pdfrwt>
<totfact> 0.25789303E+00</totfact>
</mgrwt>
</event>
<event>
 4    1  0.4964158E-009  0.9887243E+03  0.7818608E-02  0.9320999E-01
          1   -1    0    0  501    0  0.00000000000E+00  0.00000000000E+00  0.37574146721E+04  0.37574146721E+04  0.50400000000E-02 0. -1.
         -1   -1    0    0    0  501 -0.00000000000E+00 -0.00000000000E+00 -0.76338850480E+03  0.76338850481E+03  0.50400000000E-02 0.  1.
    8880022    1    1    2    0    0  0.58845212637E+03 -0.77968472725E+03 -0.33821494852E+03  0.10449713792E+04  0.15294330000E+03 0.  0.
    8880022    1    1    2    0    0 -0.58845212637E+03  0.77968472725E+03  0.33322411158E+04  0.34758317977E+04  0.15294330000E+03 0.  0.
<mgrwt>
<rscale>  0 0.98872435E+03</rscale>
<asrwt>0</asrwt>
<pdfrwt beam="1">  1        1 0.57806381E+00 0.98872435E+03</pdfrwt>
<pdfrwt beam="2">  1       -1 0.11744438E+00 0.98872435E+03</pdfrwt>
<totfact> 0.10588317E-01</totfact>
</mgrwt>
</event>
<event>
 4    1  0.4964158E-009  0.1138179E+04  0.7818608E-02  0.9168759E-01
         -1   -1    0    0    0  501 -0.00000000000E+00  0.00000000000E+00  0.39097090492E+03  0.39097090495E+03  0.50400000000E-02 0.  1.
          1   -1    0    0  501    0  0.00000000000E+00 -0.00000000000E+00 -0.33521154562E+04  0.33521154562E+04  0.50400000000E-02 0. -1.
    8880022    1    1    2    0    0  0.96796654517E+03  0.57887810840E+03 -0.16816533971E+04  0.20306178611E+04  0.15294330000E+03 0.  0.
    8880022    1    1    2    0    0 -0.96796654517E+03 -0.57887810840E+03 -0.12794911542E+04  0.17124685000E+04  0.15294330000E+03 0.  0.
<mgrwt>
<rscale>  0 0.11381787E+04</rscale>
<asrwt>0</asrwt>
<pdfrwt beam="1">  1        1 0.51571005E+00 0.11381787E+04</pdfrwt>
<pdfrwt beam="2">  1       -1 0.60149372E-01 0.11381787E+04</pdfrwt>
<totfact> 0.92593437E-01</totfact>
</mgrwt>
</event>
<event>
 4    1  0.4964158E-009  0.2255986E+03  0.7818608E-02  0.1129777E+00
          1   -1    0    0  501    0  0.00000000000E+00  0.00000000000E+00  0.16797365679E+03  0.16797365687E+03  0.50400000000E-02 0. -1.
         -1   -1    0    0    0  501 -0.00000000000E+00 -0.00000000000E+00 -0.11855639756E+04  0.11855639756E+04  0.50400000000E-02 0.  1.
    8880022    1    1    2    0    0 -0.80407925397E+02  0.14504358661E+03  0.75124137526E+02  0.23777797530E+03  0.15294330000E+03 0.  0.
    8880022    1    1    2    0    0  0.80407925397E+02 -0.14504358661E+03 -0.10927144563E+04  0.11157596572E+04  0.15294330000E+03 0.  0.
<mgrwt>
<rscale>  0 0.22559860E+03</rscale>
<asrwt>0</asrwt>
<pdfrwt beam="1">  1        1 0.25842102E-01 0.22559860E+03</pdfrwt>
<pdfrwt beam="2">  1       -1 0.18239445E+00 0.22559860E+03</pdfrwt>
<totfact> 0.41095446E+01</totfact>
</mgrwt>
</event>
<event>
 4    1  0.4964158E-009  0.1289925E+04  0.7818608E-02  0.9037593E-01
          1   -1    0    0  501    0  0.00000000000E+00  0.00000000000E+00  0.15049540616E+04  0.15049540616E+04  0.50400000000E-02 0. -1.
         -1   -1    0    0    0  501 -0.00000000000E+00 -0.00000000000E+00 -0.14826692718E+04  0.14826692719E+04  0.50400000000E-02 0.  1.
    8880022    1    1    2    0    0  0.97763766539E+03  0.82748977144E+03  0.76445131939E+03  0.14994306251E+04  0.15294330000E+03 0.  0.
    8880022    1    1    2    0    0 -0.97763766539E+03 -0.82748977144E+03 -0.74216652963E+03  0.14881927084E+04  0.15294330000E+03 0.  0.
<mgrwt>
<rscale>  0 0.12899250E+04</rscale>
<asrwt>0</asrwt>
<pdfrwt beam="1">  1        1 0.23153139E+00 0.12899250E+04</pdfrwt>
<pdfrwt beam="2">  1       -1 0.22810296E+00 0.12899250E+04</pdfrwt>
<totfact> 0.61113183E-01</totfact>
</mgrwt>
</event>
<event>
 4    1  0.4964158E-009  0.1260857E+04  0.7818608E-02  0.9061195E-01
          1   -1    0    0  501    0  0.00000000000E+00  0.00000000000E+00  0.24622716524E+04  0.24622716524E+04  0.50400000000E-02 0. -1.
         -1   -1    0    0    0  501 -0.00000000000E+00 -0.00000000000E+00 -0.11317947763E+04  0.11317947763E+04  0.50400000000E-02 0.  1.
    8880022    1    1    2    0    0 -0.65374259221E+03 -0.10672340726E+04 -0.51251987782E+03  0.13610423288E+04  0.15294330000E+03 0.  0.
    8880022    1    1    2    0    0  0.65374259221E+03  0.10672340726E+04  0.18429967539E+04  0.22330240999E+04  0.15294330000E+03 0.  0.
<mgrwt>
<rscale>  0 0.12608567E+04</rscale>
<asrwt>0</asrwt>
<pdfrwt beam="1">  1        1 0.37881102E+00 0.12608567E+04</pdfrwt>
<pdfrwt beam="2">  1       -1 0.17412227E+00 0.12608567E+04</pdfrwt>
<totfact> 0.32264625E-01</totfact>
</mgrwt>
</event>
<event>
 4    1  0.4964158E-009  0.6036164E+03  0.7818608E-02  0.9897931E-01
          1   -1    0    0  501    0  0.00000000000E+00  0.00000000000E+00  0.13299918313E+04  0.13299918314E+04  0.50400000000E-02 0. -1.
         -1   -1    0    0    0  501 -0.00000000000E+00 -0.00000000000E+00 -0.38293395726E+03  0.38293395729E+03  0.50400000000E-02 0.  1.
    8880022    1    1    2    0    0  0.40415146642E+03  0.42145306879E+03  0.16624190157E+02  0.60384527299E+03  0.15294330000E+03 0.  0.
    8880022    1    1    2    0    0 -0.40415146642E+03 -0.42145306879E+03  0.93043368393E+03  0.11090805157E+04  0.15294330000E+03 0.  0.
<mgrwt>
<rscale>  0 0.60361639E+03</rscale>
<asrwt>0</asrwt>
<pdfrwt beam="1">  1        1 0.20461413E+00 0.60361639E+03</pdfrwt>
<pdfrwt beam="2">  1       -1 0.58912917E-01 0.60361639E+03</pdfrwt>
<totfact> 0.26448172E+01</totfact>
</mgrwt>
</event>
<event>
 4    1  0.4964158E-009  0.3924632E+03  0.7818608E-02  0.1046421E+00
         -1   -1    0    0    0  501 -0.00000000000E+00  0.00000000000E+00  0.27477794092E+03  0.27477794096E+03  0.50400000000E-02 0.  1.
          1   -1    0    0  501    0  0.00000000000E+00 -0.00000000000E+00 -0.19792769169E+04  0.19792769169E+04  0.50400000000E-02 0. -1.
    8880022    1    1    2    0    0  0.12003782298E+02  0.36123621833E+03  0.10193046989E+03  0.40548387136E+03  0.15294330000E+03 0.  0.
    8880022    1    1    2    0    0 -0.12003782298E+02 -0.36123621833E+03 -0.18064294459E+04  0.18485709865E+04  0.15294330000E+03 0.  0.
<mgrwt>
<rscale>  0 0.39246318E+03</rscale>
<asrwt>0</asrwt>
<pdfrwt beam="1">  1        1 0.30450413E+00 0.39246318E+03</pdfrwt>
<pdfrwt beam="2">  1       -1 0.42273531E-01 0.39246318E+03</pdfrwt>
<totfact> 0.18928090E+01</totfact>
</mgrwt>
</event>
<event>
 4    1  0.4964158E-009  0.4366993E+03  0.7818608E-02  0.1031764E+00
          1   -1    0    0  501    0  0.00000000000E+00  0.00000000000E+00  0.17693788323E+04  0.17693788323E+04  0.50400000000E-02 0. -1.
         -1   -1    0    0    0  501 -0.00000000000E+00 -0.00000000000E+00 -0.22360231577E+03  0.22360231583E+03  0.50400000000E-02 0.  1.
    8880022    1    1    2    0    0 -0.35730771960E+03  0.19911250192E+03  0.14900686652E+04  0.15527430164E+04  0.15294330000E+03 0.  0.
    8880022    1    1    2    0    0  0.35730771960E+03 -0.19911250192E+03  0.55707851298E+02  0.44023813172E+03  0.15294330000E+03 0.  1.
<mgrwt>
<rscale>  0 0.43669926E+03</rscale>
<asrwt>0</asrwt>
<pdfrwt beam="1">  1        1 0.27221214E+00 0.43669926E+03</pdfrwt>
<pdfrwt beam="2">  1       -1 0.34400354E-01 0.43669926E+03</pdfrwt>
<totfact> 0.37174906E+01</totfact>
</mgrwt>
</event>
<event>
 4    1  0.4964158E-009  0.2250166E+03  0.7818608E-02  0.1130197E+00
         -1   -1    0    0    0  501 -0.00000000000E+00  0.00000000000E+00  0.78468787222E+02  0.78468787384E+02  0.50400000000E-02 0.  1.
          1   -1    0    0  501    0  0.00000000000E+00 -0.00000000000E+00 -0.13857449366E+04  0.13857449366E+04  0.50400000000E-02 0. -1.
    8880022    1    1    2    0    0 -0.74304221421E+02 -0.14737610214E+03 -0.11888083731E+04  0.12099164573E+04  0.15294330000E+03 0. -1.
    8880022    1    1    2    0    0  0.74304221421E+02  0.14737610214E+03 -0.11846777632E+03  0.25429726668E+03  0.15294330000E+03 0.  0.
<mgrwt>
<rscale>  0 0.22501663E+03</rscale>
<asrwt>0</asrwt>
<pdfrwt beam="1">  1        1 0.21319151E+00 0.22501663E+03</pdfrwt>
<pdfrwt beam="2">  1       -1 0.12072122E-01 0.22501663E+03</pdfrwt>
<totfact> 0.39145506E+02</totfact>
</mgrwt>
</event>
<event>
 4    1  0.4964158E-009  0.8004944E+03  0.7818608E-02  0.9559302E-01
         -1   -1    0    0    0  501 -0.00000000000E+00  0.00000000000E+00  0.41972716841E+03  0.41972716844E+03  0.50400000000E-02 0.  1.
          1   -1    0    0  501    0  0.00000000000E+00 -0.00000000000E+00 -0.29939792858E+04  0.29939792858E+04  0.50400000000E-02 0. -1.
    8880022    1    1    2    0    0  0.78560862782E+03  0.14787709496E+02 -0.24820227793E+04  0.26079164715E+04  0.15294330000E+03 0.  0.
    8880022    1    1    2    0    0 -0.78560862782E+03 -0.14787709496E+02 -0.92229338107E+02  0.80578998273E+03  0.15294330000E+03 0.  0.
<mgrwt>
<rscale>  0 0.80049438E+03</rscale>
<asrwt>0</asrwt>
<pdfrwt beam="1">  1        1 0.46061218E+00 0.80049438E+03</pdfrwt>
<pdfrwt beam="2">  1       -1 0.64573413E-01 0.80049438E+03</pdfrwt>
<totfact> 0.15637133E+00</totfact>
</mgrwt>
</event>
<event>
 4    1  0.4964158E-009  0.1037533E+04  0.7818608E-02  0.9268311E-01
         -1   -1    0    0    0  501 -0.00000000000E+00  0.00000000000E+00  0.10216254043E+04  0.10216254043E+04  0.50400000000E-02 0.  1.
          1   -1    0    0  501    0  0.00000000000E+00 -0.00000000000E+00 -0.13901118444E+04  0.13901118444E+04  0.50400000000E-02 0. -1.
    8880022    1    1    2    0    0  0.87522930466E+03  0.53577630371E+03 -0.77746710655E+03  0.12965065901E+04  0.15294330000E+03 0.  0.
    8880022    1    1    2    0    0 -0.87522930466E+03 -0.53577630371E+03  0.40898066645E+03  0.11152306586E+04  0.15294330000E+03 0.  0.
<mgrwt>
<rscale>  0 0.10375328E+04</rscale>
<asrwt>0</asrwt>
<pdfrwt beam="1">  1        1 0.21386336E+00 0.10375328E+04</pdfrwt>
<pdfrwt beam="2">  1       -1 0.15717314E+00 0.10375328E+04</pdfrwt>
<totfact> 0.23969711E+00</totfact>
</mgrwt>
</event>
<event>
 4    1  0.4964158E-009  0.6598691E+03  0.7818608E-02  0.9788435E-01
          1   -1    0    0  501    0  0.00000000000E+00  0.00000000000E+00  0.18199565231E+04  0.18199565231E+04  0.50400000000E-02 0. -1.
         -1   -1    0    0    0  501 -0.00000000000E+00 -0.00000000000E+00 -0.66540832659E+03  0.66540832661E+03  0.50400000000E-02 0.  1.
    8880022    1    1    2    0    0  0.64188682633E+03  0.41068363008E+01 -0.41721676315E+03  0.78070291686E+03  0.15294330000E+03 0.  0.
    8880022    1    1    2    0    0 -0.64188682633E+03 -0.41068363008E+01  0.15717649597E+04  0.17046619329E+04  0.15294330000E+03 0.  0.
<mgrwt>
<rscale>  0 0.65986909E+03</rscale>
<asrwt>0</asrwt>
<pdfrwt beam="1">  1        1 0.27999330E+00 0.65986909E+03</pdfrwt>
<pdfrwt beam="2">  1       -1 0.10237051E+00 0.65986909E+03</pdfrwt>
<totfact> 0.38033705E+00</totfact>
</mgrwt>
</event>
<event>
 4    1  0.4964158E-009  0.9142336E+03  0.7818608E-02  0.9407962E-01
         -1   -1    0    0    0  501 -0.00000000000E+00  0.00000000000E+00  0.10411690267E+04  0.10411690267E+04  0.50400000000E-02 0.  1.
          1   -1    0    0  501    0  0.00000000000E+00 -0.00000000000E+00 -0.10587293253E+04  0.10587293253E+04  0.50400000000E-02 0. -1.
    8880022    1    1    2    0    0  0.71776204882E+03 -0.54520559127E+03 -0.52502783213E+03  0.10542662723E+04  0.15294330000E+03 0.  0.
    8880022    1    1    2    0    0 -0.71776204882E+03  0.54520559127E+03  0.50746753348E+03  0.10456320797E+04  0.15294330000E+03 0.  0.
<mgrwt>
<rscale>  0 0.91423364E+03</rscale>
<asrwt>0</asrwt>
<pdfrwt beam="1">  1        1 0.16288143E+00 0.91423364E+03</pdfrwt>
<pdfrwt beam="2">  1       -1 0.16017985E+00 0.91423364E+03</pdfrwt>
<totfact> 0.40248040E+00</totfact>
</mgrwt>
</event>
<event>
 4    1  0.4964158E-009  0.1195956E+04  0.7818608E-02  0.9116403E-01
          1   -1    0    0  501    0  0.00000000000E+00  0.00000000000E+00  0.99173892353E+03  0.99173892355E+03  0.50400000000E-02 0. -1.
         -1   -1    0    0    0  501 -0.00000000000E+00 -0.00000000000E+00 -0.15592342389E+04  0.15592342389E+04  0.50400000000E-02 0.  1.
    8880022    1    1    2    0    0 -0.99471965823E+03 -0.64610556975E+03 -0.63315271463E+03  0.13532160281E+04  0.15294330000E+03 0.  0.
    8880022    1    1    2    0    0  0.99471965823E+03  0.64610556975E+03  0.65657399272E+02  0.11977571343E+04  0.15294330000E+03 0.  0.
<mgrwt>
<rscale>  0 0.11959562E+04</rscale>
<asrwt>0</asrwt>
<pdfrwt beam="1">  1        1 0.15257522E+00 0.11959562E+04</pdfrwt>
<pdfrwt beam="2">  1       -1 0.23988219E+00 0.11959562E+04</pdfrwt>
<totfact> 0.12253777E+00</totfact>
</mgrwt>
</event>
<event>
 4    1  0.4964158E-009  0.5400103E+03  0.7818608E-02  0.1003833E+00
          1   -1    0    0  501    0  0.00000000000E+00  0.00000000000E+00  0.12678326054E+04  0.12678326054E+04  0.50400000000E-02 0. -1.
         -1   -1    0    0    0  501 -0.00000000000E+00 -0.00000000000E+00 -0.12884445399E+04  0.12884445399E+04  0.50400000000E-02 0.  1.
    8880022    1    1    2    0    0 -0.60820368372E+02  0.51431545466E+03 -0.11687566969E+04  0.12874794653E+04  0.15294330000E+03 0.  0.
    8880022    1    1    2    0    0  0.60820368372E+02 -0.51431545466E+03  0.11481447624E+04  0.12687976799E+04  0.15294330000E+03 0.  0.
<mgrwt>
<rscale>  0 0.54001033E+03</rscale>
<asrwt>0</asrwt>
<pdfrwt beam="1">  1        1 0.19505117E+00 0.54001033E+03</pdfrwt>
<pdfrwt beam="2">  1       -1 0.19822224E+00 0.54001033E+03</pdfrwt>
<totfact> 0.16230300E+00</totfact>
</mgrwt>
</event>
<event>
 4    1  0.4964158E-009  0.1729570E+04  0.7818608E-02  0.8744677E-01
         -1   -1    0    0    0  501 -0.00000000000E+00  0.00000000000E+00  0.15859971274E+04  0.15859971275E+04  0.50400000000E-02 0.  1.
          1   -1    0    0  501    0  0.00000000000E+00 -0.00000000000E+00 -0.23005777157E+04  0.23005777157E+04  0.50400000000E-02 0. -1.
    8880022    1    1    2    0    0  0.15491905571E+04 -0.75367725829E+03 -0.11820895859E+04  0.20949339450E+04  0.15294330000E+03 0.  0.
    8880022    1    1    2    0    0 -0.15491905571E+04  0.75367725829E+03  0.46750899765E+03  0.17916408981E+04  0.15294330000E+03 0.  0.
<mgrwt>
<rscale>  0 0.17295700E+04</rscale>
<asrwt>0</asrwt>
<pdfrwt beam="1">  1        1 0.35393503E+00 0.17295700E+04</pdfrwt>
<pdfrwt beam="2">  1       -1 0.24399956E+00 0.17295700E+04</pdfrwt>
<totfact> 0.13031886E-01</totfact>
</mgrwt>
</event>
<event>
 4    1  0.4964158E-009  0.7003050E+03  0.7818608E-02  0.9716711E-01
          1   -1    0    0  501    0  0.00000000000E+00  0.00000000000E+00  0.51003275402E+03  0.51003275405E+03  0.50400000000E-02 0. -1.
         -1   -1    0    0    0  501 -0.00000000000E+00 -0.00000000000E+00 -0.10415230677E+04  0.10415230677E+04  0.50400000000E-02 0.  1.
    8880022    1    1    2    0    0 -0.66521913621E+03 -0.15658542786E+03 -0.48070008281E+03  0.84941139504E+03  0.15294330000E+03 0.  0.
    8880022    1    1    2    0    0  0.66521913621E+03  0.15658542786E+03 -0.50790230865E+02  0.70214442672E+03  0.15294330000E+03 0.  0.
<mgrwt>
<rscale>  0 0.70030504E+03</rscale>
<asrwt>0</asrwt>
<pdfrwt beam="1">  1        1 0.78466578E-01 0.70030504E+03</pdfrwt>
<pdfrwt beam="2">  1       -1 0.16023432E+00 0.70030504E+03</pdfrwt>
<totfact> 0.12989611E+01</totfact>
</mgrwt>
</event>
<event>
 4    1  0.4964158E-009  0.1134025E+04  0.7818608E-02  0.9172649E-01
         -1   -1    0    0    0  501 -0.00000000000E+00  0.00000000000E+00  0.16784242471E+04  0.16784242471E+04  0.50400000000E-02 0.  1.
          1   -1    0    0  501    0  0.00000000000E+00 -0.00000000000E+00 -0.11727200156E+04  0.11727200156E+04  0.50400000000E-02 0. -1.
    8880022    1    1    2    0    0  0.19871174748E+03  0.11059546253E+04 -0.58647529710E+03  0.12767015779E+04  0.15294330000E+03 0.  0.
    8880022    1    1    2    0    0 -0.19871174748E+03 -0.11059546253E+04  0.10921795286E+04  0.15744426847E+04  0.15294330000E+03 0.  0.
<mgrwt>
<rscale>  0 0.11340254E+04</rscale>
<asrwt>0</asrwt>
<pdfrwt beam="1">  1        1 0.18041847E+00 0.11340254E+04</pdfrwt>
<pdfrwt beam="2">  1       -1 0.25821911E+00 0.11340254E+04</pdfrwt>
<totfact> 0.68296705E-01</totfact>
</mgrwt>
</event>
<event>
 4    1  0.4964158E-009  0.6188156E+03  0.7818608E-02  0.9867121E-01
         -1   -1    0    0    0  501 -0.00000000000E+00  0.00000000000E+00  0.98198540760E+03  0.98198540761E+03  0.50400000000E-02 0.  1.
          1   -1    0    0  501    0  0.00000000000E+00 -0.00000000000E+00 -0.15562407943E+04  0.15562407943E+04  0.50400000000E-02 0. -1.
    8880022    1    1    2    0    0  0.25945341659E+03  0.54057839279E+03  0.81153386272E+03  0.10205488413E+04  0.15294330000E+03 0.  0.
    8880022    1    1    2    0    0 -0.25945341659E+03 -0.54057839279E+03 -0.13857892494E+04  0.15176773606E+04  0.15294330000E+03 0.  0.
<mgrwt>
<rscale>  0 0.61881558E+03</rscale>
<asrwt>0</asrwt>
<pdfrwt beam="1">  1        1 0.23942166E+00 0.61881558E+03</pdfrwt>
<pdfrwt beam="2">  1       -1 0.15107468E+00 0.61881558E+03</pdfrwt>
<totfact> 0.22036184E+00</totfact>
</mgrwt>
</event>
<event>
 4    1  0.4964158E-009  0.1532867E+04  0.7818608E-02  0.8862886E-01
         -1   -1    0    0    0  501 -0.00000000000E+00  0.00000000000E+00  0.87957576080E+03  0.87957576082E+03  0.50400000000E-02 0.  1.
          1   -1    0    0  501    0  0.00000000000E+00 -0.00000000000E+00 -0.40748010954E+04  0.40748010954E+04  0.50400000000E-02 0. -1.
    8880022    1    1    2    0    0  0.12797703378E+04 -0.82974506910E+03 -0.14382856951E+03  0.15395997232E+04  0.15294330000E+03 0.  0.
    8880022    1    1    2    0    0 -0.12797703378E+04  0.82974506910E+03 -0.30513967651E+04  0.34147771330E+04  0.15294330000E+03 0.  0.
<mgrwt>
<rscale>  0 0.15328668E+04</rscale>
<asrwt>0</asrwt>
<pdfrwt beam="1">  1        1 0.62689247E+00 0.15328668E+04</pdfrwt>
<pdfrwt beam="2">  1       -1 0.13531935E+00 0.15328668E+04</pdfrwt>
<totfact> 0.36210846E-02</totfact>
</mgrwt>
</event>
<event>
 4    1  0.4964158E-009  0.5749961E+03  0.7818608E-02  0.9958683E-01
          1   -1    0    0  501    0  0.00000000000E+00  0.00000000000E+00  0.20234468470E+04  0.20234468470E+04  0.50400000000E-02 0. -1.
         -1   -1    0    0    0  501 -0.00000000000E+00 -0.00000000000E+00 -0.24038973915E+03  0.24038973920E+03  0.50400000000E-02 0.  1.
    8880022    1    1    2    0    0  0.36776267690E+01 -0.55427014067E+03  0.15321306884E+04  0.16364733463E+04  0.15294330000E+03 0.  0.
    8880022    1    1    2    0    0 -0.36776267690E+01  0.55427014067E+03  0.25092641943E+03  0.62736323989E+03  0.15294330000E+03 0.  0.
<mgrwt>
<rscale>  0 0.57499615E+03</rscale>
<asrwt>0</asrwt>
<pdfrwt beam="1">  1        1 0.31129952E+00 0.57499615E+03</pdfrwt>
<pdfrwt beam="2">  1       -1 0.36983036E-01 0.57499615E+03</pdfrwt>
<totfact> 0.21601001E+01</totfact>
</mgrwt>
</event>
<event>
 4    1  0.4964158E-009  0.1058978E+04  0.7818608E-02  0.9246124E-01
         -1   -1    0    0    0  501 -0.00000000000E+00  0.00000000000E+00  0.24846516017E+04  0.24846516017E+04  0.50400000000E-02 0.  1.
          1   -1    0    0  501    0  0.00000000000E+00 -0.00000000000E+00 -0.13797081318E+04  0.13797081319E+04  0.50400000000E-02 0. -1.
    8880022    1    1    2    0    0 -0.46750799784E+03 -0.93780551438E+03  0.21374121189E+04  0.23853647792E+04  0.15294330000E+03 0.  0.
    8880022    1    1    2    0    0  0.46750799784E+03  0.93780551438E+03 -0.10324686490E+04  0.14789949544E+04  0.15294330000E+03 0.  0.
<mgrwt>
<rscale>  0 0.10589781E+04</rscale>
<asrwt>0</asrwt>
<pdfrwt beam="1">  1        1 0.21226279E+00 0.10589781E+04</pdfrwt>
<pdfrwt beam="2">  1       -1 0.38225409E+00 0.10589781E+04</pdfrwt>
<totfact> 0.76096078E-02</totfact>
</mgrwt>
</event>
<event>
 4    1  0.4964158E-009  0.7970395E+03  0.7818608E-02  0.9564312E-01
         -1   -1    0    0    0  501 -0.00000000000E+00  0.00000000000E+00  0.81567840255E+03  0.81567840257E+03  0.50400000000E-02 0.  1.
          1   -1    0    0  501    0  0.00000000000E+00 -0.00000000000E+00 -0.15974394259E+04  0.15974394259E+04  0.50400000000E-02 0. -1.
    8880022    1    1    2    0    0 -0.36820604357E+03 -0.69014831442E+03  0.47284471627E+03  0.92674385087E+03  0.15294330000E+03 0.  0.
    8880022    1    1    2    0    0  0.36820604357E+03  0.69014831442E+03 -0.12546057396E+04  0.14863739776E+04  0.15294330000E+03 0.  0.
<mgrwt>
<rscale>  0 0.79703955E+03</rscale>
<asrwt>0</asrwt>
<pdfrwt beam="1">  1        1 0.24575991E+00 0.79703955E+03</pdfrwt>
<pdfrwt beam="2">  1       -1 0.12548898E+00 0.79703955E+03</pdfrwt>
<totfact> 0.32203314E+00</totfact>
</mgrwt>
</event>
<event>
 4    1  0.4964158E-009  0.1247442E+04  0.7818608E-02  0.9072315E-01
          1   -1    0    0  501    0  0.00000000000E+00  0.00000000000E+00  0.22288936034E+04  0.22288936034E+04  0.50400000000E-02 0. -1.
         -1   -1    0    0    0  501 -0.00000000000E+00 -0.00000000000E+00 -0.83238366090E+03  0.83238366091E+03  0.50400000000E-02 0.  1.
    8880022    1    1    2    0    0  0.40783825921E+03 -0.11689261726E+04  0.13129141017E+04  0.18110371432E+04  0.15294330000E+03 0.  0.
    8880022    1    1    2    0    0 -0.40783825921E+03  0.11689261726E+04  0.83595840813E+02  0.12502401211E+04  0.15294330000E+03 0.  0.
<mgrwt>
<rscale>  0 0.12474422E+04</rscale>
<asrwt>0</asrwt>
<pdfrwt beam="1">  1        1 0.34290670E+00 0.12474422E+04</pdfrwt>
<pdfrwt beam="2">  1       -1 0.12805903E+00 0.12474422E+04</pdfrwt>
<totfact> 0.10743647E+00</totfact>
</mgrwt>
</event>
<event>
 4    1  0.4964158E-009  0.3124811E+03  0.7818608E-02  0.1079163E+00
          1   -1    0    0  501    0  0.00000000000E+00  0.00000000000E+00  0.26541611666E+03  0.26541611671E+03  0.50400000000E-02 0. -1.
         -1   -1    0    0    0  501 -0.00000000000E+00 -0.00000000000E+00 -0.89295940964E+03  0.89295940965E+03  0.50400000000E-02 0.  1.
    8880022    1    1    2    0    0  0.24459762803E+03 -0.12010311761E+03  0.13035940200E+03  0.33858231673E+03  0.15294330000E+03 0. -1.
    8880022    1    1    2    0    0 -0.24459762803E+03  0.12010311761E+03 -0.75790269498E+03  0.81979320963E+03  0.15294330000E+03 0.  0.
<mgrwt>
<rscale>  0 0.31248106E+03</rscale>
<asrwt>0</asrwt>
<pdfrwt beam="1">  1        1 0.40833249E-01 0.31248106E+03</pdfrwt>
<pdfrwt beam="2">  1       -1 0.13737837E+00 0.31248106E+03</pdfrwt>
<totfact> 0.48655245E+01</totfact>
</mgrwt>
</event>
<event>
 4    1  0.4964158E-009  0.1009641E+04  0.7818608E-02  0.9298034E-01
          1   -1    0    0  501    0  0.00000000000E+00  0.00000000000E+00  0.87081411680E+03  0.87081411682E+03  0.50400000000E-02 0. -1.
         -1   -1    0    0    0  501 -0.00000000000E+00 -0.00000000000E+00 -0.24293481885E+04  0.24293481885E+04  0.50400000000E-02 0.  1.
    8880022    1    1    2    0    0  0.98931045620E+03 -0.13133016973E+03 -0.19670304983E+04  0.22110141172E+04  0.15294330000E+03 0.  0.
    8880022    1    1    2    0    0 -0.98931045620E+03  0.13133016973E+03  0.40849642656E+03  0.10891481882E+04  0.15294330000E+03 0.  0.
<mgrwt>
<rscale>  0 0.10096408E+04</rscale>
<asrwt>0</asrwt>
<pdfrwt beam="1">  1        1 0.13397140E+00 0.10096408E+04</pdfrwt>
<pdfrwt beam="2">  1       -1 0.37374587E+00 0.10096408E+04</pdfrwt>
<totfact> 0.21187784E-01</totfact>
</mgrwt>
</event>
<event>
 4    1  0.4964158E-009  0.5454722E+03  0.7818608E-02  0.1002547E+00
          1   -1    0    0  501    0  0.00000000000E+00  0.00000000000E+00  0.23345130195E+03  0.23345130200E+03  0.50400000000E-02 0. -1.
         -1   -1    0    0    0  501 -0.00000000000E+00 -0.00000000000E+00 -0.17425123704E+04  0.17425123705E+04  0.50400000000E-02 0.  1.
    8880022    1    1    2    0    0  0.33104852108E+03 -0.40565393242E+03 -0.24252181215E+03  0.59695621161E+03  0.15294330000E+03 0. -1.
    8880022    1    1    2    0    0 -0.33104852108E+03  0.40565393242E+03 -0.12665392563E+04  0.13790074608E+04  0.15294330000E+03 0.  0.
<mgrwt>
<rscale>  0 0.54547217E+03</rscale>
<asrwt>0</asrwt>
<pdfrwt beam="1">  1        1 0.35915586E-01 0.54547217E+03</pdfrwt>
<pdfrwt beam="2">  1       -1 0.26807882E+00 0.54547217E+03</pdfrwt>
<totfact> 0.69323044E+00</totfact>
</mgrwt>
</event>
<event>
 4    1  0.4964158E-009  0.4638562E+03  0.7818608E-02  0.1023669E+00
          1   -1    0    0  501    0  0.00000000000E+00  0.00000000000E+00  0.21004093720E+04  0.21004093720E+04  0.50400000000E-02 0. -1.
         -1   -1    0    0    0  501 -0.00000000000E+00 -0.00000000000E+00 -0.33937878772E+03  0.33937878776E+03  0.50400000000E-02 0.  1.
    8880022    1    1    2    0    0  0.43770367192E+03  0.13653108304E+02  0.18998089657E+04  0.19556166984E+04  0.15294330000E+03 0.  0.
    8880022    1    1    2    0    0 -0.43770367192E+03 -0.13653108304E+02 -0.13877838149E+03  0.48417146133E+03  0.15294330000E+03 0.  0.
<mgrwt>
<rscale>  0 0.46385619E+03</rscale>
<asrwt>0</asrwt>
<pdfrwt beam="1">  1        1 0.32313991E+00 0.46385619E+03</pdfrwt>
<pdfrwt beam="2">  1       -1 0.52212120E-01 0.46385619E+03</pdfrwt>
<totfact> 0.10447415E+01</totfact>
</mgrwt>
</event>
<event>
 4    1  0.4964158E-009  0.1089616E+04  0.7818608E-02  0.9215372E-01
          1   -1    0    0  501    0  0.00000000000E+00  0.00000000000E+00  0.14610900848E+04  0.14610900848E+04  0.50400000000E-02 0. -1.
         -1   -1    0    0    0  501 -0.00000000000E+00 -0.00000000000E+00 -0.16873060953E+04  0.16873060953E+04  0.50400000000E-02 0.  1.
    8880022    1    1    2    0    0 -0.10754752989E+04 -0.84993145198E+02 -0.12465434285E+04  0.16556367734E+04  0.15294330000E+03 0.  0.
    8880022    1    1    2    0    0  0.10754752989E+04  0.84993145198E+02  0.10203274180E+04  0.14927594067E+04  0.15294330000E+03 0.  0.
<mgrwt>
<rscale>  0 0.10896158E+04</rscale>
<asrwt>0</asrwt>
<pdfrwt beam="1">  1        1 0.22478309E+00 0.10896158E+04</pdfrwt>
<pdfrwt beam="2">  1       -1 0.25958555E+00 0.10896158E+04</pdfrwt>
<totfact> 0.41924783E-01</totfact>
</mgrwt>
</event>
<event>
 4    1  0.4964158E-009  0.6419059E+03  0.7818608E-02  0.9822087E-01
          1   -1    0    0  501    0  0.00000000000E+00  0.00000000000E+00  0.34076829617E+04  0.34076829617E+04  0.50400000000E-02 0. -1.
         -1   -1    0    0    0  501 -0.00000000000E+00 -0.00000000000E+00 -0.41817883622E+03  0.41817883626E+03  0.50400000000E-02 0.  1.
    8880022    1    1    2    0    0 -0.40755259329E+03  0.47175467202E+03 -0.11807795851E+03  0.65267575731E+03  0.15294330000E+03 0.  0.
    8880022    1    1    2    0    0  0.40755259329E+03 -0.47175467202E+03  0.31075820840E+04  0.31731860406E+04  0.15294330000E+03 0.  0.
<mgrwt>
<rscale>  0 0.64190594E+03</rscale>
<asrwt>0</asrwt>
<pdfrwt beam="1">  1        1 0.52425890E+00 0.64190594E+03</pdfrwt>
<pdfrwt beam="2">  1       -1 0.64335208E-01 0.64190594E+03</pdfrwt>
<totfact> 0.81042001E-01</totfact>
</mgrwt>
</event>
<event>
 4    1  0.4964158E-009  0.6623761E+03  0.7818608E-02  0.9783830E-01
          1   -1    0    0  501    0  0.00000000000E+00  0.00000000000E+00  0.16467670633E+04  0.16467670633E+04  0.50400000000E-02 0. -1.
         -1   -1    0    0    0  501 -0.00000000000E+00 -0.00000000000E+00 -0.54945825109E+03  0.54945825111E+03  0.50400000000E-02 0.  1.
    8880022    1    1    2    0    0 -0.50094898378E+03 -0.40546337720E+03 -0.23947451634E+03  0.70433666069E+03  0.15294330000E+03 0.  0.
    8880022    1    1    2    0    0  0.50094898378E+03  0.40546337720E+03  0.13367833286E+04  0.14918886537E+04  0.15294330000E+03 0.  0.
<mgrwt>
<rscale>  0 0.66237609E+03</rscale>
<asrwt>0</asrwt>
<pdfrwt beam="1">  1        1 0.25334878E+00 0.66237609E+03</pdfrwt>
<pdfrwt beam="2">  1       -1 0.84532040E-01 0.66237609E+03</pdfrwt>
<totfact> 0.75955163E+00</totfact>
</mgrwt>
</event>
<event>
 4    1  0.4964158E-009  0.6110622E+03  0.7818608E-02  0.9882718E-01
          1   -1    0    0  501    0  0.00000000000E+00  0.00000000000E+00  0.19637821584E+04  0.19637821585E+04  0.50400000000E-02 0. -1.
         -1   -1    0    0    0  501 -0.00000000000E+00 -0.00000000000E+00 -0.23888528232E+03  0.23888528238E+03  0.50400000000E-02 0.  1.
    8880022    1    1    2    0    0 -0.20417484784E+03  0.55526390323E+03  0.13599364628E+04  0.14909138831E+04  0.15294330000E+03 0.  0.
    8880022    1    1    2    0    0  0.20417484784E+03 -0.55526390323E+03  0.36496041330E+03  0.71175355778E+03  0.15294330000E+03 0.  0.
<mgrwt>
<rscale>  0 0.61106221E+03</rscale>
<asrwt>0</asrwt>
<pdfrwt beam="1">  1        1 0.30212034E+00 0.61106221E+03</pdfrwt>
<pdfrwt beam="2">  1       -1 0.36751581E-01 0.61106221E+03</pdfrwt>
<totfact> 0.23780445E+01</totfact>
</mgrwt>
</event>
<event>
 4    1  0.4964158E-009  0.5890438E+03  0.7818608E-02  0.9928401E-01
          1   -1    0    0  501    0  0.00000000000E+00  0.00000000000E+00  0.78368650799E+03  0.78368650800E+03  0.50400000000E-02 0. -1.
         -1   -1    0    0    0  501 -0.00000000000E+00 -0.00000000000E+00 -0.66371654126E+03  0.66371654128E+03  0.50400000000E-02 0.  1.
    8880022    1    1    2    0    0  0.51371709865E+03  0.24428608878E+03 -0.35759261407E+03  0.68909003858E+03  0.15294330000E+03 0.  0.
    8880022    1    1    2    0    0 -0.51371709865E+03 -0.24428608878E+03  0.47756258079E+03  0.75831301070E+03  0.15294330000E+03 0.  0.
<mgrwt>
<rscale>  0 0.58904380E+03</rscale>
<asrwt>0</asrwt>
<pdfrwt beam="1">  1        1 0.12056716E+00 0.58904380E+03</pdfrwt>
<pdfrwt beam="2">  1       -1 0.10211024E+00 0.58904380E+03</pdfrwt>
<totfact> 0.21764145E+01</totfact>
</mgrwt>
</event>
<event>
 4    1  0.4964158E-009  0.7499483E+03  0.7818608E-02  0.9635432E-01
         -1   -1    0    0    0  501 -0.00000000000E+00  0.00000000000E+00  0.10311495492E+04  0.10311495492E+04  0.50400000000E-02 0.  1.
          1   -1    0    0  501    0  0.00000000000E+00 -0.00000000000E+00 -0.17352894099E+04  0.17352894099E+04  0.50400000000E-02 0. -1.
    8880022    1    1    2    0    0 -0.72957151938E+03  0.82195810582E+02  0.79331778053E+03  0.10916847105E+04  0.15294330000E+03 0.  0.
    8880022    1    1    2    0    0  0.72957151938E+03 -0.82195810582E+02 -0.14974576412E+04  0.16747542487E+04  0.15294330000E+03 0.  0.
<mgrwt>
<rscale>  0 0.74994827E+03</rscale>
<asrwt>0</asrwt>
<pdfrwt beam="1">  1        1 0.26696760E+00 0.74994827E+03</pdfrwt>
<pdfrwt beam="2">  1       -1 0.15863839E+00 0.74994827E+03</pdfrwt>
<totfact> 0.14203683E+00</totfact>
</mgrwt>
</event>
<event>
 4    1  0.4964158E-009  0.4173027E+03  0.7818608E-02  0.1037948E+00
         -1   -1    0    0    0  501 -0.00000000000E+00  0.00000000000E+00  0.36973248714E+03  0.36973248717E+03  0.50400000000E-02 0.  1.
          1   -1    0    0  501    0  0.00000000000E+00 -0.00000000000E+00 -0.23190109647E+04  0.23190109648E+04  0.50400000000E-02 0. -1.
    8880022    1    1    2    0    0  0.18769515946E+03 -0.33988294107E+03 -0.21747491524E+04  0.22144243982E+04  0.15294330000E+03 0. -1.
    8880022    1    1    2    0    0 -0.18769515946E+03  0.33988294107E+03  0.22547067479E+03  0.47431905372E+03  0.15294330000E+03 0.  0.
<mgrwt>
<rscale>  0 0.41730270E+03</rscale>
<asrwt>0</asrwt>
<pdfrwt beam="1">  1        1 0.35677091E+00 0.41730270E+03</pdfrwt>
<pdfrwt beam="2">  1       -1 0.56881922E-01 0.41730270E+03</pdfrwt>
<totfact> 0.64429654E+00</totfact>
</mgrwt>
</event>
<event>
 4    1  0.4964158E-009  0.5418939E+03  0.7818608E-02  0.1003388E+00
         -1   -1    0    0    0  501 -0.00000000000E+00  0.00000000000E+00  0.26660146397E+03  0.26660146401E+03  0.50400000000E-02 0.  1.
          1   -1    0    0  501    0  0.00000000000E+00 -0.00000000000E+00 -0.11609700992E+04  0.11609700992E+04  0.50400000000E-02 0. -1.
    8880022    1    1    2    0    0 -0.16958929117E+03  0.49142326988E+03 -0.28557073312E+03  0.61253543121E+03  0.15294330000E+03 0.  0.
    8880022    1    1    2    0    0  0.16958929117E+03 -0.49142326988E+03 -0.60879790209E+03  0.81503613200E+03  0.15294330000E+03 0.  0.
<mgrwt>
<rscale>  0 0.54189391E+03</rscale>
<asrwt>0</asrwt>
<pdfrwt beam="1">  1        1 0.17861078E+00 0.54189391E+03</pdfrwt>
<pdfrwt beam="2">  1       -1 0.41015610E-01 0.54189391E+03</pdfrwt>
<totfact> 0.69511330E+01</totfact>
</mgrwt>
</event>
<event>
 4    1  0.4964158E-009  0.1088196E+04  0.7818608E-02  0.9216774E-01
         -1   -1    0    0    0  501 -0.00000000000E+00  0.00000000000E+00  0.81749512546E+03  0.81749512547E+03  0.50400000000E-02 0.  1.
          1   -1    0    0  501    0  0.00000000000E+00 -0.00000000000E+00 -0.21286066119E+04  0.21286066119E+04  0.50400000000E-02 0. -1.
    8880022    1    1    2    0    0 -0.69351861761E+03  0.82450672464E+03 -0.14881761795E+04  0.18435941545E+04  0.15294330000E+03 0. -1.
    8880022    1    1    2    0    0  0.69351861761E+03 -0.82450672464E+03  0.17706469307E+03  0.11025075830E+04  0.15294330000E+03 0.  0.
<mgrwt>
<rscale>  0 0.10881962E+04</rscale>
<asrwt>0</asrwt>
<pdfrwt beam="1">  1        1 0.32747794E+00 0.10881962E+04</pdfrwt>
<pdfrwt beam="2">  1       -1 0.12576848E+00 0.10881962E+04</pdfrwt>
<totfact> 0.13426414E+00</totfact>
</mgrwt>
</event>
<event>
 4    1  0.4964158E-009  0.6750402E+03  0.7818608E-02  0.9760895E-01
         -1   -1    0    0    0  501 -0.00000000000E+00  0.00000000000E+00  0.18343694413E+04  0.18343694413E+04  0.50400000000E-02 0.  1.
          1   -1    0    0  501    0  0.00000000000E+00 -0.00000000000E+00 -0.33284177860E+03  0.33284177864E+03  0.50400000000E-02 0. -1.
    8880022    1    1    2    0    0  0.46211901277E+03  0.46768961995E+03  0.20500548541E+03  0.70548314270E+03  0.15294330000E+03 0.  0.
    8880022    1    1    2    0    0 -0.46211901277E+03 -0.46768961995E+03  0.12965221773E+04  0.14617280773E+04  0.15294330000E+03 0.  0.
<mgrwt>
<rscale>  0 0.67504016E+03</rscale>
<asrwt>0</asrwt>
<pdfrwt beam="1">  1        1 0.51206426E-01 0.67504016E+03</pdfrwt>
<pdfrwt beam="2">  1       -1 0.28221069E+00 0.67504016E+03</pdfrwt>
<totfact> 0.34866009E+00</totfact>
</mgrwt>
</event>
<event>
 4    1  0.4964158E-009  0.9384450E+03  0.7818608E-02  0.9378760E-01
          1   -1    0    0  501    0  0.00000000000E+00  0.00000000000E+00  0.24384946663E+04  0.24384946663E+04  0.50400000000E-02 0. -1.
         -1   -1    0    0    0  501 -0.00000000000E+00 -0.00000000000E+00 -0.55268492010E+03  0.55268492013E+03  0.50400000000E-02 0.  1.
    8880022    1    1    2    0    0  0.35193619372E+03 -0.85640424444E+03  0.62484789362E+02  0.94052289513E+03  0.15294330000E+03 0.  0.
    8880022    1    1    2    0    0 -0.35193619372E+03  0.85640424444E+03  0.18233249568E+04  0.20506566913E+04  0.15294330000E+03 0.  0.
<mgrwt>
<rscale>  0 0.93844497E+03</rscale>
<asrwt>0</asrwt>
<pdfrwt beam="1">  1        1 0.37515303E+00 0.93844497E+03</pdfrwt>
<pdfrwt beam="2">  1       -1 0.85028449E-01 0.93844497E+03</pdfrwt>
<totfact> 0.21005152E+00</totfact>
</mgrwt>
</event>
<event>
 4    1  0.4964158E-009  0.2370661E+03  0.7818608E-02  0.1121763E+00
         -1   -1    0    0    0  501 -0.00000000000E+00  0.00000000000E+00  0.16746714767E+03  0.16746714775E+03  0.50400000000E-02 0.  1.
          1   -1    0    0  501    0  0.00000000000E+00 -0.00000000000E+00 -0.17510556175E+04  0.17510556175E+04  0.50400000000E-02 0. -1.
    8880022    1    1    2    0    0  0.62865074999E+02 -0.16987253388E+03  0.70661092166E+02  0.24737287317E+03  0.15294330000E+03 0.  1.
    8880022    1    1    2    0    0 -0.62865074999E+02  0.16987253388E+03 -0.16542495620E+04  0.16711498921E+04  0.15294330000E+03 0.  0.
<mgrwt>
<rscale>  0 0.23706613E+03</rscale>
<asrwt>0</asrwt>
<pdfrwt beam="1">  1        1 0.26939316E+00 0.23706613E+03</pdfrwt>
<pdfrwt beam="2">  1       -1 0.25764178E-01 0.23706613E+03</pdfrwt>
<totfact> 0.66199776E+01</totfact>
</mgrwt>
</event>
<event>
 4    1  0.4964158E-009  0.2820938E+03  0.7818608E-02  0.1094551E+00
          1   -1    0    0  501    0  0.00000000000E+00  0.00000000000E+00  0.21151617551E+03  0.21151617557E+03  0.50400000000E-02 0. -1.
         -1   -1    0    0    0  501 -0.00000000000E+00 -0.00000000000E+00 -0.22591001053E+04  0.22591001053E+04  0.50400000000E-02 0.  1.
    8880022    1    1    2    0    0  0.15114859624E+03 -0.18259069619E+03 -0.21515572872E+04  0.21699713532E+04  0.15294330000E+03 0.  0.
    8880022    1    1    2    0    0 -0.15114859624E+03  0.18259069619E+03  0.10397335742E+03  0.30064492769E+03  0.15294330000E+03 0. -1.
<mgrwt>
<rscale>  0 0.28209380E+03</rscale>
<asrwt>0</asrwt>
<pdfrwt beam="1">  1        1 0.32540952E-01 0.28209380E+03</pdfrwt>
<pdfrwt beam="2">  1       -1 0.34755385E+00 0.28209380E+03</pdfrwt>
<totfact> 0.26517842E+00</totfact>
</mgrwt>
</event>
<event>
 4    1  0.4964158E-009  0.1303171E+04  0.7818608E-02  0.9027054E-01
         -1   -1    0    0    0  501 -0.00000000000E+00  0.00000000000E+00  0.11054534407E+04  0.11054534407E+04  0.50400000000E-02 0.  1.
          1   -1    0    0  501    0  0.00000000000E+00 -0.00000000000E+00 -0.23995164402E+04  0.23995164403E+04  0.50400000000E-02 0. -1.
    8880022    1    1    2    0    0  0.36520011570E+02 -0.12936495879E+04 -0.16981809208E+04  0.21405777398E+04  0.15294330000E+03 0.  0.
    8880022    1    1    2    0    0 -0.36520011570E+02  0.12936495879E+04  0.40411792123E+03  0.13643921412E+04  0.15294330000E+03 0.  0.
<mgrwt>
<rscale>  0 0.13031710E+04</rscale>
<asrwt>0</asrwt>
<pdfrwt beam="1">  1        1 0.36915637E+00 0.13031710E+04</pdfrwt>
<pdfrwt beam="2">  1       -1 0.17006976E+00 0.13031710E+04</pdfrwt>
<totfact> 0.37944376E-01</totfact>
</mgrwt>
</event>
<event>
 4    1  0.4964158E-009  0.1985869E+03  0.7818608E-02  0.1150937E+00
         -1   -1    0    0    0  501 -0.00000000000E+00  0.00000000000E+00  0.68281958336E+03  0.68281958338E+03  0.50400000000E-02 0.  1.
          1   -1    0    0  501    0  0.00000000000E+00 -0.00000000000E+00 -0.21082154753E+04  0.21082154753E+04  0.50400000000E-02 0. -1.
    8880022    1    1    2    0    0 -0.57352807347E+02 -0.11294145784E+03 -0.20889672300E+04  0.20983852979E+04  0.15294330000E+03 0. -1.
    8880022    1    1    2    0    0  0.57352807347E+02  0.11294145784E+03  0.66357133806E+03  0.69264976078E+03  0.15294330000E+03 0.  0.
<mgrwt>
<rscale>  0 0.19858693E+03</rscale>
<asrwt>0</asrwt>
<pdfrwt beam="1">  1        1 0.32434084E+00 0.19858693E+03</pdfrwt>
<pdfrwt beam="2">  1       -1 0.10504917E+00 0.19858693E+03</pdfrwt>
<totfact> 0.27739015E+00</totfact>
</mgrwt>
</event>
<event>
 4    1  0.5540195E-009  0.1038017E+04  0.7818608E-02  0.9267804E-01
         -1   -1    0    0    0  501 -0.00000000000E+00  0.00000000000E+00  0.32903597660E+04  0.32903597660E+04  0.50400000000E-02 0.  1.
          1   -1    0    0  501    0  0.00000000000E+00 -0.00000000000E+00 -0.13849691746E+04  0.13849691746E+04  0.50400000000E-02 0. -1.
    8880022    1    1    2    0    0  0.35207437743E+03  0.96443351569E+03 -0.10899973252E+04  0.15051824459E+04  0.15294330000E+03 0.  0.
    8880022    1    1    2    0    0 -0.35207437743E+03 -0.96443351569E+03  0.29953879166E+04  0.31701464947E+04  0.15294330000E+03 0.  0.
<mgrwt>
<rscale>  0 0.10380174E+04</rscale>
<asrwt>0</asrwt>
<pdfrwt beam="1">  1        1 0.21307218E+00 0.10380174E+04</pdfrwt>
<pdfrwt beam="2">  1       -1 0.50620920E+00 0.10380174E+04</pdfrwt>
<totfact> 0.10823607E-02</totfact>
</mgrwt>
</event>
<event>
 4    1  0.4964158E-009  0.7529590E+03  0.7818608E-02  0.9630720E-01
          1   -1    0    0  501    0  0.00000000000E+00  0.00000000000E+00  0.57620665363E+03  0.57620665365E+03  0.50400000000E-02 0. -1.
         -1   -1    0    0    0  501 -0.00000000000E+00 -0.00000000000E+00 -0.13347070052E+04  0.13347070052E+04  0.50400000000E-02 0.  1.
    8880022    1    1    2    0    0  0.47713651130E+03  0.56204653805E+03 -0.86906670936E+03  0.11498800632E+04  0.15294330000E+03 0.  1.
    8880022    1    1    2    0    0 -0.47713651130E+03 -0.56204653805E+03  0.11056635775E+03  0.76103359573E+03  0.15294330000E+03 0.  0.
<mgrwt>
<rscale>  0 0.75295897E+03</rscale>
<asrwt>0</asrwt>
<pdfrwt beam="1">  1        1 0.88647178E-01 0.75295897E+03</pdfrwt>
<pdfrwt beam="2">  1       -1 0.20533954E+00 0.75295897E+03</pdfrwt>
<totfact> 0.52004408E+00</totfact>
</mgrwt>
</event>
<event>
 4    1  0.4964158E-009  0.7970745E+03  0.7818608E-02  0.9564261E-01
         -1   -1    0    0    0  501 -0.00000000000E+00  0.00000000000E+00  0.72949338530E+03  0.72949338532E+03  0.50400000000E-02 0.  1.
          1   -1    0    0  501    0  0.00000000000E+00 -0.00000000000E+00 -0.19061255389E+04  0.19061255389E+04  0.50400000000E-02 0. -1.
    8880022    1    1    2    0    0 -0.69091110367E+03 -0.36684858779E+03  0.38284426092E+03  0.88424963708E+03  0.15294330000E+03 0.  0.
    8880022    1    1    2    0    0  0.69091110367E+03  0.36684858779E+03 -0.15594764145E+04  0.17513692871E+04  0.15294330000E+03 0.  0.
<mgrwt>
<rscale>  0 0.79707446E+03</rscale>
<asrwt>0</asrwt>
<pdfrwt beam="1">  1        1 0.29325008E+00 0.79707446E+03</pdfrwt>
<pdfrwt beam="2">  1       -1 0.11222975E+00 0.79707446E+03</pdfrwt>
<totfact> 0.26178055E+00</totfact>
</mgrwt>
</event>
<event>
 4    1  0.4964158E-009  0.7465837E+03  0.7818608E-02  0.9640725E-01
         -1   -1    0    0    0  501 -0.00000000000E+00  0.00000000000E+00  0.54435769183E+03  0.54435769185E+03  0.50400000000E-02 0.  1.
          1   -1    0    0  501    0  0.00000000000E+00 -0.00000000000E+00 -0.21006357210E+04  0.21006357210E+04  0.50400000000E-02 0. -1.
    8880022    1    1    2    0    0  0.55977940617E+03 -0.46972603347E+03  0.16867923564E+03  0.76540176878E+03  0.15294330000E+03 0.  0.
    8880022    1    1    2    0    0 -0.55977940617E+03  0.46972603347E+03 -0.17249572648E+04  0.18795916441E+04  0.15294330000E+03 0.  0.
<mgrwt>
<rscale>  0 0.74658367E+03</rscale>
<asrwt>0</asrwt>
<pdfrwt beam="1">  1        1 0.32317472E+00 0.74658367E+03</pdfrwt>
<pdfrwt beam="2">  1       -1 0.83747338E-01 0.74658367E+03</pdfrwt>
<totfact> 0.37930082E+00</totfact>
</mgrwt>
</event>
<event>
 4    1  0.4964158E-009  0.4654413E+03  0.7818608E-02  0.1023215E+00
          1   -1    0    0  501    0  0.00000000000E+00  0.00000000000E+00  0.12421645058E+04  0.12421645058E+04  0.50400000000E-02 0. -1.
         -1   -1    0    0    0  501 -0.00000000000E+00 -0.00000000000E+00 -0.61709518238E+03  0.61709518240E+03  0.50400000000E-02 0.  1.
    8880022    1    1    2    0    0 -0.65101997689E+02  0.43474788796E+03 -0.47484741516E+03  0.66491782717E+03  0.15294330000E+03 0.  0.
    8880022    1    1    2    0    0  0.65101997689E+02 -0.43474788796E+03  0.10999167385E+04  0.11943418610E+04  0.15294330000E+03 0.  0.
<mgrwt>
<rscale>  0 0.46544135E+03</rscale>
<asrwt>0</asrwt>
<pdfrwt beam="1">  1        1 0.19110223E+00 0.46544135E+03</pdfrwt>
<pdfrwt beam="2">  1       -1 0.94937721E-01 0.46544135E+03</pdfrwt>
<totfact> 0.11626366E+01</totfact>
</mgrwt>
</event>
<event>
 4    1  0.4964158E-009  0.1087231E+04  0.7818608E-02  0.9217727E-01
         -1   -1    0    0    0  501 -0.00000000000E+00  0.00000000000E+00  0.62185474898E+03  0.62185474900E+03  0.50400000000E-02 0.  1.
          1   -1    0    0  501    0  0.00000000000E+00 -0.00000000000E+00 -0.30295795259E+04  0.30295795259E+04  0.50400000000E-02 0. -1.
    8880022    1    1    2    0    0 -0.36664589720E+03  0.10120528095E+04 -0.23182373100E+04  0.25605265048E+04  0.15294330000E+03 0.  0.
    8880022    1    1    2    0    0  0.36664589720E+03 -0.10120528095E+04 -0.89487466946E+02  0.10909077702E+04  0.15294330000E+03 0.  0.
<mgrwt>
<rscale>  0 0.10872312E+04</rscale>
<asrwt>0</asrwt>
<pdfrwt beam="1">  1        1 0.46608915E+00 0.10872312E+04</pdfrwt>
<pdfrwt beam="2">  1       -1 0.95669963E-01 0.10872312E+04</pdfrwt>
<totfact> 0.60769507E-01</totfact>
</mgrwt>
</event>
<event>
 4    1  0.4964158E-009  0.5679399E+03  0.7818608E-02  0.9974248E-01
         -1   -1    0    0    0  501 -0.00000000000E+00  0.00000000000E+00  0.73596699469E+03  0.73596699471E+03  0.50400000000E-02 0.  1.
          1   -1    0    0  501    0  0.00000000000E+00 -0.00000000000E+00 -0.14452904951E+04  0.14452904952E+04  0.50400000000E-02 0. -1.
    8880022    1    1    2    0    0  0.28662162871E+03  0.46584559162E+03  0.55570734112E+03  0.79458566264E+03  0.15294330000E+03 0.  0.
    8880022    1    1    2    0    0 -0.28662162871E+03 -0.46584559162E+03 -0.12650308416E+04  0.13866718272E+04  0.15294330000E+03 0.  0.
<mgrwt>
<rscale>  0 0.56793990E+03</rscale>
<asrwt>0</asrwt>
<pdfrwt beam="1">  1        1 0.22235238E+00 0.56793990E+03</pdfrwt>
<pdfrwt beam="2">  1       -1 0.11322569E+00 0.56793990E+03</pdfrwt>
<totfact> 0.54818803E+00</totfact>
</mgrwt>
</event>
<event>
 4    1  0.4964158E-009  0.5827156E+03  0.7818608E-02  0.9941929E-01
          1   -1    0    0  501    0  0.00000000000E+00  0.00000000000E+00  0.14326526877E+04  0.14326526877E+04  0.50400000000E-02 0. -1.
         -1   -1    0    0    0  501 -0.00000000000E+00 -0.00000000000E+00 -0.36287068981E+03  0.36287068985E+03  0.50400000000E-02 0.  1.
    8880022    1    1    2    0    0  0.20837472243E+03 -0.52225069393E+03  0.10636098752E+04  0.12127750954E+04  0.15294330000E+03 0.  0.
    8880022    1    1    2    0    0 -0.20837472243E+03  0.52225069393E+03  0.61721226506E+01  0.58274828217E+03  0.15294330000E+03 0.  0.
<mgrwt>
<rscale>  0 0.58271560E+03</rscale>
<asrwt>0</asrwt>
<pdfrwt beam="1">  1        1 0.22040810E+00 0.58271560E+03</pdfrwt>
<pdfrwt beam="2">  1       -1 0.55826261E-01 0.58271560E+03</pdfrwt>
<totfact> 0.25013777E+01</totfact>
</mgrwt>
</event>
<event>
 4    1  0.4964158E-009  0.1649530E+04  0.7818608E-02  0.8790685E-01
         -1   -1    0    0    0  501 -0.00000000000E+00  0.00000000000E+00  0.15452100603E+04  0.15452100604E+04  0.50400000000E-02 0.  1.
          1   -1    0    0  501    0  0.00000000000E+00 -0.00000000000E+00 -0.24312302449E+04  0.24312302450E+04  0.50400000000E-02 0. -1.
    8880022    1    1    2    0    0  0.10335683550E+02 -0.16423915526E+04  0.60098469353E+03  0.17555999240E+04  0.15294330000E+03 0.  0.
    8880022    1    1    2    0    0 -0.10335683550E+02  0.16423915526E+04 -0.14870048781E+04  0.22208403813E+04  0.15294330000E+03 0.  0.
<mgrwt>
<rscale>  0 0.16495298E+04</rscale>
<asrwt>0</asrwt>
<pdfrwt beam="1">  1        1 0.37403542E+00 0.16495298E+04</pdfrwt>
<pdfrwt beam="2">  1       -1 0.23772462E+00 0.16495298E+04</pdfrwt>
<totfact> 0.11756062E-01</totfact>
</mgrwt>
</event>
<event>
 4    1  0.4964158E-009  0.1452570E+04  0.7818608E-02  0.8916621E-01
          1   -1    0    0  501    0  0.00000000000E+00  0.00000000000E+00  0.15331823100E+04  0.15331823100E+04  0.50400000000E-02 0. -1.
         -1   -1    0    0    0  501 -0.00000000000E+00 -0.00000000000E+00 -0.18219109708E+04  0.18219109708E+04  0.50400000000E-02 0.  1.
    8880022    1    1    2    0    0 -0.13302377524E+04 -0.56305825043E+03 -0.97410015508E+03  0.17489510675E+04  0.15294330000E+03 0.  0.
    8880022    1    1    2    0    0  0.13302377524E+04  0.56305825043E+03  0.68537149428E+03  0.16061422133E+04  0.15294330000E+03 0.  0.
<mgrwt>
<rscale>  0 0.14525697E+04</rscale>
<asrwt>0</asrwt>
<pdfrwt beam="1">  1        1 0.23587420E+00 0.14525697E+04</pdfrwt>
<pdfrwt beam="2">  1       -1 0.28029399E+00 0.14525697E+04</pdfrwt>
<totfact> 0.26135152E-01</totfact>
</mgrwt>
</event>
<event>
 4    1  0.4964158E-009  0.1039010E+04  0.7818608E-02  0.9266764E-01
          1   -1    0    0  501    0  0.00000000000E+00  0.00000000000E+00  0.25168294526E+04  0.25168294526E+04  0.50400000000E-02 0. -1.
         -1   -1    0    0    0  501 -0.00000000000E+00 -0.00000000000E+00 -0.98276171949E+03  0.98276171950E+03  0.50400000000E-02 0.  1.
    8880022    1    1    2    0    0 -0.43818264977E+03 -0.92959497751E+03  0.20806010570E+04  0.23256060002E+04  0.15294330000E+03 0.  0.
    8880022    1    1    2    0    0  0.43818264977E+03  0.92959497751E+03 -0.54653332387E+03  0.11739851719E+04  0.15294330000E+03 0.  0.
<mgrwt>
<rscale>  0 0.10390104E+04</rscale>
<asrwt>0</asrwt>
<pdfrwt beam="1">  1        1 0.38720453E+00 0.10390104E+04</pdfrwt>
<pdfrwt beam="2">  1       -1 0.15119411E+00 0.10390104E+04</pdfrwt>
<totfact> 0.45572991E-01</totfact>
</mgrwt>
</event>
<event>
 4    1  0.4964158E-009  0.3066273E+03  0.7818608E-02  0.1081974E+00
         -1   -1    0    0    0  501 -0.00000000000E+00  0.00000000000E+00  0.19465628874E+03  0.19465628881E+03  0.50400000000E-02 0.  1.
          1   -1    0    0  501    0  0.00000000000E+00 -0.00000000000E+00 -0.12012845081E+04  0.12012845081E+04  0.50400000000E-02 0. -1.
    8880022    1    1    2    0    0  0.14783945046E+02  0.26534900322E+03 -0.10430238543E+04  0.10871610148E+04  0.15294330000E+03 0.  0.
    8880022    1    1    2    0    0 -0.14783945046E+02 -0.26534900322E+03  0.36395634970E+02  0.30877978205E+03  0.15294330000E+03 0.  0.
<mgrwt>
<rscale>  0 0.30662732E+03</rscale>
<asrwt>0</asrwt>
<pdfrwt beam="1">  1        1 0.18481300E+00 0.30662732E+03</pdfrwt>
<pdfrwt beam="2">  1       -1 0.29947122E-01 0.30662732E+03</pdfrwt>
<totfact> 0.11755025E+02</totfact>
</mgrwt>
</event>
<event>
 4    1  0.4964158E-009  0.1388032E+04  0.7818608E-02  0.8962528E-01
         -1   -1    0    0    0  501 -0.00000000000E+00  0.00000000000E+00  0.13611983431E+04  0.13611983431E+04  0.50400000000E-02 0.  1.
          1   -1    0    0  501    0  0.00000000000E+00 -0.00000000000E+00 -0.18182217893E+04  0.18182217893E+04  0.50400000000E-02 0. -1.
    8880022    1    1    2    0    0 -0.12898095077E+04 -0.48952146120E+03 -0.97677494527E+03  0.16972686216E+04  0.15294330000E+03 0.  0.
    8880022    1    1    2    0    0  0.12898095077E+04  0.48952146120E+03  0.51975149906E+03  0.14821515108E+04  0.15294330000E+03 0.  0.
<mgrwt>
<rscale>  0 0.13880315E+04</rscale>
<asrwt>0</asrwt>
<pdfrwt beam="1">  1        1 0.27972643E+00 0.13880315E+04</pdfrwt>
<pdfrwt beam="2">  1       -1 0.20941513E+00 0.13880315E+04</pdfrwt>
<totfact> 0.49190012E-01</totfact>
</mgrwt>
</event>
<event>
 4    1  0.4964158E-009  0.1008180E+04  0.7818608E-02  0.9299619E-01
         -1   -1    0    0    0  501 -0.00000000000E+00  0.00000000000E+00  0.68868822216E+03  0.68868822217E+03  0.50400000000E-02 0.  1.
          1   -1    0    0  501    0  0.00000000000E+00 -0.00000000000E+00 -0.37426881971E+04  0.37426881971E+04  0.50400000000E-02 0. -1.
    8880022    1    1    2    0    0  0.17696125445E+03  0.98067293841E+03  0.19734234390E+03  0.10273121976E+04  0.15294330000E+03 0.  0.
    8880022    1    1    2    0    0 -0.17696125445E+03 -0.98067293841E+03 -0.32513423189E+04  0.34040642217E+04  0.15294330000E+03 0.  0.
<mgrwt>
<rscale>  0 0.10081797E+04</rscale>
<asrwt>0</asrwt>
<pdfrwt beam="1">  1        1 0.57579817E+00 0.10081797E+04</pdfrwt>
<pdfrwt beam="2">  1       -1 0.10595204E+00 0.10081797E+04</pdfrwt>
<totfact> 0.13853574E-01</totfact>
</mgrwt>
</event>
<event>
 4    1  0.4964158E-009  0.1202494E+04  0.7818608E-02  0.9110677E-01
         -1   -1    0    0    0  501 -0.00000000000E+00  0.00000000000E+00  0.22489698952E+04  0.22489698953E+04  0.50400000000E-02 0.  1.
          1   -1    0    0  501    0  0.00000000000E+00 -0.00000000000E+00 -0.37110095347E+04  0.37110095347E+04  0.50400000000E-02 0. -1.
    8880022    1    1    2    0    0  0.20735030017E+03  0.11745660134E+04 -0.34405882289E+04  0.36446726164E+04  0.15294330000E+03 0.  0.
    8880022    1    1    2    0    0 -0.20735030017E+03 -0.11745660134E+04  0.19785485895E+04  0.23153068135E+04  0.15294330000E+03 0.  0.
<mgrwt>
<rscale>  0 0.12024937E+04</rscale>
<asrwt>0</asrwt>
<pdfrwt beam="1">  1        1 0.57092455E+00 0.12024937E+04</pdfrwt>
<pdfrwt beam="2">  1       -1 0.34599537E+00 0.12024937E+04</pdfrwt>
<totfact> 0.28221125E-03</totfact>
</mgrwt>
</event>
<event>
 4    1  0.4964158E-009  0.1008601E+04  0.7818608E-02  0.9299161E-01
          1   -1    0    0  501    0  0.00000000000E+00  0.00000000000E+00  0.10665102103E+04  0.10665102103E+04  0.50400000000E-02 0. -1.
         -1   -1    0    0    0  501 -0.00000000000E+00 -0.00000000000E+00 -0.10046494653E+04  0.10046494653E+04  0.50400000000E-02 0.  1.
    8880022    1    1    2    0    0 -0.99073771711E+03  0.11101194999E+03 -0.20196610534E+03  0.10286237591E+04  0.15294330000E+03 0.  0.
    8880022    1    1    2    0    0  0.99073771711E+03 -0.11101194999E+03  0.26382685029E+03  0.10425359165E+04  0.15294330000E+03 0. -1.
<mgrwt>
<rscale>  0 0.10086013E+04</rscale>
<asrwt>0</asrwt>
<pdfrwt beam="1">  1        1 0.16407849E+00 0.10086013E+04</pdfrwt>
<pdfrwt beam="2">  1       -1 0.15456146E+00 0.10086013E+04</pdfrwt>
<totfact> 0.43313097E+00</totfact>
</mgrwt>
</event>
<event>
 4    1  0.4964158E-009  0.5226973E+03  0.7818608E-02  0.1008019E+00
         -1   -1    0    0    0  501 -0.00000000000E+00  0.00000000000E+00  0.10123310139E+04  0.10123310139E+04  0.50400000000E-02 0.  1.
          1   -1    0    0  501    0  0.00000000000E+00 -0.00000000000E+00 -0.56753380215E+03  0.56753380217E+03  0.50400000000E-02 0. -1.
    8880022    1    1    2    0    0 -0.39920928147E+03  0.30075360405E+03  0.79446509856E+03  0.95099275844E+03  0.15294330000E+03 0.  0.
    8880022    1    1    2    0    0  0.39920928147E+03 -0.30075360405E+03 -0.34966788683E+03  0.62887205762E+03  0.15294330000E+03 0.  0.
<mgrwt>
<rscale>  0 0.52269727E+03</rscale>
<asrwt>0</asrwt>
<pdfrwt beam="1">  1        1 0.87312894E-01 0.52269727E+03</pdfrwt>
<pdfrwt beam="2">  1       -1 0.15574323E+00 0.52269727E+03</pdfrwt>
<totfact> 0.12432540E+01</totfact>
</mgrwt>
</event>
<event>
 4    1  0.4964158E-009  0.6245846E+03  0.7818608E-02  0.9855674E-01
          1   -1    0    0  501    0  0.00000000000E+00  0.00000000000E+00  0.89096666837E+03  0.89096666838E+03  0.50400000000E-02 0. -1.
         -1   -1    0    0    0  501 -0.00000000000E+00 -0.00000000000E+00 -0.48124698308E+03  0.48124698311E+03  0.50400000000E-02 0.  1.
    8880022    1    1    2    0    0  0.50639818536E+03 -0.33207695620E+03  0.41090350701E+03  0.74762796367E+03  0.15294330000E+03 0.  0.
    8880022    1    1    2    0    0 -0.50639818536E+03  0.33207695620E+03 -0.11838217272E+01  0.62458568782E+03  0.15294330000E+03 0.  0.
<mgrwt>
<rscale>  0 0.62458457E+03</rscale>
<asrwt>0</asrwt>
<pdfrwt beam="1">  1        1 0.13707180E+00 0.62458457E+03</pdfrwt>
<pdfrwt beam="2">  1       -1 0.74037997E-01 0.62458457E+03</pdfrwt>
<totfact> 0.35368018E+01</totfact>
</mgrwt>
</event>
<event>
 4    1  0.4964158E-009  0.8041060E+03  0.7818608E-02  0.9554093E-01
         -1   -1    0    0    0  501 -0.00000000000E+00  0.00000000000E+00  0.49534523734E+03  0.49534523737E+03  0.50400000000E-02 0.  1.
          1   -1    0    0  501    0  0.00000000000E+00 -0.00000000000E+00 -0.25689650678E+04  0.25689650678E+04  0.50400000000E-02 0. -1.
    8880022    1    1    2    0    0  0.71993062947E+03 -0.32387446275E+03  0.37761718365E+02  0.80499216100E+03  0.15294330000E+03 0.  0.
    8880022    1    1    2    0    0 -0.71993062947E+03  0.32387446275E+03 -0.21113815488E+04  0.22593181442E+04  0.15294330000E+03 0.  0.
<mgrwt>
<rscale>  0 0.80410598E+03</rscale>
<asrwt>0</asrwt>
<pdfrwt beam="1">  1        1 0.39522539E+00 0.80410598E+03</pdfrwt>
<pdfrwt beam="2">  1       -1 0.76206961E-01 0.80410598E+03</pdfrwt>
<totfact> 0.22099572E+00</totfact>
</mgrwt>
</event>
<event>
 4    1  0.4964158E-009  0.7694460E+03  0.7818608E-02  0.9605327E-01
         -1   -1    0    0    0  501 -0.00000000000E+00  0.00000000000E+00  0.93464496386E+03  0.93464496388E+03  0.50400000000E-02 0.  1.
          1   -1    0    0  501    0  0.00000000000E+00 -0.00000000000E+00 -0.13617861009E+04  0.13617861009E+04  0.50400000000E-02 0. -1.
    8880022    1    1    2    0    0 -0.80128148691E+02 -0.74982330782E+03 -0.10532935964E+04  0.13044058289E+04  0.15294330000E+03 0.  0.
    8880022    1    1    2    0    0  0.80128148691E+02  0.74982330782E+03  0.62615245941E+03  0.99202523587E+03  0.15294330000E+03 0.  0.
<mgrwt>
<rscale>  0 0.76944601E+03</rscale>
<asrwt>0</asrwt>
<pdfrwt beam="1">  1        1 0.20950555E+00 0.76944601E+03</pdfrwt>
<pdfrwt beam="2">  1       -1 0.14379153E+00 0.76944601E+03</pdfrwt>
<totfact> 0.33180045E+00</totfact>
</mgrwt>
</event>
<event>
 4    1  0.4964158E-009  0.8249407E+03  0.7818608E-02  0.9524602E-01
         -1   -1    0    0    0  501 -0.00000000000E+00  0.00000000000E+00  0.12974893017E+04  0.12974893017E+04  0.50400000000E-02 0.  1.
          1   -1    0    0  501    0  0.00000000000E+00 -0.00000000000E+00 -0.74908200533E+03  0.74908200535E+03  0.50400000000E-02 0. -1.
    8880022    1    1    2    0    0  0.36609389005E+03 -0.72326393677E+03 -0.28610093157E+03  0.87314423473E+03  0.15294330000E+03 0.  0.
    8880022    1    1    2    0    0 -0.36609389005E+03  0.72326393677E+03  0.83450822797E+03  0.11734270724E+04  0.15294330000E+03 0.  0.
<mgrwt>
<rscale>  0 0.82494067E+03</rscale>
<asrwt>0</asrwt>
<pdfrwt beam="1">  1        1 0.11524339E+00 0.82494067E+03</pdfrwt>
<pdfrwt beam="2">  1       -1 0.19961374E+00 0.82494067E+03</pdfrwt>
<totfact> 0.38152359E+00</totfact>
</mgrwt>
</event>
<event>
 4    1  0.4964158E-009  0.4939789E+03  0.7818608E-02  0.1015363E+00
          1   -1    0    0  501    0  0.00000000000E+00  0.00000000000E+00  0.80944550416E+03  0.80944550417E+03  0.50400000000E-02 0. -1.
         -1   -1    0    0    0  501 -0.00000000000E+00 -0.00000000000E+00 -0.97455715517E+03  0.97455715518E+03  0.50400000000E-02 0.  1.
    8880022    1    1    2    0    0  0.43411456155E+03 -0.17935462485E+03 -0.82386747258E+03  0.96061063882E+03  0.15294330000E+03 0.  0.
    8880022    1    1    2    0    0 -0.43411456155E+03  0.17935462485E+03  0.65875582157E+03  0.82339202054E+03  0.15294330000E+03 0.  0.
<mgrwt>
<rscale>  0 0.49397893E+03</rscale>
<asrwt>0</asrwt>
<pdfrwt beam="1">  1        1 0.12453008E+00 0.49397893E+03</pdfrwt>
<pdfrwt beam="2">  1       -1 0.14993187E+00 0.49397893E+03</pdfrwt>
<totfact> 0.81787709E+00</totfact>
</mgrwt>
</event>
<event>
 4    1  0.4964158E-009  0.5276416E+03  0.7818608E-02  0.1006806E+00
         -1   -1    0    0    0  501 -0.00000000000E+00  0.00000000000E+00  0.56842990814E+03  0.56842990816E+03  0.50400000000E-02 0.  1.
          1   -1    0    0  501    0  0.00000000000E+00 -0.00000000000E+00 -0.66536334473E+03  0.66536334475E+03  0.50400000000E-02 0. -1.
    8880022    1    1    2    0    0  0.47230162335E+03  0.17873206245E+03 -0.36536841282E+03  0.64179412873E+03  0.15294330000E+03 0.  0.
    8880022    1    1    2    0    0 -0.47230162335E+03 -0.17873206245E+03  0.26843497623E+03  0.59199912419E+03  0.15294330000E+03 0.  0.
<mgrwt>
<rscale>  0 0.52764157E+03</rscale>
<asrwt>0</asrwt>
<pdfrwt beam="1">  1        1 0.10236359E+00 0.52764157E+03</pdfrwt>
<pdfrwt beam="2">  1       -1 0.87450755E-01 0.52764157E+03</pdfrwt>
<totfact> 0.39724948E+01</totfact>
</mgrwt>
</event>
<event>
 4    1  0.5911189E-009  0.8692092E+03  0.7818608E-02  0.9464912E-01
          1   -1    0    0  501    0  0.00000000000E+00  0.00000000000E+00  0.23433480950E+04  0.23433480950E+04  0.50400000000E-02 0. -1.
         -1   -1    0    0    0  501 -0.00000000000E+00 -0.00000000000E+00 -0.84099671766E+03  0.84099671768E+03  0.50400000000E-02 0.  1.
    8880022    1    1    2    0    0 -0.85325608180E+03 -0.63930578257E+02  0.20014421785E+04  0.21820393000E+04  0.15294330000E+03 0.  0.
    8880022    1    1    2    0    0  0.85325608180E+03  0.63930578257E+02 -0.49909080114E+03  0.10023055127E+04  0.15294330000E+03 0.  0.
<mgrwt>
<rscale>  0 0.86920925E+03</rscale>
<asrwt>0</asrwt>
<pdfrwt beam="1">  1        1 0.36051509E+00 0.86920925E+03</pdfrwt>
<pdfrwt beam="2">  1       -1 0.12938411E+00 0.86920925E+03</pdfrwt>
<totfact> 0.92701131E-01</totfact>
</mgrwt>
</event>
<event>
 4    1  0.4964158E-009  0.7214431E+03  0.7818608E-02  0.9681248E-01
         -1   -1    0    0    0  501 -0.00000000000E+00  0.00000000000E+00  0.78021257824E+03  0.78021257826E+03  0.50400000000E-02 0.  1.
          1   -1    0    0  501    0  0.00000000000E+00 -0.00000000000E+00 -0.96569891500E+03  0.96569891501E+03  0.50400000000E-02 0. -1.
    8880022    1    1    2    0    0 -0.62056358054E+02  0.70230868655E+03 -0.57816037466E+03  0.92452666517E+03  0.15294330000E+03 0.  0.
    8880022    1    1    2    0    0  0.62056358054E+02 -0.70230868655E+03  0.39267403790E+03  0.82138482810E+03  0.15294330000E+03 0.  0.
<mgrwt>
<rscale>  0 0.72144309E+03</rscale>
<asrwt>0</asrwt>
<pdfrwt beam="1">  1        1 0.14856906E+00 0.72144309E+03</pdfrwt>
<pdfrwt beam="2">  1       -1 0.12003270E+00 0.72144309E+03</pdfrwt>
<totfact> 0.10323713E+01</totfact>
</mgrwt>
</event>
<event>
 4    1  0.4964158E-009  0.7161434E+03  0.7818608E-02  0.9690016E-01
         -1   -1    0    0    0  501 -0.00000000000E+00  0.00000000000E+00  0.13256292849E+04  0.13256292849E+04  0.50400000000E-02 0.  1.
          1   -1    0    0  501    0  0.00000000000E+00 -0.00000000000E+00 -0.70598987398E+03  0.70598987399E+03  0.50400000000E-02 0. -1.
    8880022    1    1    2    0    0  0.60259912673E+03 -0.35544893202E+03 -0.37311980930E+03  0.80751451747E+03  0.15294330000E+03 0.  0.
    8880022    1    1    2    0    0 -0.60259912673E+03  0.35544893202E+03  0.99275922017E+03  0.12241046414E+04  0.15294330000E+03 0.  0.
<mgrwt>
<rscale>  0 0.71614335E+03</rscale>
<asrwt>0</asrwt>
<pdfrwt beam="1">  1        1 0.10861383E+00 0.71614335E+03</pdfrwt>
<pdfrwt beam="2">  1       -1 0.20394296E+00 0.71614335E+03</pdfrwt>
<totfact> 0.39683480E+00</totfact>
</mgrwt>
</event>
<event>
 4    1  0.4964158E-009  0.2051988E+04  0.7818608E-02  0.8582693E-01
          1   -1    0    0  501    0  0.00000000000E+00  0.00000000000E+00  0.15518720581E+04  0.15518720582E+04  0.50400000000E-02 0. -1.
         -1   -1    0    0    0  501 -0.00000000000E+00 -0.00000000000E+00 -0.29179218414E+04  0.29179218414E+04  0.50400000000E-02 0.  1.
    8880022    1    1    2    0    0 -0.66133092948E+03  0.19364666622E+04 -0.91157037655E+02  0.20540114388E+04  0.15294330000E+03 0.  0.
    8880022    1    1    2    0    0  0.66133092948E+03 -0.19364666622E+04 -0.12748927456E+04  0.24157824608E+04  0.15294330000E+03 0.  0.
<mgrwt>
<rscale>  0 0.20519877E+04</rscale>
<asrwt>0</asrwt>
<pdfrwt beam="1">  1        1 0.23874955E+00 0.20519877E+04</pdfrwt>
<pdfrwt beam="2">  1       -1 0.44891105E+00 0.20519877E+04</pdfrwt>
<totfact> 0.17562085E-02</totfact>
</mgrwt>
</event>
<event>
 4    1  0.4964158E-009  0.9555224E+03  0.7818608E-02  0.9358719E-01
         -1   -1    0    0    0  501 -0.00000000000E+00  0.00000000000E+00  0.12218243702E+04  0.12218243702E+04  0.50400000000E-02 0.  1.
          1   -1    0    0  501    0  0.00000000000E+00 -0.00000000000E+00 -0.96832590339E+03  0.96832590341E+03  0.50400000000E-02 0. -1.
    8880022    1    1    2    0    0  0.29320659124E+03 -0.89647156472E+03 -0.39647997396E+03  0.10345140861E+04  0.15294330000E+03 0.  0.
    8880022    1    1    2    0    0 -0.29320659124E+03  0.89647156472E+03  0.64997844075E+03  0.11556361875E+04  0.15294330000E+03 0.  0.
<mgrwt>
<rscale>  0 0.95552238E+03</rscale>
<asrwt>0</asrwt>
<pdfrwt beam="1">  1        1 0.14897322E+00 0.95552238E+03</pdfrwt>
<pdfrwt beam="2">  1       -1 0.18797298E+00 0.95552238E+03</pdfrwt>
<totfact> 0.29536568E+00</totfact>
</mgrwt>
</event>
<event>
 4    1  0.4964158E-009  0.3995570E+03  0.7818608E-02  0.1043933E+00
         -1   -1    0    0    0  501 -0.00000000000E+00  0.00000000000E+00  0.17487571927E+03  0.17487571934E+03  0.50400000000E-02 0.  1.
          1   -1    0    0  501    0  0.00000000000E+00 -0.00000000000E+00 -0.28029510211E+04  0.28029510211E+04  0.50400000000E-02 0. -1.
    8880022    1    1    2    0    0  0.33092717804E+03  0.16352773581E+03 -0.25366740052E+04  0.25679487493E+04  0.15294330000E+03 0.  0.
    8880022    1    1    2    0    0 -0.33092717804E+03 -0.16352773581E+03 -0.91401296614E+02  0.40987799110E+03  0.15294330000E+03 0.  0.
<mgrwt>
<rscale>  0 0.39955697E+03</rscale>
<asrwt>0</asrwt>
<pdfrwt beam="1">  1        1 0.43122320E+00 0.39955697E+03</pdfrwt>
<pdfrwt beam="2">  1       -1 0.26903959E-01 0.39955697E+03</pdfrwt>
<totfact> 0.11712848E+01</totfact>
</mgrwt>
</event>
<event>
 4    1  0.4964158E-009  0.1328730E+04  0.7818608E-02  0.9007087E-01
         -1   -1    0    0    0  501 -0.00000000000E+00  0.00000000000E+00  0.15744107112E+04  0.15744107112E+04  0.50400000000E-02 0.  1.
          1   -1    0    0  501    0  0.00000000000E+00 -0.00000000000E+00 -0.15180155888E+04  0.15180155889E+04  0.50400000000E-02 0. -1.
    8880022    1    1    2    0    0  0.87754933528E+03 -0.98592100724E+03 -0.76215870422E+03  0.15317997950E+04  0.15294330000E+03 0.  0.
    8880022    1    1    2    0    0 -0.87754933528E+03  0.98592100724E+03  0.81855382654E+03  0.15606265051E+04  0.15294330000E+03 0.  0.
<mgrwt>
<rscale>  0 0.13287305E+04</rscale>
<asrwt>0</asrwt>
<pdfrwt beam="1">  1        1 0.23354086E+00 0.13287305E+04</pdfrwt>
<pdfrwt beam="2">  1       -1 0.24221703E+00 0.13287305E+04</pdfrwt>
<totfact> 0.48067626E-01</totfact>
</mgrwt>
</event>
<event>
 4    1  0.4964158E-009  0.1266960E+04  0.7818608E-02  0.9056185E-01
         -1   -1    0    0    0  501 -0.00000000000E+00  0.00000000000E+00  0.16751168607E+04  0.16751168607E+04  0.50400000000E-02 0.  1.
          1   -1    0    0  501    0  0.00000000000E+00 -0.00000000000E+00 -0.10852949756E+04  0.10852949757E+04  0.50400000000E-02 0. -1.
    8880022    1    1    2    0    0 -0.26370267156E+03 -0.12297381620E+04 -0.17730717691E+03  0.12793062706E+04  0.15294330000E+03 0.  0.
    8880022    1    1    2    0    0  0.26370267156E+03  0.12297381620E+04  0.76712906194E+03  0.14811055657E+04  0.15294330000E+03 0.  0.
<mgrwt>
<rscale>  0 0.12669596E+04</rscale>
<asrwt>0</asrwt>
<pdfrwt beam="1">  1        1 0.16696846E+00 0.12669596E+04</pdfrwt>
<pdfrwt beam="2">  1       -1 0.25771028E+00 0.12669596E+04</pdfrwt>
<totfact> 0.78684194E-01</totfact>
</mgrwt>
</event>
<event>
 4    1  0.4964158E-009  0.5073446E+03  0.7818608E-02  0.1011879E+00
         -1   -1    0    0    0  501 -0.00000000000E+00  0.00000000000E+00  0.94170709422E+03  0.94170709423E+03  0.50400000000E-02 0.  1.
          1   -1    0    0  501    0  0.00000000000E+00 -0.00000000000E+00 -0.17337651444E+04  0.17337651444E+04  0.50400000000E-02 0. -1.
    8880022    1    1    2    0    0  0.47310756156E+03 -0.10087678011E+03  0.83173861345E+03  0.97426262563E+03  0.15294330000E+03 0.  0.
    8880022    1    1    2    0    0 -0.47310756156E+03  0.10087678011E+03 -0.16237966636E+04  0.17012096130E+04  0.15294330000E+03 0. -1.
<mgrwt>
<rscale>  0 0.50734460E+03</rscale>
<asrwt>0</asrwt>
<pdfrwt beam="1">  1        1 0.26673310E+00 0.50734460E+03</pdfrwt>
<pdfrwt beam="2">  1       -1 0.14487801E+00 0.50734460E+03</pdfrwt>
<totfact> 0.19279350E+00</totfact>
</mgrwt>
</event>
<event>
 4    1  0.4964158E-009  0.5732547E+03  0.7818608E-02  0.9962502E-01
          1   -1    0    0  501    0  0.00000000000E+00  0.00000000000E+00  0.27740494637E+04  0.27740494637E+04  0.50400000000E-02 0. -1.
         -1   -1    0    0    0  501 -0.00000000000E+00 -0.00000000000E+00 -0.58641992534E+03  0.58641992536E+03  0.50400000000E-02 0.  1.
    8880022    1    1    2    0    0  0.35256082063E+03  0.42535889509E+03  0.25947734498E+04  0.26573427010E+04  0.15294330000E+03 0.  0.
    8880022    1    1    2    0    0 -0.35256082063E+03 -0.42535889509E+03 -0.40714391141E+03  0.70312668808E+03  0.15294330000E+03 0.  0.
<mgrwt>
<rscale>  0 0.57325472E+03</rscale>
<asrwt>0</asrwt>
<pdfrwt beam="1">  1        1 0.42677683E+00 0.57325472E+03</pdfrwt>
<pdfrwt beam="2">  1       -1 0.90218452E-01 0.57325472E+03</pdfrwt>
<totfact> 0.11725384E+00</totfact>
</mgrwt>
</event>
<event>
 4    1  0.4964158E-009  0.2000556E+03  0.7818608E-02  0.1149692E+00
          1   -1    0    0  501    0  0.00000000000E+00  0.00000000000E+00  0.21276824228E+04  0.21276824228E+04  0.50400000000E-02 0. -1.
         -1   -1    0    0    0  501 -0.00000000000E+00 -0.00000000000E+00 -0.12931604870E+03  0.12931604880E+03  0.50400000000E-02 0.  1.
    8880022    1    1    2    0    0 -0.11738326537E+03 -0.53401870155E+02  0.20423832033E+04  0.20521577408E+04  0.15294330000E+03 0.  0.
    8880022    1    1    2    0    0  0.11738326537E+03  0.53401870155E+02 -0.44016829262E+02  0.20484073081E+03  0.15294330000E+03 0.  1.
<mgrwt>
<rscale>  0 0.20005560E+03</rscale>
<asrwt>0</asrwt>
<pdfrwt beam="1">  1        1 0.32733573E+00 0.20005560E+03</pdfrwt>
<pdfrwt beam="2">  1       -1 0.19894779E-01 0.20005560E+03</pdfrwt>
<totfact> 0.58706144E+01</totfact>
</mgrwt>
</event>
<event>
 4    1  0.4964158E-009  0.6552911E+03  0.7818608E-02  0.9796901E-01
         -1   -1    0    0    0  501 -0.00000000000E+00  0.00000000000E+00  0.19569797642E+04  0.19569797642E+04  0.50400000000E-02 0.  1.
          1   -1    0    0  501    0  0.00000000000E+00 -0.00000000000E+00 -0.68441864063E+03  0.68441864065E+03  0.50400000000E-02 0. -1.
    8880022    1    1    2    0    0  0.95177516742E+01 -0.63712177141E+03 -0.45231719855E+03  0.79623943655E+03  0.15294330000E+03 0.  0.
    8880022    1    1    2    0    0 -0.95177516742E+01  0.63712177141E+03  0.17248783221E+04  0.18451589683E+04  0.15294330000E+03 0.  0.
<mgrwt>
<rscale>  0 0.65529107E+03</rscale>
<asrwt>0</asrwt>
<pdfrwt beam="1">  1        1 0.10529518E+00 0.65529107E+03</pdfrwt>
<pdfrwt beam="2">  1       -1 0.30107380E+00 0.65529107E+03</pdfrwt>
<totfact> 0.98749431E-01</totfact>
</mgrwt>
</event>
<event>
 4    1  0.4964158E-009  0.1166472E+04  0.7818608E-02  0.9142720E-01
         -1   -1    0    0    0  501 -0.00000000000E+00  0.00000000000E+00  0.11953126879E+04  0.11953126879E+04  0.50400000000E-02 0.  1.
          1   -1    0    0  501    0  0.00000000000E+00 -0.00000000000E+00 -0.13892431797E+04  0.13892431797E+04  0.50400000000E-02 0. -1.
    8880022    1    1    2    0    0 -0.18194845947E+03 -0.11419984439E+04 -0.64616541943E+03  0.13334868166E+04  0.15294330000E+03 0.  0.
    8880022    1    1    2    0    0  0.18194845947E+03  0.11419984439E+04  0.45223492764E+03  0.12510690511E+04  0.15294330000E+03 0.  0.
<mgrwt>
<rscale>  0 0.11664722E+04</rscale>
<asrwt>0</asrwt>
<pdfrwt beam="1">  1        1 0.21372972E+00 0.11664722E+04</pdfrwt>
<pdfrwt beam="2">  1       -1 0.18389426E+00 0.11664722E+04</pdfrwt>
<totfact> 0.15012951E+00</totfact>
</mgrwt>
</event>
<event>
 4    1  0.4964158E-009  0.1407066E+04  0.7818608E-02  0.8948719E-01
         -1   -1    0    0    0  501 -0.00000000000E+00  0.00000000000E+00  0.11729432578E+04  0.11729432578E+04  0.50400000000E-02 0.  1.
          1   -1    0    0  501    0  0.00000000000E+00 -0.00000000000E+00 -0.17337271928E+04  0.17337271928E+04  0.50400000000E-02 0. -1.
    8880022    1    1    2    0    0 -0.13517802729E+04  0.35935291049E+03 -0.51662217342E+03  0.14989111193E+04  0.15294330000E+03 0.  0.
    8880022    1    1    2    0    0  0.13517802729E+04 -0.35935291049E+03 -0.44161761603E+02  0.14077593312E+04  0.15294330000E+03 0.  0.
<mgrwt>
<rscale>  0 0.14070665E+04</rscale>
<asrwt>0</asrwt>
<pdfrwt beam="1">  1        1 0.26672726E+00 0.14070665E+04</pdfrwt>
<pdfrwt beam="2">  1       -1 0.18045281E+00 0.14070665E+04</pdfrwt>
<totfact> 0.89355710E-01</totfact>
</mgrwt>
</event>
<event>
 4    1  0.4964158E-009  0.7537958E+03  0.7818608E-02  0.9629414E-01
         -1   -1    0    0    0  501 -0.00000000000E+00  0.00000000000E+00  0.69196302600E+03  0.69196302602E+03  0.50400000000E-02 0.  1.
          1   -1    0    0  501    0  0.00000000000E+00 -0.00000000000E+00 -0.14584987161E+04  0.14584987162E+04  0.50400000000E-02 0. -1.
    8880022    1    1    2    0    0  0.60325807121E+03 -0.42531883160E+03 -0.10940490993E+04  0.13285900398E+04  0.15294330000E+03 0.  0.
    8880022    1    1    2    0    0 -0.60325807121E+03  0.42531883160E+03  0.32751340920E+03  0.82187170240E+03  0.15294330000E+03 0.  0.
<mgrwt>
<rscale>  0 0.75379577E+03</rscale>
<asrwt>0</asrwt>
<pdfrwt beam="1">  1        1 0.22438442E+00 0.75379577E+03</pdfrwt>
<pdfrwt beam="2">  1       -1 0.10645585E+00 0.75379577E+03</pdfrwt>
<totfact> 0.59930838E+00</totfact>
</mgrwt>
</event>
<event>
 4    1  0.4964158E-009  0.9498608E+03  0.7818608E-02  0.9365313E-01
         -1   -1    0    0    0  501 -0.00000000000E+00  0.00000000000E+00  0.47964453587E+03  0.47964453589E+03  0.50400000000E-02 0.  1.
          1   -1    0    0  501    0  0.00000000000E+00 -0.00000000000E+00 -0.29486980169E+04  0.29486980169E+04  0.50400000000E-02 0. -1.
    8880022    1    1    2    0    0 -0.76635919806E+03 -0.53994201119E+03 -0.22659883619E+04  0.24570182549E+04  0.15294330000E+03 0.  0.
    8880022    1    1    2    0    0  0.76635919806E+03  0.53994201119E+03 -0.20306511909E+03  0.97132429780E+03  0.15294330000E+03 0.  0.
<mgrwt>
<rscale>  0 0.94986075E+03</rscale>
<asrwt>0</asrwt>
<pdfrwt beam="1">  1        1 0.45364584E+00 0.94986075E+03</pdfrwt>
<pdfrwt beam="2">  1       -1 0.73791469E-01 0.94986075E+03</pdfrwt>
<totfact> 0.12479643E+00</totfact>
</mgrwt>
</event>
<event>
 4    1  0.4964158E-009  0.5377162E+03  0.7818608E-02  0.1004378E+00
         -1   -1    0    0    0  501 -0.00000000000E+00  0.00000000000E+00  0.62809480974E+03  0.62809480976E+03  0.50400000000E-02 0.  1.
          1   -1    0    0  501    0  0.00000000000E+00 -0.00000000000E+00 -0.14576147952E+04  0.14576147952E+04  0.50400000000E-02 0. -1.
    8880022    1    1    2    0    0  0.39310912494E+03  0.33348503562E+03  0.44783979843E+03  0.69978510356E+03  0.15294330000E+03 0.  0.
    8880022    1    1    2    0    0 -0.39310912494E+03 -0.33348503562E+03 -0.12773597839E+04  0.13859245014E+04  0.15294330000E+03 0. -1.
<mgrwt>
<rscale>  0 0.53771619E+03</rscale>
<asrwt>0</asrwt>
<pdfrwt beam="1">  1        1 0.22424843E+00 0.53771619E+03</pdfrwt>
<pdfrwt beam="2">  1       -1 0.96629971E-01 0.53771619E+03</pdfrwt>
<totfact> 0.77978776E+00</totfact>
</mgrwt>
</event>
<event>
 4    1  0.4964158E-009  0.4843516E+03  0.7818608E-02  0.1017946E+00
          1   -1    0    0  501    0  0.00000000000E+00  0.00000000000E+00  0.10895217456E+04  0.10895217456E+04  0.50400000000E-02 0. -1.
         -1   -1    0    0    0  501 -0.00000000000E+00 -0.00000000000E+00 -0.28287987612E+03  0.28287987616E+03  0.50400000000E-02 0.  1.
    8880022    1    1    2    0    0 -0.41847965097E+03 -0.18994620738E+03  0.73866669576E+03  0.88330341356E+03  0.15294330000E+03 0.  0.
    8880022    1    1    2    0    0  0.41847965097E+03  0.18994620738E+03  0.67975173685E+02  0.48909820817E+03  0.15294330000E+03 0.  0.
<mgrwt>
<rscale>  0 0.48435156E+03</rscale>
<asrwt>0</asrwt>
<pdfrwt beam="1">  1        1 0.16761873E+00 0.48435156E+03</pdfrwt>
<pdfrwt beam="2">  1       -1 0.43519980E-01 0.48435156E+03</pdfrwt>
<totfact> 0.70929906E+01</totfact>
</mgrwt>
</event>
<event>
 4    1  0.4964158E-009  0.5867239E+03  0.7818608E-02  0.9933339E-01
          1   -1    0    0  501    0  0.00000000000E+00  0.00000000000E+00  0.33500072197E+04  0.33500072197E+04  0.50400000000E-02 0. -1.
         -1   -1    0    0    0  501 -0.00000000000E+00 -0.00000000000E+00 -0.70326626180E+03  0.70326626181E+03  0.50400000000E-02 0.  1.
    8880022    1    1    2    0    0  0.54486158826E+03 -0.15485211551E+03 -0.54935871313E+03  0.80376612067E+03  0.15294330000E+03 0.  0.
    8880022    1    1    2    0    0 -0.54486158826E+03  0.15485211551E+03  0.31960996710E+04  0.32495073608E+04  0.15294330000E+03 0. -1.
<mgrwt>
<rscale>  0 0.58672394E+03</rscale>
<asrwt>0</asrwt>
<pdfrwt beam="1">  1        1 0.51538572E+00 0.58672394E+03</pdfrwt>
<pdfrwt beam="2">  1       -1 0.10819481E+00 0.58672394E+03</pdfrwt>
<totfact> 0.29800068E-01</totfact>
</mgrwt>
</event>
<event>
 4    1  0.4964158E-009  0.8387550E+03  0.7818608E-02  0.9505555E-01
          1   -1    0    0  501    0  0.00000000000E+00  0.00000000000E+00  0.82535924299E+03  0.82535924301E+03  0.50400000000E-02 0. -1.
         -1   -1    0    0    0  501 -0.00000000000E+00 -0.00000000000E+00 -0.11409638385E+04  0.11409638385E+04  0.50400000000E-02 0.  1.
    8880022    1    1    2    0    0 -0.48505547427E+03  0.66696290745E+03  0.33666071492E+03  0.90379777772E+03  0.15294330000E+03 0.  0.
    8880022    1    1    2    0    0  0.48505547427E+03 -0.66696290745E+03 -0.65226531046E+03  0.10625253038E+04  0.15294330000E+03 0.  0.
<mgrwt>
<rscale>  0 0.83875502E+03</rscale>
<asrwt>0</asrwt>
<pdfrwt beam="1">  1        1 0.12697835E+00 0.83875502E+03</pdfrwt>
<pdfrwt beam="2">  1       -1 0.17553290E+00 0.83875502E+03</pdfrwt>
<totfact> 0.48204306E+00</totfact>
</mgrwt>
</event>
<event>
 4    1  0.4964158E-009  0.5588155E+03  0.7818608E-02  0.9994738E-01
         -1   -1    0    0    0  501 -0.00000000000E+00  0.00000000000E+00  0.87223300670E+03  0.87223300671E+03  0.50400000000E-02 0.  1.
          1   -1    0    0  501    0  0.00000000000E+00 -0.00000000000E+00 -0.87445025517E+03  0.87445025518E+03  0.50400000000E-02 0. -1.
    8880022    1    1    2    0    0  0.53189394372E+03 -0.77278344456E+02 -0.67226459586E+03  0.87419359969E+03  0.15294330000E+03 0.  0.
    8880022    1    1    2    0    0 -0.53189394372E+03  0.77278344456E+02  0.67004734739E+03  0.87248966220E+03  0.15294330000E+03 0.  1.
<mgrwt>
<rscale>  0 0.55881550E+03</rscale>
<asrwt>0</asrwt>
<pdfrwt beam="1">  1        1 0.13453081E+00 0.55881550E+03</pdfrwt>
<pdfrwt beam="2">  1       -1 0.13418969E+00 0.55881550E+03</pdfrwt>
<totfact> 0.95083187E+00</totfact>
</mgrwt>
</event>
<event>
 4    1  0.4964158E-009  0.1160675E+04  0.7818608E-02  0.9147991E-01
         -1   -1    0    0    0  501 -0.00000000000E+00  0.00000000000E+00  0.16355915873E+04  0.16355915873E+04  0.50400000000E-02 0.  1.
          1   -1    0    0  501    0  0.00000000000E+00 -0.00000000000E+00 -0.17156970468E+04  0.17156970468E+04  0.50400000000E-02 0. -1.
    8880022    1    1    2    0    0 -0.31509722277E+03  0.11065663604E+04  0.11681884356E+04  0.16467638701E+04  0.15294330000E+03 0.  0.
    8880022    1    1    2    0    0  0.31509722277E+03 -0.11065663604E+04 -0.12482938951E+04  0.17045247640E+04  0.15294330000E+03 0.  0.
<mgrwt>
<rscale>  0 0.11606752E+04</rscale>
<asrwt>0</asrwt>
<pdfrwt beam="1">  1        1 0.26395339E+00 0.11606752E+04</pdfrwt>
<pdfrwt beam="2">  1       -1 0.25162947E+00 0.11606752E+04</pdfrwt>
<totfact> 0.31232470E-01</totfact>
</mgrwt>
</event>
<event>
 4    1  0.4964158E-009  0.5052017E+03  0.7818608E-02  0.1012430E+00
         -1   -1    0    0    0  501 -0.00000000000E+00  0.00000000000E+00  0.16928264455E+04  0.16928264455E+04  0.50400000000E-02 0.  1.
          1   -1    0    0  501    0  0.00000000000E+00 -0.00000000000E+00 -0.38942978163E+03  0.38942978166E+03  0.50400000000E-02 0. -1.
    8880022    1    1    2    0    0 -0.27239442414E+02 -0.48072355748E+03 -0.16334086403E+03  0.53095104936E+03  0.15294330000E+03 0.  0.
    8880022    1    1    2    0    0  0.27239442414E+02  0.48072355748E+03  0.14667375279E+04  0.15513051778E+04  0.15294330000E+03 0.  0.
<mgrwt>
<rscale>  0 0.50520172E+03</rscale>
<asrwt>0</asrwt>
<pdfrwt beam="1">  1        1 0.59912273E-01 0.50520172E+03</pdfrwt>
<pdfrwt beam="2">  1       -1 0.26043484E+00 0.50520172E+03</pdfrwt>
<totfact> 0.40389567E+00</totfact>
</mgrwt>
</event>
<event>
 4    1  0.4964158E-009  0.3868358E+03  0.7818608E-02  0.1048436E+00
          1   -1    0    0  501    0  0.00000000000E+00  0.00000000000E+00  0.52376564101E+03  0.52376564103E+03  0.50400000000E-02 0. -1.
         -1   -1    0    0    0  501 -0.00000000000E+00 -0.00000000000E+00 -0.32804606139E+03  0.32804606143E+03  0.50400000000E-02 0.  1.
    8880022    1    1    2    0    0 -0.27597289119E+03 -0.22380619518E+03  0.25087427457E+03  0.46106377468E+03  0.15294330000E+03 0.  0.
    8880022    1    1    2    0    0  0.27597289119E+03  0.22380619518E+03 -0.55154694957E+02  0.39074792778E+03  0.15294330000E+03 0.  0.
<mgrwt>
<rscale>  0 0.38683576E+03</rscale>
<asrwt>0</asrwt>
<pdfrwt beam="1">  1        1 0.80579328E-01 0.38683576E+03</pdfrwt>
<pdfrwt beam="2">  1       -1 0.50468625E-01 0.38683576E+03</pdfrwt>
<totfact> 0.17071655E+02</totfact>
</mgrwt>
</event>
<event>
 4    1  0.4964158E-009  0.2866542E+03  0.7818608E-02  0.1092109E+00
          1   -1    0    0  501    0  0.00000000000E+00  0.00000000000E+00  0.16402645157E+04  0.16402645157E+04  0.50400000000E-02 0. -1.
         -1   -1    0    0    0  501 -0.00000000000E+00 -0.00000000000E+00 -0.82529086072E+03  0.82529086073E+03  0.50400000000E-02 0.  1.
    8880022    1    1    2    0    0 -0.23678198329E+02  0.24128471779E+03 -0.78728975365E+03  0.83785188508E+03  0.15294330000E+03 0.  1.
    8880022    1    1    2    0    0  0.23678198329E+02 -0.24128471779E+03  0.16022634086E+04  0.16277034914E+04  0.15294330000E+03 0.  0.
<mgrwt>
<rscale>  0 0.28665419E+03</rscale>
<asrwt>0</asrwt>
<pdfrwt beam="1">  1        1 0.25234839E+00 0.28665419E+03</pdfrwt>
<pdfrwt beam="2">  1       -1 0.12696783E+00 0.28665419E+03</pdfrwt>
<totfact> 0.33789289E+00</totfact>
</mgrwt>
</event>
<event>
 4    1  0.4964158E-009  0.7583597E+03  0.7818608E-02  0.9622326E-01
         -1   -1    0    0    0  501 -0.00000000000E+00  0.00000000000E+00  0.16418992106E+04  0.16418992106E+04  0.50400000000E-02 0.  1.
          1   -1    0    0  501    0  0.00000000000E+00 -0.00000000000E+00 -0.46916587362E+03  0.46916587364E+03  0.50400000000E-02 0. -1.
    8880022    1    1    2    0    0  0.69120376335E+03  0.27194686602E+03  0.55004902525E+02  0.76035184798E+03  0.15294330000E+03 0.  0.
    8880022    1    1    2    0    0 -0.69120376335E+03 -0.27194686602E+03  0.11177284344E+04  0.13507132362E+04  0.15294330000E+03 0.  0.
<mgrwt>
<rscale>  0 0.75835967E+03</rscale>
<asrwt>0</asrwt>
<pdfrwt beam="1">  1        1 0.72179366E-01 0.75835967E+03</pdfrwt>
<pdfrwt beam="2">  1       -1 0.25259987E+00 0.75835967E+03</pdfrwt>
<totfact> 0.33772718E+00</totfact>
</mgrwt>
</event>
<event>
 4    1  0.4964158E-009  0.9898907E+03  0.7818608E-02  0.9319703E-01
          1   -1    0    0  501    0  0.00000000000E+00  0.00000000000E+00  0.12177190304E+04  0.12177190304E+04  0.50400000000E-02 0. -1.
         -1   -1    0    0    0  501 -0.00000000000E+00 -0.00000000000E+00 -0.13175586197E+04  0.13175586197E+04  0.50400000000E-02 0.  1.
    8880022    1    1    2    0    0  0.97790422371E+03 -0.13972716835E+02 -0.84080706286E+03  0.12987840766E+04  0.15294330000E+03 0.  0.
    8880022    1    1    2    0    0 -0.97790422371E+03  0.13972716835E+02  0.74096747356E+03  0.12364935736E+04  0.15294330000E+03 0.  0.
<mgrwt>
<rscale>  0 0.98989068E+03</rscale>
<asrwt>0</asrwt>
<pdfrwt beam="1">  1        1 0.18734139E+00 0.98989068E+03</pdfrwt>
<pdfrwt beam="2">  1       -1 0.20270133E+00 0.98989068E+03</pdfrwt>
<totfact> 0.15057051E+00</totfact>
</mgrwt>
</event>
<event>
 4    1  0.5577352E-009  0.1171751E+04  0.7818608E-02  0.9137948E-01
          1   -1    0    0  501    0  0.00000000000E+00  0.00000000000E+00  0.16255466394E+04  0.16255466394E+04  0.50400000000E-02 0. -1.
         -1   -1    0    0    0  501 -0.00000000000E+00 -0.00000000000E+00 -0.20326357938E+04  0.20326357938E+04  0.50400000000E-02 0.  1.
    8880022    1    1    2    0    0 -0.92826969993E+03  0.69851581943E+03 -0.16018857720E+04  0.19847011527E+04  0.15294330000E+03 0.  0.
    8880022    1    1    2    0    0  0.92826969993E+03 -0.69851581943E+03  0.11947966177E+04  0.16734812806E+04  0.15294330000E+03 0.  0.
<mgrwt>
<rscale>  0 0.11717511E+04</rscale>
<asrwt>0</asrwt>
<pdfrwt beam="1">  1        1 0.25008410E+00 0.11717511E+04</pdfrwt>
<pdfrwt beam="2">  1       -1 0.31271320E+00 0.11717511E+04</pdfrwt>
<totfact> 0.14482243E-01</totfact>
</mgrwt>
</event>
<event>
 4    1  0.4964158E-009  0.4860234E+03  0.7818608E-02  0.1017493E+00
          1   -1    0    0  501    0  0.00000000000E+00  0.00000000000E+00  0.56807050081E+03  0.56807050084E+03  0.50400000000E-02 0. -1.
         -1   -1    0    0    0  501 -0.00000000000E+00 -0.00000000000E+00 -0.60022141626E+03  0.60022141628E+03  0.50400000000E-02 0.  1.
    8880022    1    1    2    0    0 -0.58150391295E+02 -0.45765229779E+03  0.30769718408E+03  0.57523586796E+03  0.15294330000E+03 0.  0.
    8880022    1    1    2    0    0  0.58150391295E+02  0.45765229779E+03 -0.33984809953E+03  0.59305604916E+03  0.15294330000E+03 0.  1.
<mgrwt>
<rscale>  0 0.48602340E+03</rscale>
<asrwt>0</asrwt>
<pdfrwt beam="1">  1        1 0.87395461E-01 0.48602340E+03</pdfrwt>
<pdfrwt beam="2">  1       -1 0.92341757E-01 0.48602340E+03</pdfrwt>
<totfact> 0.44501138E+01</totfact>
</mgrwt>
</event>
<event>
 4    1  0.4964158E-009  0.5574838E+03  0.7818608E-02  0.9997764E-01
          1   -1    0    0  501    0  0.00000000000E+00  0.00000000000E+00  0.48583313757E+03  0.48583313759E+03  0.50400000000E-02 0. -1.
         -1   -1    0    0    0  501 -0.00000000000E+00 -0.00000000000E+00 -0.11352040625E+04  0.11352040625E+04  0.50400000000E-02 0.  1.
    8880022    1    1    2    0    0 -0.15241266729E+03 -0.51397168100E+03  0.21080161060E+03  0.59600795470E+03  0.15294330000E+03 0.  0.
    8880022    1    1    2    0    0  0.15241266729E+03  0.51397168100E+03 -0.86017253549E+03  0.10250292454E+04  0.15294330000E+03 0.  0.
<mgrwt>
<rscale>  0 0.55748378E+03</rscale>
<asrwt>0</asrwt>
<pdfrwt beam="1">  1        1 0.74743560E-01 0.55748378E+03</pdfrwt>
<pdfrwt beam="2">  1       -1 0.17464678E+00 0.55748378E+03</pdfrwt>
<totfact> 0.11108706E+01</totfact>
</mgrwt>
</event>
<event>
 4    1  0.4964158E-009  0.9579527E+03  0.7818608E-02  0.9355903E-01
          1   -1    0    0  501    0  0.00000000000E+00  0.00000000000E+00  0.28439478772E+04  0.28439478772E+04  0.50400000000E-02 0. -1.
         -1   -1    0    0    0  501 -0.00000000000E+00 -0.00000000000E+00 -0.68447256141E+03  0.68447256143E+03  0.50400000000E-02 0.  1.
    8880022    1    1    2    0    0 -0.10129223168E+03 -0.94022425888E+03  0.23623771052E+04  0.25492153721E+04  0.15294330000E+03 0.  0.
    8880022    1    1    2    0    0  0.10129223168E+03  0.94022425888E+03 -0.20290178940E+03  0.97920506654E+03  0.15294330000E+03 0.  0.
<mgrwt>
<rscale>  0 0.95795273E+03</rscale>
<asrwt>0</asrwt>
<pdfrwt beam="1">  1        1 0.43753044E+00 0.95795273E+03</pdfrwt>
<pdfrwt beam="2">  1       -1 0.10530347E+00 0.95795273E+03</pdfrwt>
<totfact> 0.67677181E-01</totfact>
</mgrwt>
</event>
<event>
 4    1  0.4964158E-009  0.5134980E+03  0.7818608E-02  0.1010315E+00
         -1   -1    0    0    0  501 -0.00000000000E+00  0.00000000000E+00  0.11796180609E+04  0.11796180609E+04  0.50400000000E-02 0.  1.
          1   -1    0    0  501    0  0.00000000000E+00 -0.00000000000E+00 -0.26826113489E+04  0.26826113489E+04  0.50400000000E-02 0. -1.
    8880022    1    1    2    0    0  0.14175683382E+03  0.46924780610E+03 -0.26004060431E+04  0.26506210113E+04  0.15294330000E+03 0.  0.
    8880022    1    1    2    0    0 -0.14175683382E+03 -0.46924780610E+03  0.10974127550E+04  0.12116083985E+04  0.15294330000E+03 0.  0.
<mgrwt>
<rscale>  0 0.51349796E+03</rscale>
<asrwt>0</asrwt>
<pdfrwt beam="1">  1        1 0.41270944E+00 0.51349796E+03</pdfrwt>
<pdfrwt beam="2">  1       -1 0.18147970E+00 0.51349796E+03</pdfrwt>
<totfact> 0.23895108E-01</totfact>
</mgrwt>
</event>
<event>
 4    1  0.4964158E-009  0.1312137E+04  0.7818608E-02  0.9019995E-01
         -1   -1    0    0    0  501 -0.00000000000E+00  0.00000000000E+00  0.12240372044E+04  0.12240372044E+04  0.50400000000E-02 0.  1.
          1   -1    0    0  501    0  0.00000000000E+00 -0.00000000000E+00 -0.29647278971E+04  0.29647278971E+04  0.50400000000E-02 0. -1.
    8880022    1    1    2    0    0 -0.19900077449E+03  0.12879097814E+04 -0.23886821586E+04  0.27253453031E+04  0.15294330000E+03 0.  0.
    8880022    1    1    2    0    0  0.19900077449E+03 -0.12879097814E+04  0.64799146596E+03  0.14634197984E+04  0.15294330000E+03 0.  0.
<mgrwt>
<rscale>  0 0.13121374E+04</rscale>
<asrwt>0</asrwt>
<pdfrwt beam="1">  1        1 0.45611198E+00 0.13121374E+04</pdfrwt>
<pdfrwt beam="2">  1       -1 0.18831342E+00 0.13121374E+04</pdfrwt>
<totfact> 0.11213159E-01</totfact>
</mgrwt>
</event>
<event>
 4    1  0.4964158E-009  0.6243982E+03  0.7818608E-02  0.9856042E-01
         -1   -1    0    0    0  501 -0.00000000000E+00  0.00000000000E+00  0.15946139354E+04  0.15946139355E+04  0.50400000000E-02 0.  1.
          1   -1    0    0  501    0  0.00000000000E+00 -0.00000000000E+00 -0.49488181379E+03  0.49488181382E+03  0.50400000000E-02 0. -1.
    8880022    1    1    2    0    0  0.50865811444E+03  0.32825043753E+03 -0.19326872870E+03  0.65362518436E+03  0.15294330000E+03 0.  0.
    8880022    1    1    2    0    0 -0.50865811444E+03 -0.32825043753E+03  0.12930008504E+04  0.14358705649E+04  0.15294330000E+03 0.  0.
<mgrwt>
<rscale>  0 0.62439817E+03</rscale>
<asrwt>0</asrwt>
<pdfrwt beam="1">  1        1 0.76135665E-01 0.62439817E+03</pdfrwt>
<pdfrwt beam="2">  1       -1 0.24532522E+00 0.62439817E+03</pdfrwt>
<totfact> 0.35781018E+00</totfact>
</mgrwt>
</event>
<event>
 4    1  0.4964158E-009  0.7195957E+03  0.7818608E-02  0.9684296E-01
          1   -1    0    0  501    0  0.00000000000E+00  0.00000000000E+00  0.33789949714E+03  0.33789949718E+03  0.50400000000E-02 0. -1.
         -1   -1    0    0    0  501 -0.00000000000E+00 -0.00000000000E+00 -0.26733759053E+04  0.26733759053E+04  0.50400000000E-02 0.  1.
    8880022    1    1    2    0    0  0.34001088761E+03  0.61548262758E+03 -0.18414158907E+03  0.74278263737E+03  0.15294330000E+03 0. -1.
    8880022    1    1    2    0    0 -0.34001088761E+03 -0.61548262758E+03 -0.21513348191E+04  0.22684927651E+04  0.15294330000E+03 0.  0.
<mgrwt>
<rscale>  0 0.71959567E+03</rscale>
<asrwt>0</asrwt>
<pdfrwt beam="1">  1        1 0.51984540E-01 0.71959567E+03</pdfrwt>
<pdfrwt beam="2">  1       -1 0.41128859E+00 0.71959567E+03</pdfrwt>
<totfact> 0.48390743E-01</totfact>
</mgrwt>
</event>
<event>
 4    1  0.4964158E-009  0.6767206E+03  0.7818608E-02  0.9757893E-01
          1   -1    0    0  501    0  0.00000000000E+00  0.00000000000E+00  0.83049064285E+03  0.83049064287E+03  0.50400000000E-02 0. -1.
         -1   -1    0    0    0  501 -0.00000000000E+00 -0.00000000000E+00 -0.11903243410E+04  0.11903243410E+04  0.50400000000E-02 0.  1.
    8880022    1    1    2    0    0 -0.55335257304E+03 -0.35827378481E+03  0.56033778249E+03  0.87859504806E+03  0.15294330000E+03 0.  0.
    8880022    1    1    2    0    0  0.55335257304E+03  0.35827378481E+03 -0.92017148061E+03  0.11422199358E+04  0.15294330000E+03 0.  0.
<mgrwt>
<rscale>  0 0.67672064E+03</rscale>
<asrwt>0</asrwt>
<pdfrwt beam="1">  1        1 0.12776779E+00 0.67672064E+03</pdfrwt>
<pdfrwt beam="2">  1       -1 0.18312682E+00 0.67672064E+03</pdfrwt>
<totfact> 0.43172068E+00</totfact>
</mgrwt>
</event>
<event>
 4    1  0.4964158E-009  0.8227265E+03  0.7818608E-02  0.9527692E-01
          1   -1    0    0  501    0  0.00000000000E+00  0.00000000000E+00  0.10489778330E+04  0.10489778330E+04  0.50400000000E-02 0. -1.
         -1   -1    0    0    0  501 -0.00000000000E+00 -0.00000000000E+00 -0.13092714681E+04  0.13092714681E+04  0.50400000000E-02 0.  1.
    8880022    1    1    2    0    0  0.71311016312E+03  0.38073755315E+03  0.70956033817E+03  0.10864413080E+04  0.15294330000E+03 0.  0.
    8880022    1    1    2    0    0 -0.71311016312E+03 -0.38073755315E+03 -0.96985397325E+03  0.12718079932E+04  0.15294330000E+03 0.  0.
<mgrwt>
<rscale>  0 0.82272647E+03</rscale>
<asrwt>0</asrwt>
<pdfrwt beam="1">  1        1 0.16138121E+00 0.82272647E+03</pdfrwt>
<pdfrwt beam="2">  1       -1 0.20142638E+00 0.82272647E+03</pdfrwt>
<totfact> 0.21028818E+00</totfact>
</mgrwt>
</event>
<event>
 4    1  0.4964158E-009  0.2152376E+03  0.7818608E-02  0.1137484E+00
          1   -1    0    0  501    0  0.00000000000E+00  0.00000000000E+00  0.24298389696E+04  0.24298389696E+04  0.50400000000E-02 0. -1.
         -1   -1    0    0    0  501 -0.00000000000E+00 -0.00000000000E+00 -0.19367812460E+03  0.19367812466E+03  0.50400000000E-02 0.  1.
    8880022    1    1    2    0    0 -0.12360704864E+03  0.87503504340E+02  0.23636008709E+04  0.23733807734E+04  0.15294330000E+03 0.  0.
    8880022    1    1    2    0    0  0.12360704864E+03 -0.87503504340E+02 -0.12744002596E+03  0.25013632078E+03  0.15294330000E+03 0.  1.
<mgrwt>
<rscale>  0 0.21523759E+03</rscale>
<asrwt>0</asrwt>
<pdfrwt beam="1">  1        1 0.37382134E+00 0.21523759E+03</pdfrwt>
<pdfrwt beam="2">  1       -1 0.29796638E-01 0.21523759E+03</pdfrwt>
<totfact> 0.18969002E+01</totfact>
</mgrwt>
</event>
<event>
 4    1  0.4964158E-009  0.1299435E+04  0.7818608E-02  0.9030013E-01
          1   -1    0    0  501    0  0.00000000000E+00  0.00000000000E+00  0.12309062697E+04  0.12309062698E+04  0.50400000000E-02 0. -1.
         -1   -1    0    0    0  501 -0.00000000000E+00 -0.00000000000E+00 -0.25288587791E+04  0.25288587791E+04  0.50400000000E-02 0.  1.
    8880022    1    1    2    0    0 -0.11602426687E+04 -0.56478063512E+03 -0.19205747289E+04  0.23188659207E+04  0.15294330000E+03 0.  0.
    8880022    1    1    2    0    0  0.11602426687E+04  0.56478063512E+03  0.62262221957E+03  0.14408991281E+04  0.15294330000E+03 0.  0.
<mgrwt>
<rscale>  0 0.12994352E+04</rscale>
<asrwt>0</asrwt>
<pdfrwt beam="1">  1        1 0.18937020E+00 0.12994352E+04</pdfrwt>
<pdfrwt beam="2">  1       -1 0.38905519E+00 0.12994352E+04</pdfrwt>
<totfact> 0.84076195E-02</totfact>
</mgrwt>
</event>
<event>
 4    1  0.4964158E-009  0.3754642E+03  0.7818608E-02  0.1052623E+00
         -1   -1    0    0    0  501 -0.00000000000E+00  0.00000000000E+00  0.40014584234E+03  0.40014584237E+03  0.50400000000E-02 0.  1.
          1   -1    0    0  501    0  0.00000000000E+00 -0.00000000000E+00 -0.39043448194E+03  0.39043448197E+03  0.50400000000E-02 0. -1.
    8880022    1    1    2    0    0 -0.10916368271E+02 -0.34272804964E+03  0.12838584305E+03  0.39680758664E+03  0.15294330000E+03 0.  0.
    8880022    1    1    2    0    0  0.10916368271E+02  0.34272804964E+03 -0.11867448266E+03  0.39377273770E+03  0.15294330000E+03 0.  0.
<mgrwt>
<rscale>  0 0.37546416E+03</rscale>
<asrwt>0</asrwt>
<pdfrwt beam="1">  1        1 0.60066844E-01 0.37546416E+03</pdfrwt>
<pdfrwt beam="2">  1       -1 0.61560898E-01 0.37546416E+03</pdfrwt>
<totfact> 0.17256413E+02</totfact>
</mgrwt>
</event>
<event>
 4    1  0.4964158E-009  0.6250067E+03  0.7818608E-02  0.9854842E-01
          1   -1    0    0  501    0  0.00000000000E+00  0.00000000000E+00  0.46334618678E+03  0.46334618680E+03  0.50400000000E-02 0. -1.
         -1   -1    0    0    0  501 -0.00000000000E+00 -0.00000000000E+00 -0.11112339389E+04  0.11112339389E+04  0.50400000000E-02 0.  1.
    8880022    1    1    2    0    0 -0.55696588163E+03 -0.23881096064E+03  0.62807724174E+02  0.62815454424E+03  0.15294330000E+03 0.  0.
    8880022    1    1    2    0    0  0.55696588163E+03  0.23881096064E+03 -0.71069547630E+03  0.94642558148E+03  0.15294330000E+03 0.  0.
<mgrwt>
<rscale>  0 0.62500666E+03</rscale>
<asrwt>0</asrwt>
<pdfrwt beam="1">  1        1 0.71284029E-01 0.62500666E+03</pdfrwt>
<pdfrwt beam="2">  1       -1 0.17095907E+00 0.62500666E+03</pdfrwt>
<totfact> 0.12462364E+01</totfact>
</mgrwt>
</event>
<event>
 4    1  0.4964158E-009  0.9866310E+03  0.7818608E-02  0.9323330E-01
          1   -1    0    0  501    0  0.00000000000E+00  0.00000000000E+00  0.17544368308E+04  0.17544368308E+04  0.50400000000E-02 0. -1.
         -1   -1    0    0    0  501 -0.00000000000E+00 -0.00000000000E+00 -0.76678888536E+03  0.76678888537E+03  0.50400000000E-02 0.  1.
    8880022    1    1    2    0    0 -0.95259211030E+03  0.20643969527E+03 -0.16893275012E+03  0.10009890127E+04  0.15294330000E+03 0.  0.
    8880022    1    1    2    0    0  0.95259211030E+03 -0.20643969527E+03  0.11565806956E+04  0.15202367035E+04  0.15294330000E+03 0.  0.
<mgrwt>
<rscale>  0 0.98663100E+03</rscale>
<asrwt>0</asrwt>
<pdfrwt beam="1">  1        1 0.26991336E+00 0.98663100E+03</pdfrwt>
<pdfrwt beam="2">  1       -1 0.11796752E+00 0.98663100E+03</pdfrwt>
<totfact> 0.28520662E+00</totfact>
</mgrwt>
</event>
<event>
 4    1  0.4964158E-009  0.4760696E+03  0.7818608E-02  0.1020221E+00
         -1   -1    0    0    0  501 -0.00000000000E+00  0.00000000000E+00  0.35478322298E+03  0.35478322301E+03  0.50400000000E-02 0.  1.
          1   -1    0    0  501    0  0.00000000000E+00 -0.00000000000E+00 -0.10762576559E+04  0.10762576559E+04  0.50400000000E-02 0. -1.
    8880022    1    1    2    0    0  0.37301212008E+02 -0.44928748665E+03  0.95428324300E+02  0.48553974521E+03  0.15294330000E+03 0.  0.
    8880022    1    1    2    0    0 -0.37301212008E+02  0.44928748665E+03 -0.81690275721E+03  0.94550113371E+03  0.15294330000E+03 0.  0.
<mgrwt>
<rscale>  0 0.47606962E+03</rscale>
<asrwt>0</asrwt>
<pdfrwt beam="1">  1        1 0.16557810E+00 0.47606962E+03</pdfrwt>
<pdfrwt beam="2">  1       -1 0.54582035E-01 0.47606962E+03</pdfrwt>
<totfact> 0.47569935E+01</totfact>
</mgrwt>
</event>
<event>
 4    1  0.4964158E-009  0.9902460E+03  0.7818608E-02  0.9319308E-01
         -1   -1    0    0    0  501 -0.00000000000E+00  0.00000000000E+00  0.54101718218E+03  0.54101718220E+03  0.50400000000E-02 0.  1.
          1   -1    0    0  501    0  0.00000000000E+00 -0.00000000000E+00 -0.26516071109E+04  0.26516071109E+04  0.50400000000E-02 0. -1.
    8880022    1    1    2    0    0 -0.23903925344E+03 -0.94871267212E+03 -0.15729765336E+03  0.10026613106E+04  0.15294330000E+03 0.  0.
    8880022    1    1    2    0    0  0.23903925344E+03  0.94871267212E+03 -0.19532922754E+04  0.21899629826E+04  0.15294330000E+03 0.  0.
<mgrwt>
<rscale>  0 0.99024601E+03</rscale>
<asrwt>0</asrwt>
<pdfrwt beam="1">  1        1 0.40793955E+00 0.99024601E+03</pdfrwt>
<pdfrwt beam="2">  1       -1 0.83233414E-01 0.99024601E+03</pdfrwt>
<totfact> 0.15559556E+00</totfact>
</mgrwt>
</event>
<event>
 4    1  0.4964158E-009  0.6594757E+03  0.7818608E-02  0.9789159E-01
         -1   -1    0    0    0  501 -0.00000000000E+00  0.00000000000E+00  0.96416850894E+03  0.96416850896E+03  0.50400000000E-02 0.  1.
          1   -1    0    0  501    0  0.00000000000E+00 -0.00000000000E+00 -0.27768132164E+04  0.27768132164E+04  0.50400000000E-02 0. -1.
    8880022    1    1    2    0    0 -0.35119718272E+03 -0.53682128655E+03 -0.26181619550E+04  0.26999407828E+04  0.15294330000E+03 0.  0.
    8880022    1    1    2    0    0  0.35119718272E+03  0.53682128655E+03  0.80551724760E+03  0.10410409425E+04  0.15294330000E+03 0.  0.
<mgrwt>
<rscale>  0 0.65947571E+03</rscale>
<asrwt>0</asrwt>
<pdfrwt beam="1">  1        1 0.42720203E+00 0.65947571E+03</pdfrwt>
<pdfrwt beam="2">  1       -1 0.14833362E+00 0.65947571E+03</pdfrwt>
<totfact> 0.34435177E-01</totfact>
</mgrwt>
</event>
<event>
 4    1  0.4964158E-009  0.1043146E+04  0.7818608E-02  0.9262449E-01
          1   -1    0    0  501    0  0.00000000000E+00  0.00000000000E+00  0.13251383641E+04  0.13251383641E+04  0.50400000000E-02 0. -1.
         -1   -1    0    0    0  501 -0.00000000000E+00 -0.00000000000E+00 -0.10677007008E+04  0.10677007009E+04  0.50400000000E-02 0.  1.
    8880022    1    1    2    0    0 -0.10268804401E+04 -0.10138653386E+03  0.70362978570E+03  0.12582723060E+04  0.15294330000E+03 0.  0.
    8880022    1    1    2    0    0  0.10268804401E+04  0.10138653386E+03 -0.44619212242E+03  0.11345667590E+04  0.15294330000E+03 0.  0.
<mgrwt>
<rscale>  0 0.10431464E+04</rscale>
<asrwt>0</asrwt>
<pdfrwt beam="1">  1        1 0.20386744E+00 0.10431464E+04</pdfrwt>
<pdfrwt beam="2">  1       -1 0.16426165E+00 0.10431464E+04</pdfrwt>
<totfact> 0.23528273E+00</totfact>
</mgrwt>
</event>
<event>
 4    1  0.4964158E-009  0.1174739E+04  0.7818608E-02  0.9135259E-01
          1   -1    0    0  501    0  0.00000000000E+00  0.00000000000E+00  0.31085385589E+04  0.31085385589E+04  0.50400000000E-02 0. -1.
         -1   -1    0    0    0  501 -0.00000000000E+00 -0.00000000000E+00 -0.97711364435E+03  0.97711364436E+03  0.50400000000E-02 0.  1.
    8880022    1    1    2    0    0  0.11029878577E+04  0.37421593694E+03  0.25747230961E+04  0.28300548504E+04  0.15294330000E+03 0.  0.
    8880022    1    1    2    0    0 -0.11029878577E+04 -0.37421593694E+03 -0.44329818154E+03  0.12555973529E+04  0.15294330000E+03 0.  0.
<mgrwt>
<rscale>  0 0.11747389E+04</rscale>
<asrwt>0</asrwt>
<pdfrwt beam="1">  1        1 0.47823669E+00 0.11747389E+04</pdfrwt>
<pdfrwt beam="2">  1       -1 0.15032518E+00 0.11747389E+04</pdfrwt>
<totfact> 0.17225239E-01</totfact>
</mgrwt>
</event>
<event>
 4    1  0.4964158E-009  0.1569903E+04  0.7818608E-02  0.8839254E-01
          1   -1    0    0  501    0  0.00000000000E+00  0.00000000000E+00  0.80267210103E+03  0.80267210104E+03  0.50400000000E-02 0. -1.
         -1   -1    0    0    0  501 -0.00000000000E+00 -0.00000000000E+00 -0.30986316175E+04  0.30986316175E+04  0.50400000000E-02 0.  1.
    8880022    1    1    2    0    0  0.36941316665E+03  0.15181363410E+04 -0.96208008159E+03  0.18412478850E+04  0.15294330000E+03 0.  0.
    8880022    1    1    2    0    0 -0.36941316665E+03 -0.15181363410E+04 -0.13338794349E+04  0.20600558336E+04  0.15294330000E+03 0.  0.
<mgrwt>
<rscale>  0 0.15699031E+04</rscale>
<asrwt>0</asrwt>
<pdfrwt beam="1">  1        1 0.12348802E+00 0.15699031E+04</pdfrwt>
<pdfrwt beam="2">  1       -1 0.47671255E+00 0.15699031E+04</pdfrwt>
<totfact> 0.44132306E-02</totfact>
</mgrwt>
</event>
<event>
 4    1  0.4964158E-009  0.1359787E+04  0.7818608E-02  0.8983453E-01
         -1   -1    0    0    0  501 -0.00000000000E+00  0.00000000000E+00  0.10290609215E+04  0.10290609215E+04  0.50400000000E-02 0.  1.
          1   -1    0    0  501    0  0.00000000000E+00 -0.00000000000E+00 -0.19397657257E+04  0.19397657257E+04  0.50400000000E-02 0. -1.
    8880022    1    1    2    0    0 -0.13448855832E+04  0.13004150754E+03 -0.52364768069E+02  0.13607945281E+04  0.15294330000E+03 0.  0.
    8880022    1    1    2    0    0  0.13448855832E+04 -0.13004150754E+03 -0.85834003615E+03  0.16080321192E+04  0.15294330000E+03 0.  0.
<mgrwt>
<rscale>  0 0.13597866E+04</rscale>
<asrwt>0</asrwt>
<pdfrwt beam="1">  1        1 0.29842550E+00 0.13597866E+04</pdfrwt>
<pdfrwt beam="2">  1       -1 0.15831706E+00 0.13597866E+04</pdfrwt>
<totfact> 0.94945806E-01</totfact>
</mgrwt>
</event>
<event>
 4    1  0.4964158E-009  0.6208489E+03  0.7818608E-02  0.9863071E-01
         -1   -1    0    0    0  501 -0.00000000000E+00  0.00000000000E+00  0.57252678129E+03  0.57252678131E+03  0.50400000000E-02 0.  1.
          1   -1    0    0  501    0  0.00000000000E+00 -0.00000000000E+00 -0.16923010840E+04  0.16923010840E+04  0.50400000000E-02 0. -1.
    8880022    1    1    2    0    0  0.60998504202E+02  0.59861578719E+03  0.31886112487E+03  0.69794394342E+03  0.15294330000E+03 0.  0.
    8880022    1    1    2    0    0 -0.60998504202E+02 -0.59861578719E+03 -0.14386354275E+04  0.15668839219E+04  0.15294330000E+03 0.  0.
<mgrwt>
<rscale>  0 0.62084888E+03</rscale>
<asrwt>0</asrwt>
<pdfrwt beam="1">  1        1 0.26035401E+00 0.62084888E+03</pdfrwt>
<pdfrwt beam="2">  1       -1 0.88081044E-01 0.62084888E+03</pdfrwt>
<totfact> 0.65275106E+00</totfact>
</mgrwt>
</event>
<event>
 4    1  0.4964158E-009  0.1077773E+04  0.7818608E-02  0.9227131E-01
         -1   -1    0    0    0  501 -0.00000000000E+00  0.00000000000E+00  0.13997984018E+04  0.13997984018E+04  0.50400000000E-02 0.  1.
          1   -1    0    0  501    0  0.00000000000E+00 -0.00000000000E+00 -0.12717289017E+04  0.12717289017E+04  0.50400000000E-02 0. -1.
    8880022    1    1    2    0    0  0.94064801553E+03 -0.50337248931E+03 -0.72336267156E+03  0.12980168565E+04  0.15294330000E+03 0.  0.
    8880022    1    1    2    0    0 -0.94064801553E+03  0.50337248931E+03  0.85143217164E+03  0.13735104470E+04  0.15294330000E+03 0.  0.
<mgrwt>
<rscale>  0 0.10777728E+04</rscale>
<asrwt>0</asrwt>
<pdfrwt beam="1">  1        1 0.19565060E+00 0.10777728E+04</pdfrwt>
<pdfrwt beam="2">  1       -1 0.21535360E+00 0.10777728E+04</pdfrwt>
<totfact> 0.11158768E+00</totfact>
</mgrwt>
</event>
<event>
 4    1  0.4964158E-009  0.7306567E+03  0.7818608E-02  0.9666195E-01
          1   -1    0    0  501    0  0.00000000000E+00  0.00000000000E+00  0.33170790648E+04  0.33170790648E+04  0.50400000000E-02 0. -1.
         -1   -1    0    0    0  501 -0.00000000000E+00 -0.00000000000E+00 -0.49966750305E+03  0.49966750308E+03  0.50400000000E-02 0.  1.
    8880022    1    1    2    0    0 -0.63222757498E+03  0.33280008040E+03  0.29799596271E+04  0.30682272785E+04  0.15294330000E+03 0.  0.
    8880022    1    1    2    0    0  0.63222757498E+03 -0.33280008040E+03 -0.16254806535E+03  0.74851928943E+03  0.15294330000E+03 0.  0.
<mgrwt>
<rscale>  0 0.73065673E+03</rscale>
<asrwt>0</asrwt>
<pdfrwt beam="1">  1        1 0.51031984E+00 0.73065673E+03</pdfrwt>
<pdfrwt beam="2">  1       -1 0.76871926E-01 0.73065673E+03</pdfrwt>
<totfact> 0.64380000E-01</totfact>
</mgrwt>
</event>
<event>
 4    1  0.4964158E-009  0.7437955E+03  0.7818608E-02  0.9645135E-01
         -1   -1    0    0    0  501 -0.00000000000E+00  0.00000000000E+00  0.67993331026E+03  0.67993331028E+03  0.50400000000E-02 0.  1.
          1   -1    0    0  501    0  0.00000000000E+00 -0.00000000000E+00 -0.10446439308E+04  0.10446439308E+04  0.50400000000E-02 0. -1.
    8880022    1    1    2    0    0 -0.52918534124E+02 -0.72597501222E+03  0.22311892173E+03  0.77653962930E+03  0.15294330000E+03 0.  0.
    8880022    1    1    2    0    0  0.52918534124E+02  0.72597501222E+03 -0.58782954231E+03  0.94803761183E+03  0.15294330000E+03 0.  0.
<mgrwt>
<rscale>  0 0.74379550E+03</rscale>
<asrwt>0</asrwt>
<pdfrwt beam="1">  1        1 0.16071445E+00 0.74379550E+03</pdfrwt>
<pdfrwt beam="2">  1       -1 0.10460512E+00 0.74379550E+03</pdfrwt>
<totfact> 0.12392906E+01</totfact>
</mgrwt>
</event>
<event>
 4    1  0.4964158E-009  0.5472303E+03  0.7818608E-02  0.1002137E+00
         -1   -1    0    0    0  501 -0.00000000000E+00  0.00000000000E+00  0.93703653006E+03  0.93703653008E+03  0.50400000000E-02 0.  1.
          1   -1    0    0  501    0  0.00000000000E+00 -0.00000000000E+00 -0.10885151054E+04  0.10885151054E+04  0.50400000000E-02 0. -1.
    8880022    1    1    2    0    0 -0.45060774494E+03  0.27022579571E+03  0.77547730710E+03  0.94911855282E+03  0.15294330000E+03 0.  0.
    8880022    1    1    2    0    0  0.45060774494E+03 -0.27022579571E+03 -0.92695588242E+03  0.10764330827E+04  0.15294330000E+03 0.  0.
<mgrwt>
<rscale>  0 0.54723027E+03</rscale>
<asrwt>0</asrwt>
<pdfrwt beam="1">  1        1 0.16746386E+00 0.54723027E+03</pdfrwt>
<pdfrwt beam="2">  1       -1 0.14415947E+00 0.54723027E+03</pdfrwt>
<totfact> 0.54029362E+00</totfact>
</mgrwt>
</event>
<event>
 4    1  0.4964158E-009  0.8991983E+03  0.7818608E-02  0.9426584E-01
          1   -1    0    0  501    0  0.00000000000E+00  0.00000000000E+00  0.13814836542E+04  0.13814836542E+04  0.50400000000E-02 0. -1.
         -1   -1    0    0    0  501 -0.00000000000E+00 -0.00000000000E+00 -0.12885427828E+04  0.12885427828E+04  0.50400000000E-02 0.  1.
    8880022    1    1    2    0    0  0.42092470205E+03  0.77973602495E+03  0.10327370722E+04  0.13693441447E+04  0.15294330000E+03 0.  0.
    8880022    1    1    2    0    0 -0.42092470205E+03 -0.77973602495E+03 -0.93979620084E+03  0.13006822923E+04  0.15294330000E+03 0.  0.
<mgrwt>
<rscale>  0 0.89919827E+03</rscale>
<asrwt>0</asrwt>
<pdfrwt beam="1">  1        1 0.21253595E+00 0.89919827E+03</pdfrwt>
<pdfrwt beam="2">  1       -1 0.19823735E+00 0.89919827E+03</pdfrwt>
<totfact> 0.12524052E+00</totfact>
</mgrwt>
</event>
<event>
 4    1  0.4964158E-009  0.5928502E+03  0.7818608E-02  0.9920352E-01
          1   -1    0    0  501    0  0.00000000000E+00  0.00000000000E+00  0.90294263734E+03  0.90294263736E+03  0.50400000000E-02 0. -1.
         -1   -1    0    0    0  501 -0.00000000000E+00 -0.00000000000E+00 -0.55874963041E+03  0.55874963044E+03  0.50400000000E-02 0.  1.
    8880022    1    1    2    0    0 -0.34227428960E+03 -0.45926903846E+03 -0.23043542177E+03  0.63605964786E+03  0.15294330000E+03 0.  0.
    8880022    1    1    2    0    0  0.34227428960E+03  0.45926903846E+03  0.57462842870E+03  0.82563261993E+03  0.15294330000E+03 0.  0.
<mgrwt>
<rscale>  0 0.59285023E+03</rscale>
<asrwt>0</asrwt>
<pdfrwt beam="1">  1        1 0.13891425E+00 0.59285023E+03</pdfrwt>
<pdfrwt beam="2">  1       -1 0.85961482E-01 0.59285023E+03</pdfrwt>
<totfact> 0.25334860E+01</totfact>
</mgrwt>
</event>
<event>
 4    1  0.4964158E-009  0.4201527E+03  0.7818608E-02  0.1037017E+00
         -1   -1    0    0    0  501 -0.00000000000E+00  0.00000000000E+00  0.72245439405E+03  0.72245439407E+03  0.50400000000E-02 0.  1.
          1   -1    0    0  501    0  0.00000000000E+00 -0.00000000000E+00 -0.76098794708E+03  0.76098794710E+03  0.50400000000E-02 0. -1.
    8880022    1    1    2    0    0  0.38016594518E+03 -0.92792960552E+02  0.59188195435E+03  0.72584611338E+03  0.15294330000E+03 0.  0.
    8880022    1    1    2    0    0 -0.38016594518E+03  0.92792960552E+02 -0.63041550738E+03  0.75759622779E+03  0.15294330000E+03 0.  0.
<mgrwt>
<rscale>  0 0.42015275E+03</rscale>
<asrwt>0</asrwt>
<pdfrwt beam="1">  1        1 0.11707507E+00 0.42015275E+03</pdfrwt>
<pdfrwt beam="2">  1       -1 0.11114683E+00 0.42015275E+03</pdfrwt>
<totfact> 0.19283360E+01</totfact>
</mgrwt>
</event>
<event>
 4    1  0.4964158E-009  0.4384211E+03  0.7818608E-02  0.1031232E+00
         -1   -1    0    0    0  501 -0.00000000000E+00  0.00000000000E+00  0.10391905567E+03  0.10391905579E+03  0.50400000000E-02 0.  1.
          1   -1    0    0  501    0  0.00000000000E+00 -0.00000000000E+00 -0.47037287028E+04  0.47037287028E+04  0.50400000000E-02 0. -1.
    8880022    1    1    2    0    0  0.89474804292E+02 -0.40101829486E+03 -0.42743390348E+03  0.61230123981E+03  0.15294330000E+03 0.  0.
    8880022    1    1    2    0    0 -0.89474804292E+02  0.40101829486E+03 -0.41723757437E+04  0.41953465188E+04  0.15294330000E+03 0.  0.
<mgrwt>
<rscale>  0 0.43842111E+03</rscale>
<asrwt>0</asrwt>
<pdfrwt beam="1">  1        1 0.72365041E+00 0.43842111E+03</pdfrwt>
<pdfrwt beam="2">  1       -1 0.15987551E-01 0.43842111E+03</pdfrwt>
<totfact> 0.72723620E-01</totfact>
</mgrwt>
</event>
<event>
 4    1  0.4964158E-009  0.2462651E+03  0.7818608E-02  0.1115688E+00
          1   -1    0    0  501    0  0.00000000000E+00  0.00000000000E+00  0.76618450921E+03  0.76618450923E+03  0.50400000000E-02 0. -1.
         -1   -1    0    0    0  501 -0.00000000000E+00 -0.00000000000E+00 -0.64091443859E+03  0.64091443861E+03  0.50400000000E-02 0.  1.
    8880022    1    1    2    0    0  0.80403099063E+02  0.17547136041E+03 -0.59603850885E+03  0.64490961670E+03  0.15294330000E+03 0.  0.
    8880022    1    1    2    0    0 -0.80403099063E+02 -0.17547136041E+03  0.72130857947E+03  0.76218933114E+03  0.15294330000E+03 0. -1.
<mgrwt>
<rscale>  0 0.24626512E+03</rscale>
<asrwt>0</asrwt>
<pdfrwt beam="1">  1        1 0.11787454E+00 0.24626512E+03</pdfrwt>
<pdfrwt beam="2">  1       -1 0.98602222E-01 0.24626512E+03</pdfrwt>
<totfact> 0.26273246E+01</totfact>
</mgrwt>
</event>
<event>
 4    1  0.4964158E-009  0.9013148E+03  0.7818608E-02  0.9423939E-01
          1   -1    0    0  501    0  0.00000000000E+00  0.00000000000E+00  0.21610319163E+04  0.21610319163E+04  0.50400000000E-02 0. -1.
         -1   -1    0    0    0  501 -0.00000000000E+00 -0.00000000000E+00 -0.11161722644E+04  0.11161722644E+04  0.50400000000E-02 0.  1.
    8880022    1    1    2    0    0 -0.57590088556E+03  0.67625056233E+03  0.18568687096E+04  0.20640566152E+04  0.15294330000E+03 0.  0.
    8880022    1    1    2    0    0  0.57590088556E+03 -0.67625056233E+03 -0.81200905766E+03  0.12131475655E+04  0.15294330000E+03 0.  0.
<mgrwt>
<rscale>  0 0.90131477E+03</rscale>
<asrwt>0</asrwt>
<pdfrwt beam="1">  1        1 0.33246645E+00 0.90131477E+03</pdfrwt>
<pdfrwt beam="2">  1       -1 0.17171881E+00 0.90131477E+03</pdfrwt>
<totfact> 0.57115338E-01</totfact>
</mgrwt>
</event>
<event>
 4    1  0.4964158E-009  0.3151335E+03  0.7818608E-02  0.1077911E+00
         -1   -1    0    0    0  501 -0.00000000000E+00  0.00000000000E+00  0.31796312476E+03  0.31796312480E+03  0.50400000000E-02 0.  1.
          1   -1    0    0  501    0  0.00000000000E+00 -0.00000000000E+00 -0.41731150855E+04  0.41731150855E+04  0.50400000000E-02 0. -1.
    8880022    1    1    2    0    0 -0.17740643140E+03  0.21081842931E+03 -0.40874494566E+04  0.40995795108E+04  0.15294330000E+03 0.  0.
    8880022    1    1    2    0    0  0.17740643140E+03 -0.21081842931E+03  0.23229749593E+03  0.39149869945E+03  0.15294330000E+03 0.  1.
<mgrwt>
<rscale>  0 0.31513347E+03</rscale>
<asrwt>0</asrwt>
<pdfrwt beam="1">  1        1 0.64201767E+00 0.31513347E+03</pdfrwt>
<pdfrwt beam="2">  1       -1 0.48917407E-01 0.31513347E+03</pdfrwt>
<totfact> 0.37439317E-01</totfact>
</mgrwt>
</event>
<event>
 4    1  0.4964158E-009  0.7928247E+03  0.7818608E-02  0.9570461E-01
         -1   -1    0    0    0  501 -0.00000000000E+00  0.00000000000E+00  0.31797091691E+03  0.31797091695E+03  0.50400000000E-02 0.  1.
          1   -1    0    0  501    0  0.00000000000E+00 -0.00000000000E+00 -0.29535840658E+04  0.29535840658E+04  0.50400000000E-02 0. -1.
    8880022    1    1    2    0    0  0.68189334096E+03  0.37443406643E+03 -0.37712086152E+03  0.87794714861E+03  0.15294330000E+03 0.  1.
    8880022    1    1    2    0    0 -0.68189334096E+03 -0.37443406643E+03 -0.22584922874E+04  0.23936078342E+04  0.15294330000E+03 0.  0.
<mgrwt>
<rscale>  0 0.79282473E+03</rscale>
<asrwt>0</asrwt>
<pdfrwt beam="1">  1        1 0.45439753E+00 0.79282473E+03</pdfrwt>
<pdfrwt beam="2">  1       -1 0.48918605E-01 0.79282473E+03</pdfrwt>
<totfact> 0.28724097E+00</totfact>
</mgrwt>
</event>
<event>
 4    1  0.4964158E-009  0.5847597E+03  0.7818608E-02  0.9937539E-01
         -1   -1    0    0    0  501 -0.00000000000E+00  0.00000000000E+00  0.27719863554E+03  0.27719863558E+03  0.50400000000E-02 0.  1.
          1   -1    0    0  501    0  0.00000000000E+00 -0.00000000000E+00 -0.14068792024E+04  0.14068792024E+04  0.50400000000E-02 0. -1.
    8880022    1    1    2    0    0 -0.54887384425E+03 -0.13149038719E+03 -0.26930128740E+03  0.64379115809E+03  0.15294330000E+03 0.  1.
    8880022    1    1    2    0    0  0.54887384425E+03  0.13149038719E+03 -0.86037927942E+03  0.10402866799E+04  0.15294330000E+03 0.  0.
<mgrwt>
<rscale>  0 0.58475967E+03</rscale>
<asrwt>0</asrwt>
<pdfrwt beam="1">  1        1 0.21644295E+00 0.58475967E+03</pdfrwt>
<pdfrwt beam="2">  1       -1 0.42645945E-01 0.58475967E+03</pdfrwt>
<totfact> 0.43184897E+01</totfact>
</mgrwt>
</event>
<event>
 4    1  0.4964158E-009  0.7272907E+03  0.7818608E-02  0.9671667E-01
         -1   -1    0    0    0  501 -0.00000000000E+00  0.00000000000E+00  0.62714923861E+03  0.62714923863E+03  0.50400000000E-02 0.  1.
          1   -1    0    0  501    0  0.00000000000E+00 -0.00000000000E+00 -0.31524057798E+04  0.31524057798E+04  0.50400000000E-02 0. -1.
    8880022    1    1    2    0    0  0.62373265688E+03 -0.34134683365E+03 -0.28799633940E+04  0.29703772305E+04  0.15294330000E+03 0.  0.
    8880022    1    1    2    0    0 -0.62373265688E+03  0.34134683365E+03  0.35470685273E+03  0.80917778794E+03  0.15294330000E+03 0.  0.
<mgrwt>
<rscale>  0 0.72729069E+03</rscale>
<asrwt>0</asrwt>
<pdfrwt beam="1">  1        1 0.48498550E+00 0.72729069E+03</pdfrwt>
<pdfrwt beam="2">  1       -1 0.96484500E-01 0.72729069E+03</pdfrwt>
<totfact> 0.52097286E-01</totfact>
</mgrwt>
</event>
<event>
 4    1  0.4964158E-009  0.1288770E+04  0.7818608E-02  0.9038518E-01
         -1   -1    0    0    0  501 -0.00000000000E+00  0.00000000000E+00  0.65762340603E+03  0.65762340605E+03  0.50400000000E-02 0.  1.
          1   -1    0    0  501    0  0.00000000000E+00 -0.00000000000E+00 -0.28686232245E+04  0.28686232245E+04  0.50400000000E-02 0. -1.
    8880022    1    1    2    0    0  0.13726236105E+03  0.12722799628E+04 -0.17151403555E+04  0.21453753405E+04  0.15294330000E+03 0.  0.
    8880022    1    1    2    0    0 -0.13726236105E+03 -0.12722799628E+04 -0.49585946291E+03  0.13808712900E+04  0.15294330000E+03 0.  0.
<mgrwt>
<rscale>  0 0.12887703E+04</rscale>
<asrwt>0</asrwt>
<pdfrwt beam="1">  1        1 0.44132664E+00 0.12887703E+04</pdfrwt>
<pdfrwt beam="2">  1       -1 0.10117283E+00 0.12887703E+04</pdfrwt>
<totfact> 0.67845227E-01</totfact>
</mgrwt>
</event>
<event>
 4    1  0.4964158E-009  0.3923371E+03  0.7818608E-02  0.1046466E+00
          1   -1    0    0  501    0  0.00000000000E+00  0.00000000000E+00  0.40023838543E+04  0.40023838543E+04  0.50400000000E-02 0. -1.
         -1   -1    0    0    0  501 -0.00000000000E+00 -0.00000000000E+00 -0.38669443085E+03  0.38669443088E+03  0.50400000000E-02 0.  1.
    8880022    1    1    2    0    0  0.27448927263E+03 -0.23493067031E+03 -0.27470670859E+03  0.47894906765E+03  0.15294330000E+03 0.  1.
    8880022    1    1    2    0    0 -0.27448927263E+03  0.23493067031E+03  0.38903961321E+04  0.39101292176E+04  0.15294330000E+03 0.  0.
<mgrwt>
<rscale>  0 0.39233714E+03</rscale>
<asrwt>0</asrwt>
<pdfrwt beam="1">  1        1 0.61575140E+00 0.39233714E+03</pdfrwt>
<pdfrwt beam="2">  1       -1 0.59491447E-01 0.39233714E+03</pdfrwt>
<totfact> 0.34721027E-01</totfact>
</mgrwt>
</event>
<event>
 4    1  0.4964158E-009  0.7789513E+03  0.7818608E-02  0.9590994E-01
          1   -1    0    0  501    0  0.00000000000E+00  0.00000000000E+00  0.23496364272E+04  0.23496364272E+04  0.50400000000E-02 0. -1.
         -1   -1    0    0    0  501 -0.00000000000E+00 -0.00000000000E+00 -0.45119684404E+03  0.45119684406E+03  0.50400000000E-02 0.  1.
    8880022    1    1    2    0    0  0.18289307835E+03 -0.74156831437E+03  0.18650326356E+04  0.20211659575E+04  0.15294330000E+03 0.  0.
    8880022    1    1    2    0    0 -0.18289307835E+03  0.74156831437E+03  0.33406947579E+02  0.77966731376E+03  0.15294330000E+03 0.  0.
<mgrwt>
<rscale>  0 0.77895128E+03</rscale>
<asrwt>0</asrwt>
<pdfrwt beam="1">  1        1 0.36148253E+00 0.77895128E+03</pdfrwt>
<pdfrwt beam="2">  1       -1 0.69414899E-01 0.77895128E+03</pdfrwt>
<totfact> 0.38001693E+00</totfact>
</mgrwt>
</event>
<event>
 4    1  0.4964158E-009  0.5278351E+03  0.7818608E-02  0.1006759E+00
         -1   -1    0    0    0  501 -0.00000000000E+00  0.00000000000E+00  0.46635261655E+03  0.46635261658E+03  0.50400000000E-02 0.  1.
          1   -1    0    0  501    0  0.00000000000E+00 -0.00000000000E+00 -0.11750689981E+04  0.11750689981E+04  0.50400000000E-02 0. -1.
    8880022    1    1    2    0    0 -0.50457486973E+03  0.24949128322E+02  0.22106749806E+03  0.57225933796E+03  0.15294330000E+03 0.  0.
    8880022    1    1    2    0    0  0.50457486973E+03 -0.24949128322E+02 -0.92978387965E+03  0.10691622768E+04  0.15294330000E+03 0.  0.
<mgrwt>
<rscale>  0 0.52783512E+03</rscale>
<asrwt>0</asrwt>
<pdfrwt beam="1">  1        1 0.18077985E+00 0.52783512E+03</pdfrwt>
<pdfrwt beam="2">  1       -1 0.71746557E-01 0.52783512E+03</pdfrwt>
<totfact> 0.23258604E+01</totfact>
</mgrwt>
</event>
<event>
 4    1  0.4964158E-009  0.6263431E+03  0.7818608E-02  0.9852211E-01
         -1   -1    0    0    0  501 -0.00000000000E+00  0.00000000000E+00  0.13141769341E+04  0.13141769341E+04  0.50400000000E-02 0.  1.
          1   -1    0    0  501    0  0.00000000000E+00 -0.00000000000E+00 -0.52091068164E+03  0.52091068167E+03  0.50400000000E-02 0. -1.
    8880022    1    1    2    0    0  0.29248932308E+03 -0.53231946547E+03 -0.20288908020E+03  0.65838411989E+03  0.15294330000E+03 0.  0.
    8880022    1    1    2    0    0 -0.29248932308E+03  0.53231946547E+03  0.99615533261E+03  0.11767034958E+04  0.15294330000E+03 0.  0.
<mgrwt>
<rscale>  0 0.62634309E+03</rscale>
<asrwt>0</asrwt>
<pdfrwt beam="1">  1        1 0.80140106E-01 0.62634309E+03</pdfrwt>
<pdfrwt beam="2">  1       -1 0.20218106E+00 0.62634309E+03</pdfrwt>
<totfact> 0.64167351E+00</totfact>
</mgrwt>
</event>
<event>
 4    1  0.4964158E-009  0.5611244E+03  0.7818608E-02  0.9989514E-01
          1   -1    0    0  501    0  0.00000000000E+00  0.00000000000E+00  0.18787575416E+04  0.18787575416E+04  0.50400000000E-02 0. -1.
         -1   -1    0    0    0  501 -0.00000000000E+00 -0.00000000000E+00 -0.39422716247E+03  0.39422716250E+03  0.50400000000E-02 0.  1.
    8880022    1    1    2    0    0  0.53919643916E+03 -0.27132211048E+02  0.16039709466E+04  0.16992890888E+04  0.15294330000E+03 0. -1.
    8880022    1    1    2    0    0 -0.53919643916E+03  0.27132211048E+02 -0.11944056743E+03  0.57369561532E+03  0.15294330000E+03 0.  0.
<mgrwt>
<rscale>  0 0.56112442E+03</rscale>
<asrwt>0</asrwt>
<pdfrwt beam="1">  1        1 0.28903962E+00 0.56112442E+03</pdfrwt>
<pdfrwt beam="2">  1       -1 0.60650333E-01 0.56112442E+03</pdfrwt>
<totfact> 0.10722947E+01</totfact>
</mgrwt>
</event>
<event>
 4    1  0.4964158E-009  0.6181985E+03  0.7818608E-02  0.9868353E-01
         -1   -1    0    0    0  501 -0.00000000000E+00  0.00000000000E+00  0.70126222026E+03  0.70126222028E+03  0.50400000000E-02 0.  1.
          1   -1    0    0  501    0  0.00000000000E+00 -0.00000000000E+00 -0.97225111197E+03  0.97225111199E+03  0.50400000000E-02 0. -1.
    8880022    1    1    2    0    0  0.22070478961E+03 -0.55683666859E+03  0.41921431003E+03  0.74693371218E+03  0.15294330000E+03 0.  0.
    8880022    1    1    2    0    0 -0.22070478961E+03  0.55683666859E+03 -0.69020320174E+03  0.92657962008E+03  0.15294330000E+03 0.  0.
<mgrwt>
<rscale>  0 0.61819846E+03</rscale>
<asrwt>0</asrwt>
<pdfrwt beam="1">  1        1 0.14957709E+00 0.61819846E+03</pdfrwt>
<pdfrwt beam="2">  1       -1 0.10788650E+00 0.61819846E+03</pdfrwt>
<totfact> 0.13358395E+01</totfact>
</mgrwt>
</event>
<event>
 4    1  0.4964158E-009  0.1596161E+04  0.7818608E-02  0.8822910E-01
          1   -1    0    0  501    0  0.00000000000E+00  0.00000000000E+00  0.15143841836E+04  0.15143841836E+04  0.50400000000E-02 0. -1.
         -1   -1    0    0    0  501 -0.00000000000E+00 -0.00000000000E+00 -0.19929806047E+04  0.19929806047E+04  0.50400000000E-02 0.  1.
    8880022    1    1    2    0    0 -0.93451029308E+03  0.12849239040E+04  0.45304047024E+03  0.16592095249E+04  0.15294330000E+03 0.  0.
    8880022    1    1    2    0    0  0.93451029308E+03 -0.12849239040E+04 -0.93163689138E+03  0.18481552633E+04  0.15294330000E+03 0.  0.
<mgrwt>
<rscale>  0 0.15961612E+04</rscale>
<asrwt>0</asrwt>
<pdfrwt beam="1">  1        1 0.23298218E+00 0.15961612E+04</pdfrwt>
<pdfrwt beam="2">  1       -1 0.30661240E+00 0.15961612E+04</pdfrwt>
<totfact> 0.17887556E-01</totfact>
</mgrwt>
</event>
<event>
 4    1  0.4964158E-009  0.1125233E+04  0.7818608E-02  0.9180941E-01
         -1   -1    0    0    0  501 -0.00000000000E+00  0.00000000000E+00  0.13132351068E+04  0.13132351068E+04  0.50400000000E-02 0.  1.
          1   -1    0    0  501    0  0.00000000000E+00 -0.00000000000E+00 -0.15462875469E+04  0.15462875469E+04  0.50400000000E-02 0. -1.
    8880022    1    1    2    0    0 -0.35725912136E+03 -0.10559945688E+04  0.76074270641E+03  0.13582634971E+04  0.15294330000E+03 0.  0.
    8880022    1    1    2    0    0  0.35725912136E+03  0.10559945688E+04 -0.99379514650E+03  0.15012591566E+04  0.15294330000E+03 0.  0.
<mgrwt>
<rscale>  0 0.11252334E+04</rscale>
<asrwt>0</asrwt>
<pdfrwt beam="1">  1        1 0.23789039E+00 0.11252334E+04</pdfrwt>
<pdfrwt beam="2">  1       -1 0.20203617E+00 0.11252334E+04</pdfrwt>
<totfact> 0.87627048E-01</totfact>
</mgrwt>
</event>
<event>
 4    1  0.4964158E-009  0.1205835E+04  0.7818608E-02  0.9107765E-01
          1   -1    0    0  501    0  0.00000000000E+00  0.00000000000E+00  0.10108941398E+04  0.10108941398E+04  0.50400000000E-02 0. -1.
         -1   -1    0    0    0  501 -0.00000000000E+00 -0.00000000000E+00 -0.14726999377E+04  0.14726999377E+04  0.50400000000E-02 0.  1.
    8880022    1    1    2    0    0  0.94553309518E+03  0.73253860931E+03 -0.42050609424E+03  0.12770523390E+04  0.15294330000E+03 0.  0.
    8880022    1    1    2    0    0 -0.94553309518E+03 -0.73253860931E+03 -0.41299703600E+02  0.12065417385E+04  0.15294330000E+03 0.  0.
<mgrwt>
<rscale>  0 0.12058347E+04</rscale>
<asrwt>0</asrwt>
<pdfrwt beam="1">  1        1 0.15552218E+00 0.12058347E+04</pdfrwt>
<pdfrwt beam="2">  1       -1 0.22656922E+00 0.12058347E+04</pdfrwt>
<totfact> 0.14475165E+00</totfact>
</mgrwt>
</event>
<event>
 4    1  0.4964158E-009  0.1862865E+04  0.7818608E-02  0.8673565E-01
         -1   -1    0    0    0  501 -0.00000000000E+00  0.00000000000E+00  0.18575939528E+04  0.18575939528E+04  0.50400000000E-02 0.  1.
          1   -1    0    0  501    0  0.00000000000E+00 -0.00000000000E+00 -0.25002821767E+04  0.25002821767E+04  0.50400000000E-02 0. -1.
    8880022    1    1    2    0    0  0.14957464837E+04  0.10998257810E+04 -0.14169490694E+04  0.23405150310E+04  0.15294330000E+03 0.  0.
    8880022    1    1    2    0    0 -0.14957464837E+04 -0.10998257810E+04  0.77426084554E+03  0.20173610985E+04  0.15294330000E+03 0.  0.
<mgrwt>
<rscale>  0 0.18628650E+04</rscale>
<asrwt>0</asrwt>
<pdfrwt beam="1">  1        1 0.38465880E+00 0.18628650E+04</pdfrwt>
<pdfrwt beam="2">  1       -1 0.28578369E+00 0.18628650E+04</pdfrwt>
<totfact> 0.49859214E-02</totfact>
</mgrwt>
</event>
<event>
 4    1  0.5623669E-009  0.9433545E+03  0.7818608E-02  0.9372952E-01
         -1   -1    0    0    0  501 -0.00000000000E+00  0.00000000000E+00  0.10489833549E+04  0.10489833549E+04  0.50400000000E-02 0.  1.
          1   -1    0    0  501    0  0.00000000000E+00 -0.00000000000E+00 -0.18988137887E+04  0.18988137887E+04  0.50400000000E-02 0. -1.
    8880022    1    1    2    0    0  0.48065791541E+03  0.79717884776E+03 -0.15211774080E+04  0.17899437161E+04  0.15294330000E+03 0.  0.
    8880022    1    1    2    0    0 -0.48065791541E+03 -0.79717884776E+03  0.67134697415E+03  0.11578534275E+04  0.15294330000E+03 0.  0.
<mgrwt>
<rscale>  0 0.94335455E+03</rscale>
<asrwt>0</asrwt>
<pdfrwt beam="1">  1        1 0.29212520E+00 0.94335455E+03</pdfrwt>
<pdfrwt beam="2">  1       -1 0.16138205E+00 0.94335455E+03</pdfrwt>
<totfact> 0.10149852E+00</totfact>
</mgrwt>
</event>
<event>
 4    1  0.4964158E-009  0.8245046E+03  0.7818608E-02  0.9525210E-01
         -1   -1    0    0    0  501 -0.00000000000E+00  0.00000000000E+00  0.95262722917E+03  0.95262722918E+03  0.50400000000E-02 0.  1.
          1   -1    0    0  501    0  0.00000000000E+00 -0.00000000000E+00 -0.88196722140E+03  0.88196722142E+03  0.50400000000E-02 0. -1.
    8880022    1    1    2    0    0  0.59065895371E+03 -0.55456121417E+03 -0.36543983138E+03  0.90186144348E+03  0.15294330000E+03 0.  0.
    8880022    1    1    2    0    0 -0.59065895371E+03  0.55456121417E+03  0.43609983915E+03  0.93273300712E+03  0.15294330000E+03 0.  0.
<mgrwt>
<rscale>  0 0.82450457E+03</rscale>
<asrwt>0</asrwt>
<pdfrwt beam="1">  1        1 0.13568726E+00 0.82450457E+03</pdfrwt>
<pdfrwt beam="2">  1       -1 0.14655804E+00 0.82450457E+03</pdfrwt>
<totfact> 0.71545731E+00</totfact>
</mgrwt>
</event>
<event>
 4    1  0.4964158E-009  0.9035837E+03  0.7818608E-02  0.9421113E-01
          1   -1    0    0  501    0  0.00000000000E+00  0.00000000000E+00  0.26085062670E+04  0.26085062670E+04  0.50400000000E-02 0. -1.
         -1   -1    0    0    0  501 -0.00000000000E+00 -0.00000000000E+00 -0.44992086015E+03  0.44992086018E+03  0.50400000000E-02 0.  1.
    8880022    1    1    2    0    0 -0.56144915701E+03 -0.69126449897E+03  0.23569710397E+03  0.93381825923E+03  0.15294330000E+03 0.  0.
    8880022    1    1    2    0    0  0.56144915701E+03  0.69126449897E+03  0.19228883029E+04  0.21246088680E+04  0.15294330000E+03 0.  0.
<mgrwt>
<rscale>  0 0.90358365E+03</rscale>
<asrwt>0</asrwt>
<pdfrwt beam="1">  1        1 0.40130866E+00 0.90358365E+03</pdfrwt>
<pdfrwt beam="2">  1       -1 0.69218594E-01 0.90358365E+03</pdfrwt>
<totfact> 0.24894908E+00</totfact>
</mgrwt>
</event>
<event>
 4    1  0.4964158E-009  0.3077963E+03  0.7818608E-02  0.1081407E+00
         -1   -1    0    0    0  501 -0.00000000000E+00  0.00000000000E+00  0.28731377248E+03  0.28731377252E+03  0.50400000000E-02 0.  1.
          1   -1    0    0  501    0  0.00000000000E+00 -0.00000000000E+00 -0.11480897058E+04  0.11480897059E+04  0.50400000000E-02 0. -1.
    8880022    1    1    2    0    0  0.22147447732E+03  0.14931837703E+03 -0.10363226340E+04  0.10810657596E+04  0.15294330000E+03 0.  0.
    8880022    1    1    2    0    0 -0.22147447732E+03 -0.14931837703E+03  0.17554670064E+03  0.35433771877E+03  0.15294330000E+03 0.  0.
<mgrwt>
<rscale>  0 0.30779632E+03</rscale>
<asrwt>0</asrwt>
<pdfrwt beam="1">  1        1 0.17662918E+00 0.30779632E+03</pdfrwt>
<pdfrwt beam="2">  1       -1 0.44202119E-01 0.30779632E+03</pdfrwt>
<totfact> 0.64566457E+01</totfact>
</mgrwt>
</event>
<event>
 4    1  0.4964158E-009  0.2901942E+03  0.7818608E-02  0.1090248E+00
         -1   -1    0    0    0  501 -0.00000000000E+00  0.00000000000E+00  0.73311517443E+02  0.73311517616E+02  0.50400000000E-02 0.  1.
          1   -1    0    0  501    0  0.00000000000E+00 -0.00000000000E+00 -0.14687101450E+04  0.14687101450E+04  0.50400000000E-02 0. -1.
    8880022    1    1    2    0    0  0.14424920142E+03 -0.20003296413E+03 -0.33780350528E+03  0.44533569366E+03  0.15294330000E+03 0.  0.
    8880022    1    1    2    0    0 -0.14424920142E+03  0.20003296413E+03 -0.10575951223E+04  0.10966859689E+04  0.15294330000E+03 0. -1.
<mgrwt>
<rscale>  0 0.29019420E+03</rscale>
<asrwt>0</asrwt>
<pdfrwt beam="1">  1        1 0.22595538E+00 0.29019420E+03</pdfrwt>
<pdfrwt beam="2">  1       -1 0.11278696E-01 0.29019420E+03</pdfrwt>
<totfact> 0.37940207E+02</totfact>
</mgrwt>
</event>
<event>
 4    1  0.4964158E-009  0.7636416E+03  0.7818608E-02  0.9614189E-01
          1   -1    0    0  501    0  0.00000000000E+00  0.00000000000E+00  0.28773503041E+04  0.28773503041E+04  0.50400000000E-02 0. -1.
         -1   -1    0    0    0  501 -0.00000000000E+00 -0.00000000000E+00 -0.10087949899E+04  0.10087949899E+04  0.50400000000E-02 0.  1.
    8880022    1    1    2    0    0 -0.59402109764E+03 -0.45485794949E+03 -0.80267970308E+03  0.11079003463E+04  0.15294330000E+03 0.  0.
    8880022    1    1    2    0    0  0.59402109764E+03  0.45485794949E+03  0.26712350173E+04  0.27782449477E+04  0.15294330000E+03 0. -1.
<mgrwt>
<rscale>  0 0.76364159E+03</rscale>
<asrwt>0</asrwt>
<pdfrwt beam="1">  1        1 0.44266927E+00 0.76364159E+03</pdfrwt>
<pdfrwt beam="2">  1       -1 0.15519923E+00 0.76364159E+03</pdfrwt>
<totfact> 0.25189773E-01</totfact>
</mgrwt>
</event>
<event>
 4    1  0.4964158E-009  0.1399667E+04  0.7818608E-02  0.8954060E-01
         -1   -1    0    0    0  501 -0.00000000000E+00  0.00000000000E+00  0.10279133790E+04  0.10279133790E+04  0.50400000000E-02 0.  1.
          1   -1    0    0  501    0  0.00000000000E+00 -0.00000000000E+00 -0.30205189035E+04  0.30205189035E+04  0.50400000000E-02 0. -1.
    8880022    1    1    2    0    0  0.13582685560E+03  0.13846395341E+04 -0.22259641572E+04  0.26294455036E+04  0.15294330000E+03 0.  0.
    8880022    1    1    2    0    0 -0.13582685560E+03 -0.13846395341E+04  0.23335863279E+03  0.14189867789E+04  0.15294330000E+03 0.  0.
<mgrwt>
<rscale>  0 0.13996668E+04</rscale>
<asrwt>0</asrwt>
<pdfrwt beam="1">  1        1 0.46469521E+00 0.13996668E+04</pdfrwt>
<pdfrwt beam="2">  1       -1 0.15814052E+00 0.13996668E+04</pdfrwt>
<totfact> 0.16804949E-01</totfact>
</mgrwt>
</event>
<event>
 4    1  0.4964158E-009  0.2075230E+03  0.7818608E-02  0.1143543E+00
         -1   -1    0    0    0  501 -0.00000000000E+00  0.00000000000E+00  0.64816070574E+02  0.64816070770E+02  0.50400000000E-02 0.  1.
          1   -1    0    0  501    0  0.00000000000E+00 -0.00000000000E+00 -0.73790195064E+03  0.73790195066E+03  0.50400000000E-02 0. -1.
    8880022    1    1    2    0    0 -0.11710896075E+03  0.77198721429E+02 -0.46318898335E+03  0.50755279390E+03  0.15294330000E+03 0.  0.
    8880022    1    1    2    0    0  0.11710896075E+03 -0.77198721429E+02 -0.20989689672E+03  0.29516522753E+03  0.15294330000E+03 0.  0.
<mgrwt>
<rscale>  0 0.20752302E+03</rscale>
<asrwt>0</asrwt>
<pdfrwt beam="1">  1        1 0.11352337E+00 0.20752302E+03</pdfrwt>
<pdfrwt beam="2">  1       -1 0.99717037E-02 0.20752302E+03</pdfrwt>
<totfact> 0.15916694E+03</totfact>
</mgrwt>
</event>
<event>
 4    1  0.4964158E-009  0.6998203E+03  0.7818608E-02  0.9717540E-01
          1   -1    0    0  501    0  0.00000000000E+00  0.00000000000E+00  0.82242986072E+03  0.82242986073E+03  0.50400000000E-02 0. -1.
         -1   -1    0    0    0  501 -0.00000000000E+00 -0.00000000000E+00 -0.19493129971E+04  0.19493129971E+04  0.50400000000E-02 0.  1.
    8880022    1    1    2    0    0 -0.23865950201E+03 -0.63984247367E+03  0.59150838382E+03  0.91631357632E+03  0.15294330000E+03 0.  0.
    8880022    1    1    2    0    0  0.23865950201E+03  0.63984247367E+03 -0.17183915202E+04  0.18554292815E+04  0.15294330000E+03 0.  0.
<mgrwt>
<rscale>  0 0.69982026E+03</rscale>
<asrwt>0</asrwt>
<pdfrwt beam="1">  1        1 0.12652767E+00 0.69982026E+03</pdfrwt>
<pdfrwt beam="2">  1       -1 0.29989431E+00 0.69982026E+03</pdfrwt>
<totfact> 0.74838376E-01</totfact>
</mgrwt>
</event>
<event>
 4    1  0.4964158E-009  0.1072849E+04  0.7818608E-02  0.9232066E-01
         -1   -1    0    0    0  501 -0.00000000000E+00  0.00000000000E+00  0.46385880288E+03  0.46385880291E+03  0.50400000000E-02 0.  1.
          1   -1    0    0  501    0  0.00000000000E+00 -0.00000000000E+00 -0.31700128614E+04  0.31700128614E+04  0.50400000000E-02 0. -1.
    8880022    1    1    2    0    0  0.78414424763E+03 -0.71605279323E+03 -0.21999260860E+04  0.24475866155E+04  0.15294330000E+03 0.  0.
    8880022    1    1    2    0    0 -0.78414424763E+03  0.71605279323E+03 -0.50622797256E+03  0.11862850488E+04  0.15294330000E+03 0.  0.
<mgrwt>
<rscale>  0 0.10728492E+04</rscale>
<asrwt>0</asrwt>
<pdfrwt beam="1">  1        1 0.48769427E+00 0.10728492E+04</pdfrwt>
<pdfrwt beam="2">  1       -1 0.71362895E-01 0.10728492E+04</pdfrwt>
<totfact> 0.90523328E-01</totfact>
</mgrwt>
</event>
<event>
 4    1  0.4964158E-009  0.1053909E+04  0.7818608E-02  0.9251318E-01
         -1   -1    0    0    0  501 -0.00000000000E+00  0.00000000000E+00  0.49888824211E+03  0.49888824214E+03  0.50400000000E-02 0.  1.
          1   -1    0    0  501    0  0.00000000000E+00 -0.00000000000E+00 -0.25237215818E+04  0.25237215818E+04  0.50400000000E-02 0. -1.
    8880022    1    1    2    0    0  0.83919326752E+02  0.10393699200E+04 -0.49368133995E+03  0.11638063423E+04  0.15294330000E+03 0.  0.
    8880022    1    1    2    0    0 -0.83919326752E+02 -0.10393699200E+04 -0.15311519997E+04  0.18588034816E+04  0.15294330000E+03 0.  0.
<mgrwt>
<rscale>  0 0.10539089E+04</rscale>
<asrwt>0</asrwt>
<pdfrwt beam="1">  1        1 0.38826485E+00 0.10539089E+04</pdfrwt>
<pdfrwt beam="2">  1       -1 0.76752039E-01 0.10539089E+04</pdfrwt>
<totfact> 0.22467433E+00</totfact>
</mgrwt>
</event>
<event>
 4    1  0.4964158E-009  0.2467278E+03  0.7818608E-02  0.1115390E+00
          1   -1    0    0  501    0  0.00000000000E+00  0.00000000000E+00  0.23860188563E+03  0.23860188569E+03  0.50400000000E-02 0. -1.
         -1   -1    0    0    0  501 -0.00000000000E+00 -0.00000000000E+00 -0.10744131333E+04  0.10744131333E+04  0.50400000000E-02 0.  1.
    8880022    1    1    2    0    0 -0.19290327499E+03  0.16470156218E+02 -0.99119111033E+03  0.10214374233E+04  0.15294330000E+03 0.  1.
    8880022    1    1    2    0    0  0.19290327499E+03 -0.16470156218E+02  0.15537986268E+03  0.29157759566E+03  0.15294330000E+03 0.  0.
<mgrwt>
<rscale>  0 0.24672777E+03</rscale>
<asrwt>0</asrwt>
<pdfrwt beam="1">  1        1 0.36707983E-01 0.24672777E+03</pdfrwt>
<pdfrwt beam="2">  1       -1 0.16529433E+00 0.24672777E+03</pdfrwt>
<totfact> 0.34648093E+01</totfact>
</mgrwt>
</event>
<event>
 4    1  0.4964158E-009  0.1599869E+03  0.7818608E-02  0.1188712E+00
          1   -1    0    0  501    0  0.00000000000E+00  0.00000000000E+00  0.23564595095E+03  0.23564595100E+03  0.50400000000E-02 0. -1.
         -1   -1    0    0    0  501 -0.00000000000E+00 -0.00000000000E+00 -0.35164600550E+03  0.35164600553E+03  0.50400000000E-02 0.  1.
    8880022    1    1    2    0    0  0.30060783187E+02  0.36062495319E+02 -0.30211690090E+03  0.34186317304E+03  0.15294330000E+03 0.  0.
    8880022    1    1    2    0    0 -0.30060783187E+02 -0.36062495319E+02  0.18611684636E+03  0.24542878349E+03  0.15294330000E+03 0. -1.
<mgrwt>
<rscale>  0 0.15998690E+03</rscale>
<asrwt>0</asrwt>
<pdfrwt beam="1">  1        1 0.36253223E-01 0.15998690E+03</pdfrwt>
<pdfrwt beam="2">  1       -1 0.54099385E-01 0.15998690E+03</pdfrwt>
<totfact> 0.42564079E+02</totfact>
</mgrwt>
</event>
<event>
 4    1  0.4964158E-009  0.6589959E+03  0.7818608E-02  0.9790044E-01
         -1   -1    0    0    0  501 -0.00000000000E+00  0.00000000000E+00  0.59202776210E+03  0.59202776213E+03  0.50400000000E-02 0.  1.
          1   -1    0    0  501    0  0.00000000000E+00 -0.00000000000E+00 -0.83510769162E+03  0.83510769164E+03  0.50400000000E-02 0. -1.
    8880022    1    1    2    0    0 -0.45862637881E+03  0.44782344303E+03 -0.37039314424E+03  0.75595418233E+03  0.15294330000E+03 0.  0.
    8880022    1    1    2    0    0  0.45862637881E+03 -0.44782344303E+03  0.12731321472E+03  0.67118127143E+03  0.15294330000E+03 0.  0.
<mgrwt>
<rscale>  0 0.65899594E+03</rscale>
<asrwt>0</asrwt>
<pdfrwt beam="1">  1        1 0.12847811E+00 0.65899594E+03</pdfrwt>
<pdfrwt beam="2">  1       -1 0.91081194E-01 0.65899594E+03</pdfrwt>
<totfact> 0.25175133E+01</totfact>
</mgrwt>
</event>
<event>
 4    1  0.4964158E-009  0.6834979E+03  0.7818608E-02  0.9745877E-01
         -1   -1    0    0    0  501 -0.00000000000E+00  0.00000000000E+00  0.12311539531E+04  0.12311539531E+04  0.50400000000E-02 0.  1.
          1   -1    0    0  501    0  0.00000000000E+00 -0.00000000000E+00 -0.12882234607E+04  0.12882234607E+04  0.50400000000E-02 0. -1.
    8880022    1    1    2    0    0  0.66609801774E+03 -0.95488381782E+01 -0.10865547901E+04  0.12836552163E+04  0.15294330000E+03 0.  0.
    8880022    1    1    2    0    0 -0.66609801774E+03  0.95488381782E+01  0.10294852825E+04  0.12357221975E+04  0.15294330000E+03 0.  0.
<mgrwt>
<rscale>  0 0.68349792E+03</rscale>
<asrwt>0</asrwt>
<pdfrwt beam="1">  1        1 0.19818822E+00 0.68349792E+03</pdfrwt>
<pdfrwt beam="2">  1       -1 0.18940830E+00 0.68349792E+03</pdfrwt>
<totfact> 0.17450790E+00</totfact>
</mgrwt>
</event>
<event>
 4    1  0.5340355E-009  0.1055670E+04  0.7818608E-02  0.9249509E-01
          1   -1    0    0  501    0  0.00000000000E+00  0.00000000000E+00  0.23160993983E+04  0.23160993983E+04  0.50400000000E-02 0. -1.
         -1   -1    0    0    0  501 -0.00000000000E+00 -0.00000000000E+00 -0.11342827650E+04  0.11342827650E+04  0.50400000000E-02 0.  1.
    8880022    1    1    2    0    0  0.61365783452E+03 -0.84526477229E+03  0.19000005724E+04  0.21735782252E+04  0.15294330000E+03 0.  0.
    8880022    1    1    2    0    0 -0.61365783452E+03  0.84526477229E+03 -0.71818393907E+03  0.12768039382E+04  0.15294330000E+03 0.  0.
<mgrwt>
<rscale>  0 0.10556705E+04</rscale>
<asrwt>0</asrwt>
<pdfrwt beam="1">  1        1 0.35632298E+00 0.10556705E+04</pdfrwt>
<pdfrwt beam="2">  1       -1 0.17450504E+00 0.10556705E+04</pdfrwt>
<totfact> 0.41649135E-01</totfact>
</mgrwt>
</event>
<event>
 4    1  0.4964158E-009  0.1082329E+04  0.7818608E-02  0.9222588E-01
          1   -1    0    0  501    0  0.00000000000E+00  0.00000000000E+00  0.32576527038E+04  0.32576527038E+04  0.50400000000E-02 0. -1.
         -1   -1    0    0    0  501 -0.00000000000E+00 -0.00000000000E+00 -0.49406867970E+03  0.49406867972E+03  0.50400000000E-02 0.  1.
    8880022    1    1    2    0    0 -0.26475943714E+02 -0.10711412365E+04  0.40314676449E+03  0.11549733723E+04  0.15294330000E+03 0.  0.
    8880022    1    1    2    0    0  0.26475943714E+02  0.10711412365E+04  0.23604372596E+04  0.25967480112E+04  0.15294330000E+03 0.  0.
<mgrwt>
<rscale>  0 0.10823291E+04</rscale>
<asrwt>0</asrwt>
<pdfrwt beam="1">  1        1 0.50117732E+00 0.10823291E+04</pdfrwt>
<pdfrwt beam="2">  1       -1 0.76010569E-01 0.10823291E+04</pdfrwt>
<totfact> 0.68190673E-01</totfact>
</mgrwt>
</event>
<event>
 4    1  0.4964158E-009  0.4327599E+03  0.7818608E-02  0.1032992E+00
          1   -1    0    0  501    0  0.00000000000E+00  0.00000000000E+00  0.47625912229E+03  0.47625912232E+03  0.50400000000E-02 0. -1.
         -1   -1    0    0    0  501 -0.00000000000E+00 -0.00000000000E+00 -0.55572403710E+03  0.55572403712E+03  0.50400000000E-02 0.  1.
    8880022    1    1    2    0    0  0.37788256282E+03  0.14523866341E+03  0.23928202505E+03  0.49450686664E+03  0.15294330000E+03 0.  0.
    8880022    1    1    2    0    0 -0.37788256282E+03 -0.14523866341E+03 -0.31874693986E+03  0.53747629279E+03  0.15294330000E+03 0.  0.
<mgrwt>
<rscale>  0 0.43275993E+03</rscale>
<asrwt>0</asrwt>
<pdfrwt beam="1">  1        1 0.73270634E-01 0.43275993E+03</pdfrwt>
<pdfrwt beam="2">  1       -1 0.85496006E-01 0.43275993E+03</pdfrwt>
<totfact> 0.67436419E+01</totfact>
</mgrwt>
</event>
<event>
 4    1  0.4964158E-009  0.7884117E+03  0.7818608E-02  0.9576944E-01
          1   -1    0    0  501    0  0.00000000000E+00  0.00000000000E+00  0.17498397375E+04  0.17498397375E+04  0.50400000000E-02 0. -1.
         -1   -1    0    0    0  501 -0.00000000000E+00 -0.00000000000E+00 -0.10111565799E+04  0.10111565799E+04  0.50400000000E-02 0.  1.
    8880022    1    1    2    0    0 -0.24389718141E+02  0.77305016615E+03 -0.74253021582E+03  0.10830254808E+04  0.15294330000E+03 0.  0.
    8880022    1    1    2    0    0  0.24389718141E+02 -0.77305016615E+03  0.14812133734E+04  0.16779708366E+04  0.15294330000E+03 0.  0.
<mgrwt>
<rscale>  0 0.78841174E+03</rscale>
<asrwt>0</asrwt>
<pdfrwt beam="1">  1        1 0.26920611E+00 0.78841174E+03</pdfrwt>
<pdfrwt beam="2">  1       -1 0.15556255E+00 0.78841174E+03</pdfrwt>
<totfact> 0.14546269E+00</totfact>
</mgrwt>
</event>
<event>
 4    1  0.4964158E-009  0.1200809E+04  0.7818608E-02  0.9112149E-01
         -1   -1    0    0    0  501 -0.00000000000E+00  0.00000000000E+00  0.87614559392E+03  0.87614559393E+03  0.50400000000E-02 0.  1.
          1   -1    0    0  501    0  0.00000000000E+00 -0.00000000000E+00 -0.31170192424E+04  0.31170192424E+04  0.50400000000E-02 0. -1.
    8880022    1    1    2    0    0  0.26459342103E+03  0.11612668874E+04  0.25126362967E+03  0.12268151967E+04  0.15294330000E+03 0.  0.
    8880022    1    1    2    0    0 -0.26459342103E+03 -0.11612668874E+04 -0.24921372781E+04  0.27663496396E+04  0.15294330000E+03 0.  0.
<mgrwt>
<rscale>  0 0.12008089E+04</rscale>
<asrwt>0</asrwt>
<pdfrwt beam="1">  1        1 0.47954142E+00 0.12008089E+04</pdfrwt>
<pdfrwt beam="2">  1       -1 0.13479163E+00 0.12008089E+04</pdfrwt>
<totfact> 0.22561292E-01</totfact>
</mgrwt>
</event>
<event>
 4    1  0.4964158E-009  0.1485934E+04  0.7818608E-02  0.8893861E-01
         -1   -1    0    0    0  501 -0.00000000000E+00  0.00000000000E+00  0.18771962195E+04  0.18771962195E+04  0.50400000000E-02 0.  1.
          1   -1    0    0  501    0  0.00000000000E+00 -0.00000000000E+00 -0.16334685968E+04  0.16334685968E+04  0.50400000000E-02 0. -1.
    8880022    1    1    2    0    0  0.13225386629E+04  0.65992464337E+03 -0.80684359894E+03  0.16908569708E+04  0.15294330000E+03 0.  0.
    8880022    1    1    2    0    0 -0.13225386629E+04 -0.65992464337E+03  0.10505712216E+04  0.18198078454E+04  0.15294330000E+03 0.  0.
<mgrwt>
<rscale>  0 0.14859343E+04</rscale>
<asrwt>0</asrwt>
<pdfrwt beam="1">  1        1 0.25130286E+00 0.14859343E+04</pdfrwt>
<pdfrwt beam="2">  1       -1 0.28879942E+00 0.14859343E+04</pdfrwt>
<totfact> 0.19548864E-01</totfact>
</mgrwt>
</event>
<event>
 4    1  0.5744047E-009  0.8474645E+03  0.7818608E-02  0.9493746E-01
          1   -1    0    0  501    0  0.00000000000E+00  0.00000000000E+00  0.26007684942E+04  0.26007684942E+04  0.50400000000E-02 0. -1.
         -1   -1    0    0    0  501 -0.00000000000E+00 -0.00000000000E+00 -0.98687626806E+03  0.98687626808E+03  0.50400000000E-02 0.  1.
    8880022    1    1    2    0    0 -0.26278733782E+01  0.83354519570E+03  0.23292451827E+04  0.24786244719E+04  0.15294330000E+03 0.  0.
    8880022    1    1    2    0    0  0.26278733782E+01 -0.83354519570E+03 -0.71535295651E+03  0.11090202903E+04  0.15294330000E+03 0.  0.
<mgrwt>
<rscale>  0 0.84746454E+03</rscale>
<asrwt>0</asrwt>
<pdfrwt beam="1">  1        1 0.40011823E+00 0.84746454E+03</pdfrwt>
<pdfrwt beam="2">  1       -1 0.15182712E+00 0.84746454E+03</pdfrwt>
<totfact> 0.40898593E-01</totfact>
</mgrwt>
</event>
<event>
 4    1  0.4964158E-009  0.5658904E+03  0.7818608E-02  0.9978814E-01
          1   -1    0    0  501    0  0.00000000000E+00  0.00000000000E+00  0.51303984530E+03  0.51303984532E+03  0.50400000000E-02 0. -1.
         -1   -1    0    0    0  501 -0.00000000000E+00 -0.00000000000E+00 -0.17888192474E+04  0.17888192474E+04  0.50400000000E-02 0.  1.
    8880022    1    1    2    0    0  0.53716367117E+03  0.91079253719E+02  0.29077779567E+03  0.63622607582E+03  0.15294330000E+03 0.  0.
    8880022    1    1    2    0    0 -0.53716367117E+03 -0.91079253719E+02 -0.15665571977E+04  0.16656330169E+04  0.15294330000E+03 0.  0.
<mgrwt>
<rscale>  0 0.56589035E+03</rscale>
<asrwt>0</asrwt>
<pdfrwt beam="1">  1        1 0.78929208E-01 0.56589035E+03</pdfrwt>
<pdfrwt beam="2">  1       -1 0.27520296E+00 0.56589035E+03</pdfrwt>
<totfact> 0.22206677E+00</totfact>
</mgrwt>
</event>
<event>
 4    1  0.4964158E-009  0.1068179E+04  0.7818608E-02  0.9236774E-01
          1   -1    0    0  501    0  0.00000000000E+00  0.00000000000E+00  0.12298641836E+04  0.12298641836E+04  0.50400000000E-02 0. -1.
         -1   -1    0    0    0  501 -0.00000000000E+00 -0.00000000000E+00 -0.14899422120E+04  0.14899422120E+04  0.50400000000E-02 0.  1.
    8880022    1    1    2    0    0  0.74589457872E+03  0.74916962223E+03 -0.96538426666E+03  0.14397820254E+04  0.15294330000E+03 0.  0.
    8880022    1    1    2    0    0 -0.74589457872E+03 -0.74916962223E+03  0.70530623827E+03  0.12800243702E+04  0.15294330000E+03 0.  0.
<mgrwt>
<rscale>  0 0.10681786E+04</rscale>
<asrwt>0</asrwt>
<pdfrwt beam="1">  1        1 0.18920988E+00 0.10681786E+04</pdfrwt>
<pdfrwt beam="2">  1       -1 0.22922188E+00 0.10681786E+04</pdfrwt>
<totfact> 0.96829173E-01</totfact>
</mgrwt>
</event>
<event>
 4    1  0.4964158E-009  0.7756441E+03  0.7818608E-02  0.9595956E-01
          1   -1    0    0  501    0  0.00000000000E+00  0.00000000000E+00  0.12410833374E+04  0.12410833375E+04  0.50400000000E-02 0. -1.
         -1   -1    0    0    0  501 -0.00000000000E+00 -0.00000000000E+00 -0.11158663714E+04  0.11158663714E+04  0.50400000000E-02 0.  1.
    8880022    1    1    2    0    0 -0.68353731196E+03  0.33317988331E+03  0.94887953692E+03  0.12255595131E+04  0.15294330000E+03 0.  0.
    8880022    1    1    2    0    0  0.68353731196E+03 -0.33317988331E+03 -0.82366257091E+03  0.11313901958E+04  0.15294330000E+03 0.  0.
<mgrwt>
<rscale>  0 0.77564408E+03</rscale>
<asrwt>0</asrwt>
<pdfrwt beam="1">  1        1 0.19093590E+00 0.77564408E+03</pdfrwt>
<pdfrwt beam="2">  1       -1 0.17167175E+00 0.77564408E+03</pdfrwt>
<totfact> 0.24779057E+00</totfact>
</mgrwt>
</event>
<event>
 4    1  0.4964158E-009  0.7252363E+03  0.7818608E-02  0.9675022E-01
          1   -1    0    0  501    0  0.00000000000E+00  0.00000000000E+00  0.55832594362E+03  0.55832594364E+03  0.50400000000E-02 0. -1.
         -1   -1    0    0    0  501 -0.00000000000E+00 -0.00000000000E+00 -0.14673416700E+04  0.14673416700E+04  0.50400000000E-02 0.  1.
    8880022    1    1    2    0    0  0.59034825328E+03 -0.39251108283E+03 -0.10605115381E+04  0.12847771735E+04  0.15294330000E+03 0.  0.
    8880022    1    1    2    0    0 -0.59034825328E+03  0.39251108283E+03  0.15149581166E+03  0.74089044012E+03  0.15294330000E+03 0.  0.
<mgrwt>
<rscale>  0 0.72523628E+03</rscale>
<asrwt>0</asrwt>
<pdfrwt beam="1">  1        1 0.85896300E-01 0.72523628E+03</pdfrwt>
<pdfrwt beam="2">  1       -1 0.22574487E+00 0.72523628E+03</pdfrwt>
<totfact> 0.39905269E+00</totfact>
</mgrwt>
</event>
<event>
 4    1  0.4964158E-009  0.5919321E+03  0.7818608E-02  0.9922287E-01
         -1   -1    0    0    0  501 -0.00000000000E+00  0.00000000000E+00  0.32770939396E+03  0.32770939400E+03  0.50400000000E-02 0.  1.
          1   -1    0    0  501    0  0.00000000000E+00 -0.00000000000E+00 -0.14364274281E+04  0.14364274281E+04  0.50400000000E-02 0. -1.
    8880022    1    1    2    0    0 -0.14029686524E+03 -0.55435432926E+03 -0.10003580648E+04  0.11623682049E+04  0.15294330000E+03 0.  0.
    8880022    1    1    2    0    0  0.14029686524E+03  0.55435432926E+03 -0.10835996932E+03  0.60176861727E+03  0.15294330000E+03 0.  0.
<mgrwt>
<rscale>  0 0.59193208E+03</rscale>
<asrwt>0</asrwt>
<pdfrwt beam="1">  1        1 0.22098883E+00 0.59193208E+03</pdfrwt>
<pdfrwt beam="2">  1       -1 0.50416831E-01 0.59193208E+03</pdfrwt>
<totfact> 0.30158708E+01</totfact>
</mgrwt>
</event>
<event>
 4    1  0.4964158E-009  0.3250251E+03  0.7818608E-02  0.1073360E+00
         -1   -1    0    0    0  501 -0.00000000000E+00  0.00000000000E+00  0.16812568436E+03  0.16812568444E+03  0.50400000000E-02 0.  1.
          1   -1    0    0  501    0  0.00000000000E+00 -0.00000000000E+00 -0.12433968798E+04  0.12433968799E+04  0.50400000000E-02 0. -1.
    8880022    1    1    2    0    0  0.16301473771E+03 -0.23595732843E+03 -0.41262759583E+02  0.32763384119E+03  0.15294330000E+03 0.  0.
    8880022    1    1    2    0    0 -0.16301473771E+03  0.23595732843E+03 -0.10340084359E+04  0.10838887231E+04  0.15294330000E+03 0.  0.
<mgrwt>
<rscale>  0 0.32502510E+03</rscale>
<asrwt>0</asrwt>
<pdfrwt beam="1">  1        1 0.19129182E+00 0.32502510E+03</pdfrwt>
<pdfrwt beam="2">  1       -1 0.25865491E-01 0.32502510E+03</pdfrwt>
<totfact> 0.14034614E+02</totfact>
</mgrwt>
</event>
<event>
 4    1  0.4964158E-009  0.5407240E+03  0.7818608E-02  0.1003664E+00
         -1   -1    0    0    0  501 -0.00000000000E+00  0.00000000000E+00  0.16554529092E+03  0.16554529100E+03  0.50400000000E-02 0.  1.
          1   -1    0    0  501    0  0.00000000000E+00 -0.00000000000E+00 -0.29887560744E+04  0.29887560744E+04  0.50400000000E-02 0. -1.
    8880022    1    1    2    0    0  0.50757601621E+03  0.10657112005E+03 -0.24203151787E+04  0.24799814582E+04  0.15294330000E+03 0.  0.
    8880022    1    1    2    0    0 -0.50757601621E+03 -0.10657112005E+03 -0.40289560480E+03  0.67431990720E+03  0.15294330000E+03 0.  0.
<mgrwt>
<rscale>  0 0.54072402E+03</rscale>
<asrwt>0</asrwt>
<pdfrwt beam="1">  1        1 0.45980859E+00 0.54072402E+03</pdfrwt>
<pdfrwt beam="2">  1       -1 0.25468509E-01 0.54072402E+03</pdfrwt>
<totfact> 0.91616286E+00</totfact>
</mgrwt>
</event>
<event>
 4    1  0.4964158E-009  0.1304013E+04  0.7818608E-02  0.9026389E-01
         -1   -1    0    0    0  501 -0.00000000000E+00  0.00000000000E+00  0.60762746194E+03  0.60762746196E+03  0.50400000000E-02 0.  1.
          1   -1    0    0  501    0  0.00000000000E+00 -0.00000000000E+00 -0.38530076247E+04  0.38530076247E+04  0.50400000000E-02 0. -1.
    8880022    1    1    2    0    0  0.12337376818E+04  0.39363538937E+03 -0.27894738491E+04  0.30792228719E+04  0.15294330000E+03 0.  0.
    8880022    1    1    2    0    0 -0.12337376818E+04 -0.39363538937E+03 -0.45590631366E+03  0.13814122147E+04  0.15294330000E+03 0.  0.
<mgrwt>
<rscale>  0 0.13040127E+04</rscale>
<asrwt>0</asrwt>
<pdfrwt beam="1">  1        1 0.59277039E+00 0.13040127E+04</pdfrwt>
<pdfrwt beam="2">  1       -1 0.93481150E-01 0.13040127E+04</pdfrwt>
<totfact> 0.14210015E-01</totfact>
</mgrwt>
</event>
<event>
 4    1  0.4964158E-009  0.5172685E+03  0.7818608E-02  0.1009367E+00
         -1   -1    0    0    0  501 -0.00000000000E+00  0.00000000000E+00  0.36842583903E+03  0.36842583906E+03  0.50400000000E-02 0.  1.
          1   -1    0    0  501    0  0.00000000000E+00 -0.00000000000E+00 -0.73622011689E+03  0.73622011691E+03  0.50400000000E-02 0. -1.
    8880022    1    1    2    0    0  0.23470857046E+03 -0.43484127741E+03 -0.24819416091E+03  0.57373081154E+03  0.15294330000E+03 0. -1.
    8880022    1    1    2    0    0 -0.23470857046E+03  0.43484127741E+03 -0.11960011696E+03  0.53091514443E+03  0.15294330000E+03 0.  1.
<mgrwt>
<rscale>  0 0.51726850E+03</rscale>
<asrwt>0</asrwt>
<pdfrwt beam="1">  1        1 0.11326463E+00 0.51726850E+03</pdfrwt>
<pdfrwt beam="2">  1       -1 0.56680899E-01 0.51726850E+03</pdfrwt>
<totfact> 0.82793273E+01</totfact>
</mgrwt>
</event>
<event>
 4    1  0.4964158E-009  0.1044434E+04  0.7818608E-02  0.9261109E-01
          1   -1    0    0  501    0  0.00000000000E+00  0.00000000000E+00  0.98667645690E+03  0.98667645691E+03  0.50400000000E-02 0. -1.
         -1   -1    0    0    0  501 -0.00000000000E+00 -0.00000000000E+00 -0.15948250556E+04  0.15948250557E+04  0.50400000000E-02 0.  1.
    8880022    1    1    2    0    0 -0.92722606953E+03 -0.45574404790E+03  0.41083733033E+03  0.11223322976E+04  0.15294330000E+03 0.  0.
    8880022    1    1    2    0    0  0.92722606953E+03  0.45574404790E+03 -0.10189859291E+04  0.14591692150E+04  0.15294330000E+03 0.  0.
<mgrwt>
<rscale>  0 0.10444340E+04</rscale>
<asrwt>0</asrwt>
<pdfrwt beam="1">  1        1 0.15179638E+00 0.10444340E+04</pdfrwt>
<pdfrwt beam="2">  1       -1 0.24535770E+00 0.10444340E+04</pdfrwt>
<totfact> 0.11606663E+00</totfact>
</mgrwt>
</event>
<event>
 4    1  0.4964158E-009  0.3655814E+03  0.7818608E-02  0.1056395E+00
          1   -1    0    0  501    0  0.00000000000E+00  0.00000000000E+00  0.48335109020E+03  0.48335109022E+03  0.50400000000E-02 0. -1.
         -1   -1    0    0    0  501 -0.00000000000E+00 -0.00000000000E+00 -0.44227449508E+03  0.44227449511E+03  0.50400000000E-02 0.  1.
    8880022    1    1    2    0    0 -0.18636928296E+03  0.27481734969E+03 -0.26280288040E+03  0.45023892800E+03  0.15294330000E+03 0.  0.
    8880022    1    1    2    0    0  0.18636928296E+03 -0.27481734969E+03  0.30387947552E+03  0.47538665734E+03  0.15294330000E+03 0.  0.
<mgrwt>
<rscale>  0 0.36558137E+03</rscale>
<asrwt>0</asrwt>
<pdfrwt beam="1">  1        1 0.74361706E-01 0.36558137E+03</pdfrwt>
<pdfrwt beam="2">  1       -1 0.68042230E-01 0.36558137E+03</pdfrwt>
<totfact> 0.10699631E+02</totfact>
</mgrwt>
</event>
<event>
 4    1  0.4964158E-009  0.4277808E+03  0.7818608E-02  0.1034563E+00
         -1   -1    0    0    0  501 -0.00000000000E+00  0.00000000000E+00  0.49384104373E+03  0.49384104375E+03  0.50400000000E-02 0.  1.
          1   -1    0    0  501    0  0.00000000000E+00 -0.00000000000E+00 -0.18500214967E+04  0.18500214967E+04  0.50400000000E-02 0. -1.
    8880022    1    1    2    0    0  0.28155272854E+03  0.28343038933E+03  0.36992113955E+03  0.56554224161E+03  0.15294330000E+03 0.  0.
    8880022    1    1    2    0    0 -0.28155272854E+03 -0.28343038933E+03 -0.17261015925E+04  0.17783202989E+04  0.15294330000E+03 0.  0.
<mgrwt>
<rscale>  0 0.42778076E+03</rscale>
<asrwt>0</asrwt>
<pdfrwt beam="1">  1        1 0.28461869E+00 0.42778076E+03</pdfrwt>
<pdfrwt beam="2">  1       -1 0.75975546E-01 0.42778076E+03</pdfrwt>
<totfact> 0.73563434E+00</totfact>
</mgrwt>
</event>
<event>
 4    1  0.4964158E-009  0.9536304E+03  0.7818608E-02  0.9360917E-01
          1   -1    0    0  501    0  0.00000000000E+00  0.00000000000E+00  0.35798435023E+03  0.35798435027E+03  0.50400000000E-02 0. -1.
         -1   -1    0    0    0  501 -0.00000000000E+00 -0.00000000000E+00 -0.28087759869E+04  0.28087759869E+04  0.50400000000E-02 0.  1.
    8880022    1    1    2    0    0 -0.63481724852E+03  0.69500098111E+03 -0.73592511886E+03  0.12045732590E+04  0.15294330000E+03 0.  0.
    8880022    1    1    2    0    0  0.63481724852E+03 -0.69500098111E+03 -0.17148665178E+04  0.19621870781E+04  0.15294330000E+03 0.  0.
<mgrwt>
<rscale>  0 0.95363041E+03</rscale>
<asrwt>0</asrwt>
<pdfrwt beam="1">  1        1 0.55074517E-01 0.95363041E+03</pdfrwt>
<pdfrwt beam="2">  1       -1 0.43211937E+00 0.95363041E+03</pdfrwt>
<totfact> 0.30941254E-01</totfact>
</mgrwt>
</event>
<event>
 4    1  0.4964158E-009  0.1222644E+04  0.7818608E-02  0.9093264E-01
          1   -1    0    0  501    0  0.00000000000E+00  0.00000000000E+00  0.21713146277E+04  0.21713146277E+04  0.50400000000E-02 0. -1.
         -1   -1    0    0    0  501 -0.00000000000E+00 -0.00000000000E+00 -0.90496568594E+03  0.90496568595E+03  0.50400000000E-02 0.  1.
    8880022    1    1    2    0    0  0.11905669297E+04  0.23241533571E+03  0.13855191773E+04  0.18478424029E+04  0.15294330000E+03 0.  0.
    8880022    1    1    2    0    0 -0.11905669297E+04 -0.23241533571E+03 -0.11917023554E+03  0.12284379107E+04  0.15294330000E+03 0.  0.
<mgrwt>
<rscale>  0 0.12226439E+04</rscale>
<asrwt>0</asrwt>
<pdfrwt beam="1">  1        1 0.33404840E+00 0.12226439E+04</pdfrwt>
<pdfrwt beam="2">  1       -1 0.13922549E+00 0.12226439E+04</pdfrwt>
<totfact> 0.95141566E-01</totfact>
</mgrwt>
</event>
<event>
 4    1  0.4964158E-009  0.6318816E+03  0.7818608E-02  0.9841384E-01
         -1   -1    0    0    0  501 -0.00000000000E+00  0.00000000000E+00  0.35150544185E+03  0.35150544188E+03  0.50400000000E-02 0.  1.
          1   -1    0    0  501    0  0.00000000000E+00 -0.00000000000E+00 -0.38833676221E+04  0.38833676221E+04  0.50400000000E-02 0. -1.
    8880022    1    1    2    0    0 -0.42194638014E+03  0.44479655021E+03  0.15104462650E+02  0.63206211451E+03  0.15294330000E+03 0.  0.
    8880022    1    1    2    0    0  0.42194638014E+03 -0.44479655021E+03 -0.35469666429E+04  0.36028109495E+04  0.15294330000E+03 0.  0.
<mgrwt>
<rscale>  0 0.63188161E+03</rscale>
<asrwt>0</asrwt>
<pdfrwt beam="1">  1        1 0.59744115E+00 0.63188161E+03</pdfrwt>
<pdfrwt beam="2">  1       -1 0.54077763E-01 0.63188161E+03</pdfrwt>
<totfact> 0.47856852E-01</totfact>
</mgrwt>
</event>
<event>
 4    1  0.4964158E-009  0.1145001E+04  0.7818608E-02  0.9162408E-01
         -1   -1    0    0    0  501 -0.00000000000E+00  0.00000000000E+00  0.11027140254E+04  0.11027140254E+04  0.50400000000E-02 0.  1.
          1   -1    0    0  501    0  0.00000000000E+00 -0.00000000000E+00 -0.18532293712E+04  0.18532293712E+04  0.50400000000E-02 0. -1.
    8880022    1    1    2    0    0  0.87550822595E+03 -0.72188668439E+03 -0.12601497305E+04  0.17026461861E+04  0.15294330000E+03 0.  0.
    8880022    1    1    2    0    0 -0.87550822595E+03  0.72188668439E+03  0.50963438465E+03  0.12532972105E+04  0.15294330000E+03 0.  0.
<mgrwt>
<rscale>  0 0.11450007E+04</rscale>
<asrwt>0</asrwt>
<pdfrwt beam="1">  1        1 0.28511221E+00 0.11450007E+04</pdfrwt>
<pdfrwt beam="2">  1       -1 0.16964831E+00 0.11450007E+04</pdfrwt>
<totfact> 0.91722488E-01</totfact>
</mgrwt>
</event>
<event>
 4    1  0.4964158E-009  0.6763776E+03  0.7818608E-02  0.9758505E-01
          1   -1    0    0  501    0  0.00000000000E+00  0.00000000000E+00  0.91306350685E+03  0.91306350687E+03  0.50400000000E-02 0. -1.
         -1   -1    0    0    0  501 -0.00000000000E+00 -0.00000000000E+00 -0.13908968492E+04  0.13908968492E+04  0.50400000000E-02 0.  1.
    8880022    1    1    2    0    0  0.21778778390E+03 -0.62182269670E+03  0.68250028997E+03  0.96088151391E+03  0.15294330000E+03 0.  0.
    8880022    1    1    2    0    0 -0.21778778390E+03  0.62182269670E+03 -0.11603336323E+04  0.13430788421E+04  0.15294330000E+03 0.  0.
<mgrwt>
<rscale>  0 0.67637759E+03</rscale>
<asrwt>0</asrwt>
<pdfrwt beam="1">  1        1 0.14047131E+00 0.67637759E+03</pdfrwt>
<pdfrwt beam="2">  1       -1 0.21398413E+00 0.67637759E+03</pdfrwt>
<totfact> 0.22682425E+00</totfact>
</mgrwt>
</event>
<event>
 4    1  0.4964158E-009  0.7173734E+03  0.7818608E-02  0.9687974E-01
          1   -1    0    0  501    0  0.00000000000E+00  0.00000000000E+00  0.14056647918E+04  0.14056647918E+04  0.50400000000E-02 0. -1.
         -1   -1    0    0    0  501 -0.00000000000E+00 -0.00000000000E+00 -0.54069496658E+03  0.54069496660E+03  0.50400000000E-02 0.  1.
    8880022    1    1    2    0    0  0.60691000647E+03  0.35056125315E+03  0.98548262088E+03  0.12189342055E+04  0.15294330000E+03 0.  0.
    8880022    1    1    2    0    0 -0.60691000647E+03 -0.35056125315E+03 -0.12051279566E+03  0.72742555296E+03  0.15294330000E+03 0.  0.
<mgrwt>
<rscale>  0 0.71737340E+03</rscale>
<asrwt>0</asrwt>
<pdfrwt beam="1">  1        1 0.21625612E+00 0.71737340E+03</pdfrwt>
<pdfrwt beam="2">  1       -1 0.83183841E-01 0.71737340E+03</pdfrwt>
<totfact> 0.11374795E+01</totfact>
</mgrwt>
</event>
<event>
 4    1  0.4964158E-009  0.4828057E+03  0.7818608E-02  0.1018367E+00
         -1   -1    0    0    0  501 -0.00000000000E+00  0.00000000000E+00  0.48608665970E+03  0.48608665973E+03  0.50400000000E-02 0.  1.
          1   -1    0    0  501    0  0.00000000000E+00 -0.00000000000E+00 -0.15722389687E+04  0.15722389687E+04  0.50400000000E-02 0. -1.
    8880022    1    1    2    0    0  0.31112151539E+03  0.33602539523E+03 -0.14010493443E+04  0.14819043767E+04  0.15294330000E+03 0.  0.
    8880022    1    1    2    0    0 -0.31112151539E+03 -0.33602539523E+03  0.31489703529E+03  0.57642125171E+03  0.15294330000E+03 0.  0.
<mgrwt>
<rscale>  0 0.48280567E+03</rscale>
<asrwt>0</asrwt>
<pdfrwt beam="1">  1        1 0.24188292E+00 0.48280567E+03</pdfrwt>
<pdfrwt beam="2">  1       -1 0.74782564E-01 0.48280567E+03</pdfrwt>
<totfact> 0.11452574E+01</totfact>
</mgrwt>
</event>
<event>
 4    1  0.4964158E-009  0.1423030E+04  0.7818608E-02  0.8937315E-01
          1   -1    0    0  501    0  0.00000000000E+00  0.00000000000E+00  0.31804912217E+04  0.31804912217E+04  0.50400000000E-02 0. -1.
         -1   -1    0    0    0  501 -0.00000000000E+00 -0.00000000000E+00 -0.11609735069E+04  0.11609735069E+04  0.50400000000E-02 0.  1.
    8880022    1    1    2    0    0 -0.96427748352E+03  0.10352734168E+04  0.24684882478E+04  0.28492890334E+04  0.15294330000E+03 0.  0.
    8880022    1    1    2    0    0  0.96427748352E+03 -0.10352734168E+04 -0.44897053313E+03  0.14921756952E+04  0.15294330000E+03 0.  0.
<mgrwt>
<rscale>  0 0.14230298E+04</rscale>
<asrwt>0</asrwt>
<pdfrwt beam="1">  1        1 0.48930634E+00 0.14230298E+04</pdfrwt>
<pdfrwt beam="2">  1       -1 0.17861131E+00 0.14230298E+04</pdfrwt>
<totfact> 0.89939678E-02</totfact>
</mgrwt>
</event>
<event>
 4    1  0.4964158E-009  0.6293790E+03  0.7818608E-02  0.9846261E-01
          1   -1    0    0  501    0  0.00000000000E+00  0.00000000000E+00  0.78893483416E+03  0.78893483418E+03  0.50400000000E-02 0. -1.
         -1   -1    0    0    0  501 -0.00000000000E+00 -0.00000000000E+00 -0.69672059310E+03  0.69672059312E+03  0.50400000000E-02 0.  1.
    8880022    1    1    2    0    0  0.38312444087E+03  0.47533345011E+03  0.43871777559E+03  0.76719695360E+03  0.15294330000E+03 0.  0.
    8880022    1    1    2    0    0 -0.38312444087E+03 -0.47533345011E+03 -0.34650353452E+03  0.71845847370E+03  0.15294330000E+03 0.  1.
<mgrwt>
<rscale>  0 0.62937896E+03</rscale>
<asrwt>0</asrwt>
<pdfrwt beam="1">  1        1 0.12137459E+00 0.62937896E+03</pdfrwt>
<pdfrwt beam="2">  1       -1 0.10718778E+00 0.62937896E+03</pdfrwt>
<totfact> 0.19143036E+01</totfact>
</mgrwt>
</event>
<event>
 4    1  0.4964158E-009  0.8547660E+03  0.7818608E-02  0.9483962E-01
          1   -1    0    0  501    0  0.00000000000E+00  0.00000000000E+00  0.12731948756E+04  0.12731948756E+04  0.50400000000E-02 0. -1.
         -1   -1    0    0    0  501 -0.00000000000E+00 -0.00000000000E+00 -0.83048713347E+03  0.83048713348E+03  0.50400000000E-02 0.  1.
    8880022    1    1    2    0    0 -0.54391900789E+03 -0.64139337307E+03 -0.36335809549E+03  0.92879174454E+03  0.15294330000E+03 0.  0.
    8880022    1    1    2    0    0  0.54391900789E+03  0.64139337307E+03  0.80606583764E+03  0.11748902646E+04  0.15294330000E+03 0.  0.
<mgrwt>
<rscale>  0 0.85476605E+03</rscale>
<asrwt>0</asrwt>
<pdfrwt beam="1">  1        1 0.19587613E+00 0.85476605E+03</pdfrwt>
<pdfrwt beam="2">  1       -1 0.12776725E+00 0.85476605E+03</pdfrwt>
<totfact> 0.51226427E+00</totfact>
</mgrwt>
</event>
<event>
 4    1  0.4964158E-009  0.7097012E+03  0.7818608E-02  0.9700784E-01
          1   -1    0    0  501    0  0.00000000000E+00  0.00000000000E+00  0.10880616595E+04  0.10880616595E+04  0.50400000000E-02 0. -1.
         -1   -1    0    0    0  501 -0.00000000000E+00 -0.00000000000E+00 -0.53243805673E+03  0.53243805676E+03  0.50400000000E-02 0.  1.
    8880022    1    1    2    0    0  0.28011150485E+03  0.63389406603E+03  0.57060507782E+03  0.91064040650E+03  0.15294330000E+03 0.  0.
    8880022    1    1    2    0    0 -0.28011150485E+03 -0.63389406603E+03 -0.14981475031E+02  0.70985930980E+03  0.15294330000E+03 0.  0.
<mgrwt>
<rscale>  0 0.70970120E+03</rscale>
<asrwt>0</asrwt>
<pdfrwt beam="1">  1        1 0.16739410E+00 0.70970120E+03</pdfrwt>
<pdfrwt beam="2">  1       -1 0.81913548E-01 0.70970120E+03</pdfrwt>
<totfact> 0.19874038E+01</totfact>
</mgrwt>
</event>
<event>
 4    1  0.4964158E-009  0.1319619E+04  0.7818608E-02  0.9014150E-01
         -1   -1    0    0    0  501 -0.00000000000E+00  0.00000000000E+00  0.19873444525E+04  0.19873444525E+04  0.50400000000E-02 0.  1.
          1   -1    0    0  501    0  0.00000000000E+00 -0.00000000000E+00 -0.16885609372E+04  0.16885609372E+04  0.50400000000E-02 0. -1.
    8880022    1    1    2    0    0  0.83396292964E+03  0.10111919961E+04  0.14241833657E+04  0.19415698116E+04  0.15294330000E+03 0.  0.
    8880022    1    1    2    0    0 -0.83396292964E+03 -0.10111919961E+04 -0.11253998505E+04  0.17343355781E+04  0.15294330000E+03 0.  0.
<mgrwt>
<rscale>  0 0.13196193E+04</rscale>
<asrwt>0</asrwt>
<pdfrwt beam="1">  1        1 0.25977861E+00 0.13196193E+04</pdfrwt>
<pdfrwt beam="2">  1       -1 0.30574530E+00 0.13196193E+04</pdfrwt>
<totfact> 0.14227396E-01</totfact>
</mgrwt>
</event>
<event>
 4    1  0.4964158E-009  0.1323607E+04  0.7818608E-02  0.9011051E-01
          1   -1    0    0  501    0  0.00000000000E+00  0.00000000000E+00  0.25554870044E+04  0.25554870044E+04  0.50400000000E-02 0. -1.
         -1   -1    0    0    0  501 -0.00000000000E+00 -0.00000000000E+00 -0.14334129237E+04  0.14334129237E+04  0.50400000000E-02 0.  1.
    8880022    1    1    2    0    0 -0.36758321162E+03 -0.12623101375E+04 -0.87957157525E+03  0.15892080133E+04  0.15294330000E+03 0.  0.
    8880022    1    1    2    0    0  0.36758321162E+03  0.12623101375E+04  0.20016456560E+04  0.23996919148E+04  0.15294330000E+03 0.  0.
<mgrwt>
<rscale>  0 0.13236072E+04</rscale>
<asrwt>0</asrwt>
<pdfrwt beam="1">  1        1 0.39315184E+00 0.13236072E+04</pdfrwt>
<pdfrwt beam="2">  1       -1 0.22052507E+00 0.13236072E+04</pdfrwt>
<totfact> 0.13094262E-01</totfact>
</mgrwt>
</event>
<event>
 4    1  0.4964158E-009  0.4796585E+03  0.7818608E-02  0.1019229E+00
          1   -1    0    0  501    0  0.00000000000E+00  0.00000000000E+00  0.14264102859E+04  0.14264102859E+04  0.50400000000E-02 0. -1.
         -1   -1    0    0    0  501 -0.00000000000E+00 -0.00000000000E+00 -0.58424409934E+03  0.58424409936E+03  0.50400000000E-02 0.  1.
    8880022    1    1    2    0    0  0.28632918596E+03 -0.35312357929E+03 -0.43428787300E+03  0.64705353305E+03  0.15294330000E+03 0.  1.
    8880022    1    1    2    0    0 -0.28632918596E+03  0.35312357929E+03  0.12764540596E+04  0.13636008522E+04  0.15294330000E+03 0.  0.
<mgrwt>
<rscale>  0 0.47965854E+03</rscale>
<asrwt>0</asrwt>
<pdfrwt beam="1">  1        1 0.21944774E+00 0.47965854E+03</pdfrwt>
<pdfrwt beam="2">  1       -1 0.89883708E-01 0.47965854E+03</pdfrwt>
<totfact> 0.97379056E+00</totfact>
</mgrwt>
</event>
<event>
 4    1  0.4964158E-009  0.9411245E+03  0.7818608E-02  0.9375585E-01
          1   -1    0    0  501    0  0.00000000000E+00  0.00000000000E+00  0.16474297796E+04  0.16474297796E+04  0.50400000000E-02 0. -1.
         -1   -1    0    0    0  501 -0.00000000000E+00 -0.00000000000E+00 -0.10428652265E+04  0.10428652265E+04  0.50400000000E-02 0.  1.
    8880022    1    1    2    0    0 -0.86710913909E+03 -0.33233338573E+03  0.12385512125E+04  0.15555463662E+04  0.15294330000E+03 0.  0.
    8880022    1    1    2    0    0  0.86710913909E+03  0.33233338573E+03 -0.63398665940E+03  0.11347486399E+04  0.15294330000E+03 0.  0.
<mgrwt>
<rscale>  0 0.94112454E+03</rscale>
<asrwt>0</asrwt>
<pdfrwt beam="1">  1        1 0.25345074E+00 0.94112454E+03</pdfrwt>
<pdfrwt beam="2">  1       -1 0.16044080E+00 0.94112454E+03</pdfrwt>
<totfact> 0.15255949E+00</totfact>
</mgrwt>
</event>
<event>
 4    1  0.4964158E-009  0.8183625E+03  0.7818608E-02  0.9533812E-01
          1   -1    0    0  501    0  0.00000000000E+00  0.00000000000E+00  0.23634887567E+04  0.23634887567E+04  0.50400000000E-02 0. -1.
         -1   -1    0    0    0  501 -0.00000000000E+00 -0.00000000000E+00 -0.46017912852E+03  0.46017912855E+03  0.50400000000E-02 0.  1.
    8880022    1    1    2    0    0 -0.21435016529E+03 -0.77484157850E+03  0.18268105261E+04  0.20017376992E+04  0.15294330000E+03 0.  0.
    8880022    1    1    2    0    0  0.21435016529E+03  0.77484157850E+03  0.76499102102E+02  0.82193018607E+03  0.15294330000E+03 0.  0.
<mgrwt>
<rscale>  0 0.81836246E+03</rscale>
<asrwt>0</asrwt>
<pdfrwt beam="1">  1        1 0.36361366E+00 0.81836246E+03</pdfrwt>
<pdfrwt beam="2">  1       -1 0.70796789E-01 0.81836246E+03</pdfrwt>
<totfact> 0.35471454E+00</totfact>
</mgrwt>
</event>
<event>
 4    1  0.4964158E-009  0.8950526E+03  0.7818608E-02  0.9431787E-01
          1   -1    0    0  501    0  0.00000000000E+00  0.00000000000E+00  0.23681888582E+04  0.23681888582E+04  0.50400000000E-02 0. -1.
         -1   -1    0    0    0  501 -0.00000000000E+00 -0.00000000000E+00 -0.60921401123E+03  0.60921401125E+03  0.50400000000E-02 0.  1.
    8880022    1    1    2    0    0 -0.85980299822E+03  0.19612822562E+03 -0.11328945209E+03  0.90219378717E+03  0.15294330000E+03 0.  0.
    8880022    1    1    2    0    0  0.85980299822E+03 -0.19612822562E+03  0.18722642991E+04  0.20752090823E+04  0.15294330000E+03 0.  0.
<mgrwt>
<rscale>  0 0.89505258E+03</rscale>
<asrwt>0</asrwt>
<pdfrwt beam="1">  1        1 0.36433675E+00 0.89505258E+03</pdfrwt>
<pdfrwt beam="2">  1       -1 0.93725232E-01 0.89505258E+03</pdfrwt>
<totfact> 0.19060319E+00</totfact>
</mgrwt>
</event>
<event>
 4    1  0.4964158E-009  0.1011425E+04  0.7818608E-02  0.9296102E-01
          1   -1    0    0  501    0  0.00000000000E+00  0.00000000000E+00  0.16548599992E+04  0.16548599992E+04  0.50400000000E-02 0. -1.
         -1   -1    0    0    0  501 -0.00000000000E+00 -0.00000000000E+00 -0.10086129995E+04  0.10086129995E+04  0.50400000000E-02 0.  1.
    8880022    1    1    2    0    0  0.99466692224E+03  0.10112430696E+03 -0.50546029588E+03  0.11306945544E+04  0.15294330000E+03 0.  0.
    8880022    1    1    2    0    0 -0.99466692224E+03 -0.10112430696E+03  0.11517072955E+04  0.15327784443E+04  0.15294330000E+03 0.  0.
<mgrwt>
<rscale>  0 0.10114248E+04</rscale>
<asrwt>0</asrwt>
<pdfrwt beam="1">  1        1 0.25459385E+00 0.10114248E+04</pdfrwt>
<pdfrwt beam="2">  1       -1 0.15517123E+00 0.10114248E+04</pdfrwt>
<totfact> 0.16368544E+00</totfact>
</mgrwt>
</event>
<event>
 4    1  0.4964158E-009  0.4092666E+03  0.7818608E-02  0.1040617E+00
         -1   -1    0    0    0  501 -0.00000000000E+00  0.00000000000E+00  0.78127352836E+02  0.78127352999E+02  0.50400000000E-02 0.  1.
          1   -1    0    0  501    0  0.00000000000E+00 -0.00000000000E+00 -0.28392524070E+04  0.28392524070E+04  0.50400000000E-02 0. -1.
    8880022    1    1    2    0    0  0.20368099522E+03  0.32034602419E+03 -0.65869803657E+03  0.77548841347E+03  0.15294330000E+03 0.  1.
    8880022    1    1    2    0    0 -0.20368099522E+03 -0.32034602419E+03 -0.21024270176E+04  0.21418913466E+04  0.15294330000E+03 0.  0.
<mgrwt>
<rscale>  0 0.40926663E+03</rscale>
<asrwt>0</asrwt>
<pdfrwt beam="1">  1        1 0.43680798E+00 0.40926663E+03</pdfrwt>
<pdfrwt beam="2">  1       -1 0.12019595E-01 0.40926663E+03</pdfrwt>
<totfact> 0.41124109E+01</totfact>
</mgrwt>
</event>
<event>
 4    1  0.4964158E-009  0.2225809E+03  0.7818608E-02  0.1131973E+00
          1   -1    0    0  501    0  0.00000000000E+00  0.00000000000E+00  0.10686066506E+03  0.10686066518E+03  0.50400000000E-02 0. -1.
         -1   -1    0    0    0  501 -0.00000000000E+00 -0.00000000000E+00 -0.53815637797E+03  0.53815637800E+03  0.50400000000E-02 0.  1.
    8880022    1    1    2    0    0  0.26729701038E+02  0.15948701035E+03 -0.33567649024E+03  0.40276661046E+03  0.15294330000E+03 0.  1.
    8880022    1    1    2    0    0 -0.26729701038E+02 -0.15948701035E+03 -0.95619222677E+02  0.24225043271E+03  0.15294330000E+03 0. -1.
<mgrwt>
<rscale>  0 0.22258085E+03</rscale>
<asrwt>0</asrwt>
<pdfrwt beam="1">  1        1 0.16440103E-01 0.22258085E+03</pdfrwt>
<pdfrwt beam="2">  1       -1 0.82793287E-01 0.22258085E+03</pdfrwt>
<totfact> 0.50229243E+02</totfact>
</mgrwt>
</event>
<event>
 4    1  0.4964158E-009  0.1095823E+04  0.7818608E-02  0.9209273E-01
         -1   -1    0    0    0  501 -0.00000000000E+00  0.00000000000E+00  0.66041364730E+03  0.66041364732E+03  0.50400000000E-02 0.  1.
          1   -1    0    0  501    0  0.00000000000E+00 -0.00000000000E+00 -0.18496056015E+04  0.18496056015E+04  0.50400000000E-02 0. -1.
    8880022    1    1    2    0    0  0.10473871660E+04  0.28357720298E+03 -0.75788070753E+03  0.13323703410E+04  0.15294330000E+03 0.  0.
    8880022    1    1    2    0    0 -0.10473871660E+04 -0.28357720298E+03 -0.43131124669E+03  0.11776489079E+04  0.15294330000E+03 0.  0.
<mgrwt>
<rscale>  0 0.10958228E+04</rscale>
<asrwt>0</asrwt>
<pdfrwt beam="1">  1        1 0.28455471E+00 0.10958228E+04</pdfrwt>
<pdfrwt beam="2">  1       -1 0.10160210E+00 0.10958228E+04</pdfrwt>
<totfact> 0.34538908E+00</totfact>
</mgrwt>
</event>
<event>
 4    1  0.5733157E-009  0.1220913E+04  0.7818608E-02  0.9094746E-01
          1   -1    0    0  501    0  0.00000000000E+00  0.00000000000E+00  0.13071402059E+04  0.13071402059E+04  0.50400000000E-02 0. -1.
         -1   -1    0    0    0  501 -0.00000000000E+00 -0.00000000000E+00 -0.22646105319E+04  0.22646105319E+04  0.50400000000E-02 0.  1.
    8880022    1    1    2    0    0  0.34725854499E+03 -0.11604517250E+04 -0.17370325201E+04  0.21231840080E+04  0.15294330000E+03 0.  0.
    8880022    1    1    2    0    0 -0.34725854499E+03  0.11604517250E+04  0.77956219411E+03  0.14485667298E+04  0.15294330000E+03 0.  0.
<mgrwt>
<rscale>  0 0.12209129E+04</rscale>
<asrwt>0</asrwt>
<pdfrwt beam="1">  1        1 0.20109849E+00 0.12209129E+04</pdfrwt>
<pdfrwt beam="2">  1       -1 0.34840162E+00 0.12209129E+04</pdfrwt>
<totfact> 0.14015525E-01</totfact>
</mgrwt>
</event>
<event>
 4    1  0.4964158E-009  0.1862482E+03  0.7818608E-02  0.1161889E+00
         -1   -1    0    0    0  501 -0.00000000000E+00  0.00000000000E+00  0.12403138649E+04  0.12403138649E+04  0.50400000000E-02 0.  1.
          1   -1    0    0  501    0  0.00000000000E+00 -0.00000000000E+00 -0.60505005574E+03  0.60505005576E+03  0.50400000000E-02 0. -1.
    8880022    1    1    2    0    0  0.76363107839E+02  0.73928375303E+02  0.12187368629E+04  0.12328860138E+04  0.15294330000E+03 0.  1.
    8880022    1    1    2    0    0 -0.76363107839E+02 -0.73928375303E+02 -0.58347305378E+03  0.61247790688E+03  0.15294330000E+03 0.  0.
<mgrwt>
<rscale>  0 0.18624817E+03</rscale>
<asrwt>0</asrwt>
<pdfrwt beam="1">  1        1 0.93084625E-01 0.18624817E+03</pdfrwt>
<pdfrwt beam="2">  1       -1 0.19081752E+00 0.18624817E+03</pdfrwt>
<totfact> 0.71020236E+00</totfact>
</mgrwt>
</event>
<event>
 4    1  0.4964158E-009  0.7175062E+03  0.7818608E-02  0.9687754E-01
         -1   -1    0    0    0  501 -0.00000000000E+00  0.00000000000E+00  0.62662306226E+03  0.62662306228E+03  0.50400000000E-02 0.  1.
          1   -1    0    0  501    0  0.00000000000E+00 -0.00000000000E+00 -0.20405807714E+04  0.20405807714E+04  0.50400000000E-02 0. -1.
    8880022    1    1    2    0    0 -0.57511670791E+03  0.40082952512E+03 -0.17377279237E+04  0.18800301928E+04  0.15294330000E+03 0.  0.
    8880022    1    1    2    0    0  0.57511670791E+03 -0.40082952512E+03  0.32377021464E+03  0.78717364084E+03  0.15294330000E+03 0.  0.
<mgrwt>
<rscale>  0 0.71750623E+03</rscale>
<asrwt>0</asrwt>
<pdfrwt beam="1">  1        1 0.31393550E+00 0.71750623E+03</pdfrwt>
<pdfrwt beam="2">  1       -1 0.96403549E-01 0.71750623E+03</pdfrwt>
<totfact> 0.30700857E+00</totfact>
</mgrwt>
</event>
<event>
 4    1  0.4964158E-009  0.4041134E+03  0.7818608E-02  0.1042365E+00
          1   -1    0    0  501    0  0.00000000000E+00  0.00000000000E+00  0.31511616622E+04  0.31511616622E+04  0.50400000000E-02 0. -1.
         -1   -1    0    0    0  501 -0.00000000000E+00 -0.00000000000E+00 -0.14715078295E+03  0.14715078303E+03  0.50400000000E-02 0.  1.
    8880022    1    1    2    0    0 -0.17642745940E+02 -0.37363717582E+03  0.28293590502E+04  0.28580728286E+04  0.15294330000E+03 0.  0.
    8880022    1    1    2    0    0  0.17642745940E+02  0.37363717582E+03  0.17465182904E+03  0.44023961662E+03  0.15294330000E+03 0.  0.
<mgrwt>
<rscale>  0 0.40411342E+03</rscale>
<asrwt>0</asrwt>
<pdfrwt beam="1">  1        1 0.48479406E+00 0.40411342E+03</pdfrwt>
<pdfrwt beam="2">  1       -1 0.22638584E-01 0.40411342E+03</pdfrwt>
<totfact> 0.88811246E+00</totfact>
</mgrwt>
</event>
<event>
 4    1  0.4964158E-009  0.4528526E+03  0.7818608E-02  0.1026875E+00
         -1   -1    0    0    0  501 -0.00000000000E+00  0.00000000000E+00  0.68798623479E+03  0.68798623481E+03  0.50400000000E-02 0.  1.
          1   -1    0    0  501    0  0.00000000000E+00 -0.00000000000E+00 -0.64954900368E+03  0.64954900370E+03  0.50400000000E-02 0. -1.
    8880022    1    1    2    0    0 -0.29843860095E+03 -0.30433238748E+03  0.51115883174E+03  0.68290468214E+03  0.15294330000E+03 0.  0.
    8880022    1    1    2    0    0  0.29843860095E+03  0.30433238748E+03 -0.47272160063E+03  0.65463055636E+03  0.15294330000E+03 0.  0.
<mgrwt>
<rscale>  0 0.45285257E+03</rscale>
<asrwt>0</asrwt>
<pdfrwt beam="1">  1        1 0.99930615E-01 0.45285257E+03</pdfrwt>
<pdfrwt beam="2">  1       -1 0.10584404E+00 0.45285257E+03</pdfrwt>
<totfact> 0.27181786E+01</totfact>
</mgrwt>
</event>
<event>
 4    1  0.4964158E-009  0.4257873E+03  0.7818608E-02  0.1035199E+00
         -1   -1    0    0    0  501 -0.00000000000E+00  0.00000000000E+00  0.16531627129E+04  0.16531627129E+04  0.50400000000E-02 0.  1.
          1   -1    0    0  501    0  0.00000000000E+00 -0.00000000000E+00 -0.13845335601E+03  0.13845335610E+03  0.50400000000E-02 0. -1.
    8880022    1    1    2    0    0 -0.33276445666E+03  0.21718883828E+03  0.11658323009E+04  0.12411526022E+04  0.15294330000E+03 0.  0.
    8880022    1    1    2    0    0  0.33276445666E+03 -0.21718883828E+03  0.34887705598E+03  0.55046346681E+03  0.15294330000E+03 0.  0.
<mgrwt>
<rscale>  0 0.42578730E+03</rscale>
<asrwt>0</asrwt>
<pdfrwt beam="1">  1        1 0.21300517E-01 0.42578730E+03</pdfrwt>
<pdfrwt beam="2">  1       -1 0.25433271E+00 0.42578730E+03</pdfrwt>
<totfact> 0.17022869E+01</totfact>
</mgrwt>
</event>
<event>
 4    1  0.4964158E-009  0.4509499E+03  0.7818608E-02  0.1027439E+00
         -1   -1    0    0    0  501 -0.00000000000E+00  0.00000000000E+00  0.72915859829E+03  0.72915859831E+03  0.50400000000E-02 0.  1.
          1   -1    0    0  501    0  0.00000000000E+00 -0.00000000000E+00 -0.48248123286E+03  0.48248123289E+03  0.50400000000E-02 0. -1.
    8880022    1    1    2    0    0  0.36677426459E+03  0.21316857544E+03 -0.27019479059E+03  0.52570056173E+03  0.15294330000E+03 0.  0.
    8880022    1    1    2    0    0 -0.36677426459E+03 -0.21316857544E+03  0.51687215602E+03  0.68593926948E+03  0.15294330000E+03 0.  0.
<mgrwt>
<rscale>  0 0.45094995E+03</rscale>
<asrwt>0</asrwt>
<pdfrwt beam="1">  1        1 0.74227882E-01 0.45094995E+03</pdfrwt>
<pdfrwt beam="2">  1       -1 0.11217825E+00 0.45094995E+03</pdfrwt>
<totfact> 0.35947393E+01</totfact>
</mgrwt>
</event>
<event>
 4    1  0.4964158E-009  0.1254454E+04  0.7818608E-02  0.9066484E-01
          1   -1    0    0  501    0  0.00000000000E+00  0.00000000000E+00  0.16411768834E+04  0.16411768835E+04  0.50400000000E-02 0. -1.
         -1   -1    0    0    0  501 -0.00000000000E+00 -0.00000000000E+00 -0.16148779600E+04  0.16148779600E+04  0.50400000000E-02 0.  1.
    8880022    1    1    2    0    0 -0.33625103949E+03  0.11988324753E+04  0.10507981984E+04  0.16364084368E+04  0.15294330000E+03 0.  0.
    8880022    1    1    2    0    0  0.33625103949E+03 -0.11988324753E+04 -0.10244992749E+04  0.16196464067E+04  0.15294330000E+03 0.  0.
<mgrwt>
<rscale>  0 0.12544544E+04</rscale>
<asrwt>0</asrwt>
<pdfrwt beam="1">  1        1 0.25248875E+00 0.12544544E+04</pdfrwt>
<pdfrwt beam="2">  1       -1 0.24844276E+00 0.12544544E+04</pdfrwt>
<totfact> 0.36339224E-01</totfact>
</mgrwt>
</event>
<event>
 4    1  0.4964158E-009  0.4985424E+03  0.7818608E-02  0.1014160E+00
         -1   -1    0    0    0  501 -0.00000000000E+00  0.00000000000E+00  0.36600380080E+03  0.36600380083E+03  0.50400000000E-02 0.  1.
          1   -1    0    0  501    0  0.00000000000E+00 -0.00000000000E+00 -0.13843998465E+04  0.13843998465E+04  0.50400000000E-02 0. -1.
    8880022    1    1    2    0    0 -0.30359215399E+03 -0.36467064353E+03 -0.11338981824E+04  0.12386563750E+04  0.15294330000E+03 0.  0.
    8880022    1    1    2    0    0  0.30359215399E+03  0.36467064353E+03  0.11550213666E+03  0.51174727240E+03  0.15294330000E+03 0.  0.
<mgrwt>
<rscale>  0 0.49854240E+03</rscale>
<asrwt>0</asrwt>
<pdfrwt beam="1">  1        1 0.21298459E+00 0.49854240E+03</pdfrwt>
<pdfrwt beam="2">  1       -1 0.56308278E-01 0.49854240E+03</pdfrwt>
<totfact> 0.26947939E+01</totfact>
</mgrwt>
</event>
<event>
 4    1  0.4964158E-009  0.5750400E+03  0.7818608E-02  0.9958587E-01
         -1   -1    0    0    0  501 -0.00000000000E+00  0.00000000000E+00  0.73556999286E+03  0.73556999288E+03  0.50400000000E-02 0.  1.
          1   -1    0    0  501    0  0.00000000000E+00 -0.00000000000E+00 -0.94980219732E+03  0.94980219734E+03  0.50400000000E-02 0. -1.
    8880022    1    1    2    0    0 -0.20138743965E+03 -0.51645179583E+03 -0.71868640514E+03  0.92042444569E+03  0.15294330000E+03 0.  0.
    8880022    1    1    2    0    0  0.20138743965E+03  0.51645179583E+03  0.50445420068E+03  0.76494774453E+03  0.15294330000E+03 0.  0.
<mgrwt>
<rscale>  0 0.57504001E+03</rscale>
<asrwt>0</asrwt>
<pdfrwt beam="1">  1        1 0.14612342E+00 0.57504001E+03</pdfrwt>
<pdfrwt beam="2">  1       -1 0.11316461E+00 0.57504001E+03</pdfrwt>
<totfact> 0.12523567E+01</totfact>
</mgrwt>
</event>
<event>
 4    1  0.4964158E-009  0.2112161E+04  0.7818608E-02  0.8555905E-01
          1   -1    0    0  501    0  0.00000000000E+00  0.00000000000E+00  0.30608774060E+04  0.30608774060E+04  0.50400000000E-02 0. -1.
         -1   -1    0    0    0  501 -0.00000000000E+00 -0.00000000000E+00 -0.17459672113E+04  0.17459672113E+04  0.50400000000E-02 0.  1.
    8880022    1    1    2    0    0 -0.14213704667E+04 -0.15548431899E+04 -0.31947098576E+03  0.21361846157E+04  0.15294330000E+03 0.  0.
    8880022    1    1    2    0    0  0.14213704667E+04  0.15548431899E+04  0.16343811804E+04  0.26706600017E+04  0.15294330000E+03 0.  0.
<mgrwt>
<rscale>  0 0.21121607E+04</rscale>
<asrwt>0</asrwt>
<pdfrwt beam="1">  1        1 0.47090421E+00 0.21121607E+04</pdfrwt>
<pdfrwt beam="2">  1       -1 0.26861034E+00 0.21121607E+04</pdfrwt>
<totfact> 0.24957977E-02</totfact>
</mgrwt>
</event>
<event>
 4    1  0.4964158E-009  0.1052524E+04  0.7818608E-02  0.9252742E-01
          1   -1    0    0  501    0  0.00000000000E+00  0.00000000000E+00  0.10820535029E+04  0.10820535029E+04  0.50400000000E-02 0. -1.
         -1   -1    0    0    0  501 -0.00000000000E+00 -0.00000000000E+00 -0.17335160301E+04  0.17335160301E+04  0.50400000000E-02 0.  1.
    8880022    1    1    2    0    0 -0.91428896919E+03 -0.49848881858E+03  0.57503982881E+03  0.11993656153E+04  0.15294330000E+03 0.  0.
    8880022    1    1    2    0    0  0.91428896919E+03  0.49848881858E+03 -0.12265023560E+04  0.16162039177E+04  0.15294330000E+03 0.  0.
<mgrwt>
<rscale>  0 0.10525241E+04</rscale>
<asrwt>0</asrwt>
<pdfrwt beam="1">  1        1 0.16646977E+00 0.10525241E+04</pdfrwt>
<pdfrwt beam="2">  1       -1 0.26669477E+00 0.10525241E+04</pdfrwt>
<totfact> 0.71179609E-01</totfact>
</mgrwt>
</event>
<event>
 4    1  0.4964158E-009  0.8969809E+03  0.7818608E-02  0.9429363E-01
         -1   -1    0    0    0  501 -0.00000000000E+00  0.00000000000E+00  0.18239902808E+04  0.18239902808E+04  0.50400000000E-02 0.  1.
          1   -1    0    0  501    0  0.00000000000E+00 -0.00000000000E+00 -0.68594501914E+03  0.68594501916E+03  0.50400000000E-02 0. -1.
    8880022    1    1    2    0    0  0.67108418948E+03  0.57517751448E+03 -0.18074612349E+03  0.91501036973E+03  0.15294330000E+03 0.  0.
    8880022    1    1    2    0    0 -0.67108418948E+03 -0.57517751448E+03  0.13187913852E+04  0.15949249302E+04  0.15294330000E+03 0.  1.
<mgrwt>
<rscale>  0 0.89698094E+03</rscale>
<asrwt>0</asrwt>
<pdfrwt beam="1">  1        1 0.10553000E+00 0.89698094E+03</pdfrwt>
<pdfrwt beam="2">  1       -1 0.28061389E+00 0.89698094E+03</pdfrwt>
<totfact> 0.12720799E+00</totfact>
</mgrwt>
</event>
<event>
 4    1  0.4964158E-009  0.6420083E+03  0.7818608E-02  0.9821892E-01
          1   -1    0    0  501    0  0.00000000000E+00  0.00000000000E+00  0.19495104945E+04  0.19495104945E+04  0.50400000000E-02 0. -1.
         -1   -1    0    0    0  501 -0.00000000000E+00 -0.00000000000E+00 -0.98192638620E+03  0.98192638622E+03  0.50400000000E-02 0.  1.
    8880022    1    1    2    0    0 -0.12295301913E+03 -0.61128190922E+03 -0.81457618575E+03  0.10371639373E+04  0.15294330000E+03 0.  0.
    8880022    1    1    2    0    0  0.12295301913E+03  0.61128190922E+03  0.17821602940E+04  0.18942729434E+04  0.15294330000E+03 0.  0.
<mgrwt>
<rscale>  0 0.64200831E+03</rscale>
<asrwt>0</asrwt>
<pdfrwt beam="1">  1        1 0.29992469E+00 0.64200831E+03</pdfrwt>
<pdfrwt beam="2">  1       -1 0.15106560E+00 0.64200831E+03</pdfrwt>
<totfact> 0.11957319E+00</totfact>
</mgrwt>
</event>
<event>
 4    1  0.4964158E-009  0.6717509E+03  0.7818608E-02  0.9766800E-01
          1   -1    0    0  501    0  0.00000000000E+00  0.00000000000E+00  0.23212880466E+04  0.23212880467E+04  0.50400000000E-02 0. -1.
         -1   -1    0    0    0  501 -0.00000000000E+00 -0.00000000000E+00 -0.53267256325E+03  0.53267256327E+03  0.50400000000E-02 0.  1.
    8880022    1    1    2    0    0  0.21901231350E+03 -0.61635313658E+03  0.20314733995E+04  0.21396573110E+04  0.15294330000E+03 0.  0.
    8880022    1    1    2    0    0 -0.21901231350E+03  0.61635313658E+03 -0.24285791613E+03  0.71430329894E+03  0.15294330000E+03 0.  0.
<mgrwt>
<rscale>  0 0.67175087E+03</rscale>
<asrwt>0</asrwt>
<pdfrwt beam="1">  1        1 0.35712123E+00 0.67175087E+03</pdfrwt>
<pdfrwt beam="2">  1       -1 0.81949626E-01 0.67175087E+03</pdfrwt>
<totfact> 0.28684594E+00</totfact>
</mgrwt>
</event>
<event>
 4    1  0.4964158E-009  0.6049814E+03  0.7818608E-02  0.9895125E-01
          1   -1    0    0  501    0  0.00000000000E+00  0.00000000000E+00  0.34230570942E+03  0.34230570946E+03  0.50400000000E-02 0. -1.
         -1   -1    0    0    0  501 -0.00000000000E+00 -0.00000000000E+00 -0.16015028857E+04  0.16015028857E+04  0.50400000000E-02 0.  1.
    8880022    1    1    2    0    0  0.58531821526E+03 -0.36680191939E+01 -0.69289045454E+02  0.60893636146E+03  0.15294330000E+03 0.  0.
    8880022    1    1    2    0    0 -0.58531821526E+03  0.36680191939E+01 -0.11899081308E+04  0.13348722337E+04  0.15294330000E+03 0.  0.
<mgrwt>
<rscale>  0 0.60498142E+03</rscale>
<asrwt>0</asrwt>
<pdfrwt beam="1">  1        1 0.52662418E-01 0.60498142E+03</pdfrwt>
<pdfrwt beam="2">  1       -1 0.24638505E+00 0.60498142E+03</pdfrwt>
<totfact> 0.57642081E+00</totfact>
</mgrwt>
</event>
<event>
 4    1  0.4964158E-009  0.2570143E+04  0.7818608E-02  0.8378414E-01
          1   -1    0    0  501    0  0.00000000000E+00  0.00000000000E+00  0.27912260755E+04  0.27912260755E+04  0.50400000000E-02 0. -1.
         -1   -1    0    0    0  501 -0.00000000000E+00 -0.00000000000E+00 -0.27823700231E+04  0.27823700231E+04  0.50400000000E-02 0.  1.
    8880022    1    1    2    0    0 -0.24054349994E+04  0.89225763741E+03  0.10817366215E+04  0.27885098169E+04  0.15294330000E+03 0.  0.
    8880022    1    1    2    0    0  0.24054349994E+04 -0.89225763741E+03 -0.10728805692E+04  0.27850862817E+04  0.15294330000E+03 0.  0.
<mgrwt>
<rscale>  0 0.25701426E+04</rscale>
<asrwt>0</asrwt>
<pdfrwt beam="1">  1        1 0.42941940E+00 0.25701426E+04</pdfrwt>
<pdfrwt beam="2">  1       -1 0.42805693E+00 0.25701426E+04</pdfrwt>
<totfact> 0.32108922E-03</totfact>
</mgrwt>
</event>
<event>
 4    1  0.4964158E-009  0.5205759E+03  0.7818608E-02  0.1008544E+00
          1   -1    0    0  501    0  0.00000000000E+00  0.00000000000E+00  0.40396478082E+03  0.40396478085E+03  0.50400000000E-02 0. -1.
         -1   -1    0    0    0  501 -0.00000000000E+00 -0.00000000000E+00 -0.16113736130E+04  0.16113736130E+04  0.50400000000E-02 0.  1.
    8880022    1    1    2    0    0  0.33794245238E+03  0.36524304652E+03  0.16614363969E+03  0.54644573946E+03  0.15294330000E+03 0.  0.
    8880022    1    1    2    0    0 -0.33794245238E+03 -0.36524304652E+03 -0.13735524718E+04  0.14688926544E+04  0.15294330000E+03 0.  0.
<mgrwt>
<rscale>  0 0.52057587E+03</rscale>
<asrwt>0</asrwt>
<pdfrwt beam="1">  1        1 0.62148428E-01 0.52057587E+03</pdfrwt>
<pdfrwt beam="2">  1       -1 0.24790363E+00 0.52057587E+03</pdfrwt>
<totfact> 0.46129327E+00</totfact>
</mgrwt>
</event>
<event>
 4    1  0.4964158E-009  0.7158653E+03  0.7818608E-02  0.9690479E-01
          1   -1    0    0  501    0  0.00000000000E+00  0.00000000000E+00  0.12851550586E+04  0.12851550586E+04  0.50400000000E-02 0. -1.
         -1   -1    0    0    0  501 -0.00000000000E+00 -0.00000000000E+00 -0.45374146571E+03  0.45374146574E+03  0.50400000000E-02 0.  1.
    8880022    1    1    2    0    0  0.62048569357E+03 -0.32259729537E+03  0.11304064673E+03  0.72473536669E+03  0.15294330000E+03 0.  0.
    8880022    1    1    2    0    0 -0.62048569357E+03  0.32259729537E+03  0.71837294615E+03  0.10141611576E+04  0.15294330000E+03 0.  0.
<mgrwt>
<rscale>  0 0.71586533E+03</rscale>
<asrwt>0</asrwt>
<pdfrwt beam="1">  1        1 0.19771616E+00 0.71586533E+03</pdfrwt>
<pdfrwt beam="2">  1       -1 0.69806379E-01 0.71586533E+03</pdfrwt>
<totfact> 0.19941332E+01</totfact>
</mgrwt>
</event>
<event>
 4    1  0.4964158E-009  0.5735385E+03  0.7818608E-02  0.9961879E-01
          1   -1    0    0  501    0  0.00000000000E+00  0.00000000000E+00  0.16742898452E+04  0.16742898452E+04  0.50400000000E-02 0. -1.
         -1   -1    0    0    0  501 -0.00000000000E+00 -0.00000000000E+00 -0.13431477547E+04  0.13431477547E+04  0.50400000000E-02 0.  1.
    8880022    1    1    2    0    0  0.46213455424E+03 -0.30329267324E+03 -0.12284433079E+04  0.13557357433E+04  0.15294330000E+03 0.  0.
    8880022    1    1    2    0    0 -0.46213455424E+03  0.30329267324E+03  0.15595853985E+04  0.16617018565E+04  0.15294330000E+03 0.  0.
<mgrwt>
<rscale>  0 0.57353853E+03</rscale>
<asrwt>0</asrwt>
<pdfrwt beam="1">  1        1 0.25758305E+00 0.57353853E+03</pdfrwt>
<pdfrwt beam="2">  1       -1 0.20663812E+00 0.57353853E+03</pdfrwt>
<totfact> 0.74384672E-01</totfact>
</mgrwt>
</event>
<event>
 4    1  0.4964158E-009  0.1534631E+04  0.7818608E-02  0.8861745E-01
          1   -1    0    0  501    0  0.00000000000E+00  0.00000000000E+00  0.21754997396E+04  0.21754997396E+04  0.50400000000E-02 0. -1.
         -1   -1    0    0    0  501 -0.00000000000E+00 -0.00000000000E+00 -0.13298039855E+04  0.13298039855E+04  0.50400000000E-02 0.  1.
    8880022    1    1    2    0    0 -0.74470464142E+03 -0.13330850015E+04  0.11785862281E+04  0.19349826289E+04  0.15294330000E+03 0.  1.
    8880022    1    1    2    0    0  0.74470464142E+03  0.13330850015E+04 -0.33289047400E+03  0.15703210961E+04  0.15294330000E+03 0.  0.
<mgrwt>
<rscale>  0 0.15346310E+04</rscale>
<asrwt>0</asrwt>
<pdfrwt beam="1">  1        1 0.33469226E+00 0.15346310E+04</pdfrwt>
<pdfrwt beam="2">  1       -1 0.20458523E+00 0.15346310E+04</pdfrwt>
<totfact> 0.29823761E-01</totfact>
</mgrwt>
</event>
<event>
 4    1  0.4964158E-009  0.9129866E+03  0.7818608E-02  0.9409492E-01
         -1   -1    0    0    0  501 -0.00000000000E+00  0.00000000000E+00  0.14374557099E+04  0.14374557099E+04  0.50400000000E-02 0.  1.
          1   -1    0    0  501    0  0.00000000000E+00 -0.00000000000E+00 -0.11618983283E+04  0.11618983283E+04  0.50400000000E-02 0. -1.
    8880022    1    1    2    0    0 -0.67815215285E+03  0.59182981579E+03 -0.78208102382E+03  0.12021627403E+04  0.15294330000E+03 0. -1.
    8880022    1    1    2    0    0  0.67815215285E+03 -0.59182981579E+03  0.10576384054E+04  0.13971912979E+04  0.15294330000E+03 0.  0.
<mgrwt>
<rscale>  0 0.91298660E+03</rscale>
<asrwt>0</asrwt>
<pdfrwt beam="1">  1        1 0.17875359E+00 0.91298660E+03</pdfrwt>
<pdfrwt beam="2">  1       -1 0.22114703E+00 0.91298660E+03</pdfrwt>
<totfact> 0.12565285E+00</totfact>
</mgrwt>
</event>
<event>
 4    1  0.4964158E-009  0.3594608E+03  0.7818608E-02  0.1058798E+00
          1   -1    0    0  501    0  0.00000000000E+00  0.00000000000E+00  0.63416734660E+03  0.63416734662E+03  0.50400000000E-02 0. -1.
         -1   -1    0    0    0  501 -0.00000000000E+00 -0.00000000000E+00 -0.53917911658E+03  0.53917911660E+03  0.50400000000E-02 0.  1.
    8880022    1    1    2    0    0 -0.32475527654E+03 -0.18826898010E+02  0.51022619869E+03  0.62413369447E+03  0.15294330000E+03 0. -1.
    8880022    1    1    2    0    0  0.32475527654E+03  0.18826898010E+02 -0.41523796866E+03  0.54921276876E+03  0.15294330000E+03 0.  0.
<mgrwt>
<rscale>  0 0.35946084E+03</rscale>
<asrwt>0</asrwt>
<pdfrwt beam="1">  1        1 0.97564207E-01 0.35946084E+03</pdfrwt>
<pdfrwt beam="2">  1       -1 0.82950633E-01 0.35946084E+03</pdfrwt>
<totfact> 0.48983409E+01</totfact>
</mgrwt>
</event>
<event>
 4    1  0.4964158E-009  0.5270965E+03  0.7818608E-02  0.1006939E+00
          1   -1    0    0  501    0  0.00000000000E+00  0.00000000000E+00  0.61694818321E+03  0.61694818323E+03  0.50400000000E-02 0. -1.
         -1   -1    0    0    0  501 -0.00000000000E+00 -0.00000000000E+00 -0.12063336112E+04  0.12063336112E+04  0.50400000000E-02 0.  1.
    8880022    1    1    2    0    0  0.47643569022E+03  0.16567452593E+03 -0.10163846251E+04  0.11449316026E+04  0.15294330000E+03 0.  0.
    8880022    1    1    2    0    0 -0.47643569022E+03 -0.16567452593E+03  0.42699919709E+03  0.67835019186E+03  0.15294330000E+03 0.  0.
<mgrwt>
<rscale>  0 0.52709645E+03</rscale>
<asrwt>0</asrwt>
<pdfrwt beam="1">  1        1 0.94915106E-01 0.52709645E+03</pdfrwt>
<pdfrwt beam="2">  1       -1 0.18558978E+00 0.52709645E+03</pdfrwt>
<totfact> 0.66995704E+00</totfact>
</mgrwt>
</event>
<event>
 4    1  0.4964158E-009  0.5475140E+03  0.7818608E-02  0.1002071E+00
         -1   -1    0    0    0  501 -0.00000000000E+00  0.00000000000E+00  0.53595089779E+03  0.53595089781E+03  0.50400000000E-02 0.  1.
          1   -1    0    0  501    0  0.00000000000E+00 -0.00000000000E+00 -0.21493389064E+04  0.21493389064E+04  0.50400000000E-02 0. -1.
    8880022    1    1    2    0    0  0.59154054151E+02 -0.52237985553E+03  0.34811182188E+03  0.64880922399E+03  0.15294330000E+03 0.  0.
    8880022    1    1    2    0    0 -0.59154054151E+02  0.52237985553E+03 -0.19614998305E+04  0.20364805802E+04  0.15294330000E+03 0.  0.
<mgrwt>
<rscale>  0 0.54751399E+03</rscale>
<asrwt>0</asrwt>
<pdfrwt beam="1">  1        1 0.33066752E+00 0.54751399E+03</pdfrwt>
<pdfrwt beam="2">  1       -1 0.82453985E-01 0.54751399E+03</pdfrwt>
<totfact> 0.37998112E+00</totfact>
</mgrwt>
</event>
<event>
 4    1  0.4964158E-009  0.5436381E+03  0.7818608E-02  0.1002977E+00
          1   -1    0    0  501    0  0.00000000000E+00  0.00000000000E+00  0.24329604011E+04  0.24329604011E+04  0.50400000000E-02 0. -1.
         -1   -1    0    0    0  501 -0.00000000000E+00 -0.00000000000E+00 -0.15451639107E+04  0.15451639107E+04  0.50400000000E-02 0.  1.
    8880022    1    1    2    0    0 -0.45479229955E+03  0.25556741860E+03  0.23531742734E+04  0.24151545613E+04  0.15294330000E+03 0.  0.
    8880022    1    1    2    0    0  0.45479229955E+03 -0.25556741860E+03 -0.14653777829E+04  0.15629697505E+04  0.15294330000E+03 0.  0.
<mgrwt>
<rscale>  0 0.54363811E+03</rscale>
<asrwt>0</asrwt>
<pdfrwt beam="1">  1        1 0.37430160E+00 0.54363811E+03</pdfrwt>
<pdfrwt beam="2">  1       -1 0.23771753E+00 0.54363811E+03</pdfrwt>
<totfact> 0.14649487E-01</totfact>
</mgrwt>
</event>
<event>
 4    1  0.4964158E-009  0.5246181E+03  0.7818608E-02  0.1007546E+00
          1   -1    0    0  501    0  0.00000000000E+00  0.00000000000E+00  0.30732678350E+04  0.30732678350E+04  0.50400000000E-02 0. -1.
         -1   -1    0    0    0  501 -0.00000000000E+00 -0.00000000000E+00 -0.24353025923E+03  0.24353025929E+03  0.50400000000E-02 0.  1.
    8880022    1    1    2    0    0 -0.29488143125E+03  0.40605103715E+03  0.96189691147E+02  0.53336349046E+03  0.15294330000E+03 0.  0.
    8880022    1    1    2    0    0  0.29488143125E+03 -0.40605103715E+03  0.27335478846E+04  0.27834346038E+04  0.15294330000E+03 0.  0.
<mgrwt>
<rscale>  0 0.52461811E+03</rscale>
<asrwt>0</asrwt>
<pdfrwt beam="1">  1        1 0.47281046E+00 0.52461811E+03</pdfrwt>
<pdfrwt beam="2">  1       -1 0.37466192E-01 0.52461811E+03</pdfrwt>
<totfact> 0.40898297E+00</totfact>
</mgrwt>
</event>
<event>
 4    1  0.4964158E-009  0.4245191E+03  0.7818608E-02  0.1035605E+00
          1   -1    0    0  501    0  0.00000000000E+00  0.00000000000E+00  0.67809726766E+03  0.67809726768E+03  0.50400000000E-02 0. -1.
         -1   -1    0    0    0  501 -0.00000000000E+00 -0.00000000000E+00 -0.51804592084E+03  0.51804592086E+03  0.50400000000E-02 0.  1.
    8880022    1    1    2    0    0  0.99559467342E+02 -0.38329193456E+03  0.49738373248E+03  0.65391668046E+03  0.15294330000E+03 0.  0.
    8880022    1    1    2    0    0 -0.99559467342E+02  0.38329193456E+03 -0.33733238566E+03  0.54222650808E+03  0.15294330000E+03 0.  0.
<mgrwt>
<rscale>  0 0.42451908E+03</rscale>
<asrwt>0</asrwt>
<pdfrwt beam="1">  1        1 0.10432266E+00 0.42451908E+03</pdfrwt>
<pdfrwt beam="2">  1       -1 0.79699373E-01 0.42451908E+03</pdfrwt>
<totfact> 0.47806451E+01</totfact>
</mgrwt>
</event>
<event>
 4    1  0.4964158E-009  0.1591431E+03  0.7818608E-02  0.1189668E+00
          1   -1    0    0  501    0  0.00000000000E+00  0.00000000000E+00  0.27863181721E+03  0.27863181726E+03  0.50400000000E-02 0. -1.
         -1   -1    0    0    0  501 -0.00000000000E+00 -0.00000000000E+00 -0.49203149145E+03  0.49203149148E+03  0.50400000000E-02 0.  1.
    8880022    1    1    2    0    0 -0.43546796397E+02  0.62078783099E+01  0.24122368271E+03  0.28899027552E+03  0.15294330000E+03 0.  0.
    8880022    1    1    2    0    0  0.43546796397E+02 -0.62078783099E+01 -0.45462335695E+03  0.48167303322E+03  0.15294330000E+03 0.  1.
<mgrwt>
<rscale>  0 0.15914306E+03</rscale>
<asrwt>0</asrwt>
<pdfrwt beam="1">  1        1 0.42866433E-01 0.15914306E+03</pdfrwt>
<pdfrwt beam="2">  1       -1 0.75697153E-01 0.15914306E+03</pdfrwt>
<totfact> 0.18024257E+02</totfact>
</mgrwt>
</event>
<event>
 4    1  0.4964158E-009  0.9670885E+03  0.7818608E-02  0.9345397E-01
          1   -1    0    0  501    0  0.00000000000E+00  0.00000000000E+00  0.14131306996E+04  0.14131306996E+04  0.50400000000E-02 0. -1.
         -1   -1    0    0    0  501 -0.00000000000E+00 -0.00000000000E+00 -0.99351301293E+03  0.99351301295E+03  0.50400000000E-02 0.  1.
    8880022    1    1    2    0    0 -0.75429149872E+03  0.58558757370E+03  0.90507807520E+03  0.13245476385E+04  0.15294330000E+03 0.  0.
    8880022    1    1    2    0    0  0.75429149872E+03 -0.58558757370E+03 -0.48546038855E+03  0.10820960740E+04  0.15294330000E+03 0.  0.
<mgrwt>
<rscale>  0 0.96708848E+03</rscale>
<asrwt>0</asrwt>
<pdfrwt beam="1">  1        1 0.21740472E+00 0.96708848E+03</pdfrwt>
<pdfrwt beam="2">  1       -1 0.15284816E+00 0.96708848E+03</pdfrwt>
<totfact> 0.25171199E+00</totfact>
</mgrwt>
</event>
<event>
 4    1  0.4964158E-009  0.6022894E+03  0.7818608E-02  0.9900668E-01
          1   -1    0    0  501    0  0.00000000000E+00  0.00000000000E+00  0.39910032014E+03  0.39910032017E+03  0.50400000000E-02 0. -1.
         -1   -1    0    0    0  501 -0.00000000000E+00 -0.00000000000E+00 -0.11358027727E+04  0.11358027727E+04  0.50400000000E-02 0.  1.
    8880022    1    1    2    0    0  0.58887726966E+02 -0.57956289185E+03 -0.71135172228E+03  0.93208038055E+03  0.15294330000E+03 0.  0.
    8880022    1    1    2    0    0 -0.58887726966E+02  0.57956289185E+03 -0.25350730313E+02  0.60282271237E+03  0.15294330000E+03 0.  0.
<mgrwt>
<rscale>  0 0.60228943E+03</rscale>
<asrwt>0</asrwt>
<pdfrwt beam="1">  1        1 0.61400050E-01 0.60228943E+03</pdfrwt>
<pdfrwt beam="2">  1       -1 0.17473889E+00 0.60228943E+03</pdfrwt>
<totfact> 0.14323352E+01</totfact>
</mgrwt>
</event>
<event>
 4    1  0.4964158E-009  0.5108637E+03  0.7818608E-02  0.1010982E+00
         -1   -1    0    0    0  501 -0.00000000000E+00  0.00000000000E+00  0.22530140451E+03  0.22530140456E+03  0.50400000000E-02 0.  1.
          1   -1    0    0  501    0  0.00000000000E+00 -0.00000000000E+00 -0.24293735864E+04  0.24293735864E+04  0.50400000000E-02 0. -1.
    8880022    1    1    2    0    0 -0.48696090021E+03  0.21427222743E+02 -0.20621176367E+04  0.21244554231E+04  0.15294330000E+03 0.  0.
    8880022    1    1    2    0    0  0.48696090021E+03 -0.21427222743E+02 -0.14195454519E+03  0.53021956785E+03  0.15294330000E+03 0.  0.
<mgrwt>
<rscale>  0 0.51086368E+03</rscale>
<asrwt>0</asrwt>
<pdfrwt beam="1">  1        1 0.37374976E+00 0.51086368E+03</pdfrwt>
<pdfrwt beam="2">  1       -1 0.34661756E-01 0.51086368E+03</pdfrwt>
<totfact> 0.13165206E+01</totfact>
</mgrwt>
</event>
<event>
 4    1  0.4964158E-009  0.7795098E+03  0.7818608E-02  0.9590159E-01
         -1   -1    0    0    0  501 -0.00000000000E+00  0.00000000000E+00  0.12483919165E+04  0.12483919165E+04  0.50400000000E-02 0.  1.
          1   -1    0    0  501    0  0.00000000000E+00 -0.00000000000E+00 -0.13262976324E+04  0.13262976324E+04  0.50400000000E-02 0. -1.
    8880022    1    1    2    0    0  0.35539406582E+03  0.67671181077E+03  0.98528552215E+03  0.12563530674E+04  0.15294330000E+03 0.  0.
    8880022    1    1    2    0    0 -0.35539406582E+03 -0.67671181077E+03 -0.10631912380E+04  0.13183364815E+04  0.15294330000E+03 0.  0.
<mgrwt>
<rscale>  0 0.77950976E+03</rscale>
<asrwt>0</asrwt>
<pdfrwt beam="1">  1        1 0.20404579E+00 0.77950976E+03</pdfrwt>
<pdfrwt beam="2">  1       -1 0.19206029E+00 0.77950976E+03</pdfrwt>
<totfact> 0.15428080E+00</totfact>
</mgrwt>
</event>
<event>
 4    1  0.4964158E-009  0.2928370E+03  0.7818608E-02  0.1088877E+00
          1   -1    0    0  501    0  0.00000000000E+00  0.00000000000E+00  0.11087006749E+04  0.11087006749E+04  0.50400000000E-02 0. -1.
         -1   -1    0    0    0  501 -0.00000000000E+00 -0.00000000000E+00 -0.10315506896E+03  0.10315506908E+03  0.50400000000E-02 0.  1.
    8880022    1    1    2    0    0  0.10045919465E+03 -0.22862586463E+03  0.19968924894E+03  0.35444221663E+03  0.15294330000E+03 0.  1.
    8880022    1    1    2    0    0 -0.10045919465E+03  0.22862586463E+03  0.80585635696E+03  0.85741352732E+03  0.15294330000E+03 0. -1.
<mgrwt>
<rscale>  0 0.29283697E+03</rscale>
<asrwt>0</asrwt>
<pdfrwt beam="1">  1        1 0.17056935E+00 0.29283697E+03</pdfrwt>
<pdfrwt beam="2">  1       -1 0.15870009E-01 0.29283697E+03</pdfrwt>
<totfact> 0.39155921E+02</totfact>
</mgrwt>
</event>
<event>
 4    1  0.4964158E-009  0.8855860E+03  0.7818608E-02  0.9443781E-01
          1   -1    0    0  501    0  0.00000000000E+00  0.00000000000E+00  0.18981538397E+04  0.18981538397E+04  0.50400000000E-02 0. -1.
         -1   -1    0    0    0  501 -0.00000000000E+00 -0.00000000000E+00 -0.73089151177E+03  0.73089151179E+03  0.50400000000E-02 0.  1.
    8880022    1    1    2    0    0 -0.51264504153E+03 -0.70573789743E+03  0.14503217659E+04  0.16993221578E+04  0.15294330000E+03 0.  0.
    8880022    1    1    2    0    0  0.51264504153E+03  0.70573789743E+03 -0.28305943793E+03  0.92972319370E+03  0.15294330000E+03 0.  1.
<mgrwt>
<rscale>  0 0.88558600E+03</rscale>
<asrwt>0</asrwt>
<pdfrwt beam="1">  1        1 0.29202366E+00 0.88558600E+03</pdfrwt>
<pdfrwt beam="2">  1       -1 0.11244485E+00 0.88558600E+03</pdfrwt>
<totfact> 0.25992125E+00</totfact>
</mgrwt>
</event>
<event>
 4    1  0.4964158E-009  0.1630765E+03  0.7818608E-02  0.1185266E+00
         -1   -1    0    0    0  501 -0.00000000000E+00  0.00000000000E+00  0.34926446606E+03  0.34926446610E+03  0.50400000000E-02 0.  1.
          1   -1    0    0  501    0  0.00000000000E+00 -0.00000000000E+00 -0.99315526197E+03  0.99315526198E+03  0.50400000000E-02 0. -1.
    8880022    1    1    2    0    0 -0.53549946605E+02  0.18295064988E+02  0.32302144022E+03  0.36185191728E+03  0.15294330000E+03 0.  0.
    8880022    1    1    2    0    0  0.53549946605E+02 -0.18295064988E+02 -0.96691223613E+03  0.98056781080E+03  0.15294330000E+03 0. -1.
<mgrwt>
<rscale>  0 0.16307654E+03</rscale>
<asrwt>0</asrwt>
<pdfrwt beam="1">  1        1 0.15279312E+00 0.16307654E+03</pdfrwt>
<pdfrwt beam="2">  1       -1 0.53732995E-01 0.16307654E+03</pdfrwt>
<totfact> 0.61190883E+01</totfact>
</mgrwt>
</event>
<event>
 4    1  0.4964158E-009  0.2996755E+03  0.7818608E-02  0.1085403E+00
          1   -1    0    0  501    0  0.00000000000E+00  0.00000000000E+00  0.25780281983E+04  0.25780281983E+04  0.50400000000E-02 0. -1.
         -1   -1    0    0    0  501 -0.00000000000E+00 -0.00000000000E+00 -0.61654900506E+02  0.61654900712E+02  0.50400000000E-02 0.  1.
    8880022    1    1    2    0    0 -0.24809833735E+03  0.69720450757E+02  0.21286837096E+04  0.21496743276E+04  0.15294330000E+03 0.  0.
    8880022    1    1    2    0    0  0.24809833735E+03 -0.69720450757E+02  0.38768958820E+03  0.49000877141E+03  0.15294330000E+03 0.  0.
<mgrwt>
<rscale>  0 0.29967546E+03</rscale>
<asrwt>0</asrwt>
<pdfrwt beam="1">  1        1 0.39661975E+00 0.29967546E+03</pdfrwt>
<pdfrwt beam="2">  1       -1 0.94853686E-02 0.29967546E+03</pdfrwt>
<totfact> 0.92474134E+01</totfact>
</mgrwt>
</event>
<event>
 4    1  0.4964158E-009  0.1378227E+04  0.7818608E-02  0.8969731E-01
          1   -1    0    0  501    0  0.00000000000E+00  0.00000000000E+00  0.16995007735E+04  0.16995007735E+04  0.50400000000E-02 0. -1.
         -1   -1    0    0    0  501 -0.00000000000E+00 -0.00000000000E+00 -0.14283791741E+04  0.14283791741E+04  0.50400000000E-02 0.  1.
    8880022    1    1    2    0    0 -0.13133133697E+04  0.38900749323E+03  0.86495658353E+03  0.16271632927E+04  0.15294330000E+03 0.  0.
    8880022    1    1    2    0    0  0.13133133697E+04 -0.38900749323E+03 -0.59383498416E+03  0.15007166549E+04  0.15294330000E+03 0.  0.
<mgrwt>
<rscale>  0 0.13782273E+04</rscale>
<asrwt>0</asrwt>
<pdfrwt beam="1">  1        1 0.26146166E+00 0.13782273E+04</pdfrwt>
<pdfrwt beam="2">  1       -1 0.21975064E+00 0.13782273E+04</pdfrwt>
<totfact> 0.50510845E-01</totfact>
</mgrwt>
</event>
<event>
 4    1  0.4964158E-009  0.1161336E+04  0.7818608E-02  0.9147389E-01
         -1   -1    0    0    0  501 -0.00000000000E+00  0.00000000000E+00  0.24545086437E+04  0.24545086437E+04  0.50400000000E-02 0.  1.
          1   -1    0    0  501    0  0.00000000000E+00 -0.00000000000E+00 -0.63545593476E+03  0.63545593478E+03  0.50400000000E-02 0. -1.
    8880022    1    1    2    0    0 -0.11474027534E+04 -0.93677437070E+02  0.14778196697E+04  0.18795348280E+04  0.15294330000E+03 0.  0.
    8880022    1    1    2    0    0  0.11474027534E+04  0.93677437070E+02  0.34123303926E+03  0.12104297504E+04  0.15294330000E+03 0.  0.
<mgrwt>
<rscale>  0 0.11613355E+04</rscale>
<asrwt>0</asrwt>
<pdfrwt beam="1">  1        1 0.97762452E-01 0.11613355E+04</pdfrwt>
<pdfrwt beam="2">  1       -1 0.37761671E+00 0.11613355E+04</pdfrwt>
<totfact> 0.31968046E-01</totfact>
</mgrwt>
</event>
<event>
 4    1  0.4964158E-009  0.6440193E+03  0.7818608E-02  0.9818067E-01
         -1   -1    0    0    0  501 -0.00000000000E+00  0.00000000000E+00  0.14178958039E+04  0.14178958039E+04  0.50400000000E-02 0.  1.
          1   -1    0    0  501    0  0.00000000000E+00 -0.00000000000E+00 -0.10053791776E+04  0.10053791776E+04  0.50400000000E-02 0. -1.
    8880022    1    1    2    0    0 -0.58225088135E+03  0.22880815320E+03 -0.81399979555E+03  0.10379578893E+04  0.15294330000E+03 0.  0.
    8880022    1    1    2    0    0  0.58225088135E+03 -0.22880815320E+03  0.12265164219E+04  0.13853170922E+04  0.15294330000E+03 0.  0.
<mgrwt>
<rscale>  0 0.64401934E+03</rscale>
<asrwt>0</asrwt>
<pdfrwt beam="1">  1        1 0.15467372E+00 0.64401934E+03</pdfrwt>
<pdfrwt beam="2">  1       -1 0.21813782E+00 0.64401934E+03</pdfrwt>
<totfact> 0.18124589E+00</totfact>
</mgrwt>
</event>
<event>
 4    1  0.4964158E-009  0.6643750E+03  0.7818608E-02  0.9780173E-01
         -1   -1    0    0    0  501 -0.00000000000E+00  0.00000000000E+00  0.10718016700E+04  0.10718016700E+04  0.50400000000E-02 0.  1.
          1   -1    0    0  501    0  0.00000000000E+00 -0.00000000000E+00 -0.13778293733E+04  0.13778293733E+04  0.50400000000E-02 0. -1.
    8880022    1    1    2    0    0  0.51251468442E+01  0.64651075482E+03  0.87254985596E+03  0.10966938166E+04  0.15294330000E+03 0.  0.
    8880022    1    1    2    0    0 -0.51251468442E+01 -0.64651075482E+03 -0.11785775593E+04  0.13529372267E+04  0.15294330000E+03 0.  0.
<mgrwt>
<rscale>  0 0.66437495E+03</rscale>
<asrwt>0</asrwt>
<pdfrwt beam="1">  1        1 0.21197375E+00 0.66437495E+03</pdfrwt>
<pdfrwt beam="2">  1       -1 0.16489257E+00 0.66437495E+03</pdfrwt>
<totfact> 0.22729516E+00</totfact>
</mgrwt>
</event>
<event>
 4    1  0.4964158E-009  0.2002915E+03  0.7818608E-02  0.1149493E+00
         -1   -1    0    0    0  501 -0.00000000000E+00  0.00000000000E+00  0.46742479151E+03  0.46742479153E+03  0.50400000000E-02 0.  1.
          1   -1    0    0  501    0  0.00000000000E+00 -0.00000000000E+00 -0.61560338729E+03  0.61560338731E+03  0.50400000000E-02 0. -1.
    8880022    1    1    2    0    0 -0.50235496846E+01  0.12922769073E+03  0.42826071836E+03  0.47278317230E+03  0.15294330000E+03 0.  1.
    8880022    1    1    2    0    0  0.50235496846E+01 -0.12922769073E+03 -0.57643931415E+03  0.61024500654E+03  0.15294330000E+03 0.  0.
<mgrwt>
<rscale>  0 0.20029150E+03</rscale>
<asrwt>0</asrwt>
<pdfrwt beam="1">  1        1 0.94708214E-01 0.20029150E+03</pdfrwt>
<pdfrwt beam="2">  1       -1 0.71911506E-01 0.20029150E+03</pdfrwt>
<totfact> 0.71137586E+01</totfact>
</mgrwt>
</event>
<event>
 4    1  0.4964158E-009  0.6595600E+03  0.7818608E-02  0.9789004E-01
          1   -1    0    0  501    0  0.00000000000E+00  0.00000000000E+00  0.36807840528E+04  0.36807840528E+04  0.50400000000E-02 0. -1.
         -1   -1    0    0    0  501 -0.00000000000E+00 -0.00000000000E+00 -0.16216288460E+03  0.16216288467E+03  0.50400000000E-02 0.  1.
    8880022    1    1    2    0    0  0.23538731510E+03 -0.59684215949E+03  0.27599275435E+04  0.28376432915E+04  0.15294330000E+03 0.  0.
    8880022    1    1    2    0    0 -0.23538731510E+03  0.59684215949E+03  0.75869362477E+03  0.10053036460E+04  0.15294330000E+03 0.  0.
<mgrwt>
<rscale>  0 0.65956001E+03</rscale>
<asrwt>0</asrwt>
<pdfrwt beam="1">  1        1 0.56627452E+00 0.65956001E+03</pdfrwt>
<pdfrwt beam="2">  1       -1 0.24948134E-01 0.65956001E+03</pdfrwt>
<totfact> 0.27897352E+00</totfact>
</mgrwt>
</event>
<event>
 4    1  0.4964158E-009  0.2123660E+03  0.7818608E-02  0.1139706E+00
          1   -1    0    0  501    0  0.00000000000E+00  0.00000000000E+00  0.28152609513E+03  0.28152609517E+03  0.50400000000E-02 0. -1.
         -1   -1    0    0    0  501 -0.00000000000E+00 -0.00000000000E+00 -0.14321080976E+04  0.14321080976E+04  0.50400000000E-02 0.  1.
    8880022    1    1    2    0    0 -0.57636066815E+02  0.13559405197E+03 -0.13827654628E+04  0.13989780703E+04  0.15294330000E+03 0.  1.
    8880022    1    1    2    0    0  0.57636066815E+02 -0.13559405197E+03  0.23218346033E+03  0.31465612245E+03  0.15294330000E+03 0.  0.
<mgrwt>
<rscale>  0 0.21236600E+03</rscale>
<asrwt>0</asrwt>
<pdfrwt beam="1">  1        1 0.43311708E-01 0.21236600E+03</pdfrwt>
<pdfrwt beam="2">  1       -1 0.22032432E+00 0.21236600E+03</pdfrwt>
<totfact> 0.12053564E+01</totfact>
</mgrwt>
</event>
<event>
 4    1  0.4964158E-009  0.6495514E+03  0.7818608E-02  0.9807621E-01
          1   -1    0    0  501    0  0.00000000000E+00  0.00000000000E+00  0.19388535058E+04  0.19388535058E+04  0.50400000000E-02 0. -1.
         -1   -1    0    0    0  501 -0.00000000000E+00 -0.00000000000E+00 -0.95650543789E+03  0.95650543790E+03  0.50400000000E-02 0.  1.
    8880022    1    1    2    0    0  0.92758528768E+02  0.62443672164E+03 -0.78121441043E+03  0.10159788246E+04  0.15294330000E+03 0.  1.
    8880022    1    1    2    0    0 -0.92758528768E+02 -0.62443672164E+03  0.17635624783E+04  0.18793801191E+04  0.15294330000E+03 0.  0.
<mgrwt>
<rscale>  0 0.64955140E+03</rscale>
<asrwt>0</asrwt>
<pdfrwt beam="1">  1        1 0.29828515E+00 0.64955140E+03</pdfrwt>
<pdfrwt beam="2">  1       -1 0.14715469E+00 0.64955140E+03</pdfrwt>
<totfact> 0.13011446E+00</totfact>
</mgrwt>
</event>
<event>
 4    1  0.4964158E-009  0.8848207E+03  0.7818608E-02  0.9444758E-01
         -1   -1    0    0    0  501 -0.00000000000E+00  0.00000000000E+00  0.13897202804E+04  0.13897202804E+04  0.50400000000E-02 0.  1.
          1   -1    0    0  501    0  0.00000000000E+00 -0.00000000000E+00 -0.93861024514E+03  0.93861024515E+03  0.50400000000E-02 0. -1.
    8880022    1    1    2    0    0  0.47737720761E+01  0.87148904818E+03 -0.51054131608E+03  0.10215478640E+04  0.15294330000E+03 0. -1.
    8880022    1    1    2    0    0 -0.47737720761E+01 -0.87148904818E+03  0.96165135130E+03  0.13067826615E+04  0.15294330000E+03 0.  0.
<mgrwt>
<rscale>  0 0.88482066E+03</rscale>
<asrwt>0</asrwt>
<pdfrwt beam="1">  1        1 0.14440158E+00 0.88482066E+03</pdfrwt>
<pdfrwt beam="2">  1       -1 0.21380312E+00 0.88482066E+03</pdfrwt>
<totfact> 0.20941528E+00</totfact>
</mgrwt>
</event>
<event>
 4    1  0.4964158E-009  0.8099356E+03  0.7818608E-02  0.9545746E-01
          1   -1    0    0  501    0  0.00000000000E+00  0.00000000000E+00  0.17613097040E+04  0.17613097040E+04  0.50400000000E-02 0. -1.
         -1   -1    0    0    0  501 -0.00000000000E+00 -0.00000000000E+00 -0.12893664291E+04  0.12893664291E+04  0.50400000000E-02 0.  1.
    8880022    1    1    2    0    0 -0.17973543261E+03  0.77478982541E+03 -0.10503315649E+04  0.13263454107E+04  0.15294330000E+03 0.  0.
    8880022    1    1    2    0    0  0.17973543261E+03 -0.77478982541E+03  0.15222748397E+04  0.17243307223E+04  0.15294330000E+03 0.  0.
<mgrwt>
<rscale>  0 0.80993565E+03</rscale>
<asrwt>0</asrwt>
<pdfrwt beam="1">  1        1 0.27097072E+00 0.80993565E+03</pdfrwt>
<pdfrwt beam="2">  1       -1 0.19836407E+00 0.80993565E+03</pdfrwt>
<totfact> 0.69889599E-01</totfact>
</mgrwt>
</event>
<event>
 4    1  0.4964158E-009  0.1191499E+04  0.7818608E-02  0.9120330E-01
          1   -1    0    0  501    0  0.00000000000E+00  0.00000000000E+00  0.12740712936E+04  0.12740712936E+04  0.50400000000E-02 0. -1.
         -1   -1    0    0    0  501 -0.00000000000E+00 -0.00000000000E+00 -0.16060655623E+04  0.16060655623E+04  0.50400000000E-02 0.  1.
    8880022    1    1    2    0    0  0.63418548644E+02 -0.11799391517E+04  0.63087775493E+03  0.13482124123E+04  0.15294330000E+03 0.  0.
    8880022    1    1    2    0    0 -0.63418548644E+02  0.11799391517E+04 -0.96287202361E+03  0.15319244436E+04  0.15294330000E+03 0.  0.
<mgrwt>
<rscale>  0 0.11914990E+04</rscale>
<asrwt>0</asrwt>
<pdfrwt beam="1">  1        1 0.19601097E+00 0.11914990E+04</pdfrwt>
<pdfrwt beam="2">  1       -1 0.24708701E+00 0.11914990E+04</pdfrwt>
<totfact> 0.67547498E-01</totfact>
</mgrwt>
</event>
<event>
 4    1  0.4964158E-009  0.1582681E+03  0.7818608E-02  0.1190666E+00
         -1   -1    0    0    0  501 -0.00000000000E+00  0.00000000000E+00  0.13837505635E+03  0.13837505644E+03  0.50400000000E-02 0.  1.
          1   -1    0    0  501    0  0.00000000000E+00 -0.00000000000E+00 -0.12018289892E+04  0.12018289892E+04  0.50400000000E-02 0. -1.
    8880022    1    1    2    0    0  0.39891976326E+02 -0.81091448751E+01 -0.11493047107E+04  0.11601508950E+04  0.15294330000E+03 0. -1.
    8880022    1    1    2    0    0 -0.39891976326E+02  0.81091448751E+01  0.85850777846E+02  0.18005315070E+03  0.15294330000E+03 0.  0.
<mgrwt>
<rscale>  0 0.15826807E+03</rscale>
<asrwt>0</asrwt>
<pdfrwt beam="1">  1        1 0.18489676E+00 0.15826807E+03</pdfrwt>
<pdfrwt beam="2">  1       -1 0.21288471E-01 0.15826807E+03</pdfrwt>
<totfact> 0.21484434E+02</totfact>
</mgrwt>
</event>
<event>
 4    1  0.4964158E-009  0.8274855E+03  0.7818608E-02  0.9521064E-01
         -1   -1    0    0    0  501 -0.00000000000E+00  0.00000000000E+00  0.54028909985E+03  0.54028909987E+03  0.50400000000E-02 0.  1.
          1   -1    0    0  501    0  0.00000000000E+00 -0.00000000000E+00 -0.18992329306E+04  0.18992329306E+04  0.50400000000E-02 0. -1.
    8880022    1    1    2    0    0  0.53671879311E+03  0.61096112555E+03  0.24095902383E+02  0.82783623099E+03  0.15294330000E+03 0.  0.
    8880022    1    1    2    0    0 -0.53671879311E+03 -0.61096112555E+03 -0.13830397331E+04  0.16116857995E+04  0.15294330000E+03 0.  0.
<mgrwt>
<rscale>  0 0.82748548E+03</rscale>
<asrwt>0</asrwt>
<pdfrwt beam="1">  1        1 0.29218968E+00 0.82748548E+03</pdfrwt>
<pdfrwt beam="2">  1       -1 0.83121401E-01 0.82748548E+03</pdfrwt>
<totfact> 0.51866089E+00</totfact>
</mgrwt>
</event>
<event>
 4    1  0.4964158E-009  0.1129977E+04  0.7818608E-02  0.9176457E-01
         -1   -1    0    0    0  501 -0.00000000000E+00  0.00000000000E+00  0.14311019723E+04  0.14311019723E+04  0.50400000000E-02 0.  1.
          1   -1    0    0  501    0  0.00000000000E+00 -0.00000000000E+00 -0.12468161693E+04  0.12468161693E+04  0.50400000000E-02 0. -1.
    8880022    1    1    2    0    0  0.11165506014E+04 -0.82285617542E+02  0.80620729757E+03  0.13880987098E+04  0.15294330000E+03 0.  0.
    8880022    1    1    2    0    0 -0.11165506014E+04  0.82285617542E+02 -0.62192149463E+03  0.12898194319E+04  0.15294330000E+03 0.  0.
<mgrwt>
<rscale>  0 0.11299769E+04</rscale>
<asrwt>0</asrwt>
<pdfrwt beam="1">  1        1 0.19181787E+00 0.11299769E+04</pdfrwt>
<pdfrwt beam="2">  1       -1 0.22016953E+00 0.11299769E+04</pdfrwt>
<totfact> 0.10722767E+00</totfact>
</mgrwt>
</event>
<event>
 4    1  0.4964158E-009  0.1218286E+04  0.7818608E-02  0.9097000E-01
          1   -1    0    0  501    0  0.00000000000E+00  0.00000000000E+00  0.15262368950E+04  0.15262368950E+04  0.50400000000E-02 0. -1.
         -1   -1    0    0    0  501 -0.00000000000E+00 -0.00000000000E+00 -0.13160701126E+04  0.13160701126E+04  0.50400000000E-02 0.  1.
    8880022    1    1    2    0    0  0.12074872976E+04  0.52954416208E+02  0.83123512516E+03  0.14748468498E+04  0.15294330000E+03 0.  0.
    8880022    1    1    2    0    0 -0.12074872976E+04 -0.52954416208E+02 -0.62106834272E+03  0.13674601579E+04  0.15294330000E+03 0.  0.
<mgrwt>
<rscale>  0 0.12182863E+04</rscale>
<asrwt>0</asrwt>
<pdfrwt beam="1">  1        1 0.23480568E+00 0.12182863E+04</pdfrwt>
<pdfrwt beam="2">  1       -1 0.20247232E+00 0.12182863E+04</pdfrwt>
<totfact> 0.88757149E-01</totfact>
</mgrwt>
</event>
<event>
 4    1  0.4964158E-009  0.9050922E+03  0.7818608E-02  0.9419238E-01
          1   -1    0    0  501    0  0.00000000000E+00  0.00000000000E+00  0.21643357215E+04  0.21643357215E+04  0.50400000000E-02 0. -1.
         -1   -1    0    0    0  501 -0.00000000000E+00 -0.00000000000E+00 -0.10311443795E+04  0.10311443795E+04  0.50400000000E-02 0.  1.
    8880022    1    1    2    0    0  0.81937198078E+03  0.35274609920E+03 -0.70452298325E+03  0.11469719004E+04  0.15294330000E+03 0.  0.
    8880022    1    1    2    0    0 -0.81937198078E+03 -0.35274609920E+03  0.18377143253E+04  0.20485082006E+04  0.15294330000E+03 0.  0.
<mgrwt>
<rscale>  0 0.90509221E+03</rscale>
<asrwt>0</asrwt>
<pdfrwt beam="1">  1        1 0.33297473E+00 0.90509221E+03</pdfrwt>
<pdfrwt beam="2">  1       -1 0.15863760E+00 0.90509221E+03</pdfrwt>
<totfact> 0.71049867E-01</totfact>
</mgrwt>
</event>
<event>
 4    1  0.4964158E-009  0.6471172E+03  0.7818608E-02  0.9812204E-01
         -1   -1    0    0    0  501 -0.00000000000E+00  0.00000000000E+00  0.10150354410E+04  0.10150354410E+04  0.50400000000E-02 0.  1.
          1   -1    0    0  501    0  0.00000000000E+00 -0.00000000000E+00 -0.46247188076E+03  0.46247188078E+03  0.50400000000E-02 0. -1.
    8880022    1    1    2    0    0 -0.60901034137E+03  0.15644618751E+03  0.33582171541E+02  0.64798797886E+03  0.15294330000E+03 0.  0.
    8880022    1    1    2    0    0  0.60901034137E+03 -0.15644618751E+03  0.51898138873E+03  0.82951934296E+03  0.15294330000E+03 0.  0.
<mgrwt>
<rscale>  0 0.64711719E+03</rscale>
<asrwt>0</asrwt>
<pdfrwt beam="1">  1        1 0.71149520E-01 0.64711719E+03</pdfrwt>
<pdfrwt beam="2">  1       -1 0.15615930E+00 0.64711719E+03</pdfrwt>
<totfact> 0.16044735E+01</totfact>
</mgrwt>
</event>
<event>
 4    1  0.4964158E-009  0.4732140E+03  0.7818608E-02  0.1021017E+00
         -1   -1    0    0    0  501 -0.00000000000E+00  0.00000000000E+00  0.46939555605E+03  0.46939555607E+03  0.50400000000E-02 0.  1.
          1   -1    0    0  501    0  0.00000000000E+00 -0.00000000000E+00 -0.85491402782E+03  0.85491402784E+03  0.50400000000E-02 0. -1.
    8880022    1    1    2    0    0 -0.30184377179E+03 -0.33080232199E+03  0.24744915381E+03  0.53400615683E+03  0.15294330000E+03 0.  0.
    8880022    1    1    2    0    0  0.30184377179E+03  0.33080232199E+03 -0.63296762559E+03  0.79030342708E+03  0.15294330000E+03 0.  0.
<mgrwt>
<rscale>  0 0.47321400E+03</rscale>
<asrwt>0</asrwt>
<pdfrwt beam="1">  1        1 0.13152524E+00 0.47321400E+03</pdfrwt>
<pdfrwt beam="2">  1       -1 0.72214701E-01 0.47321400E+03</pdfrwt>
<totfact> 0.40710397E+01</totfact>
</mgrwt>
</event>
<event>
 4    1  0.4964158E-009  0.4357100E+03  0.7818608E-02  0.1032071E+00
          1   -1    0    0  501    0  0.00000000000E+00  0.00000000000E+00  0.71193753904E+03  0.71193753906E+03  0.50400000000E-02 0. -1.
         -1   -1    0    0    0  501 -0.00000000000E+00 -0.00000000000E+00 -0.58045507804E+03  0.58045507806E+03  0.50400000000E-02 0.  1.
    8880022    1    1    2    0    0  0.44294555425E+02  0.40557313720E+03 -0.40938084111E+03  0.59785943443E+03  0.15294330000E+03 0.  0.
    8880022    1    1    2    0    0 -0.44294555425E+02 -0.40557313720E+03  0.54086330211E+03  0.69453318268E+03  0.15294330000E+03 0.  0.
<mgrwt>
<rscale>  0 0.43571003E+03</rscale>
<asrwt>0</asrwt>
<pdfrwt beam="1">  1        1 0.10952885E+00 0.43571003E+03</pdfrwt>
<pdfrwt beam="2">  1       -1 0.89300782E-01 0.43571003E+03</pdfrwt>
<totfact> 0.34825848E+01</totfact>
</mgrwt>
</event>
<event>
 4    1  0.4964158E-009  0.6001643E+03  0.7818608E-02  0.9905065E-01
         -1   -1    0    0    0  501 -0.00000000000E+00  0.00000000000E+00  0.58085008338E+03  0.58085008341E+03  0.50400000000E-02 0.  1.
          1   -1    0    0  501    0  0.00000000000E+00 -0.00000000000E+00 -0.25243000402E+04  0.25243000402E+04  0.50400000000E-02 0. -1.
    8880022    1    1    2    0    0  0.57920244122E+03 -0.36469694751E+02 -0.23201786916E+04  0.23965446628E+04  0.15294330000E+03 0.  0.
    8880022    1    1    2    0    0 -0.57920244122E+03  0.36469694751E+02  0.37672873478E+03  0.70860546087E+03  0.15294330000E+03 0.  0.
<mgrwt>
<rscale>  0 0.60016428E+03</rscale>
<asrwt>0</asrwt>
<pdfrwt beam="1">  1        1 0.38835385E+00 0.60016428E+03</pdfrwt>
<pdfrwt beam="2">  1       -1 0.89361552E-01 0.60016428E+03</pdfrwt>
<totfact> 0.17641353E+00</totfact>
</mgrwt>
</event>
<event>
 4    1  0.4964158E-009  0.5655269E+03  0.7818608E-02  0.9979626E-01
          1   -1    0    0  501    0  0.00000000000E+00  0.00000000000E+00  0.23296564596E+04  0.23296564596E+04  0.50400000000E-02 0. -1.
         -1   -1    0    0    0  501 -0.00000000000E+00 -0.00000000000E+00 -0.21477422072E+03  0.21477422078E+03  0.50400000000E-02 0.  1.
    8880022    1    1    2    0    0  0.54331984390E+03  0.35108154865E+02  0.18216246169E+04  0.19073900842E+04  0.15294330000E+03 0.  0.
    8880022    1    1    2    0    0 -0.54331984390E+03 -0.35108154865E+02  0.29325762191E+03  0.63704059615E+03  0.15294330000E+03 0.  1.
<mgrwt>
<rscale>  0 0.56552691E+03</rscale>
<asrwt>0</asrwt>
<pdfrwt beam="1">  1        1 0.35840867E+00 0.56552691E+03</pdfrwt>
<pdfrwt beam="2">  1       -1 0.33042189E-01 0.56552691E+03</pdfrwt>
<totfact> 0.16514027E+01</totfact>
</mgrwt>
</event>
<event>
 4    1  0.4964158E-009  0.9314396E+03  0.7818608E-02  0.9387112E-01
          1   -1    0    0  501    0  0.00000000000E+00  0.00000000000E+00  0.11120074136E+04  0.11120074136E+04  0.50400000000E-02 0. -1.
         -1   -1    0    0    0  501 -0.00000000000E+00 -0.00000000000E+00 -0.17867763095E+04  0.17867763095E+04  0.50400000000E-02 0.  1.
    8880022    1    1    2    0    0  0.80690374218E+03 -0.43942511739E+03 -0.14252512327E+04  0.17026217467E+04  0.15294330000E+03 0.  1.
    8880022    1    1    2    0    0 -0.80690374218E+03  0.43942511739E+03  0.75048233676E+03  0.11961619764E+04  0.15294330000E+03 0.  0.
<mgrwt>
<rscale>  0 0.93143960E+03</rscale>
<asrwt>0</asrwt>
<pdfrwt beam="1">  1        1 0.17107806E+00 0.93143960E+03</pdfrwt>
<pdfrwt beam="2">  1       -1 0.27488866E+00 0.93143960E+03</pdfrwt>
<totfact> 0.61004094E-01</totfact>
</mgrwt>
</event>
<event>
 4    1  0.4964158E-009  0.3868161E+03  0.7818608E-02  0.1048443E+00
          1   -1    0    0  501    0  0.00000000000E+00  0.00000000000E+00  0.15517873539E+04  0.15517873539E+04  0.50400000000E-02 0. -1.
         -1   -1    0    0    0  501 -0.00000000000E+00 -0.00000000000E+00 -0.71383936669E+03  0.71383936670E+03  0.50400000000E-02 0.  1.
    8880022    1    1    2    0    0 -0.26994864913E+03 -0.23100374898E+03  0.14725053989E+04  0.15224647148E+04  0.15294330000E+03 0.  0.
    8880022    1    1    2    0    0  0.26994864913E+03  0.23100374898E+03 -0.63455741162E+03  0.74316200581E+03  0.15294330000E+03 0.  0.
<mgrwt>
<rscale>  0 0.38681605E+03</rscale>
<asrwt>0</asrwt>
<pdfrwt beam="1">  1        1 0.23873652E+00 0.38681605E+03</pdfrwt>
<pdfrwt beam="2">  1       -1 0.10982144E+00 0.38681605E+03</pdfrwt>
<totfact> 0.52418839E+00</totfact>
</mgrwt>
</event>
<event>
 4    1  0.4964158E-009  0.1185582E+04  0.7818608E-02  0.9125571E-01
          1   -1    0    0  501    0  0.00000000000E+00  0.00000000000E+00  0.20266205268E+04  0.20266205268E+04  0.50400000000E-02 0. -1.
         -1   -1    0    0    0  501 -0.00000000000E+00 -0.00000000000E+00 -0.12216652929E+04  0.12216652930E+04  0.50400000000E-02 0.  1.
    8880022    1    1    2    0    0  0.11103491095E+04 -0.38644193836E+03  0.14703124263E+04  0.18887622403E+04  0.15294330000E+03 0.  0.
    8880022    1    1    2    0    0 -0.11103491095E+04  0.38644193836E+03 -0.66535719237E+03  0.13595235795E+04  0.15294330000E+03 0.  0.
<mgrwt>
<rscale>  0 0.11855818E+04</rscale>
<asrwt>0</asrwt>
<pdfrwt beam="1">  1        1 0.31178777E+00 0.11855818E+04</pdfrwt>
<pdfrwt beam="2">  1       -1 0.18794851E+00 0.11855818E+04</pdfrwt>
<totfact> 0.51378665E-01</totfact>
</mgrwt>
</event>
<event>
 4    1  0.4964158E-009  0.1103724E+04  0.7818608E-02  0.9201570E-01
          1   -1    0    0  501    0  0.00000000000E+00  0.00000000000E+00  0.25790258132E+04  0.25790258132E+04  0.50400000000E-02 0. -1.
         -1   -1    0    0    0  501 -0.00000000000E+00 -0.00000000000E+00 -0.97457971544E+03  0.97457971545E+03  0.50400000000E-02 0.  1.
    8880022    1    1    2    0    0 -0.91749793465E+03  0.59414885181E+03 -0.47327866849E+03  0.12009161791E+04  0.15294330000E+03 0.  0.
    8880022    1    1    2    0    0  0.91749793465E+03 -0.59414885181E+03  0.20777247663E+04  0.23526893496E+04  0.15294330000E+03 0.  0.
<mgrwt>
<rscale>  0 0.11037241E+04</rscale>
<asrwt>0</asrwt>
<pdfrwt beam="1">  1        1 0.39677319E+00 0.11037241E+04</pdfrwt>
<pdfrwt beam="2">  1       -1 0.14993534E+00 0.11037241E+04</pdfrwt>
<totfact> 0.41783479E-01</totfact>
</mgrwt>
</event>
<event>
 4    1  0.4964158E-009  0.8424137E+03  0.7818608E-02  0.9500576E-01
          1   -1    0    0  501    0  0.00000000000E+00  0.00000000000E+00  0.73025758528E+03  0.73025758530E+03  0.50400000000E-02 0. -1.
         -1   -1    0    0    0  501 -0.00000000000E+00 -0.00000000000E+00 -0.15406976576E+04  0.15406976576E+04  0.50400000000E-02 0.  1.
    8880022    1    1    2    0    0 -0.54929759161E+03 -0.62011404398E+03 -0.10952035538E+04  0.13817133382E+04  0.15294330000E+03 0.  0.
    8880022    1    1    2    0    0  0.54929759161E+03  0.62011404398E+03  0.28476348148E+03  0.88924190471E+03  0.15294330000E+03 0.  0.
<mgrwt>
<rscale>  0 0.84241375E+03</rscale>
<asrwt>0</asrwt>
<pdfrwt beam="1">  1        1 0.11234732E+00 0.84241375E+03</pdfrwt>
<pdfrwt beam="2">  1       -1 0.23703041E+00 0.84241375E+03</pdfrwt>
<totfact> 0.22275788E+00</totfact>
</mgrwt>
</event>
<event>
 4    1  0.4964158E-009  0.8104259E+03  0.7818608E-02  0.9545048E-01
          1   -1    0    0  501    0  0.00000000000E+00  0.00000000000E+00  0.23362118247E+04  0.23362118247E+04  0.50400000000E-02 0. -1.
         -1   -1    0    0    0  501 -0.00000000000E+00 -0.00000000000E+00 -0.28883144887E+03  0.28883144892E+03  0.50400000000E-02 0.  1.
    8880022    1    1    2    0    0 -0.72173463061E+03 -0.33540654031E+03  0.12379493980E+04  0.14796313018E+04  0.15294330000E+03 0.  0.
    8880022    1    1    2    0    0  0.72173463061E+03  0.33540654031E+03  0.80943097789E+03  0.11454119719E+04  0.15294330000E+03 0.  0.
<mgrwt>
<rscale>  0 0.81042586E+03</rscale>
<asrwt>0</asrwt>
<pdfrwt beam="1">  1        1 0.35941720E+00 0.81042586E+03</pdfrwt>
<pdfrwt beam="2">  1       -1 0.44435607E-01 0.81042586E+03</pdfrwt>
<totfact> 0.91807992E+00</totfact>
</mgrwt>
</event>
<event>
 4    1  0.4964158E-009  0.7932516E+03  0.7818608E-02  0.9569837E-01
         -1   -1    0    0    0  501 -0.00000000000E+00  0.00000000000E+00  0.55124029407E+03  0.55124029409E+03  0.50400000000E-02 0.  1.
          1   -1    0    0  501    0  0.00000000000E+00 -0.00000000000E+00 -0.29551595330E+04  0.29551595330E+04  0.50400000000E-02 0. -1.
    8880022    1    1    2    0    0  0.73119238762E+03  0.26685991566E+03 -0.25754235345E+04  0.26948199489E+04  0.15294330000E+03 0.  0.
    8880022    1    1    2    0    0 -0.73119238762E+03 -0.26685991566E+03  0.17150429550E+03  0.81157987819E+03  0.15294330000E+03 0.  0.
<mgrwt>
<rscale>  0 0.79325165E+03</rscale>
<asrwt>0</asrwt>
<pdfrwt beam="1">  1        1 0.45463992E+00 0.79325165E+03</pdfrwt>
<pdfrwt beam="2">  1       -1 0.84806201E-01 0.79325165E+03</pdfrwt>
<totfact> 0.94678953E-01</totfact>
</mgrwt>
</event>
<event>
 4    1  0.4964158E-009  0.7945838E+03  0.7818608E-02  0.9567890E-01
          1   -1    0    0  501    0  0.00000000000E+00  0.00000000000E+00  0.12799414687E+04  0.12799414687E+04  0.50400000000E-02 0. -1.
         -1   -1    0    0    0  501 -0.00000000000E+00 -0.00000000000E+00 -0.18020817939E+04  0.18020817939E+04  0.50400000000E-02 0.  1.
    8880022    1    1    2    0    0  0.56459768642E+03 -0.53777431787E+03 -0.15743473490E+04  0.17635002106E+04  0.15294330000E+03 0.  0.
    8880022    1    1    2    0    0 -0.56459768642E+03  0.53777431787E+03  0.10522070238E+04  0.13185230519E+04  0.15294330000E+03 0.  0.
<mgrwt>
<rscale>  0 0.79458380E+03</rscale>
<asrwt>0</asrwt>
<pdfrwt beam="1">  1        1 0.19691407E+00 0.79458380E+03</pdfrwt>
<pdfrwt beam="2">  1       -1 0.27724335E+00 0.79458380E+03</pdfrwt>
<totfact> 0.45628441E-01</totfact>
</mgrwt>
</event>
<event>
 4    1  0.4964158E-009  0.7962574E+03  0.7818608E-02  0.9565450E-01
          1   -1    0    0  501    0  0.00000000000E+00  0.00000000000E+00  0.30911163308E+04  0.30911163308E+04  0.50400000000E-02 0. -1.
         -1   -1    0    0    0  501 -0.00000000000E+00 -0.00000000000E+00 -0.47517320996E+03  0.47517320998E+03  0.50400000000E-02 0.  1.
    8880022    1    1    2    0    0 -0.74758634891E+03  0.22748362553E+03 -0.36314020199E+02  0.79708500804E+03  0.15294330000E+03 0.  0.
    8880022    1    1    2    0    0  0.74758634891E+03 -0.22748362553E+03  0.26522571410E+04  0.27692045327E+04  0.15294330000E+03 0.  0.
<mgrwt>
<rscale>  0 0.79625737E+03</rscale>
<asrwt>0</asrwt>
<pdfrwt beam="1">  1        1 0.47555634E+00 0.79625737E+03</pdfrwt>
<pdfrwt beam="2">  1       -1 0.73103574E-01 0.79625737E+03</pdfrwt>
<totfact> 0.10339685E+00</totfact>
</mgrwt>
</event>
<event>
 4    1  0.4964158E-009  0.4281418E+03  0.7818608E-02  0.1034449E+00
         -1   -1    0    0    0  501 -0.00000000000E+00  0.00000000000E+00  0.38373129388E+03  0.38373129391E+03  0.50400000000E-02 0.  1.
          1   -1    0    0  501    0  0.00000000000E+00 -0.00000000000E+00 -0.18888563089E+04  0.18888563089E+04  0.50400000000E-02 0. -1.
    8880022    1    1    2    0    0  0.38398474409E+03 -0.11166691311E+03 -0.17347173044E+04  0.17867707078E+04  0.15294330000E+03 0.  0.
    8880022    1    1    2    0    0 -0.38398474409E+03  0.11166691311E+03  0.22959228932E+03  0.48581689504E+03  0.15294330000E+03 0.  0.
<mgrwt>
<rscale>  0 0.42814184E+03</rscale>
<asrwt>0</asrwt>
<pdfrwt beam="1">  1        1 0.29059327E+00 0.42814184E+03</pdfrwt>
<pdfrwt beam="2">  1       -1 0.59035585E-01 0.42814184E+03</pdfrwt>
<totfact> 0.11494204E+01</totfact>
</mgrwt>
</event>
<event>
 4    1  0.4964158E-009  0.2678058E+03  0.7818608E-02  0.1102542E+00
         -1   -1    0    0    0  501 -0.00000000000E+00  0.00000000000E+00  0.31607333871E+03  0.31607333875E+03  0.50400000000E-02 0.  1.
          1   -1    0    0  501    0  0.00000000000E+00 -0.00000000000E+00 -0.18858590277E+04  0.18858590277E+04  0.50400000000E-02 0. -1.
    8880022    1    1    2    0    0  0.19400528619E+03 -0.10339350682E+03 -0.18175020779E+04  0.18371264857E+04  0.15294330000E+03 0.  0.
    8880022    1    1    2    0    0 -0.19400528619E+03  0.10339350682E+03  0.24771638886E+03  0.36480588078E+03  0.15294330000E+03 0.  0.
<mgrwt>
<rscale>  0 0.26780575E+03</rscale>
<asrwt>0</asrwt>
<pdfrwt beam="1">  1        1 0.29013215E+00 0.26780575E+03</pdfrwt>
<pdfrwt beam="2">  1       -1 0.48626669E-01 0.26780575E+03</pdfrwt>
<totfact> 0.17604617E+01</totfact>
</mgrwt>
</event>
<event>
 4    1  0.4964158E-009  0.2358538E+03  0.7818608E-02  0.1122586E+00
          1   -1    0    0  501    0  0.00000000000E+00  0.00000000000E+00  0.13532400381E+04  0.13532400381E+04  0.50400000000E-02 0. -1.
         -1   -1    0    0    0  501 -0.00000000000E+00 -0.00000000000E+00 -0.10751103926E+03  0.10751103938E+03  0.50400000000E-02 0.  1.
    8880022    1    1    2    0    0  0.17826908443E+03 -0.21342698845E+02  0.48855888141E+02  0.24086080644E+03  0.15294330000E+03 0.  0.
    8880022    1    1    2    0    0 -0.17826908443E+03  0.21342698845E+02  0.11968731107E+04  0.12198902710E+04  0.15294330000E+03 0. -1.
<mgrwt>
<rscale>  0 0.23585383E+03</rscale>
<asrwt>0</asrwt>
<pdfrwt beam="1">  1        1 0.20819077E+00 0.23585383E+03</pdfrwt>
<pdfrwt beam="2">  1       -1 0.16540160E-01 0.23585383E+03</pdfrwt>
<totfact> 0.24975409E+02</totfact>
</mgrwt>
</event>
<event>
 4    1  0.4964158E-009  0.7254830E+03  0.7818608E-02  0.9674619E-01
          1   -1    0    0  501    0  0.00000000000E+00  0.00000000000E+00  0.11612371071E+04  0.11612371071E+04  0.50400000000E-02 0. -1.
         -1   -1    0    0    0  501 -0.00000000000E+00 -0.00000000000E+00 -0.82011870042E+03  0.82011870044E+03  0.50400000000E-02 0.  1.
    8880022    1    1    2    0    0  0.45096468366E+03 -0.54732507899E+03  0.83316020628E+03  0.11047540316E+04  0.15294330000E+03 0.  0.
    8880022    1    1    2    0    0 -0.45096468366E+03  0.54732507899E+03 -0.49204179961E+03  0.87660177593E+03  0.15294330000E+03 0.  0.
<mgrwt>
<rscale>  0 0.72548297E+03</rscale>
<asrwt>0</asrwt>
<pdfrwt beam="1">  1        1 0.17865186E+00 0.72548297E+03</pdfrwt>
<pdfrwt beam="2">  1       -1 0.12617211E+00 0.72548297E+03</pdfrwt>
<totfact> 0.64909033E+00</totfact>
</mgrwt>
</event>
<event>
 4    1  0.4964158E-009  0.7882225E+03  0.7818608E-02  0.9577223E-01
         -1   -1    0    0    0  501 -0.00000000000E+00  0.00000000000E+00  0.47988010593E+03  0.47988010596E+03  0.50400000000E-02 0.  1.
          1   -1    0    0  501    0  0.00000000000E+00 -0.00000000000E+00 -0.32767523954E+04  0.32767523954E+04  0.50400000000E-02 0. -1.
    8880022    1    1    2    0    0  0.75428504562E+03  0.17016806672E+03 -0.28592868774E+04  0.29659427171E+04  0.15294330000E+03 0.  0.
    8880022    1    1    2    0    0 -0.75428504562E+03 -0.17016806672E+03  0.62414588000E+02  0.79068978417E+03  0.15294330000E+03 0.  0.
<mgrwt>
<rscale>  0 0.78822253E+03</rscale>
<asrwt>0</asrwt>
<pdfrwt beam="1">  1        1 0.50411574E+00 0.78822253E+03</pdfrwt>
<pdfrwt beam="2">  1       -1 0.73827711E-01 0.78822253E+03</pdfrwt>
<totfact> 0.74090147E-01</totfact>
</mgrwt>
</event>
<event>
 4    1  0.4964158E-009  0.6074576E+03  0.7818608E-02  0.9890054E-01
          1   -1    0    0  501    0  0.00000000000E+00  0.00000000000E+00  0.83956680920E+03  0.83956680922E+03  0.50400000000E-02 0. -1.
         -1   -1    0    0    0  501 -0.00000000000E+00 -0.00000000000E+00 -0.54546781594E+03  0.54546781596E+03  0.50400000000E-02 0.  1.
    8880022    1    1    2    0    0 -0.29445416924E+03  0.50883178967E+03  0.45225772016E+03  0.75732539005E+03  0.15294330000E+03 0.  0.
    8880022    1    1    2    0    0  0.29445416924E+03 -0.50883178967E+03 -0.15815872690E+03  0.62770923513E+03  0.15294330000E+03 0.  0.
<mgrwt>
<rscale>  0 0.60745757E+03</rscale>
<asrwt>0</asrwt>
<pdfrwt beam="1">  1        1 0.12916412E+00 0.60745757E+03</pdfrwt>
<pdfrwt beam="2">  1       -1 0.83918126E-01 0.60745757E+03</pdfrwt>
<totfact> 0.30021067E+01</totfact>
</mgrwt>
</event>
<event>
 4    1  0.4964158E-009  0.9671890E+03  0.7818608E-02  0.9345282E-01
         -1   -1    0    0    0  501 -0.00000000000E+00  0.00000000000E+00  0.83923747919E+03  0.83923747921E+03  0.50400000000E-02 0.  1.
          1   -1    0    0  501    0  0.00000000000E+00 -0.00000000000E+00 -0.16786702394E+04  0.16786702394E+04  0.50400000000E-02 0. -1.
    8880022    1    1    2    0    0  0.33628592882E+03  0.89385386073E+03 -0.11494681026E+04  0.15022421650E+04  0.15294330000E+03 0.  0.
    8880022    1    1    2    0    0 -0.33628592882E+03 -0.89385386073E+03  0.31003534242E+03  0.10156655536E+04  0.15294330000E+03 0.  0.
<mgrwt>
<rscale>  0 0.96718902E+03</rscale>
<asrwt>0</asrwt>
<pdfrwt beam="1">  1        1 0.25825696E+00 0.96718902E+03</pdfrwt>
<pdfrwt beam="2">  1       -1 0.12911346E+00 0.96718902E+03</pdfrwt>
<totfact> 0.25730132E+00</totfact>
</mgrwt>
</event>
<event>
 4    1  0.4964158E-009  0.1656073E+03  0.7818608E-02  0.1182508E+00
          1   -1    0    0  501    0  0.00000000000E+00  0.00000000000E+00  0.18723548307E+04  0.18723548307E+04  0.50400000000E-02 0. -1.
         -1   -1    0    0    0  501 -0.00000000000E+00 -0.00000000000E+00 -0.66395231451E+02  0.66395231642E+02  0.50400000000E-02 0.  1.
    8880022    1    1    2    0    0  0.24103939469E+01  0.63468881227E+02  0.47188146676E+02  0.17219896366E+03  0.15294330000E+03 0.  1.
    8880022    1    1    2    0    0 -0.24103939469E+01 -0.63468881227E+02  0.17587714525E+04  0.17665510987E+04  0.15294330000E+03 0.  0.
<mgrwt>
<rscale>  0 0.16560725E+03</rscale>
<asrwt>0</asrwt>
<pdfrwt beam="1">  1        1 0.28805460E+00 0.16560725E+03</pdfrwt>
<pdfrwt beam="2">  1       -1 0.10214651E-01 0.16560725E+03</pdfrwt>
<totfact> 0.24797084E+02</totfact>
</mgrwt>
</event>
<event>
 4    1  0.4964158E-009  0.4175273E+03  0.7818608E-02  0.1037874E+00
         -1   -1    0    0    0  501 -0.00000000000E+00  0.00000000000E+00  0.46970362603E+03  0.46970362605E+03  0.50400000000E-02 0.  1.
          1   -1    0    0  501    0  0.00000000000E+00 -0.00000000000E+00 -0.18063162465E+04  0.18063162465E+04  0.50400000000E-02 0. -1.
    8880022    1    1    2    0    0 -0.16376817713E+03 -0.35230293947E+03  0.34607383396E+03  0.54230630511E+03  0.15294330000E+03 0.  0.
    8880022    1    1    2    0    0  0.16376817713E+03  0.35230293947E+03 -0.16826864544E+04  0.17337135674E+04  0.15294330000E+03 0. -1.
<mgrwt>
<rscale>  0 0.41752728E+03</rscale>
<asrwt>0</asrwt>
<pdfrwt beam="1">  1        1 0.27789480E+00 0.41752728E+03</pdfrwt>
<pdfrwt beam="2">  1       -1 0.72262097E-01 0.41752728E+03</pdfrwt>
<totfact> 0.87396293E+00</totfact>
</mgrwt>
</event>
<event>
 4    1  0.4964158E-009  0.8493458E+03  0.7818608E-02  0.9491215E-01
         -1   -1    0    0    0  501 -0.00000000000E+00  0.00000000000E+00  0.21860528016E+04  0.21860528016E+04  0.50400000000E-02 0.  1.
          1   -1    0    0  501    0  0.00000000000E+00 -0.00000000000E+00 -0.11296250583E+04  0.11296250583E+04  0.50400000000E-02 0. -1.
    8880022    1    1    2    0    0 -0.51911101817E+03 -0.65461471600E+03  0.19230381640E+04  0.21022521515E+04  0.15294330000E+03 0.  0.
    8880022    1    1    2    0    0  0.51911101817E+03  0.65461471600E+03 -0.86661042065E+03  0.12134257084E+04  0.15294330000E+03 0.  0.
<mgrwt>
<rscale>  0 0.84934582E+03</rscale>
<asrwt>0</asrwt>
<pdfrwt beam="1">  1        1 0.17378847E+00 0.84934582E+03</pdfrwt>
<pdfrwt beam="2">  1       -1 0.33631581E+00 0.84934582E+03</pdfrwt>
<totfact> 0.24182212E-01</totfact>
</mgrwt>
</event>
<event>
 4    1  0.4964158E-009  0.1161915E+04  0.7818608E-02  0.9146861E-01
          1   -1    0    0  501    0  0.00000000000E+00  0.00000000000E+00  0.11027155762E+04  0.11027155762E+04  0.50400000000E-02 0. -1.
         -1   -1    0    0    0  501 -0.00000000000E+00 -0.00000000000E+00 -0.16847175517E+04  0.16847175517E+04  0.50400000000E-02 0.  1.
    8880022    1    1    2    0    0 -0.11383870816E+04  0.17530091494E+03  0.43760047902E+03  0.12415882532E+04  0.15294330000E+03 0.  0.
    8880022    1    1    2    0    0  0.11383870816E+04 -0.17530091494E+03 -0.10196024545E+04  0.15458448747E+04  0.15294330000E+03 0.  0.
<mgrwt>
<rscale>  0 0.11619153E+04</rscale>
<asrwt>0</asrwt>
<pdfrwt beam="1">  1        1 0.16964855E+00 0.11619153E+04</pdfrwt>
<pdfrwt beam="2">  1       -1 0.25918732E+00 0.11619153E+04</pdfrwt>
<totfact> 0.75641640E-01</totfact>
</mgrwt>
</event>
<event>
 4    1  0.4964158E-009  0.3183667E+03  0.7818608E-02  0.1076403E+00
         -1   -1    0    0    0  501 -0.00000000000E+00  0.00000000000E+00  0.11150353549E+04  0.11150353549E+04  0.50400000000E-02 0.  1.
          1   -1    0    0  501    0  0.00000000000E+00 -0.00000000000E+00 -0.12137746794E+04  0.12137746794E+04  0.50400000000E-02 0. -1.
    8880022    1    1    2    0    0  0.95738693292E+01 -0.27905918958E+03 -0.11693246455E+04  0.12118900403E+04  0.15294330000E+03 0.  0.
    8880022    1    1    2    0    0 -0.95738693292E+01  0.27905918958E+03  0.10705853210E+04  0.11169199939E+04  0.15294330000E+03 0.  0.
<mgrwt>
<rscale>  0 0.31836668E+03</rscale>
<asrwt>0</asrwt>
<pdfrwt beam="1">  1        1 0.18673457E+00 0.31836668E+03</pdfrwt>
<pdfrwt beam="2">  1       -1 0.17154390E+00 0.31836668E+03</pdfrwt>
<totfact> 0.29338396E+00</totfact>
</mgrwt>
</event>
<event>
 4    1  0.4964158E-009  0.1262010E+04  0.7818608E-02  0.9060246E-01
         -1   -1    0    0    0  501 -0.00000000000E+00  0.00000000000E+00  0.20036873364E+04  0.20036873364E+04  0.50400000000E-02 0.  1.
          1   -1    0    0  501    0  0.00000000000E+00 -0.00000000000E+00 -0.29800979899E+04  0.29800979899E+04  0.50400000000E-02 0. -1.
    8880022    1    1    2    0    0 -0.60532589237E+03 -0.10967489752E+04 -0.26220485761E+04  0.29099498516E+04  0.15294330000E+03 0.  0.
    8880022    1    1    2    0    0  0.60532589237E+03  0.10967489752E+04  0.16456379227E+04  0.20738354747E+04  0.15294330000E+03 0.  0.
<mgrwt>
<rscale>  0 0.12620101E+04</rscale>
<asrwt>0</asrwt>
<pdfrwt beam="1">  1        1 0.45847662E+00 0.12620101E+04</pdfrwt>
<pdfrwt beam="2">  1       -1 0.30825959E+00 0.12620101E+04</pdfrwt>
<totfact> 0.17756447E-02</totfact>
</mgrwt>
</event>
<event>
 4    1  0.4964158E-009  0.8863426E+03  0.7818608E-02  0.9442817E-01
          1   -1    0    0  501    0  0.00000000000E+00  0.00000000000E+00  0.16203500051E+04  0.16203500051E+04  0.50400000000E-02 0. -1.
         -1   -1    0    0    0  501 -0.00000000000E+00 -0.00000000000E+00 -0.57666868761E+03  0.57666868763E+03  0.50400000000E-02 0.  1.
    8880022    1    1    2    0    0 -0.38335202988E+03 -0.78438050533E+03  0.96021022424E+03  0.13067543318E+04  0.15294330000E+03 0.  0.
    8880022    1    1    2    0    0  0.38335202988E+03  0.78438050533E+03  0.83471093267E+02  0.89026436095E+03  0.15294330000E+03 0.  0.
<mgrwt>
<rscale>  0 0.88634260E+03</rscale>
<asrwt>0</asrwt>
<pdfrwt beam="1">  1        1 0.24928461E+00 0.88634260E+03</pdfrwt>
<pdfrwt beam="2">  1       -1 0.88718261E-01 0.88634260E+03</pdfrwt>
<totfact> 0.68806768E+00</totfact>
</mgrwt>
</event>
<event>
 4    1  0.4964158E-009  0.1000966E+04  0.7818608E-02  0.9307486E-01
         -1   -1    0    0    0  501 -0.00000000000E+00  0.00000000000E+00  0.14974408447E+04  0.14974408447E+04  0.50400000000E-02 0.  1.
          1   -1    0    0  501    0  0.00000000000E+00 -0.00000000000E+00 -0.37076690543E+04  0.37076690543E+04  0.50400000000E-02 0. -1.
    8880022    1    1    2    0    0 -0.39633105650E+03 -0.90634567344E+03 -0.34611626336E+04  0.36029958667E+04  0.15294330000E+03 0.  0.
    8880022    1    1    2    0    0  0.39633105650E+03  0.90634567344E+03  0.12509344241E+04  0.16021140323E+04  0.15294330000E+03 0.  0.
<mgrwt>
<rscale>  0 0.10009658E+04</rscale>
<asrwt>0</asrwt>
<pdfrwt beam="1">  1        1 0.57041062E+00 0.10009658E+04</pdfrwt>
<pdfrwt beam="2">  1       -1 0.23037552E+00 0.10009658E+04</pdfrwt>
<totfact> 0.16741219E-02</totfact>
</mgrwt>
</event>
<event>
 4    1  0.4964158E-009  0.2170767E+04  0.7818608E-02  0.8530695E-01
         -1   -1    0    0    0  501 -0.00000000000E+00  0.00000000000E+00  0.36931984376E+04  0.36931984376E+04  0.50400000000E-02 0.  1.
          1   -1    0    0  501    0  0.00000000000E+00 -0.00000000000E+00 -0.19994503125E+04  0.19994503125E+04  0.50400000000E-02 0. -1.
    8880022    1    1    2    0    0 -0.13301299608E+04  0.17086813335E+04  0.25590845928E+04  0.33557626880E+04  0.15294330000E+03 0.  0.
    8880022    1    1    2    0    0  0.13301299608E+04 -0.17086813335E+04 -0.86533646767E+03  0.23368860621E+04  0.15294330000E+03 0.  0.
<mgrwt>
<rscale>  0 0.21707670E+04</rscale>
<asrwt>0</asrwt>
<pdfrwt beam="1">  1        1 0.30760775E+00 0.21707670E+04</pdfrwt>
<pdfrwt beam="2">  1       -1 0.56818437E+00 0.21707670E+04</pdfrwt>
<totfact> 0.15389258E-03</totfact>
</mgrwt>
</event>
<event>
 4    1  0.4964158E-009  0.7373718E+03  0.7818608E-02  0.9655373E-01
         -1   -1    0    0    0  501 -0.00000000000E+00  0.00000000000E+00  0.91358966759E+03  0.91358966761E+03  0.50400000000E-02 0.  1.
          1   -1    0    0  501    0  0.00000000000E+00 -0.00000000000E+00 -0.21184586829E+04  0.21184586830E+04  0.50400000000E-02 0. -1.
    8880022    1    1    2    0    0 -0.31976382510E+03  0.64658845213E+03  0.68312142541E+03  0.10051726544E+04  0.15294330000E+03 0.  1.
    8880022    1    1    2    0    0  0.31976382510E+03 -0.64658845213E+03 -0.18879904408E+04  0.20268756962E+04  0.15294330000E+03 0.  0.
<mgrwt>
<rscale>  0 0.73737181E+03</rscale>
<asrwt>0</asrwt>
<pdfrwt beam="1">  1        1 0.32591672E+00 0.73737181E+03</pdfrwt>
<pdfrwt beam="2">  1       -1 0.14055226E+00 0.73737181E+03</pdfrwt>
<totfact> 0.10916963E+00</totfact>
</mgrwt>
</event>
<event>
 4    1  0.4964158E-009  0.5257756E+03  0.7818608E-02  0.1007262E+00
          1   -1    0    0  501    0  0.00000000000E+00  0.00000000000E+00  0.16083133402E+04  0.16083133402E+04  0.50400000000E-02 0. -1.
         -1   -1    0    0    0  501 -0.00000000000E+00 -0.00000000000E+00 -0.22624040115E+03  0.22624040120E+03  0.50400000000E-02 0.  1.
    8880022    1    1    2    0    0  0.29519890591E+03 -0.40731555442E+03  0.24141301163E+03  0.57855012758E+03  0.15294330000E+03 0.  0.
    8880022    1    1    2    0    0 -0.29519890591E+03  0.40731555442E+03  0.11406599274E+04  0.12560036139E+04  0.15294330000E+03 0.  0.
<mgrwt>
<rscale>  0 0.52577563E+03</rscale>
<asrwt>0</asrwt>
<pdfrwt beam="1">  1        1 0.24743281E+00 0.52577563E+03</pdfrwt>
<pdfrwt beam="2">  1       -1 0.34806217E-01 0.52577563E+03</pdfrwt>
<totfact> 0.45832158E+01</totfact>
</mgrwt>
</event>
<event>
 4    1  0.4964158E-009  0.2266639E+03  0.7818608E-02  0.1129010E+00
         -1   -1    0    0    0  501 -0.00000000000E+00  0.00000000000E+00  0.21415464569E+03  0.21415464575E+03  0.50400000000E-02 0.  1.
          1   -1    0    0  501    0  0.00000000000E+00 -0.00000000000E+00 -0.10538779149E+04  0.10538779149E+04  0.50400000000E-02 0. -1.
    8880022    1    1    2    0    0  0.16679375938E+03 -0.12834470195E+02 -0.97706089126E+03  0.10030077368E+04  0.15294330000E+03 0.  0.
    8880022    1    1    2    0    0 -0.16679375938E+03  0.12834470195E+02  0.13733762210E+03  0.26502482384E+03  0.15294330000E+03 0.  0.
<mgrwt>
<rscale>  0 0.22666392E+03</rscale>
<asrwt>0</asrwt>
<pdfrwt beam="1">  1        1 0.16213506E+00 0.22666392E+03</pdfrwt>
<pdfrwt beam="2">  1       -1 0.32946869E-01 0.22666392E+03</pdfrwt>
<totfact> 0.12950403E+02</totfact>
</mgrwt>
</event>
<event>
 4    1  0.4964158E-009  0.2323255E+03  0.7818608E-02  0.1125014E+00
         -1   -1    0    0    0  501 -0.00000000000E+00  0.00000000000E+00  0.31816905880E+03  0.31816905884E+03  0.50400000000E-02 0.  1.
          1   -1    0    0  501    0  0.00000000000E+00 -0.00000000000E+00 -0.96682215917E+03  0.96682215918E+03  0.50400000000E-02 0. -1.
    8880022    1    1    2    0    0 -0.16198703142E+03  0.65906717722E+02 -0.90773785482E+03  0.93699688360E+03  0.15294330000E+03 0.  0.
    8880022    1    1    2    0    0  0.16198703142E+03 -0.65906717722E+02  0.25908475445E+03  0.34799433442E+03  0.15294330000E+03 0.  0.
<mgrwt>
<rscale>  0 0.23232552E+03</rscale>
<asrwt>0</asrwt>
<pdfrwt beam="1">  1        1 0.14874187E+00 0.23232552E+03</pdfrwt>
<pdfrwt beam="2">  1       -1 0.48949087E-01 0.23232552E+03</pdfrwt>
<totfact> 0.74239563E+01</totfact>
</mgrwt>
</event>
<event>
 4    1  0.4964158E-009  0.6040174E+03  0.7818608E-02  0.9897106E-01
         -1   -1    0    0    0  501 -0.00000000000E+00  0.00000000000E+00  0.71971796379E+03  0.71971796381E+03  0.50400000000E-02 0.  1.
          1   -1    0    0  501    0  0.00000000000E+00 -0.00000000000E+00 -0.58092363814E+03  0.58092363816E+03  0.50400000000E-02 0. -1.
    8880022    1    1    2    0    0  0.50776330786E+03 -0.28917422197E+03  0.30151297452E+03  0.67509038971E+03  0.15294330000E+03 0.  0.
    8880022    1    1    2    0    0 -0.50776330786E+03  0.28917422197E+03 -0.16271864887E+03  0.62555121226E+03  0.15294330000E+03 0.  0.
<mgrwt>
<rscale>  0 0.60401735E+03</rscale>
<asrwt>0</asrwt>
<pdfrwt beam="1">  1        1 0.89372867E-01 0.60401735E+03</pdfrwt>
<pdfrwt beam="2">  1       -1 0.11072584E+00 0.60401735E+03</pdfrwt>
<totfact> 0.28084210E+01</totfact>
</mgrwt>
</event>
<event>
 4    1  0.4964158E-009  0.1095706E+04  0.7818608E-02  0.9209388E-01
          1   -1    0    0  501    0  0.00000000000E+00  0.00000000000E+00  0.24200171817E+04  0.24200171817E+04  0.50400000000E-02 0. -1.
         -1   -1    0    0    0  501 -0.00000000000E+00 -0.00000000000E+00 -0.51749658857E+03  0.51749658860E+03  0.50400000000E-02 0.  1.
    8880022    1    1    2    0    0 -0.29876787086E+03  0.10430325809E+04  0.12499134017E+04  0.16621836151E+04  0.15294330000E+03 0.  0.
    8880022    1    1    2    0    0  0.29876787086E+03 -0.10430325809E+04  0.65260719142E+03  0.12753301552E+04  0.15294330000E+03 0.  0.
<mgrwt>
<rscale>  0 0.10957056E+04</rscale>
<asrwt>0</asrwt>
<pdfrwt beam="1">  1        1 0.37231034E+00 0.10957056E+04</pdfrwt>
<pdfrwt beam="2">  1       -1 0.79614858E-01 0.10957056E+04</pdfrwt>
<totfact> 0.24357018E+00</totfact>
</mgrwt>
</event>
<event>
 4    1  0.4964158E-009  0.1037269E+04  0.7818608E-02  0.9268587E-01
         -1   -1    0    0    0  501 -0.00000000000E+00  0.00000000000E+00  0.32503038523E+04  0.32503038523E+04  0.50400000000E-02 0.  1.
          1   -1    0    0  501    0  0.00000000000E+00 -0.00000000000E+00 -0.11174938506E+04  0.11174938506E+04  0.50400000000E-02 0. -1.
    8880022    1    1    2    0    0 -0.10231797831E+04 -0.75092229723E+02  0.28985130876E+04  0.30785232634E+04  0.15294330000E+03 0.  0.
    8880022    1    1    2    0    0  0.10231797831E+04  0.75092229723E+02 -0.76570308591E+03  0.12892744395E+04  0.15294330000E+03 0.  0.
<mgrwt>
<rscale>  0 0.10372692E+04</rscale>
<asrwt>0</asrwt>
<pdfrwt beam="1">  1        1 0.17192213E+00 0.10372692E+04</pdfrwt>
<pdfrwt beam="2">  1       -1 0.50004675E+00 0.10372692E+04</pdfrwt>
<totfact> 0.18535544E-02</totfact>
</mgrwt>
</event>
<event>
 4    1  0.4964158E-009  0.1334748E+04  0.7818608E-02  0.9002455E-01
          1   -1    0    0  501    0  0.00000000000E+00  0.00000000000E+00  0.28227227599E+04  0.28227227599E+04  0.50400000000E-02 0. -1.
         -1   -1    0    0    0  501 -0.00000000000E+00 -0.00000000000E+00 -0.90594960949E+03  0.90594960950E+03  0.50400000000E-02 0.  1.
    8880022    1    1    2    0    0  0.10446359564E+04 -0.81663719151E+03 -0.68406303738E+02  0.13364997790E+04  0.15294330000E+03 0.  0.
    8880022    1    1    2    0    0 -0.10446359564E+04  0.81663719151E+03  0.19851794542E+04  0.23921725904E+04  0.15294330000E+03 0.  0.
<mgrwt>
<rscale>  0 0.13347480E+04</rscale>
<asrwt>0</asrwt>
<pdfrwt beam="1">  1        1 0.43426503E+00 0.13347480E+04</pdfrwt>
<pdfrwt beam="2">  1       -1 0.13937686E+00 0.13347480E+04</pdfrwt>
<totfact> 0.33103062E-01</totfact>
</mgrwt>
</event>
<event>
 4    1  0.4964158E-009  0.5118958E+03  0.7818608E-02  0.1010720E+00
          1   -1    0    0  501    0  0.00000000000E+00  0.00000000000E+00  0.81096581755E+03  0.81096581756E+03  0.50400000000E-02 0. -1.
         -1   -1    0    0    0  501 -0.00000000000E+00 -0.00000000000E+00 -0.36694421008E+03  0.36694421012E+03  0.50400000000E-02 0.  1.
    8880022    1    1    2    0    0 -0.10128474448E+03  0.47789861343E+03  0.42555137614E+03  0.66568108800E+03  0.15294330000E+03 0.  0.
    8880022    1    1    2    0    0  0.10128474448E+03 -0.47789861343E+03  0.18470231329E+02  0.51222893967E+03  0.15294330000E+03 0.  0.
<mgrwt>
<rscale>  0 0.51189583E+03</rscale>
<asrwt>0</asrwt>
<pdfrwt beam="1">  1        1 0.12476397E+00 0.51189583E+03</pdfrwt>
<pdfrwt beam="2">  1       -1 0.56452955E-01 0.51189583E+03</pdfrwt>
<totfact> 0.71839708E+01</totfact>
</mgrwt>
</event>
<event>
 4    1  0.4964158E-009  0.2088338E+04  0.7818608E-02  0.8566398E-01
         -1   -1    0    0    0  501 -0.00000000000E+00  0.00000000000E+00  0.17637121072E+04  0.17637121072E+04  0.50400000000E-02 0.  1.
          1   -1    0    0  501    0  0.00000000000E+00 -0.00000000000E+00 -0.35211402668E+04  0.35211402668E+04  0.50400000000E-02 0. -1.
    8880022    1    1    2    0    0 -0.19219708315E+04 -0.80236728002E+03  0.56316888799E+03  0.21629415106E+04  0.15294330000E+03 0.  0.
    8880022    1    1    2    0    0  0.19219708315E+04  0.80236728002E+03 -0.23205970476E+04  0.31219108634E+04  0.15294330000E+03 0.  0.
<mgrwt>
<rscale>  0 0.20883383E+04</rscale>
<asrwt>0</asrwt>
<pdfrwt beam="1">  1        1 0.54171389E+00 0.20883383E+04</pdfrwt>
<pdfrwt beam="2">  1       -1 0.27134032E+00 0.20883383E+04</pdfrwt>
<totfact> 0.10695785E-02</totfact>
</mgrwt>
</event>
<event>
 4    1  0.4964158E-009  0.3723966E+03  0.7818608E-02  0.1053780E+00
         -1   -1    0    0    0  501 -0.00000000000E+00  0.00000000000E+00  0.68383238741E+03  0.68383238743E+03  0.50400000000E-02 0.  1.
          1   -1    0    0  501    0  0.00000000000E+00 -0.00000000000E+00 -0.35197831558E+03  0.35197831561E+03  0.50400000000E-02 0. -1.
    8880022    1    1    2    0    0 -0.58072139944E+01 -0.33949055038E+03 -0.17124344550E+03  0.40988233454E+03  0.15294330000E+03 0.  0.
    8880022    1    1    2    0    0  0.58072139944E+01  0.33949055038E+03  0.50309751733E+03  0.62592836849E+03  0.15294330000E+03 0.  0.
<mgrwt>
<rscale>  0 0.37239658E+03</rscale>
<asrwt>0</asrwt>
<pdfrwt beam="1">  1        1 0.54150511E-01 0.37239658E+03</pdfrwt>
<pdfrwt beam="2">  1       -1 0.10520498E+00 0.37239658E+03</pdfrwt>
<totfact> 0.63852271E+01</totfact>
</mgrwt>
</event>
<event>
 4    1  0.4964158E-009  0.2771456E+03  0.7818608E-02  0.1097258E+00
         -1   -1    0    0    0  501 -0.00000000000E+00  0.00000000000E+00  0.17594620748E+03  0.17594620756E+03  0.50400000000E-02 0.  1.
          1   -1    0    0  501    0  0.00000000000E+00 -0.00000000000E+00 -0.15938603017E+04  0.15938603017E+04  0.50400000000E-02 0. -1.
    8880022    1    1    2    0    0 -0.12136315798E+03 -0.19669530241E+03  0.45084289548E+02  0.28078871823E+03  0.15294330000E+03 0.  1.
    8880022    1    1    2    0    0  0.12136315798E+03  0.19669530241E+03 -0.14629983837E+04  0.14890177910E+04  0.15294330000E+03 0.  0.
<mgrwt>
<rscale>  0 0.27714565E+03</rscale>
<asrwt>0</asrwt>
<pdfrwt beam="1">  1        1 0.24520927E+00 0.27714565E+03</pdfrwt>
<pdfrwt beam="2">  1       -1 0.27068648E-01 0.27714565E+03</pdfrwt>
<totfact> 0.76224300E+01</totfact>
</mgrwt>
</event>
<event>
 4    1  0.4964158E-009  0.3182018E+03  0.7818608E-02  0.1076480E+00
         -1   -1    0    0    0  501 -0.00000000000E+00  0.00000000000E+00  0.32047990928E+03  0.32047990932E+03  0.50400000000E-02 0.  1.
          1   -1    0    0  501    0  0.00000000000E+00 -0.00000000000E+00 -0.42765135192E+03  0.42765135195E+03  0.50400000000E-02 0. -1.
    8880022    1    1    2    0    0 -0.20241685606E+03  0.19206287483E+03 -0.24476981946E+03  0.40145317166E+03  0.15294330000E+03 0.  0.
    8880022    1    1    2    0    0  0.20241685606E+03 -0.19206287483E+03  0.13759837681E+03  0.34667808961E+03  0.15294330000E+03 0.  1.
<mgrwt>
<rscale>  0 0.31820180E+03</rscale>
<asrwt>0</asrwt>
<pdfrwt beam="1">  1        1 0.65792516E-01 0.31820180E+03</pdfrwt>
<pdfrwt beam="2">  1       -1 0.49304601E-01 0.31820180E+03</pdfrwt>
<totfact> 0.23517092E+02</totfact>
</mgrwt>
</event>
<event>
 4    1  0.4964158E-009  0.1397637E+04  0.7818608E-02  0.8955531E-01
         -1   -1    0    0    0  501 -0.00000000000E+00  0.00000000000E+00  0.18667859530E+04  0.18667859530E+04  0.50400000000E-02 0.  1.
          1   -1    0    0  501    0  0.00000000000E+00 -0.00000000000E+00 -0.13301369706E+04  0.13301369707E+04  0.50400000000E-02 0. -1.
    8880022    1    1    2    0    0 -0.11011464312E+04  0.84703827419E+03  0.10065999913E+04  0.17223915049E+04  0.15294330000E+03 0.  0.
    8880022    1    1    2    0    0  0.11011464312E+04 -0.84703827419E+03 -0.46995100892E+03  0.14745314187E+04  0.15294330000E+03 0.  0.
<mgrwt>
<rscale>  0 0.13976369E+04</rscale>
<asrwt>0</asrwt>
<pdfrwt beam="1">  1        1 0.20463646E+00 0.13976369E+04</pdfrwt>
<pdfrwt beam="2">  1       -1 0.28719784E+00 0.13976369E+04</pdfrwt>
<totfact> 0.32982335E-01</totfact>
</mgrwt>
</event>
<event>
 4    1  0.4964158E-009  0.7733630E+03  0.7818608E-02  0.9599394E-01
          1   -1    0    0  501    0  0.00000000000E+00  0.00000000000E+00  0.12186693258E+04  0.12186693259E+04  0.50400000000E-02 0. -1.
         -1   -1    0    0    0  501 -0.00000000000E+00 -0.00000000000E+00 -0.19925392839E+04  0.19925392839E+04  0.50400000000E-02 0.  1.
    8880022    1    1    2    0    0 -0.83342902303E+02  0.75349361121E+03 -0.17808497344E+04  0.19415241670E+04  0.15294330000E+03 0.  0.
    8880022    1    1    2    0    0  0.83342902303E+02 -0.75349361121E+03  0.10069797763E+04  0.12696844428E+04  0.15294330000E+03 0.  0.
<mgrwt>
<rscale>  0 0.77336299E+03</rscale>
<asrwt>0</asrwt>
<pdfrwt beam="1">  1        1 0.18748759E+00 0.77336299E+03</pdfrwt>
<pdfrwt beam="2">  1       -1 0.30654451E+00 0.77336299E+03</pdfrwt>
<totfact> 0.32939054E-01</totfact>
</mgrwt>
</event>
<event>
 4    1  0.4964158E-009  0.7553995E+03  0.7818608E-02  0.9626917E-01
          1   -1    0    0  501    0  0.00000000000E+00  0.00000000000E+00  0.27576160440E+04  0.27576160440E+04  0.50400000000E-02 0. -1.
         -1   -1    0    0    0  501 -0.00000000000E+00 -0.00000000000E+00 -0.23487944809E+03  0.23487944814E+03  0.50400000000E-02 0.  1.
    8880022    1    1    2    0    0 -0.73876066582E+03 -0.38333403275E+02  0.17775253734E+04  0.19313790092E+04  0.15294330000E+03 0.  0.
    8880022    1    1    2    0    0  0.73876066582E+03  0.38333403275E+02  0.74521122250E+03  0.10611164829E+04  0.15294330000E+03 0.  0.
<mgrwt>
<rscale>  0 0.75539951E+03</rscale>
<asrwt>0</asrwt>
<pdfrwt beam="1">  1        1 0.42424863E+00 0.75539951E+03</pdfrwt>
<pdfrwt beam="2">  1       -1 0.36135299E-01 0.75539951E+03</pdfrwt>
<totfact> 0.69358906E+00</totfact>
</mgrwt>
</event>
<event>
 4    1  0.4964158E-009  0.7498378E+03  0.7818608E-02  0.9635605E-01
          1   -1    0    0  501    0  0.00000000000E+00  0.00000000000E+00  0.28587439552E+04  0.28587439552E+04  0.50400000000E-02 0. -1.
         -1   -1    0    0    0  501 -0.00000000000E+00 -0.00000000000E+00 -0.31113190795E+03  0.31113190799E+03  0.50400000000E-02 0.  1.
    8880022    1    1    2    0    0 -0.60739728337E+03  0.41223000431E+03  0.31252091865E+03  0.81235830389E+03  0.15294330000E+03 0.  0.
    8880022    1    1    2    0    0  0.60739728337E+03 -0.41223000431E+03  0.22350911286E+04  0.23575175593E+04  0.15294330000E+03 0.  0.
<mgrwt>
<rscale>  0 0.74983778E+03</rscale>
<asrwt>0</asrwt>
<pdfrwt beam="1">  1        1 0.43980677E+00 0.74983778E+03</pdfrwt>
<pdfrwt beam="2">  1       -1 0.47866446E-01 0.74983778E+03</pdfrwt>
<totfact> 0.35225159E+00</totfact>
</mgrwt>
</event>
<event>
 4    1  0.4964158E-009  0.7251929E+03  0.7818608E-02  0.9675093E-01
          1   -1    0    0  501    0  0.00000000000E+00  0.00000000000E+00  0.20486700563E+04  0.20486700563E+04  0.50400000000E-02 0. -1.
         -1   -1    0    0    0  501 -0.00000000000E+00 -0.00000000000E+00 -0.47077446393E+03  0.47077446396E+03  0.50400000000E-02 0.  1.
    8880022    1    1    2    0    0 -0.46596762086E+03 -0.53421651750E+03  0.16384123499E+04  0.17917309487E+04  0.15294330000E+03 0.  0.
    8880022    1    1    2    0    0  0.46596762086E+03  0.53421651750E+03 -0.60516757530E+02  0.72771357155E+03  0.15294330000E+03 0.  0.
<mgrwt>
<rscale>  0 0.72519292E+03</rscale>
<asrwt>0</asrwt>
<pdfrwt beam="1">  1        1 0.31518001E+00 0.72519292E+03</pdfrwt>
<pdfrwt beam="2">  1       -1 0.72426840E-01 0.72519292E+03</pdfrwt>
<totfact> 0.56006875E+00</totfact>
</mgrwt>
</event>
<event>
 4    1  0.4964158E-009  0.9704010E+03  0.7818608E-02  0.9341618E-01
         -1   -1    0    0    0  501 -0.00000000000E+00  0.00000000000E+00  0.92071970967E+03  0.92071970969E+03  0.50400000000E-02 0.  1.
          1   -1    0    0  501    0  0.00000000000E+00 -0.00000000000E+00 -0.31757994622E+04  0.31757994622E+04  0.50400000000E-02 0. -1.
    8880022    1    1    2    0    0 -0.68305477505E+03  0.67210315954E+03  0.55895157413E+03  0.11198682949E+04  0.15294330000E+03 0.  0.
    8880022    1    1    2    0    0  0.68305477505E+03 -0.67210315954E+03 -0.28140313266E+04  0.29766508769E+04  0.15294330000E+03 0.  0.
<mgrwt>
<rscale>  0 0.97040102E+03</rscale>
<asrwt>0</asrwt>
<pdfrwt beam="1">  1        1 0.48858453E+00 0.97040102E+03</pdfrwt>
<pdfrwt beam="2">  1       -1 0.14164919E+00 0.97040102E+03</pdfrwt>
<totfact> 0.18694562E-01</totfact>
</mgrwt>
</event>
<event>
 4    1  0.4964158E-009  0.2229800E+04  0.7818608E-02  0.8506126E-01
          1   -1    0    0  501    0  0.00000000000E+00  0.00000000000E+00  0.27275442808E+04  0.27275442808E+04  0.50400000000E-02 0. -1.
         -1   -1    0    0    0  501 -0.00000000000E+00 -0.00000000000E+00 -0.23061738324E+04  0.23061738325E+04  0.50400000000E-02 0.  1.
    8880022    1    1    2    0    0  0.15925272310E+04 -0.15532134685E+04  0.13628512816E+04  0.26133063978E+04  0.15294330000E+03 0.  0.
    8880022    1    1    2    0    0 -0.15925272310E+04  0.15532134685E+04 -0.94148083321E+03  0.24204117155E+04  0.15294330000E+03 0.  0.
<mgrwt>
<rscale>  0 0.22297997E+04</rscale>
<asrwt>0</asrwt>
<pdfrwt beam="1">  1        1 0.41962220E+00 0.22297997E+04</pdfrwt>
<pdfrwt beam="2">  1       -1 0.35479598E+00 0.22297997E+04</pdfrwt>
<totfact> 0.11679895E-02</totfact>
</mgrwt>
</event>
<event>
 4    1  0.4964158E-009  0.1200739E+04  0.7818608E-02  0.9112210E-01
         -1   -1    0    0    0  501 -0.00000000000E+00  0.00000000000E+00  0.75847728010E+03  0.75847728012E+03  0.50400000000E-02 0.  1.
          1   -1    0    0  501    0  0.00000000000E+00 -0.00000000000E+00 -0.28876079613E+04  0.28876079613E+04  0.50400000000E-02 0. -1.
    8880022    1    1    2    0    0 -0.10120883550E+04 -0.62774226307E+03  0.11133100781E+01  0.12007398052E+04  0.15294330000E+03 0.  0.
    8880022    1    1    2    0    0  0.10120883550E+04  0.62774226307E+03 -0.21302439912E+04  0.24453454362E+04  0.15294330000E+03 0.  0.
<mgrwt>
<rscale>  0 0.12007393E+04</rscale>
<asrwt>0</asrwt>
<pdfrwt beam="1">  1        1 0.44424737E+00 0.12007393E+04</pdfrwt>
<pdfrwt beam="2">  1       -1 0.11668881E+00 0.12007393E+04</pdfrwt>
<totfact> 0.47467886E-01</totfact>
</mgrwt>
</event>
<event>
 4    1  0.4964158E-009  0.1260018E+04  0.7818608E-02  0.9061886E-01
         -1   -1    0    0    0  501 -0.00000000000E+00  0.00000000000E+00  0.13165003695E+04  0.13165003695E+04  0.50400000000E-02 0.  1.
          1   -1    0    0  501    0  0.00000000000E+00 -0.00000000000E+00 -0.20307574731E+04  0.20307574731E+04  0.50400000000E-02 0. -1.
    8880022    1    1    2    0    0  0.12454774802E+04  0.11419007277E+03 -0.14237348017E+04  0.19012274890E+04  0.15294330000E+03 0.  0.
    8880022    1    1    2    0    0 -0.12454774802E+04 -0.11419007277E+03  0.70947769809E+03  0.14460303536E+04  0.15294330000E+03 0.  0.
<mgrwt>
<rscale>  0 0.12600179E+04</rscale>
<asrwt>0</asrwt>
<pdfrwt beam="1">  1        1 0.31242423E+00 0.12600179E+04</pdfrwt>
<pdfrwt beam="2">  1       -1 0.20253852E+00 0.12600179E+04</pdfrwt>
<totfact> 0.39974543E-01</totfact>
</mgrwt>
</event>
<event>
 4    1  0.4964158E-009  0.4766231E+03  0.7818608E-02  0.1020067E+00
          1   -1    0    0  501    0  0.00000000000E+00  0.00000000000E+00  0.10127934796E+04  0.10127934797E+04  0.50400000000E-02 0. -1.
         -1   -1    0    0    0  501 -0.00000000000E+00 -0.00000000000E+00 -0.55292347559E+03  0.55292347562E+03  0.50400000000E-02 0.  1.
    8880022    1    1    2    0    0 -0.97150203415E+02  0.44083986607E+03 -0.37359660659E+03  0.60559394565E+03  0.15294330000E+03 0.  0.
    8880022    1    1    2    0    0  0.97150203415E+02 -0.44083986607E+03  0.83346661065E+03  0.96012300962E+03  0.15294330000E+03 0.  0.
<mgrwt>
<rscale>  0 0.47662312E+03</rscale>
<asrwt>0</asrwt>
<pdfrwt beam="1">  1        1 0.15581438E+00 0.47662312E+03</pdfrwt>
<pdfrwt beam="2">  1       -1 0.85065152E-01 0.47662312E+03</pdfrwt>
<totfact> 0.21673294E+01</totfact>
</mgrwt>
</event>
<event>
 4    1  0.4964158E-009  0.9750426E+03  0.7818608E-02  0.9336349E-01
          1   -1    0    0  501    0  0.00000000000E+00  0.00000000000E+00  0.14763926870E+04  0.14763926870E+04  0.50400000000E-02 0. -1.
         -1   -1    0    0    0  501 -0.00000000000E+00 -0.00000000000E+00 -0.84310918529E+03  0.84310918531E+03  0.50400000000E-02 0.  1.
    8880022    1    1    2    0    0 -0.20013450846E+03 -0.94194616008E+03  0.88032365088E+03  0.13136505522E+04  0.15294330000E+03 0.  0.
    8880022    1    1    2    0    0  0.20013450846E+03  0.94194616008E+03 -0.24704014913E+03  0.10058513202E+04  0.15294330000E+03 0.  0.
<mgrwt>
<rscale>  0 0.97504259E+03</rscale>
<asrwt>0</asrwt>
<pdfrwt beam="1">  1        1 0.22713733E+00 0.97504259E+03</pdfrwt>
<pdfrwt beam="2">  1       -1 0.12970911E+00 0.97504259E+03</pdfrwt>
<totfact> 0.34942930E+00</totfact>
</mgrwt>
</event>
<event>
 4    1  0.4964158E-009  0.4112315E+03  0.7818608E-02  0.1039959E+00
          1   -1    0    0  501    0  0.00000000000E+00  0.00000000000E+00  0.18350136023E+04  0.18350136024E+04  0.50400000000E-02 0. -1.
         -1   -1    0    0    0  501 -0.00000000000E+00 -0.00000000000E+00 -0.28101643587E+03  0.28101643591E+03  0.50400000000E-02 0.  1.
    8880022    1    1    2    0    0 -0.10407064407E+03 -0.36727241967E+03  0.16443479024E+04  0.16949900904E+04  0.15294330000E+03 0.  0.
    8880022    1    1    2    0    0  0.10407064407E+03  0.36727241967E+03 -0.90350735969E+02  0.42103994788E+03  0.15294330000E+03 0.  0.
<mgrwt>
<rscale>  0 0.41123154E+03</rscale>
<asrwt>0</asrwt>
<pdfrwt beam="1">  1        1 0.28230978E+00 0.41123154E+03</pdfrwt>
<pdfrwt beam="2">  1       -1 0.43233298E-01 0.41123154E+03</pdfrwt>
<totfact> 0.22490787E+01</totfact>
</mgrwt>
</event>
<event>
 4    1  0.4964158E-009  0.9800661E+03  0.7818608E-02  0.9330682E-01
          1   -1    0    0  501    0  0.00000000000E+00  0.00000000000E+00  0.22410359020E+04  0.22410359020E+04  0.50400000000E-02 0. -1.
         -1   -1    0    0    0  501 -0.00000000000E+00 -0.00000000000E+00 -0.76639952352E+03  0.76639952354E+03  0.50400000000E-02 0.  1.
    8880022    1    1    2    0    0 -0.78518092960E+03  0.56624089584E+03  0.17356204364E+04  0.19932154416E+04  0.15294330000E+03 0.  0.
    8880022    1    1    2    0    0  0.78518092960E+03 -0.56624089584E+03 -0.26098405793E+03  0.10142199839E+04  0.15294330000E+03 0.  0.
<mgrwt>
<rscale>  0 0.98006607E+03</rscale>
<asrwt>0</asrwt>
<pdfrwt beam="1">  1        1 0.34477475E+00 0.98006607E+03</pdfrwt>
<pdfrwt beam="2">  1       -1 0.11790762E+00 0.98006607E+03</pdfrwt>
<totfact> 0.13430595E+00</totfact>
</mgrwt>
</event>
<event>
 4    1  0.4964158E-009  0.6772569E+03  0.7818608E-02  0.9756936E-01
          1   -1    0    0  501    0  0.00000000000E+00  0.00000000000E+00  0.40957426719E+04  0.40957426719E+04  0.50400000000E-02 0. -1.
         -1   -1    0    0    0  501 -0.00000000000E+00 -0.00000000000E+00 -0.16474743919E+03  0.16474743926E+03  0.50400000000E-02 0.  1.
    8880022    1    1    2    0    0  0.65253391898E+03  0.97389966841E+02  0.75999722193E+03  0.10179748285E+04  0.15294330000E+03 0.  0.
    8880022    1    1    2    0    0 -0.65253391898E+03 -0.97389966841E+02  0.31709980108E+04  0.32425152827E+04  0.15294330000E+03 0.  0.
<mgrwt>
<rscale>  0 0.67725695E+03</rscale>
<asrwt>0</asrwt>
<pdfrwt beam="1">  1        1 0.63011427E+00 0.67725695E+03</pdfrwt>
<pdfrwt beam="2">  1       -1 0.25345760E-01 0.67725695E+03</pdfrwt>
<totfact> 0.12142561E+00</totfact>
</mgrwt>
</event>
<event>
 4    1  0.4964158E-009  0.2553925E+03  0.7818608E-02  0.1109944E+00
          1   -1    0    0  501    0  0.00000000000E+00  0.00000000000E+00  0.86857806892E+03  0.86857806893E+03  0.50400000000E-02 0. -1.
         -1   -1    0    0    0  501 -0.00000000000E+00 -0.00000000000E+00 -0.15147017505E+03  0.15147017514E+03  0.50400000000E-02 0.  1.
    8880022    1    1    2    0    0  0.11381367817E+03  0.16994152405E+03 -0.36098521662E+01  0.25541800834E+03  0.15294330000E+03 0.  0.
    8880022    1    1    2    0    0 -0.11381367817E+03 -0.16994152405E+03  0.72071774603E+03  0.76463023573E+03  0.15294330000E+03 0. -1.
<mgrwt>
<rscale>  0 0.25539250E+03</rscale>
<asrwt>0</asrwt>
<pdfrwt beam="1">  1        1 0.13362740E+00 0.25539250E+03</pdfrwt>
<pdfrwt beam="2">  1       -1 0.23303104E-01 0.25539250E+03</pdfrwt>
<totfact> 0.31986587E+02</totfact>
</mgrwt>
</event>
<event>
 4    1  0.4964158E-009  0.1194988E+04  0.7818608E-02  0.9117255E-01
         -1   -1    0    0    0  501 -0.00000000000E+00  0.00000000000E+00  0.63830315217E+03  0.63830315219E+03  0.50400000000E-02 0.  1.
          1   -1    0    0  501    0  0.00000000000E+00 -0.00000000000E+00 -0.32396148656E+04  0.32396148656E+04  0.50400000000E-02 0. -1.
    8880022    1    1    2    0    0 -0.86103965402E+03  0.81438013855E+03 -0.23792326433E+04  0.26624695152E+04  0.15294330000E+03 0.  0.
    8880022    1    1    2    0    0  0.86103965402E+03 -0.81438013855E+03 -0.22207907014E+03  0.12154485025E+04  0.15294330000E+03 0.  0.
<mgrwt>
<rscale>  0 0.11949878E+04</rscale>
<asrwt>0</asrwt>
<pdfrwt beam="1">  1        1 0.49840228E+00 0.11949878E+04</pdfrwt>
<pdfrwt beam="2">  1       -1 0.98200487E-01 0.11949878E+04</pdfrwt>
<totfact> 0.39451750E-01</totfact>
</mgrwt>
</event>
<event>
 4    1  0.4964158E-009  0.2078299E+03  0.7818608E-02  0.1143296E+00
          1   -1    0    0  501    0  0.00000000000E+00  0.00000000000E+00  0.14512448936E+04  0.14512448936E+04  0.50400000000E-02 0. -1.
         -1   -1    0    0    0  501 -0.00000000000E+00 -0.00000000000E+00 -0.74967498703E+03  0.74967498705E+03  0.50400000000E-02 0.  1.
    8880022    1    1    2    0    0  0.81340843998E+02 -0.11482717120E+03  0.14291789416E+04  0.14442111038E+04  0.15294330000E+03 0.  0.
    8880022    1    1    2    0    0 -0.81340843998E+02  0.11482717120E+03 -0.72760903503E+03  0.75670877688E+03  0.15294330000E+03 0.  1.
<mgrwt>
<rscale>  0 0.20782989E+03</rscale>
<asrwt>0</asrwt>
<pdfrwt beam="1">  1        1 0.22326844E+00 0.20782989E+03</pdfrwt>
<pdfrwt beam="2">  1       -1 0.11533461E+00 0.20782989E+03</pdfrwt>
<totfact> 0.59256026E+00</totfact>
</mgrwt>
</event>
<event>
 4    1  0.4964158E-009  0.5085281E+03  0.7818608E-02  0.1011577E+00
         -1   -1    0    0    0  501 -0.00000000000E+00  0.00000000000E+00  0.94159139328E+03  0.94159139329E+03  0.50400000000E-02 0.  1.
          1   -1    0    0  501    0  0.00000000000E+00 -0.00000000000E+00 -0.49863827830E+03  0.49863827832E+03  0.50400000000E-02 0. -1.
    8880022    1    1    2    0    0  0.29361138739E+03  0.38600718161E+03  0.70412292611E+03  0.86855623833E+03  0.15294330000E+03 0.  0.
    8880022    1    1    2    0    0 -0.29361138739E+03 -0.38600718161E+03 -0.26116981113E+03  0.57167343328E+03  0.15294330000E+03 0.  0.
<mgrwt>
<rscale>  0 0.50852812E+03</rscale>
<asrwt>0</asrwt>
<pdfrwt beam="1">  1        1 0.76713581E-01 0.50852812E+03</pdfrwt>
<pdfrwt beam="2">  1       -1 0.14486021E+00 0.50852812E+03</pdfrwt>
<totfact> 0.18073941E+01</totfact>
</mgrwt>
</event>
<event>
 4    1  0.4964158E-009  0.5801303E+03  0.7818608E-02  0.9947509E-01
         -1   -1    0    0    0  501 -0.00000000000E+00  0.00000000000E+00  0.16047880542E+04  0.16047880542E+04  0.50400000000E-02 0.  1.
          1   -1    0    0  501    0  0.00000000000E+00 -0.00000000000E+00 -0.10175685269E+04  0.10175685270E+04  0.50400000000E-02 0. -1.
    8880022    1    1    2    0    0  0.48074525326E+03  0.28643231201E+03  0.14618864983E+04  0.15727883694E+04  0.15294330000E+03 0.  0.
    8880022    1    1    2    0    0 -0.48074525326E+03 -0.28643231201E+03 -0.87466697106E+03  0.10495682118E+04  0.15294330000E+03 0. -1.
<mgrwt>
<rscale>  0 0.58013026E+03</rscale>
<asrwt>0</asrwt>
<pdfrwt beam="1">  1        1 0.15654900E+00 0.58013026E+03</pdfrwt>
<pdfrwt beam="2">  1       -1 0.24689047E+00 0.58013026E+03</pdfrwt>
<totfact> 0.11696022E+00</totfact>
</mgrwt>
</event>
<event>
 4    1  0.4964158E-009  0.7425196E+03  0.7818608E-02  0.9647160E-01
          1   -1    0    0  501    0  0.00000000000E+00  0.00000000000E+00  0.16126911872E+04  0.16126911872E+04  0.50400000000E-02 0. -1.
         -1   -1    0    0    0  501 -0.00000000000E+00 -0.00000000000E+00 -0.48111996282E+03  0.48111996284E+03  0.50400000000E-02 0.  1.
    8880022    1    1    2    0    0  0.55000605875E+03  0.47480210434E+03  0.11290002075E+04  0.13512870992E+04  0.15294330000E+03 0.  0.
    8880022    1    1    2    0    0 -0.55000605875E+03 -0.47480210434E+03  0.25710169062E+01  0.74252405085E+03  0.15294330000E+03 0.  0.
<mgrwt>
<rscale>  0 0.74251960E+03</rscale>
<asrwt>0</asrwt>
<pdfrwt beam="1">  1        1 0.24810633E+00 0.74251960E+03</pdfrwt>
<pdfrwt beam="2">  1       -1 0.74018457E-01 0.74251960E+03</pdfrwt>
<totfact> 0.10463465E+01</totfact>
</mgrwt>
</event>
<event>
 4    1  0.4964158E-009  0.7165266E+03  0.7818608E-02  0.9689380E-01
         -1   -1    0    0    0  501 -0.00000000000E+00  0.00000000000E+00  0.88224576752E+03  0.88224576754E+03  0.50400000000E-02 0.  1.
          1   -1    0    0  501    0  0.00000000000E+00 -0.00000000000E+00 -0.13884938680E+04  0.13884938680E+04  0.50400000000E-02 0. -1.
    8880022    1    1    2    0    0 -0.65043695342E+03  0.25874784320E+03 -0.11184569228E+04  0.13282907129E+04  0.15294330000E+03 0.  0.
    8880022    1    1    2    0    0  0.65043695342E+03 -0.25874784320E+03  0.61220882231E+03  0.94244892268E+03  0.15294330000E+03 0.  1.
<mgrwt>
<rscale>  0 0.71652657E+03</rscale>
<asrwt>0</asrwt>
<pdfrwt beam="1">  1        1 0.21361444E+00 0.71652657E+03</pdfrwt>
<pdfrwt beam="2">  1       -1 0.13573012E+00 0.71652657E+03</pdfrwt>
<totfact> 0.37273276E+00</totfact>
</mgrwt>
</event>
<event>
 4    1  0.4964158E-009  0.8337874E+03  0.7818608E-02  0.9512359E-01
          1   -1    0    0  501    0  0.00000000000E+00  0.00000000000E+00  0.18900640566E+04  0.18900640566E+04  0.50400000000E-02 0. -1.
         -1   -1    0    0    0  501 -0.00000000000E+00 -0.00000000000E+00 -0.91845665398E+03  0.91845665400E+03  0.50400000000E-02 0.  1.
    8880022    1    1    2    0    0 -0.78707228571E+03 -0.22875087201E+03  0.15731084161E+04  0.17804132908E+04  0.15294330000E+03 0.  0.
    8880022    1    1    2    0    0  0.78707228571E+03  0.22875087201E+03 -0.60150101347E+03  0.10281074198E+04  0.15294330000E+03 0.  0.
<mgrwt>
<rscale>  0 0.83378738E+03</rscale>
<asrwt>0</asrwt>
<pdfrwt beam="1">  1        1 0.29077908E+00 0.83378738E+03</pdfrwt>
<pdfrwt beam="2">  1       -1 0.14130103E+00 0.83378738E+03</pdfrwt>
<totfact> 0.15019354E+00</totfact>
</mgrwt>
</event>
<event>
 4    1  0.4964158E-009  0.8531620E+03  0.7818608E-02  0.9486103E-01
         -1   -1    0    0    0  501 -0.00000000000E+00  0.00000000000E+00  0.26823010249E+03  0.26823010254E+03  0.50400000000E-02 0.  1.
          1   -1    0    0  501    0  0.00000000000E+00 -0.00000000000E+00 -0.33333153141E+04  0.33333153141E+04  0.50400000000E-02 0. -1.
    8880022    1    1    2    0    0 -0.11084001495E+03 -0.83199053310E+03 -0.75612451147E+03  0.11400042482E+04  0.15294330000E+03 0.  0.
    8880022    1    1    2    0    0  0.11084001495E+03  0.83199053310E+03 -0.23089607001E+04  0.24615411684E+04  0.15294330000E+03 0.  0.
<mgrwt>
<rscale>  0 0.85316201E+03</rscale>
<asrwt>0</asrwt>
<pdfrwt beam="1">  1        1 0.51281771E+00 0.85316201E+03</pdfrwt>
<pdfrwt beam="2">  1       -1 0.41266172E-01 0.85316201E+03</pdfrwt>
<totfact> 0.20537485E+00</totfact>
</mgrwt>
</event>
<event>
 4    1  0.4964158E-009  0.3603763E+03  0.7818608E-02  0.1058435E+00
          1   -1    0    0  501    0  0.00000000000E+00  0.00000000000E+00  0.88021003165E+03  0.88021003166E+03  0.50400000000E-02 0. -1.
         -1   -1    0    0    0  501 -0.00000000000E+00 -0.00000000000E+00 -0.39765309396E+03  0.39765309399E+03  0.50400000000E-02 0.  1.
    8880022    1    1    2    0    0  0.32502956111E+03  0.28899712397E+02  0.74799557579E+03  0.83028214685E+03  0.15294330000E+03 0.  0.
    8880022    1    1    2    0    0 -0.32502956111E+03 -0.28899712397E+02 -0.26543863810E+03  0.44758097880E+03  0.15294330000E+03 0.  0.
<mgrwt>
<rscale>  0 0.36037628E+03</rscale>
<asrwt>0</asrwt>
<pdfrwt beam="1">  1        1 0.13541693E+00 0.36037628E+03</pdfrwt>
<pdfrwt beam="2">  1       -1 0.61177400E-01 0.36037628E+03</pdfrwt>
<totfact> 0.55163106E+01</totfact>
</mgrwt>
</event>
<event>
 4    1  0.4964158E-009  0.1427091E+04  0.7818608E-02  0.8934439E-01
          1   -1    0    0  501    0  0.00000000000E+00  0.00000000000E+00  0.28942235713E+04  0.28942235713E+04  0.50400000000E-02 0. -1.
         -1   -1    0    0    0  501 -0.00000000000E+00 -0.00000000000E+00 -0.13361386526E+04  0.13361386526E+04  0.50400000000E-02 0.  1.
    8880022    1    1    2    0    0  0.12970024009E+04 -0.57530931042E+03  0.22343010958E+04  0.26511674919E+04  0.15294330000E+03 0.  0.
    8880022    1    1    2    0    0 -0.12970024009E+04  0.57530931042E+03 -0.67621617700E+03  0.15791947320E+04  0.15294330000E+03 0.  0.
<mgrwt>
<rscale>  0 0.14270906E+04</rscale>
<asrwt>0</asrwt>
<pdfrwt beam="1">  1        1 0.44526516E+00 0.14270906E+04</pdfrwt>
<pdfrwt beam="2">  1       -1 0.20555979E+00 0.14270906E+04</pdfrwt>
<totfact> 0.94011035E-02</totfact>
</mgrwt>
</event>
<event>
 4    1  0.4964158E-009  0.5555783E+03  0.7818608E-02  0.1000211E+00
          1   -1    0    0  501    0  0.00000000000E+00  0.00000000000E+00  0.14437637687E+04  0.14437637687E+04  0.50400000000E-02 0. -1.
         -1   -1    0    0    0  501 -0.00000000000E+00 -0.00000000000E+00 -0.11380171910E+04  0.11380171910E+04  0.50400000000E-02 0.  1.
    8880022    1    1    2    0    0  0.35642330659E+03 -0.39779136193E+03  0.13162049655E+04  0.14286576585E+04  0.15294330000E+03 0.  0.
    8880022    1    1    2    0    0 -0.35642330659E+03  0.39779136193E+03 -0.10104583878E+04  0.11531233011E+04  0.15294330000E+03 0.  0.
<mgrwt>
<rscale>  0 0.55557825E+03</rscale>
<asrwt>0</asrwt>
<pdfrwt beam="1">  1        1 0.22211750E+00 0.55557825E+03</pdfrwt>
<pdfrwt beam="2">  1       -1 0.17507957E+00 0.55557825E+03</pdfrwt>
<totfact> 0.17706378E+00</totfact>
</mgrwt>
</event>
<event>
 4    1  0.4964158E-009  0.1169333E+04  0.7818608E-02  0.9140131E-01
         -1   -1    0    0    0  501 -0.00000000000E+00  0.00000000000E+00  0.11293637094E+04  0.11293637094E+04  0.50400000000E-02 0.  1.
          1   -1    0    0  501    0  0.00000000000E+00 -0.00000000000E+00 -0.19350676427E+04  0.19350676427E+04  0.50400000000E-02 0. -1.
    8880022    1    1    2    0    0  0.78772127914E+03  0.85055406303E+03  0.53459467802E+03  0.12857410900E+04  0.15294330000E+03 0.  0.
    8880022    1    1    2    0    0 -0.78772127914E+03 -0.85055406303E+03 -0.13402986114E+04  0.17786902621E+04  0.15294330000E+03 0.  0.
<mgrwt>
<rscale>  0 0.11693326E+04</rscale>
<asrwt>0</asrwt>
<pdfrwt beam="1">  1        1 0.29770271E+00 0.11693326E+04</pdfrwt>
<pdfrwt beam="2">  1       -1 0.17374826E+00 0.11693326E+04</pdfrwt>
<totfact> 0.75100422E-01</totfact>
</mgrwt>
</event>
<event>
 4    1  0.4964158E-009  0.1044941E+04  0.7818608E-02  0.9260583E-01
         -1   -1    0    0    0  501 -0.00000000000E+00  0.00000000000E+00  0.81676203647E+03  0.81676203648E+03  0.50400000000E-02 0.  1.
          1   -1    0    0  501    0  0.00000000000E+00 -0.00000000000E+00 -0.25371905686E+04  0.25371905686E+04  0.50400000000E-02 0. -1.
    8880022    1    1    2    0    0  0.86547002801E+03 -0.56521844425E+03 -0.20136665013E+04  0.22686460038E+04  0.15294330000E+03 0.  0.
    8880022    1    1    2    0    0 -0.86547002801E+03  0.56521844425E+03  0.29323796920E+03  0.10853066012E+04  0.15294330000E+03 0.  0.
<mgrwt>
<rscale>  0 0.10449411E+04</rscale>
<asrwt>0</asrwt>
<pdfrwt beam="1">  1        1 0.39033701E+00 0.10449411E+04</pdfrwt>
<pdfrwt beam="2">  1       -1 0.12565570E+00 0.10449411E+04</pdfrwt>
<totfact> 0.71316824E-01</totfact>
</mgrwt>
</event>
<event>
 4    1  0.4964158E-009  0.5525873E+03  0.7818608E-02  0.1000897E+00
          1   -1    0    0  501    0  0.00000000000E+00  0.00000000000E+00  0.10695324441E+04  0.10695324441E+04  0.50400000000E-02 0. -1.
         -1   -1    0    0    0  501 -0.00000000000E+00 -0.00000000000E+00 -0.61718570634E+03  0.61718570636E+03  0.50400000000E-02 0.  1.
    8880022    1    1    2    0    0  0.52840302541E+03 -0.52453440398E+02  0.84442774534E+03  0.10091635104E+04  0.15294330000E+03 0.  0.
    8880022    1    1    2    0    0 -0.52840302541E+03  0.52453440398E+02 -0.39208100760E+03  0.67755464002E+03  0.15294330000E+03 0.  0.
<mgrwt>
<rscale>  0 0.55258734E+03</rscale>
<asrwt>0</asrwt>
<pdfrwt beam="1">  1        1 0.16454345E+00 0.55258734E+03</pdfrwt>
<pdfrwt beam="2">  1       -1 0.94951648E-01 0.55258734E+03</pdfrwt>
<totfact> 0.15232814E+01</totfact>
</mgrwt>
</event>
<event>
 4    1  0.4964158E-009  0.4022112E+03  0.7818608E-02  0.1043017E+00
         -1   -1    0    0    0  501 -0.00000000000E+00  0.00000000000E+00  0.13266076623E+03  0.13266076633E+03  0.50400000000E-02 0.  1.
          1   -1    0    0  501    0  0.00000000000E+00 -0.00000000000E+00 -0.24162875595E+04  0.24162875595E+04  0.50400000000E-02 0. -1.
    8880022    1    1    2    0    0  0.31152924685E+03  0.20330212543E+03 -0.24485280188E+03  0.47087872478E+03  0.15294330000E+03 0.  0.
    8880022    1    1    2    0    0 -0.31152924685E+03 -0.20330212543E+03 -0.20387739914E+04  0.20780696010E+04  0.15294330000E+03 0. -1.
<mgrwt>
<rscale>  0 0.40221124E+03</rscale>
<asrwt>0</asrwt>
<pdfrwt beam="1">  1        1 0.37173651E+00 0.40221124E+03</pdfrwt>
<pdfrwt beam="2">  1       -1 0.20409350E-01 0.40221124E+03</pdfrwt>
<totfact> 0.34001778E+01</totfact>
</mgrwt>
</event>
<event>
 4    1  0.4964158E-009  0.6914683E+03  0.7818608E-02  0.9731935E-01
          1   -1    0    0  501    0  0.00000000000E+00  0.00000000000E+00  0.28274841068E+04  0.28274841068E+04  0.50400000000E-02 0. -1.
         -1   -1    0    0    0  501 -0.00000000000E+00 -0.00000000000E+00 -0.35324818475E+03  0.35324818479E+03  0.50400000000E-02 0.  1.
    8880022    1    1    2    0    0  0.45394144672E+03  0.49867221088E+03  0.88857269074E+02  0.69715427147E+03  0.15294330000E+03 0.  0.
    8880022    1    1    2    0    0 -0.45394144672E+03 -0.49867221088E+03  0.23853786529E+04  0.24835780201E+04  0.15294330000E+03 0.  0.
<mgrwt>
<rscale>  0 0.69146834E+03</rscale>
<asrwt>0</asrwt>
<pdfrwt beam="1">  1        1 0.43499755E+00 0.69146834E+03</pdfrwt>
<pdfrwt beam="2">  1       -1 0.54345875E-01 0.69146834E+03</pdfrwt>
<totfact> 0.29458967E+00</totfact>
</mgrwt>
</event>
<event>
 4    1  0.4964158E-009  0.2042398E+03  0.7818608E-02  0.1146210E+00
          1   -1    0    0  501    0  0.00000000000E+00  0.00000000000E+00  0.42121058901E+03  0.42121058904E+03  0.50400000000E-02 0. -1.
         -1   -1    0    0    0  501 -0.00000000000E+00 -0.00000000000E+00 -0.11054696696E+03  0.11054696707E+03  0.50400000000E-02 0.  1.
    8880022    1    1    2    0    0 -0.11418324365E+03  0.72693983017E+02  0.69525981943E+02  0.21574926066E+03  0.15294330000E+03 0.  0.
    8880022    1    1    2    0    0  0.11418324365E+03 -0.72693983017E+02  0.24113764011E+03  0.31600829544E+03  0.15294330000E+03 0.  0.
<mgrwt>
<rscale>  0 0.20423976E+03</rscale>
<asrwt>0</asrwt>
<pdfrwt beam="1">  1        1 0.64801629E-01 0.20423976E+03</pdfrwt>
<pdfrwt beam="2">  1       -1 0.17007226E-01 0.20423976E+03</pdfrwt>
<totfact> 0.14805157E+03</totfact>
</mgrwt>
</event>
<event>
 4    1  0.4964158E-009  0.8834476E+03  0.7818608E-02  0.9446513E-01
          1   -1    0    0  501    0  0.00000000000E+00  0.00000000000E+00  0.13207637620E+04  0.13207637620E+04  0.50400000000E-02 0. -1.
         -1   -1    0    0    0  501 -0.00000000000E+00 -0.00000000000E+00 -0.68072461842E+03  0.68072461844E+03  0.50400000000E-02 0.  1.
    8880022    1    1    2    0    0  0.56675267804E+03 -0.66021161988E+03  0.68348341480E+03  0.11169732371E+04  0.15294330000E+03 0.  0.
    8880022    1    1    2    0    0 -0.56675267804E+03  0.66021161988E+03 -0.43444271222E+02  0.88451514334E+03  0.15294330000E+03 0.  0.
<mgrwt>
<rscale>  0 0.88344758E+03</rscale>
<asrwt>0</asrwt>
<pdfrwt beam="1">  1        1 0.20319442E+00 0.88344758E+03</pdfrwt>
<pdfrwt beam="2">  1       -1 0.10472687E+00 0.88344758E+03</pdfrwt>
<totfact> 0.76245623E+00</totfact>
</mgrwt>
</event>
<event>
 4    1  0.4964158E-009  0.4659781E+03  0.7818608E-02  0.1023062E+00
         -1   -1    0    0    0  501 -0.00000000000E+00  0.00000000000E+00  0.69217395377E+03  0.69217395379E+03  0.50400000000E-02 0.  1.
          1   -1    0    0  501    0  0.00000000000E+00 -0.00000000000E+00 -0.24566506173E+04  0.24566506173E+04  0.50400000000E-02 0. -1.
    8880022    1    1    2    0    0 -0.15495244998E+03  0.41198749745E+03 -0.23526967888E+04  0.23983990062E+04  0.15294330000E+03 0. -1.
    8880022    1    1    2    0    0  0.15495244998E+03 -0.41198749745E+03  0.58822012522E+03  0.75042556496E+03  0.15294330000E+03 0.  0.
<mgrwt>
<rscale>  0 0.46597812E+03</rscale>
<asrwt>0</asrwt>
<pdfrwt beam="1">  1        1 0.37794624E+00 0.46597812E+03</pdfrwt>
<pdfrwt beam="2">  1       -1 0.10648830E+00 0.46597812E+03</pdfrwt>
<totfact> 0.13776659E+00</totfact>
</mgrwt>
</event>
<event>
 4    1  0.4964158E-009  0.1391446E+04  0.7818608E-02  0.8960034E-01
         -1   -1    0    0    0  501 -0.00000000000E+00  0.00000000000E+00  0.17118429436E+04  0.17118429436E+04  0.50400000000E-02 0.  1.
          1   -1    0    0  501    0  0.00000000000E+00 -0.00000000000E+00 -0.16282526329E+04  0.16282526329E+04  0.50400000000E-02 0. -1.
    8880022    1    1    2    0    0 -0.33215805704E+03  0.13425356352E+04  0.96468391859E+03  0.16931443005E+04  0.15294330000E+03 0.  0.
    8880022    1    1    2    0    0  0.33215805704E+03 -0.13425356352E+04 -0.88109360783E+03  0.16469512760E+04  0.15294330000E+03 0.  0.
<mgrwt>
<rscale>  0 0.13914462E+04</rscale>
<asrwt>0</asrwt>
<pdfrwt beam="1">  1        1 0.25050041E+00 0.13914462E+04</pdfrwt>
<pdfrwt beam="2">  1       -1 0.26336045E+00 0.13914462E+04</pdfrwt>
<totfact> 0.29141888E-01</totfact>
</mgrwt>
</event>
<event>
 4    1  0.4964158E-009  0.7193174E+03  0.7818608E-02  0.9684755E-01
         -1   -1    0    0    0  501 -0.00000000000E+00  0.00000000000E+00  0.36881131504E+03  0.36881131508E+03  0.50400000000E-02 0.  1.
          1   -1    0    0  501    0  0.00000000000E+00 -0.00000000000E+00 -0.19546921576E+04  0.19546921576E+04  0.50400000000E-02 0. -1.
    8880022    1    1    2    0    0  0.26233166403E+03 -0.65207976542E+03 -0.17570774653E+03  0.74046660129E+03  0.15294330000E+03 0.  0.
    8880022    1    1    2    0    0 -0.26233166403E+03  0.65207976542E+03 -0.14101730960E+04  0.15830368714E+04  0.15294330000E+03 0.  0.
<mgrwt>
<rscale>  0 0.71931744E+03</rscale>
<asrwt>0</asrwt>
<pdfrwt beam="1">  1        1 0.30072186E+00 0.71931744E+03</pdfrwt>
<pdfrwt beam="2">  1       -1 0.56740204E-01 0.71931744E+03</pdfrwt>
<totfact> 0.10559284E+01</totfact>
</mgrwt>
</event>
<event>
 4    1  0.4964158E-009  0.7669744E+03  0.7818608E-02  0.9609090E-01
          1   -1    0    0  501    0  0.00000000000E+00  0.00000000000E+00  0.14556099156E+04  0.14556099156E+04  0.50400000000E-02 0. -1.
         -1   -1    0    0    0  501 -0.00000000000E+00 -0.00000000000E+00 -0.56577269550E+03  0.56577269553E+03  0.50400000000E-02 0.  1.
    8880022    1    1    2    0    0  0.30422616395E+02  0.75095443139E+03 -0.95314271284E+02  0.77287421805E+03  0.15294330000E+03 0.  0.
    8880022    1    1    2    0    0 -0.30422616395E+02 -0.75095443139E+03  0.98515149138E+03  0.12485083931E+04  0.15294330000E+03 0.  0.
<mgrwt>
<rscale>  0 0.76697441E+03</rscale>
<asrwt>0</asrwt>
<pdfrwt beam="1">  1        1 0.22393999E+00 0.76697441E+03</pdfrwt>
<pdfrwt beam="2">  1       -1 0.87041953E-01 0.76697441E+03</pdfrwt>
<totfact> 0.94557152E+00</totfact>
</mgrwt>
</event>
<event>
 4    1  0.4964158E-009  0.6057406E+03  0.7818608E-02  0.9893567E-01
         -1   -1    0    0    0  501 -0.00000000000E+00  0.00000000000E+00  0.40145967482E+03  0.40145967485E+03  0.50400000000E-02 0.  1.
          1   -1    0    0  501    0  0.00000000000E+00 -0.00000000000E+00 -0.22516268153E+04  0.22516268153E+04  0.50400000000E-02 0. -1.
    8880022    1    1    2    0    0  0.53786369074E+03  0.23287912468E+03 -0.19475421539E+04  0.20395691042E+04  0.15294330000E+03 0.  0.
    8880022    1    1    2    0    0 -0.53786369074E+03 -0.23287912468E+03  0.97375013487E+02  0.61351738589E+03  0.15294330000E+03 0.  0.
<mgrwt>
<rscale>  0 0.60574061E+03</rscale>
<asrwt>0</asrwt>
<pdfrwt beam="1">  1        1 0.34640412E+00 0.60574061E+03</pdfrwt>
<pdfrwt beam="2">  1       -1 0.61763028E-01 0.60574061E+03</pdfrwt>
<totfact> 0.57879009E+00</totfact>
</mgrwt>
</event>
<event>
 4    1  0.4964158E-009  0.5245417E+03  0.7818608E-02  0.1007565E+00
         -1   -1    0    0    0  501 -0.00000000000E+00  0.00000000000E+00  0.10570027651E+04  0.10570027651E+04  0.50400000000E-02 0.  1.
          1   -1    0    0  501    0  0.00000000000E+00 -0.00000000000E+00 -0.68736540497E+03  0.68736540499E+03  0.50400000000E-02 0. -1.
    8880022    1    1    2    0    0 -0.49288027291E+03 -0.93922308170E+02  0.87229625736E+03  0.10178628478E+04  0.15294330000E+03 0.  1.
    8880022    1    1    2    0    0  0.49288027291E+03  0.93922308170E+02 -0.50265889719E+03  0.72650532230E+03  0.15294330000E+03 0.  0.
<mgrwt>
<rscale>  0 0.52454172E+03</rscale>
<asrwt>0</asrwt>
<pdfrwt beam="1">  1        1 0.10574852E+00 0.52454172E+03</pdfrwt>
<pdfrwt beam="2">  1       -1 0.16261581E+00 0.52454172E+03</pdfrwt>
<totfact> 0.83733242E+00</totfact>
</mgrwt>
</event>
<event>
 4    1  0.4964158E-009  0.1093763E+04  0.7818608E-02  0.9211293E-01
         -1   -1    0    0    0  501 -0.00000000000E+00  0.00000000000E+00  0.14398121908E+04  0.14398121908E+04  0.50400000000E-02 0.  1.
          1   -1    0    0  501    0  0.00000000000E+00 -0.00000000000E+00 -0.22081439145E+04  0.22081439145E+04  0.50400000000E-02 0. -1.
    8880022    1    1    2    0    0 -0.55019504869E+03 -0.93285059716E+03 -0.18246680482E+04  0.21273763107E+04  0.15294330000E+03 0.  0.
    8880022    1    1    2    0    0  0.55019504869E+03  0.93285059716E+03  0.10563363245E+04  0.15205797946E+04  0.15294330000E+03 0.  0.
<mgrwt>
<rscale>  0 0.10937625E+04</rscale>
<asrwt>0</asrwt>
<pdfrwt beam="1">  1        1 0.33971445E+00 0.10937625E+04</pdfrwt>
<pdfrwt beam="2">  1       -1 0.22150957E+00 0.10937625E+04</pdfrwt>
<totfact> 0.23132049E-01</totfact>
</mgrwt>
</event>
<event>
 4    1  0.4964158E-009  0.1048907E+04  0.7818608E-02  0.9256473E-01
         -1   -1    0    0    0  501 -0.00000000000E+00  0.00000000000E+00  0.10421441836E+04  0.10421441836E+04  0.50400000000E-02 0.  1.
          1   -1    0    0  501    0  0.00000000000E+00 -0.00000000000E+00 -0.15523176606E+04  0.15523176606E+04  0.50400000000E-02 0. -1.
    8880022    1    1    2    0    0 -0.24886586922E+03 -0.10074125024E+04 -0.98880970151E+03  0.14415097813E+04  0.15294330000E+03 0.  0.
    8880022    1    1    2    0    0  0.24886586922E+03  0.10074125024E+04  0.47863622448E+03  0.11529520629E+04  0.15294330000E+03 0.  0.
<mgrwt>
<rscale>  0 0.10489070E+04</rscale>
<asrwt>0</asrwt>
<pdfrwt beam="1">  1        1 0.23881810E+00 0.10489070E+04</pdfrwt>
<pdfrwt beam="2">  1       -1 0.16032987E+00 0.10489070E+04</pdfrwt>
<totfact> 0.17475949E+00</totfact>
</mgrwt>
</event>
<event>
 4    1  0.4964158E-009  0.6632660E+03  0.7818608E-02  0.9782200E-01
          1   -1    0    0  501    0  0.00000000000E+00  0.00000000000E+00  0.67485614649E+03  0.67485614651E+03  0.50400000000E-02 0. -1.
         -1   -1    0    0    0  501 -0.00000000000E+00 -0.00000000000E+00 -0.84957391841E+03  0.84957391842E+03  0.50400000000E-02 0.  1.
    8880022    1    1    2    0    0  0.59725930420E+03  0.24456385177E+03  0.28032884749E+03  0.72007365581E+03  0.15294330000E+03 0.  0.
    8880022    1    1    2    0    0 -0.59725930420E+03 -0.24456385177E+03 -0.45504661941E+03  0.80435640912E+03  0.15294330000E+03 0.  0.
<mgrwt>
<rscale>  0 0.66326602E+03</rscale>
<asrwt>0</asrwt>
<pdfrwt beam="1">  1        1 0.10382402E+00 0.66326602E+03</pdfrwt>
<pdfrwt beam="2">  1       -1 0.13070368E+00 0.66326602E+03</pdfrwt>
<totfact> 0.14978023E+01</totfact>
</mgrwt>
</event>
<event>
 4    1  0.4964158E-009  0.6926000E+03  0.7818608E-02  0.9729972E-01
         -1   -1    0    0    0  501 -0.00000000000E+00  0.00000000000E+00  0.23630493743E+04  0.23630493743E+04  0.50400000000E-02 0.  1.
          1   -1    0    0  501    0  0.00000000000E+00 -0.00000000000E+00 -0.15030545920E+04  0.15030545920E+04  0.50400000000E-02 0. -1.
    8880022    1    1    2    0    0  0.10327280354E+03  0.66756111000E+03 -0.13677855363E+04  0.15331444921E+04  0.15294330000E+03 0.  0.
    8880022    1    1    2    0    0 -0.10327280354E+03 -0.66756111000E+03  0.22277803185E+04  0.23329594742E+04  0.15294330000E+03 0.  0.
<mgrwt>
<rscale>  0 0.69260000E+03</rscale>
<asrwt>0</asrwt>
<pdfrwt beam="1">  1        1 0.23123917E+00 0.69260000E+03</pdfrwt>
<pdfrwt beam="2">  1       -1 0.36354606E+00 0.69260000E+03</pdfrwt>
<totfact> 0.90769081E-02</totfact>
</mgrwt>
</event>
<event>
 4    1  0.5087804E-009  0.8854012E+03  0.7818608E-02  0.9444017E-01
         -1   -1    0    0    0  501 -0.00000000000E+00  0.00000000000E+00  0.11598713941E+04  0.11598713942E+04  0.50400000000E-02 0.  1.
          1   -1    0    0  501    0  0.00000000000E+00 -0.00000000000E+00 -0.15859932537E+04  0.15859932537E+04  0.50400000000E-02 0. -1.
    8880022    1    1    2    0    0  0.19224919425E+03  0.85063736165E+03  0.82696911045E+03  0.12115334236E+04  0.15294330000E+03 0.  0.
    8880022    1    1    2    0    0 -0.19224919425E+03 -0.85063736165E+03 -0.12530909700E+04  0.15343312243E+04  0.15294330000E+03 0.  0.
<mgrwt>
<rscale>  0 0.88540122E+03</rscale>
<asrwt>0</asrwt>
<pdfrwt beam="1">  1        1 0.24399896E+00 0.88540122E+03</pdfrwt>
<pdfrwt beam="2">  1       -1 0.17844175E+00 0.88540122E+03</pdfrwt>
<totfact> 0.12494707E+00</totfact>
</mgrwt>
</event>
<event>
 4    1  0.4964158E-009  0.4447257E+03  0.7818608E-02  0.1029307E+00
          1   -1    0    0  501    0  0.00000000000E+00  0.00000000000E+00  0.11982789956E+04  0.11982789956E+04  0.50400000000E-02 0. -1.
         -1   -1    0    0    0  501 -0.00000000000E+00 -0.00000000000E+00 -0.13937303678E+04  0.13937303678E+04  0.50400000000E-02 0.  1.
    8880022    1    1    2    0    0 -0.37880279291E+03  0.17577741002E+03 -0.13145725219E+04  0.13877614428E+04  0.15294330000E+03 0.  0.
    8880022    1    1    2    0    0  0.37880279291E+03 -0.17577741002E+03  0.11191211496E+04  0.12042479206E+04  0.15294330000E+03 0.  0.
<mgrwt>
<rscale>  0 0.44472565E+03</rscale>
<asrwt>0</asrwt>
<pdfrwt beam="1">  1        1 0.18435061E+00 0.44472565E+03</pdfrwt>
<pdfrwt beam="2">  1       -1 0.21442006E+00 0.44472565E+03</pdfrwt>
<totfact> 0.14573465E+00</totfact>
</mgrwt>
</event>
<event>
 4    1  0.4964158E-009  0.1052779E+04  0.7818608E-02  0.9252480E-01
          1   -1    0    0  501    0  0.00000000000E+00  0.00000000000E+00  0.21669010810E+04  0.21669010810E+04  0.50400000000E-02 0. -1.
         -1   -1    0    0    0  501 -0.00000000000E+00 -0.00000000000E+00 -0.59548243492E+03  0.59548243494E+03  0.50400000000E-02 0.  1.
    8880022    1    1    2    0    0 -0.25746569850E+03  0.10092880633E+04  0.26697346769E+03  0.10861019593E+04  0.15294330000E+03 0.  0.
    8880022    1    1    2    0    0  0.25746569850E+03 -0.10092880633E+04  0.13044451784E+04  0.16762815566E+04  0.15294330000E+03 0.  0.
<mgrwt>
<rscale>  0 0.10527785E+04</rscale>
<asrwt>0</asrwt>
<pdfrwt beam="1">  1        1 0.33336940E+00 0.10527785E+04</pdfrwt>
<pdfrwt beam="2">  1       -1 0.91612682E-01 0.10527785E+04</pdfrwt>
<totfact> 0.26814007E+00</totfact>
</mgrwt>
</event>
<event>
 4    1  0.4964158E-009  0.6395750E+03  0.7818608E-02  0.9826540E-01
         -1   -1    0    0    0  501 -0.00000000000E+00  0.00000000000E+00  0.10554111398E+04  0.10554111399E+04  0.50400000000E-02 0.  1.
          1   -1    0    0  501    0  0.00000000000E+00 -0.00000000000E+00 -0.85440207994E+03  0.85440207996E+03  0.50400000000E-02 0. -1.
    8880022    1    1    2    0    0  0.16203776467E+03 -0.59950670722E+03  0.80634324475E+03  0.10291965850E+04  0.15294330000E+03 0.  0.
    8880022    1    1    2    0    0 -0.16203776467E+03  0.59950670722E+03 -0.60533418484E+03  0.88061663483E+03  0.15294330000E+03 0.  0.
<mgrwt>
<rscale>  0 0.63957500E+03</rscale>
<asrwt>0</asrwt>
<pdfrwt beam="1">  1        1 0.13144647E+00 0.63957500E+03</pdfrwt>
<pdfrwt beam="2">  1       -1 0.16237094E+00 0.63957500E+03</pdfrwt>
<totfact> 0.58665252E+00</totfact>
</mgrwt>
</event>
<event>
 4    1  0.4964158E-009  0.1021482E+04  0.7818608E-02  0.9285292E-01
         -1   -1    0    0    0  501 -0.00000000000E+00  0.00000000000E+00  0.87397601804E+03  0.87397601806E+03  0.50400000000E-02 0.  1.
          1   -1    0    0  501    0  0.00000000000E+00 -0.00000000000E+00 -0.15747424781E+04  0.15747424781E+04  0.50400000000E-02 0. -1.
    8880022    1    1    2    0    0  0.55411283160E+03  0.84438922356E+03  0.25174085595E+03  0.10520452949E+04  0.15294330000E+03 0.  0.
    8880022    1    1    2    0    0 -0.55411283160E+03 -0.84438922356E+03 -0.95250731604E+03  0.13966732013E+04  0.15294330000E+03 0.  0.
<mgrwt>
<rscale>  0 0.10214822E+04</rscale>
<asrwt>0</asrwt>
<pdfrwt beam="1">  1        1 0.24226807E+00 0.10214822E+04</pdfrwt>
<pdfrwt beam="2">  1       -1 0.13445785E+00 0.10214822E+04</pdfrwt>
<totfact> 0.27118388E+00</totfact>
</mgrwt>
</event>
<event>
 4    1  0.4964158E-009  0.5616431E+03  0.7818608E-02  0.9988344E-01
          1   -1    0    0  501    0  0.00000000000E+00  0.00000000000E+00  0.29685034322E+04  0.29685034323E+04  0.50400000000E-02 0. -1.
         -1   -1    0    0    0  501 -0.00000000000E+00 -0.00000000000E+00 -0.25178618811E+03  0.25178618816E+03  0.50400000000E-02 0.  1.
    8880022    1    1    2    0    0 -0.50818085675E+03 -0.18385723976E+03  0.13426492171E+03  0.57746860520E+03  0.15294330000E+03 0.  0.
    8880022    1    1    2    0    0  0.50818085675E+03  0.18385723976E+03  0.25824523224E+04  0.26428210152E+04  0.15294330000E+03 0. -1.
<mgrwt>
<rscale>  0 0.56164305E+03</rscale>
<asrwt>0</asrwt>
<pdfrwt beam="1">  1        1 0.45669283E+00 0.56164305E+03</pdfrwt>
<pdfrwt beam="2">  1       -1 0.38736337E-01 0.56164305E+03</pdfrwt>
<totfact> 0.45313427E+00</totfact>
</mgrwt>
</event>
<event>
 4    1  0.4964158E-009  0.5276204E+03  0.7818608E-02  0.1006811E+00
         -1   -1    0    0    0  501 -0.00000000000E+00  0.00000000000E+00  0.31051706160E+04  0.31051706160E+04  0.50400000000E-02 0.  1.
          1   -1    0    0  501    0  0.00000000000E+00 -0.00000000000E+00 -0.32675546081E+03  0.32675546085E+03  0.50400000000E-02 0. -1.
    8880022    1    1    2    0    0  0.29605709970E+03  0.40907431782E+03  0.28509333038E+04  0.28993454364E+04  0.15294330000E+03 0.  0.
    8880022    1    1    2    0    0 -0.29605709970E+03 -0.40907431782E+03 -0.72518148548E+02  0.53258064052E+03  0.15294330000E+03 0.  0.
<mgrwt>
<rscale>  0 0.52762037E+03</rscale>
<asrwt>0</asrwt>
<pdfrwt beam="1">  1        1 0.50270070E-01 0.52762037E+03</pdfrwt>
<pdfrwt beam="2">  1       -1 0.47771857E+00 0.52762037E+03</pdfrwt>
<totfact> 0.18532889E-01</totfact>
</mgrwt>
</event>
<event>
 4    1  0.4964158E-009  0.9285404E+03  0.7818608E-02  0.9390591E-01
         -1   -1    0    0    0  501 -0.00000000000E+00  0.00000000000E+00  0.24066239260E+04  0.24066239260E+04  0.50400000000E-02 0.  1.
          1   -1    0    0  501    0  0.00000000000E+00 -0.00000000000E+00 -0.11789139428E+04  0.11789139428E+04  0.50400000000E-02 0. -1.
    8880022    1    1    2    0    0 -0.60145162104E+03  0.69068922488E+03  0.21096234508E+04  0.23049291562E+04  0.15294330000E+03 0.  0.
    8880022    1    1    2    0    0  0.60145162104E+03 -0.69068922488E+03 -0.88191346754E+03  0.12806087127E+04  0.15294330000E+03 0.  0.
<mgrwt>
<rscale>  0 0.92854042E+03</rscale>
<asrwt>0</asrwt>
<pdfrwt beam="1">  1        1 0.18137138E+00 0.92854042E+03</pdfrwt>
<pdfrwt beam="2">  1       -1 0.37024983E+00 0.92854042E+03</pdfrwt>
<totfact> 0.13084143E-01</totfact>
</mgrwt>
</event>
<event>
 4    1  0.4964158E-009  0.5692431E+03  0.7818608E-02  0.9971355E-01
          1   -1    0    0  501    0  0.00000000000E+00  0.00000000000E+00  0.17544426031E+04  0.17544426031E+04  0.50400000000E-02 0. -1.
         -1   -1    0    0    0  501 -0.00000000000E+00 -0.00000000000E+00 -0.11383179299E+04  0.11383179299E+04  0.50400000000E-02 0.  1.
    8880022    1    1    2    0    0  0.54535352887E+03 -0.56882621993E+02  0.16319127487E+04  0.17283451555E+04  0.15294330000E+03 0.  0.
    8880022    1    1    2    0    0 -0.54535352887E+03  0.56882621993E+02 -0.10157880755E+04  0.11644153775E+04  0.15294330000E+03 0.  1.
<mgrwt>
<rscale>  0 0.56924314E+03</rscale>
<asrwt>0</asrwt>
<pdfrwt beam="1">  1        1 0.26991425E+00 0.56924314E+03</pdfrwt>
<pdfrwt beam="2">  1       -1 0.17512584E+00 0.56924314E+03</pdfrwt>
<totfact> 0.10888776E+00</totfact>
</mgrwt>
</event>
<event>
 4    1  0.4964158E-009  0.6061361E+03  0.7818608E-02  0.9892757E-01
         -1   -1    0    0    0  501 -0.00000000000E+00  0.00000000000E+00  0.23168578802E+04  0.23168578802E+04  0.50400000000E-02 0.  1.
          1   -1    0    0  501    0  0.00000000000E+00 -0.00000000000E+00 -0.86932056298E+03  0.86932056299E+03  0.50400000000E-02 0. -1.
    8880022    1    1    2    0    0 -0.47332869632E+03  0.34636576963E+03 -0.71670895664E+03  0.93865471962E+03  0.15294330000E+03 0. -1.
    8880022    1    1    2    0    0  0.47332869632E+03 -0.34636576963E+03  0.21642462739E+04  0.22475237236E+04  0.15294330000E+03 0.  0.
<mgrwt>
<rscale>  0 0.60613609E+03</rscale>
<asrwt>0</asrwt>
<pdfrwt beam="1">  1        1 0.13374163E+00 0.60613609E+03</pdfrwt>
<pdfrwt beam="2">  1       -1 0.35643967E+00 0.60613609E+03</pdfrwt>
<totfact> 0.30221828E-01</totfact>
</mgrwt>
</event>
<event>
 4    1  0.4964158E-009  0.9815500E+03  0.7818608E-02  0.9329015E-01
         -1   -1    0    0    0  501 -0.00000000000E+00  0.00000000000E+00  0.70932522932E+03  0.70932522933E+03  0.50400000000E-02 0.  1.
          1   -1    0    0  501    0  0.00000000000E+00 -0.00000000000E+00 -0.23553429437E+04  0.23553429437E+04  0.50400000000E-02 0. -1.
    8880022    1    1    2    0    0 -0.93448480364E+03  0.25843149898E+03 -0.18200071366E+04  0.20678168000E+04  0.15294330000E+03 0.  0.
    8880022    1    1    2    0    0  0.93448480364E+03 -0.25843149898E+03  0.17398942224E+03  0.99685137306E+03  0.15294330000E+03 0.  0.
<mgrwt>
<rscale>  0 0.98154997E+03</rscale>
<asrwt>0</asrwt>
<pdfrwt beam="1">  1        1 0.36236045E+00 0.98154997E+03</pdfrwt>
<pdfrwt beam="2">  1       -1 0.10912696E+00 0.98154997E+03</pdfrwt>
<totfact> 0.13515626E+00</totfact>
</mgrwt>
</event>
<event>
 4    1  0.4964158E-009  0.4481039E+03  0.7818608E-02  0.1028289E+00
         -1   -1    0    0    0  501 -0.00000000000E+00  0.00000000000E+00  0.52063793826E+03  0.52063793828E+03  0.50400000000E-02 0.  1.
          1   -1    0    0  501    0  0.00000000000E+00 -0.00000000000E+00 -0.73488903976E+03  0.73488903978E+03  0.50400000000E-02 0. -1.
    8880022    1    1    2    0    0  0.39771986273E+03  0.13865194249E+03 -0.53986943269E+03  0.70160965482E+03  0.15294330000E+03 0.  0.
    8880022    1    1    2    0    0 -0.39771986273E+03 -0.13865194249E+03  0.32561833119E+03  0.55391732324E+03  0.15294330000E+03 0.  0.
<mgrwt>
<rscale>  0 0.44810390E+03</rscale>
<asrwt>0</asrwt>
<pdfrwt beam="1">  1        1 0.11305985E+00 0.44810390E+03</pdfrwt>
<pdfrwt beam="2">  1       -1 0.80098144E-01 0.44810390E+03</pdfrwt>
<totfact> 0.41795986E+01</totfact>
</mgrwt>
</event>
<event>
 4    1  0.4964158E-009  0.9022389E+03  0.7818608E-02  0.9422787E-01
          1   -1    0    0  501    0  0.00000000000E+00  0.00000000000E+00  0.14872969706E+04  0.14872969706E+04  0.50400000000E-02 0. -1.
         -1   -1    0    0    0  501 -0.00000000000E+00 -0.00000000000E+00 -0.14852923662E+04  0.14852923662E+04  0.50400000000E-02 0.  1.
    8880022    1    1    2    0    0 -0.48756732288E+03 -0.74358693638E+03  0.11821188891E+04  0.14870911698E+04  0.15294330000E+03 0. -1.
    8880022    1    1    2    0    0  0.48756732288E+03  0.74358693638E+03 -0.11801142847E+04  0.14854981670E+04  0.15294330000E+03 0.  0.
<mgrwt>
<rscale>  0 0.90223893E+03</rscale>
<asrwt>0</asrwt>
<pdfrwt beam="1">  1        1 0.22881492E+00 0.90223893E+03</pdfrwt>
<pdfrwt beam="2">  1       -1 0.22850652E+00 0.90223893E+03</pdfrwt>
<totfact> 0.66143026E-01</totfact>
</mgrwt>
</event>
<event>
 4    1  0.4964158E-009  0.1045956E+04  0.7818608E-02  0.9259529E-01
         -1   -1    0    0    0  501 -0.00000000000E+00  0.00000000000E+00  0.84859553109E+03  0.84859553110E+03  0.50400000000E-02 0.  1.
          1   -1    0    0  501    0  0.00000000000E+00 -0.00000000000E+00 -0.27068994624E+04  0.27068994624E+04  0.50400000000E-02 0. -1.
    8880022    1    1    2    0    0 -0.80677500766E+03 -0.64787911418E+03 -0.22156919635E+04  0.24501664821E+04  0.15294330000E+03 0.  0.
    8880022    1    1    2    0    0  0.80677500766E+03  0.64787911418E+03  0.35738803223E+03  0.11053285114E+04  0.15294330000E+03 0.  0.
<mgrwt>
<rscale>  0 0.10459565E+04</rscale>
<asrwt>0</asrwt>
<pdfrwt beam="1">  1        1 0.41644607E+00 0.10459565E+04</pdfrwt>
<pdfrwt beam="2">  1       -1 0.13055316E+00 0.10459565E+04</pdfrwt>
<totfact> 0.49367257E-01</totfact>
</mgrwt>
</event>
<event>
 4    1  0.4964158E-009  0.9379064E+03  0.7818608E-02  0.9379399E-01
          1   -1    0    0  501    0  0.00000000000E+00  0.00000000000E+00  0.15027365226E+04  0.15027365226E+04  0.50400000000E-02 0. -1.
         -1   -1    0    0    0  501 -0.00000000000E+00 -0.00000000000E+00 -0.89144082732E+03  0.89144082733E+03  0.50400000000E-02 0.  1.
    8880022    1    1    2    0    0  0.69324483171E+03  0.61293415641E+03 -0.39578423177E+03  0.10179948369E+04  0.15294330000E+03 0.  0.
    8880022    1    1    2    0    0 -0.69324483171E+03 -0.61293415641E+03  0.10070799271E+04  0.13761825131E+04  0.15294330000E+03 0.  0.
<mgrwt>
<rscale>  0 0.93790635E+03</rscale>
<asrwt>0</asrwt>
<pdfrwt beam="1">  1        1 0.23119023E+00 0.93790635E+03</pdfrwt>
<pdfrwt beam="2">  1       -1 0.13714475E+00 0.93790635E+03</pdfrwt>
<totfact> 0.29211228E+00</totfact>
</mgrwt>
</event>
<event>
 4    1  0.4964158E-009  0.6058791E+03  0.7818608E-02  0.9893283E-01
          1   -1    0    0  501    0  0.00000000000E+00  0.00000000000E+00  0.43011806115E+03  0.43011806118E+03  0.50400000000E-02 0. -1.
         -1   -1    0    0    0  501 -0.00000000000E+00 -0.00000000000E+00 -0.15753752793E+04  0.15753752793E+04  0.50400000000E-02 0.  1.
    8880022    1    1    2    0    0 -0.23708775485E+03 -0.53617833702E+03 -0.12514283990E+04  0.13903821430E+04  0.15294330000E+03 0.  0.
    8880022    1    1    2    0    0  0.23708775485E+03  0.53617833702E+03  0.10617118092E+03  0.61511119748E+03  0.15294330000E+03 0.  0.
<mgrwt>
<rscale>  0 0.60587908E+03</rscale>
<asrwt>0</asrwt>
<pdfrwt beam="1">  1        1 0.66172010E-01 0.60587908E+03</pdfrwt>
<pdfrwt beam="2">  1       -1 0.24236542E+00 0.60587908E+03</pdfrwt>
<totfact> 0.45318131E+00</totfact>
</mgrwt>
</event>
<event>
 4    1  0.4964158E-009  0.9576945E+03  0.7818608E-02  0.9356202E-01
         -1   -1    0    0    0  501 -0.00000000000E+00  0.00000000000E+00  0.12094385788E+04  0.12094385788E+04  0.50400000000E-02 0.  1.
          1   -1    0    0  501    0  0.00000000000E+00 -0.00000000000E+00 -0.91062064348E+03  0.91062064349E+03  0.50400000000E-02 0. -1.
    8880022    1    1    2    0    0  0.69367399051E+03 -0.64234212738E+03  0.58287618478E+03  0.11211259133E+04  0.15294330000E+03 0.  0.
    8880022    1    1    2    0    0 -0.69367399051E+03  0.64234212738E+03 -0.28405824944E+03  0.99893330899E+03  0.15294330000E+03 0.  0.
<mgrwt>
<rscale>  0 0.95769445E+03</rscale>
<asrwt>0</asrwt>
<pdfrwt beam="1">  1        1 0.14009548E+00 0.95769445E+03</pdfrwt>
<pdfrwt beam="2">  1       -1 0.18606747E+00 0.95769445E+03</pdfrwt>
<totfact> 0.33885823E+00</totfact>
</mgrwt>
</event>
<event>
 4    1  0.4964158E-009  0.3228196E+03  0.7818608E-02  0.1074359E+00
         -1   -1    0    0    0  501 -0.00000000000E+00  0.00000000000E+00  0.35643566526E+03  0.35643566530E+03  0.50400000000E-02 0.  1.
          1   -1    0    0  501    0  0.00000000000E+00 -0.00000000000E+00 -0.32953020613E+03  0.32953020617E+03  0.50400000000E-02 0. -1.
    8880022    1    1    2    0    0  0.20414900752E+03 -0.19784850768E+03  0.12862313367E+03  0.34750023423E+03  0.15294330000E+03 0.  0.
    8880022    1    1    2    0    0 -0.20414900752E+03  0.19784850768E+03 -0.10171767454E+03  0.33846563724E+03  0.15294330000E+03 0.  0.
<mgrwt>
<rscale>  0 0.32281961E+03</rscale>
<asrwt>0</asrwt>
<pdfrwt beam="1">  1        1 0.50696955E-01 0.32281961E+03</pdfrwt>
<pdfrwt beam="2">  1       -1 0.54836256E-01 0.32281961E+03</pdfrwt>
<totfact> 0.26941111E+02</totfact>
</mgrwt>
</event>
<event>
 4    1  0.4964158E-009  0.2158294E+04  0.7818608E-02  0.8535990E-01
         -1   -1    0    0    0  501 -0.00000000000E+00  0.00000000000E+00  0.35875207389E+04  0.35875207389E+04  0.50400000000E-02 0.  1.
          1   -1    0    0  501    0  0.00000000000E+00 -0.00000000000E+00 -0.18541993053E+04  0.18541993054E+04  0.50400000000E-02 0. -1.
    8880022    1    1    2    0    0 -0.15259256322E+04 -0.15186807175E+04  0.23562473549E+04  0.31953299372E+04  0.15294330000E+03 0.  0.
    8880022    1    1    2    0    0  0.15259256322E+04  0.15186807175E+04 -0.62292592137E+03  0.22463901071E+04  0.15294330000E+03 0.  0.
<mgrwt>
<rscale>  0 0.21582937E+04</rscale>
<asrwt>0</asrwt>
<pdfrwt beam="1">  1        1 0.28526144E+00 0.21582937E+04</pdfrwt>
<pdfrwt beam="2">  1       -1 0.55192626E+00 0.21582937E+04</pdfrwt>
<totfact> 0.23494957E-03</totfact>
</mgrwt>
</event>
<event>
 4    1  0.4964158E-009  0.1235478E+04  0.7818608E-02  0.9082358E-01
         -1   -1    0    0    0  501 -0.00000000000E+00  0.00000000000E+00  0.12161174366E+04  0.12161174366E+04  0.50400000000E-02 0.  1.
          1   -1    0    0  501    0  0.00000000000E+00 -0.00000000000E+00 -0.17670117601E+04  0.17670117601E+04  0.50400000000E-02 0. -1.
    8880022    1    1    2    0    0 -0.13362106080E+03  0.12186709033E+04  0.52733989277E+03  0.13433139521E+04  0.15294330000E+03 0.  0.
    8880022    1    1    2    0    0  0.13362106080E+03 -0.12186709033E+04 -0.10782342162E+04  0.16398152446E+04  0.15294330000E+03 0.  0.
<mgrwt>
<rscale>  0 0.12354776E+04</rscale>
<asrwt>0</asrwt>
<pdfrwt beam="1">  1        1 0.27184796E+00 0.12354776E+04</pdfrwt>
<pdfrwt beam="2">  1       -1 0.18709499E+00 0.12354776E+04</pdfrwt>
<totfact> 0.77567058E-01</totfact>
</mgrwt>
</event>
<event>
 4    1  0.4964158E-009  0.1346147E+04  0.7818608E-02  0.8993750E-01
         -1   -1    0    0    0  501 -0.00000000000E+00  0.00000000000E+00  0.17790922680E+04  0.17790922680E+04  0.50400000000E-02 0.  1.
          1   -1    0    0  501    0  0.00000000000E+00 -0.00000000000E+00 -0.13494733269E+04  0.13494733269E+04  0.50400000000E-02 0. -1.
    8880022    1    1    2    0    0  0.83653547761E+02 -0.13348121166E+04  0.98943173365E+03  0.16706549947E+04  0.15294330000E+03 0.  0.
    8880022    1    1    2    0    0 -0.83653547761E+02  0.13348121166E+04 -0.55981279254E+03  0.14579106003E+04  0.15294330000E+03 0.  0.
<mgrwt>
<rscale>  0 0.13461474E+04</rscale>
<asrwt>0</asrwt>
<pdfrwt beam="1">  1        1 0.20761128E+00 0.13461474E+04</pdfrwt>
<pdfrwt beam="2">  1       -1 0.27370650E+00 0.13461474E+04</pdfrwt>
<totfact> 0.39300837E-01</totfact>
</mgrwt>
</event>
<event>
 4    1  0.4964158E-009  0.7707363E+03  0.7818608E-02  0.9603368E-01
         -1   -1    0    0    0  501 -0.00000000000E+00  0.00000000000E+00  0.12209340452E+04  0.12209340452E+04  0.50400000000E-02 0.  1.
          1   -1    0    0  501    0  0.00000000000E+00 -0.00000000000E+00 -0.11581831029E+04  0.11581831030E+04  0.50400000000E-02 0. -1.
    8880022    1    1    2    0    0 -0.51430636466E+03 -0.55329181165E+03 -0.87449512537E+03  0.11656655794E+04  0.15294330000E+03 0.  0.
    8880022    1    1    2    0    0  0.51430636466E+03  0.55329181165E+03  0.93724606767E+03  0.12134515689E+04  0.15294330000E+03 0.  0.
<mgrwt>
<rscale>  0 0.77073635E+03</rscale>
<asrwt>0</asrwt>
<pdfrwt beam="1">  1        1 0.17818202E+00 0.77073635E+03</pdfrwt>
<pdfrwt beam="2">  1       -1 0.18783601E+00 0.77073635E+03</pdfrwt>
<totfact> 0.21831940E+00</totfact>
</mgrwt>
</event>
<event>
 4    1  0.4964158E-009  0.4051417E+03  0.7818608E-02  0.1042014E+00
         -1   -1    0    0    0  501 -0.00000000000E+00  0.00000000000E+00  0.17116249360E+03  0.17116249368E+03  0.50400000000E-02 0.  1.
          1   -1    0    0  501    0  0.00000000000E+00 -0.00000000000E+00 -0.17958117048E+04  0.17958117048E+04  0.50400000000E-02 0. -1.
    8880022    1    1    2    0    0  0.30286769036E+03 -0.22140295229E+03 -0.14836913622E+04  0.15380116438E+04  0.15294330000E+03 0.  0.
    8880022    1    1    2    0    0 -0.30286769036E+03  0.22140295229E+03 -0.14095784905E+03  0.42896255474E+03  0.15294330000E+03 0.  0.
<mgrwt>
<rscale>  0 0.40514165E+03</rscale>
<asrwt>0</asrwt>
<pdfrwt beam="1">  1        1 0.27627871E+00 0.40514165E+03</pdfrwt>
<pdfrwt beam="2">  1       -1 0.26332693E-01 0.40514165E+03</pdfrwt>
<totfact> 0.57010525E+01</totfact>
</mgrwt>
</event>
<event>
 4    1  0.4964158E-009  0.2089647E+03  0.7818608E-02  0.1142388E+00
          1   -1    0    0  501    0  0.00000000000E+00  0.00000000000E+00  0.25788146531E+03  0.25788146536E+03  0.50400000000E-02 0. -1.
         -1   -1    0    0    0  501 -0.00000000000E+00 -0.00000000000E+00 -0.58714027475E+03  0.58714027477E+03  0.50400000000E-02 0.  1.
    8880022    1    1    2    0    0  0.88198259476E+02 -0.11178400856E+03 -0.52104619698E+03  0.56138702332E+03  0.15294330000E+03 0.  1.
    8880022    1    1    2    0    0 -0.88198259476E+02  0.11178400856E+03  0.19178738754E+03  0.28363471681E+03  0.15294330000E+03 0.  0.
<mgrwt>
<rscale>  0 0.20896471E+03</rscale>
<asrwt>0</asrwt>
<pdfrwt beam="1">  1        1 0.39674072E-01 0.20896471E+03</pdfrwt>
<pdfrwt beam="2">  1       -1 0.90329273E-01 0.20896471E+03</pdfrwt>
<totfact> 0.13623800E+02</totfact>
</mgrwt>
</event>
<event>
 4    1  0.4964158E-009  0.1062157E+04  0.7818608E-02  0.9242882E-01
         -1   -1    0    0    0  501 -0.00000000000E+00  0.00000000000E+00  0.31957950553E+04  0.31957950553E+04  0.50400000000E-02 0.  1.
          1   -1    0    0  501    0  0.00000000000E+00 -0.00000000000E+00 -0.64156292059E+03  0.64156292061E+03  0.50400000000E-02 0. -1.
    8880022    1    1    2    0    0  0.54513613614E+03 -0.89867261793E+03  0.25638489004E+04  0.27751574222E+04  0.15294330000E+03 0.  0.
    8880022    1    1    2    0    0 -0.54513613614E+03  0.89867261793E+03 -0.96167656199E+01  0.10622005537E+04  0.15294330000E+03 0.  0.
<mgrwt>
<rscale>  0 0.10621570E+04</rscale>
<asrwt>0</asrwt>
<pdfrwt beam="1">  1        1 0.98701990E-01 0.10621570E+04</pdfrwt>
<pdfrwt beam="2">  1       -1 0.49166077E+00 0.10621570E+04</pdfrwt>
<totfact> 0.52991106E-02</totfact>
</mgrwt>
</event>
<event>
 4    1  0.4964158E-009  0.6035385E+03  0.7818608E-02  0.9898092E-01
          1   -1    0    0  501    0  0.00000000000E+00  0.00000000000E+00  0.14417503876E+04  0.14417503876E+04  0.50400000000E-02 0. -1.
         -1   -1    0    0    0  501 -0.00000000000E+00 -0.00000000000E+00 -0.43631711011E+03  0.43631711014E+03  0.50400000000E-02 0.  1.
    8880022    1    1    2    0    0  0.27207473080E+03  0.51656792576E+03 -0.10653312084E+03  0.61286869712E+03  0.15294330000E+03 0.  0.
    8880022    1    1    2    0    0 -0.27207473080E+03 -0.51656792576E+03  0.11119663983E+04  0.12651988006E+04  0.15294330000E+03 0.  0.
<mgrwt>
<rscale>  0 0.60353851E+03</rscale>
<asrwt>0</asrwt>
<pdfrwt beam="1">  1        1 0.22180775E+00 0.60353851E+03</pdfrwt>
<pdfrwt beam="2">  1       -1 0.67125709E-01 0.60353851E+03</pdfrwt>
<totfact> 0.17083954E+01</totfact>
</mgrwt>
</event>
<event>
 4    1  0.4964158E-009  0.6051345E+03  0.7818608E-02  0.9894810E-01
          1   -1    0    0  501    0  0.00000000000E+00  0.00000000000E+00  0.12299743742E+04  0.12299743742E+04  0.50400000000E-02 0. -1.
         -1   -1    0    0    0  501 -0.00000000000E+00 -0.00000000000E+00 -0.96107301041E+03  0.96107301042E+03  0.50400000000E-02 0.  1.
    8880022    1    1    2    0    0  0.71147412072E+02  0.58114899826E+03  0.10446070047E+04  0.12072247345E+04  0.15294330000E+03 0.  0.
    8880022    1    1    2    0    0 -0.71147412072E+02 -0.58114899826E+03 -0.77570564092E+03  0.98382265007E+03  0.15294330000E+03 0.  0.
<mgrwt>
<rscale>  0 0.60513450E+03</rscale>
<asrwt>0</asrwt>
<pdfrwt beam="1">  1        1 0.18922683E+00 0.60513450E+03</pdfrwt>
<pdfrwt beam="2">  1       -1 0.14785739E+00 0.60513450E+03</pdfrwt>
<totfact> 0.39385263E+00</totfact>
</mgrwt>
</event>
<event>
 4    1  0.4964158E-009  0.5948687E+03  0.7818608E-02  0.9916109E-01
          1   -1    0    0  501    0  0.00000000000E+00  0.00000000000E+00  0.97548652787E+03  0.97548652788E+03  0.50400000000E-02 0. -1.
         -1   -1    0    0    0  501 -0.00000000000E+00 -0.00000000000E+00 -0.13330688955E+04  0.13330688955E+04  0.50400000000E-02 0.  1.
    8880022    1    1    2    0    0 -0.56869667593E+03 -0.84031231385E+02 -0.11635700424E+04  0.13068144679E+04  0.15294330000E+03 0.  0.
    8880022    1    1    2    0    0  0.56869667593E+03  0.84031231385E+02  0.80598767473E+03  0.10017409555E+04  0.15294330000E+03 0.  0.
<mgrwt>
<rscale>  0 0.59486873E+03</rscale>
<asrwt>0</asrwt>
<pdfrwt beam="1">  1        1 0.15007485E+00 0.59486873E+03</pdfrwt>
<pdfrwt beam="2">  1       -1 0.20508752E+00 0.59486873E+03</pdfrwt>
<totfact> 0.23622358E+00</totfact>
</mgrwt>
</event>
<event>
 4    1  0.7826105E-009  0.8981400E+03  0.7818608E-02  0.9427909E-01
         -1   -1    0    0    0  501 -0.00000000000E+00  0.00000000000E+00  0.13282506013E+04  0.13282506013E+04  0.50400000000E-02 0.  1.
          1   -1    0    0  501    0  0.00000000000E+00 -0.00000000000E+00 -0.36110706662E+04  0.36110706662E+04  0.50400000000E-02 0. -1.
    8880022    1    1    2    0    0  0.88495849060E+03  0.10598531906E+02  0.11110245459E+04  0.14286465811E+04  0.15294330000E+03 0.  0.
    8880022    1    1    2    0    0 -0.88495849060E+03 -0.10598531906E+02 -0.33938446108E+04  0.35106746865E+04  0.15294330000E+03 0.  0.
<mgrwt>
<rscale>  0 0.89814003E+03</rscale>
<asrwt>0</asrwt>
<pdfrwt beam="1">  1        1 0.55554933E+00 0.89814003E+03</pdfrwt>
<pdfrwt beam="2">  1       -1 0.20434625E+00 0.89814003E+03</pdfrwt>
<totfact> 0.30661648E-02</totfact>
</mgrwt>
</event>
<event>
 4    1  0.4964158E-009  0.2412719E+03  0.7818608E-02  0.1118948E+00
          1   -1    0    0  501    0  0.00000000000E+00  0.00000000000E+00  0.43197651093E+03  0.43197651096E+03  0.50400000000E-02 0. -1.
         -1   -1    0    0    0  501 -0.00000000000E+00 -0.00000000000E+00 -0.63424527716E+03  0.63424527718E+03  0.50400000000E-02 0.  1.
    8880022    1    1    2    0    0 -0.69695642963E+01 -0.18647222927E+03 -0.57423261312E+03  0.62286050935E+03  0.15294330000E+03 0.  1.
    8880022    1    1    2    0    0  0.69695642963E+01  0.18647222927E+03  0.37196384689E+03  0.44336127879E+03  0.15294330000E+03 0.  0.
<mgrwt>
<rscale>  0 0.24127188E+03</rscale>
<asrwt>0</asrwt>
<pdfrwt beam="1">  1        1 0.66457925E-01 0.24127188E+03</pdfrwt>
<pdfrwt beam="2">  1       -1 0.97576197E-01 0.24127188E+03</pdfrwt>
<totfact> 0.59518943E+01</totfact>
</mgrwt>
</event>
<event>
 4    1  0.4964158E-009  0.3039387E+03  0.7818608E-02  0.1083288E+00
         -1   -1    0    0    0  501 -0.00000000000E+00  0.00000000000E+00  0.38233202642E+02  0.38233202974E+02  0.50400000000E-02 0.  1.
          1   -1    0    0  501    0  0.00000000000E+00 -0.00000000000E+00 -0.25613074184E+04  0.25613074184E+04  0.50400000000E-02 0. -1.
    8880022    1    1    2    0    0  0.21938672141E+03  0.14441798018E+03 -0.95215635598E+03  0.99949010289E+03  0.15294330000E+03 0.  0.
    8880022    1    1    2    0    0 -0.21938672141E+03 -0.14441798018E+03 -0.15709178598E+04  0.16000505185E+04  0.15294330000E+03 0. -1.
<mgrwt>
<rscale>  0 0.30393871E+03</rscale>
<asrwt>0</asrwt>
<pdfrwt beam="1">  1        1 0.39404716E+00 0.30393871E+03</pdfrwt>
<pdfrwt beam="2">  1       -1 0.58820332E-02 0.30393871E+03</pdfrwt>
<totfact> 0.19721365E+02</totfact>
</mgrwt>
</event>
<event>
 4    1  0.7950683E-009  0.1179194E+04  0.7818608E-02  0.9131265E-01
          1   -1    0    0  501    0  0.00000000000E+00  0.00000000000E+00  0.29903520853E+04  0.29903520853E+04  0.50400000000E-02 0. -1.
         -1   -1    0    0    0  501 -0.00000000000E+00 -0.00000000000E+00 -0.14730733348E+04  0.14730733349E+04  0.50400000000E-02 0.  1.
    8880022    1    1    2    0    0  0.11531064583E+04  0.19352886478E+03  0.26048157326E+04  0.28592944199E+04  0.15294330000E+03 0.  0.
    8880022    1    1    2    0    0 -0.11531064583E+04 -0.19352886478E+03 -0.10875369822E+04  0.16041310003E+04  0.15294330000E+03 0.  0.
<mgrwt>
<rscale>  0 0.11791945E+04</rscale>
<asrwt>0</asrwt>
<pdfrwt beam="1">  1        1 0.46005417E+00 0.11791945E+04</pdfrwt>
<pdfrwt beam="2">  1       -1 0.22662667E+00 0.11791945E+04</pdfrwt>
<totfact> 0.60111277E-02</totfact>
</mgrwt>
</event>
<event>
 4    1  0.4964158E-009  0.7890910E+03  0.7818608E-02  0.9575943E-01
          1   -1    0    0  501    0  0.00000000000E+00  0.00000000000E+00  0.12070952761E+04  0.12070952761E+04  0.50400000000E-02 0. -1.
         -1   -1    0    0    0  501 -0.00000000000E+00 -0.00000000000E+00 -0.64812147449E+03  0.64812147451E+03  0.50400000000E-02 0.  1.
    8880022    1    1    2    0    0 -0.74548078441E+03 -0.20864161444E+03 -0.13958704595E+03  0.80134207403E+03  0.15294330000E+03 0.  0.
    8880022    1    1    2    0    0  0.74548078441E+03  0.20864161444E+03  0.69856084757E+03  0.10538746766E+04  0.15294330000E+03 0.  0.
<mgrwt>
<rscale>  0 0.78909098E+03</rscale>
<asrwt>0</asrwt>
<pdfrwt beam="1">  1        1 0.18570696E+00 0.78909098E+03</pdfrwt>
<pdfrwt beam="2">  1       -1 0.99710998E-01 0.78909098E+03</pdfrwt>
<totfact> 0.10423709E+01</totfact>
</mgrwt>
</event>
<event>
 4    1  0.4964158E-009  0.5418204E+03  0.7818608E-02  0.1003405E+00
         -1   -1    0    0    0  501 -0.00000000000E+00  0.00000000000E+00  0.21547480564E+03  0.21547480570E+03  0.50400000000E-02 0.  1.
          1   -1    0    0  501    0  0.00000000000E+00 -0.00000000000E+00 -0.15235668837E+04  0.15235668837E+04  0.50400000000E-02 0. -1.
    8880022    1    1    2    0    0 -0.37756042785E+03 -0.35724758416E+03 -0.93682464523E+03  0.10822244601E+04  0.15294330000E+03 0.  0.
    8880022    1    1    2    0    0  0.37756042785E+03  0.35724758416E+03 -0.37126743285E+03  0.65681722935E+03  0.15294330000E+03 0.  0.
<mgrwt>
<rscale>  0 0.54182042E+03</rscale>
<asrwt>0</asrwt>
<pdfrwt beam="1">  1        1 0.23439490E+00 0.54182042E+03</pdfrwt>
<pdfrwt beam="2">  1       -1 0.33149971E-01 0.54182042E+03</pdfrwt>
<totfact> 0.56814814E+01</totfact>
</mgrwt>
</event>
<event>
 4    1  0.4964158E-009  0.8296024E+03  0.7818608E-02  0.9518130E-01
         -1   -1    0    0    0  501 -0.00000000000E+00  0.00000000000E+00  0.91946563849E+03  0.91946563850E+03  0.50400000000E-02 0.  1.
          1   -1    0    0  501    0  0.00000000000E+00 -0.00000000000E+00 -0.82546759543E+03  0.82546759544E+03  0.50400000000E-02 0. -1.
    8880022    1    1    2    0    0  0.79276354729E+03  0.19072073515E+03  0.31337262913E+03  0.88681593267E+03  0.15294330000E+03 0.  0.
    8880022    1    1    2    0    0 -0.79276354729E+03 -0.19072073515E+03 -0.21937458607E+03  0.85811730128E+03  0.15294330000E+03 0.  0.
<mgrwt>
<rscale>  0 0.82960237E+03</rscale>
<asrwt>0</asrwt>
<pdfrwt beam="1">  1        1 0.12699502E+00 0.82960237E+03</pdfrwt>
<pdfrwt beam="2">  1       -1 0.14145625E+00 0.82960237E+03</pdfrwt>
<totfact> 0.87562930E+00</totfact>
</mgrwt>
</event>
<event>
 4    1  0.4964158E-009  0.1024457E+04  0.7818608E-02  0.9282120E-01
          1   -1    0    0  501    0  0.00000000000E+00  0.00000000000E+00  0.21342354078E+04  0.21342354078E+04  0.50400000000E-02 0. -1.
         -1   -1    0    0    0  501 -0.00000000000E+00 -0.00000000000E+00 -0.59617617346E+03  0.59617617348E+03  0.50400000000E-02 0.  1.
    8880022    1    1    2    0    0  0.15725964643E+03 -0.10006950694E+04  0.19766551129E+03  0.10433525414E+04  0.15294330000E+03 0.  0.
    8880022    1    1    2    0    0 -0.15725964643E+03  0.10006950694E+04  0.13403937231E+04  0.16870590399E+04  0.15294330000E+03 0.  0.
<mgrwt>
<rscale>  0 0.10244574E+04</rscale>
<asrwt>0</asrwt>
<pdfrwt beam="1">  1        1 0.32834391E+00 0.10244574E+04</pdfrwt>
<pdfrwt beam="2">  1       -1 0.91719411E-01 0.10244574E+04</pdfrwt>
<totfact> 0.28247128E+00</totfact>
</mgrwt>
</event>
<event>
 4    1  0.4964158E-009  0.1706343E+04  0.7818608E-02  0.8757755E-01
         -1   -1    0    0    0  501 -0.00000000000E+00  0.00000000000E+00  0.13569073090E+04  0.13569073090E+04  0.50400000000E-02 0.  1.
          1   -1    0    0  501    0  0.00000000000E+00 -0.00000000000E+00 -0.22426827929E+04  0.22426827929E+04  0.50400000000E-02 0. -1.
    8880022    1    1    2    0    0  0.65905260047E+02  0.16981964823E+04 -0.68745114365E+02  0.17077272439E+04  0.15294330000E+03 0.  0.
    8880022    1    1    2    0    0 -0.65905260047E+02 -0.16981964823E+04 -0.81703036958E+03  0.18918628580E+04  0.15294330000E+03 0.  0.
<mgrwt>
<rscale>  0 0.17063430E+04</rscale>
<asrwt>0</asrwt>
<pdfrwt beam="1">  1        1 0.34502812E+00 0.17063430E+04</pdfrwt>
<pdfrwt beam="2">  1       -1 0.20875497E+00 0.17063430E+04</pdfrwt>
<totfact> 0.24659608E-01</totfact>
</mgrwt>
</event>
<event>
 4    1  0.4964158E-009  0.1069385E+04  0.7818608E-02  0.9235556E-01
          1   -1    0    0  501    0  0.00000000000E+00  0.00000000000E+00  0.43455575419E+04  0.43455575419E+04  0.50400000000E-02 0. -1.
         -1   -1    0    0    0  501 -0.00000000000E+00 -0.00000000000E+00 -0.93682290463E+03  0.93682290465E+03  0.50400000000E-02 0.  1.
    8880022    1    1    2    0    0 -0.51874485357E+03 -0.92254921640E+03  0.39440766190E+04  0.40864807977E+04  0.15294330000E+03 0.  0.
    8880022    1    1    2    0    0  0.51874485357E+03  0.92254921640E+03 -0.53534198176E+03  0.11958996489E+04  0.15294330000E+03 0.  0.
<mgrwt>
<rscale>  0 0.10693853E+04</rscale>
<asrwt>0</asrwt>
<pdfrwt beam="1">  1        1 0.66854730E+00 0.10693853E+04</pdfrwt>
<pdfrwt beam="2">  1       -1 0.14412660E+00 0.10693853E+04</pdfrwt>
<totfact> 0.18734193E-02</totfact>
</mgrwt>
</event>
<event>
 4    1  0.4964158E-009  0.2319761E+03  0.7818608E-02  0.1125257E+00
          1   -1    0    0  501    0  0.00000000000E+00  0.00000000000E+00  0.93492835280E+03  0.93492835281E+03  0.50400000000E-02 0. -1.
         -1   -1    0    0    0  501 -0.00000000000E+00 -0.00000000000E+00 -0.24195702335E+03  0.24195702341E+03  0.50400000000E-02 0.  1.
    8880022    1    1    2    0    0 -0.15223160046E+02 -0.17375123478E+03  0.86019091685E+03  0.89092160296E+03  0.15294330000E+03 0.  0.
    8880022    1    1    2    0    0  0.15223160046E+02  0.17375123478E+03 -0.16721958740E+03  0.28596377326E+03  0.15294330000E+03 0.  0.
<mgrwt>
<rscale>  0 0.23197605E+03</rscale>
<asrwt>0</asrwt>
<pdfrwt beam="1">  1        1 0.14383513E+00 0.23197605E+03</pdfrwt>
<pdfrwt beam="2">  1       -1 0.37224157E-01 0.23197605E+03</pdfrwt>
<totfact> 0.12842438E+02</totfact>
</mgrwt>
</event>
<event>
 4    1  0.4964158E-009  0.2683019E+03  0.7818608E-02  0.1102255E+00
          1   -1    0    0  501    0  0.00000000000E+00  0.00000000000E+00  0.20733273869E+04  0.20733273869E+04  0.50400000000E-02 0. -1.
         -1   -1    0    0    0  501 -0.00000000000E+00 -0.00000000000E+00 -0.51375110888E+03  0.51375110891E+03  0.50400000000E-02 0.  1.
    8880022    1    1    2    0    0  0.14771956576E+03 -0.16362512884E+03  0.20288532789E+04  0.20465169272E+04  0.15294330000E+03 0. -1.
    8880022    1    1    2    0    0 -0.14771956576E+03  0.16362512884E+03 -0.46927700089E+03  0.54056156863E+03  0.15294330000E+03 0.  0.
<mgrwt>
<rscale>  0 0.26830189E+03</rscale>
<asrwt>0</asrwt>
<pdfrwt beam="1">  1        1 0.31897345E+00 0.26830189E+03</pdfrwt>
<pdfrwt beam="2">  1       -1 0.79038631E-01 0.26830189E+03</pdfrwt>
<totfact> 0.51587854E+00</totfact>
</mgrwt>
</event>
<event>
 4    1  0.4964158E-009  0.4282518E+03  0.7818608E-02  0.1034414E+00
         -1   -1    0    0    0  501 -0.00000000000E+00  0.00000000000E+00  0.56561343407E+03  0.56561343410E+03  0.50400000000E-02 0.  1.
          1   -1    0    0  501    0  0.00000000000E+00 -0.00000000000E+00 -0.75092386721E+03  0.75092386723E+03  0.50400000000E-02 0. -1.
    8880022    1    1    2    0    0 -0.39997689033E+03 -0.51391973550E+01 -0.58885179091E+03  0.72811126129E+03  0.15294330000E+03 0.  0.
    8880022    1    1    2    0    0  0.39997689033E+03  0.51391973550E+01  0.40354135776E+03  0.58842604004E+03  0.15294330000E+03 0.  1.
<mgrwt>
<rscale>  0 0.42825177E+03</rscale>
<asrwt>0</asrwt>
<pdfrwt beam="1">  1        1 0.11552675E+00 0.42825177E+03</pdfrwt>
<pdfrwt beam="2">  1       -1 0.87017451E-01 0.42825177E+03</pdfrwt>
<totfact> 0.34025297E+01</totfact>
</mgrwt>
</event>
<event>
 4    1  0.4964158E-009  0.6988863E+03  0.7818608E-02  0.9719139E-01
          1   -1    0    0  501    0  0.00000000000E+00  0.00000000000E+00  0.87182814858E+03  0.87182814859E+03  0.50400000000E-02 0. -1.
         -1   -1    0    0    0  501 -0.00000000000E+00 -0.00000000000E+00 -0.94391722453E+03  0.94391722455E+03  0.50400000000E-02 0.  1.
    8880022    1    1    2    0    0 -0.22840468822E+03  0.64255874683E+03 -0.61485330429E+03  0.93085266478E+03  0.15294330000E+03 0.  0.
    8880022    1    1    2    0    0  0.22840468822E+03 -0.64255874683E+03  0.54276422834E+03  0.88489270836E+03  0.15294330000E+03 0.  0.
<mgrwt>
<rscale>  0 0.69888633E+03</rscale>
<asrwt>0</asrwt>
<pdfrwt beam="1">  1        1 0.13412741E+00 0.69888633E+03</pdfrwt>
<pdfrwt beam="2">  1       -1 0.14521804E+00 0.69888633E+03</pdfrwt>
<totfact> 0.76064810E+00</totfact>
</mgrwt>
</event>
<event>
 4    1  0.4964158E-009  0.6030194E+03  0.7818608E-02  0.9899161E-01
         -1   -1    0    0    0  501 -0.00000000000E+00  0.00000000000E+00  0.65369369174E+03  0.65369369176E+03  0.50400000000E-02 0.  1.
          1   -1    0    0  501    0  0.00000000000E+00 -0.00000000000E+00 -0.62534724238E+03  0.62534724240E+03  0.50400000000E-02 0. -1.
    8880022    1    1    2    0    0  0.44058710717E+03  0.38226135143E+03 -0.19837169599E+03  0.63480998936E+03  0.15294330000E+03 0.  0.
    8880022    1    1    2    0    0 -0.44058710717E+03 -0.38226135143E+03  0.22671814535E+03  0.64423094481E+03  0.15294330000E+03 0.  0.
<mgrwt>
<rscale>  0 0.60301940E+03</rscale>
<asrwt>0</asrwt>
<pdfrwt beam="1">  1        1 0.96207268E-01 0.60301940E+03</pdfrwt>
<pdfrwt beam="2">  1       -1 0.10056826E+00 0.60301940E+03</pdfrwt>
<totfact> 0.31583866E+01</totfact>
</mgrwt>
</event>
<event>
 4    1  0.4964158E-009  0.3286653E+03  0.7818608E-02  0.1071729E+00
          1   -1    0    0  501    0  0.00000000000E+00  0.00000000000E+00  0.36622181274E+03  0.36622181277E+03  0.50400000000E-02 0. -1.
         -1   -1    0    0    0  501 -0.00000000000E+00 -0.00000000000E+00 -0.49710767393E+03  0.49710767396E+03  0.50400000000E-02 0.  1.
    8880022    1    1    2    0    0 -0.34831622886E+02 -0.28881823690E+03  0.20982490977E+03  0.38993250915E+03  0.15294330000E+03 0.  0.
    8880022    1    1    2    0    0  0.34831622886E+02  0.28881823690E+03 -0.34071077096E+03  0.47339697758E+03  0.15294330000E+03 0.  0.
<mgrwt>
<rscale>  0 0.32866528E+03</rscale>
<asrwt>0</asrwt>
<pdfrwt beam="1">  1        1 0.56341817E-01 0.32866528E+03</pdfrwt>
<pdfrwt beam="2">  1       -1 0.76478104E-01 0.32866528E+03</pdfrwt>
<totfact> 0.12189894E+02</totfact>
</mgrwt>
</event>
<event>
 4    1  0.4964158E-009  0.7350537E+03  0.7818608E-02  0.9659095E-01
          1   -1    0    0  501    0  0.00000000000E+00  0.00000000000E+00  0.23191335078E+04  0.23191335078E+04  0.50400000000E-02 0. -1.
         -1   -1    0    0    0  501 -0.00000000000E+00 -0.00000000000E+00 -0.29127314334E+03  0.29127314338E+03  0.50400000000E-02 0.  1.
    8880022    1    1    2    0    0  0.69145919108E+03  0.19696826025E+03  0.43001582094E+03  0.85159706890E+03  0.15294330000E+03 0.  0.
    8880022    1    1    2    0    0 -0.69145919108E+03 -0.19696826025E+03  0.15978445435E+04  0.17588095822E+04  0.15294330000E+03 0.  0.
<mgrwt>
<rscale>  0 0.73505371E+03</rscale>
<asrwt>0</asrwt>
<pdfrwt beam="1">  1        1 0.35678977E+00 0.73505371E+03</pdfrwt>
<pdfrwt beam="2">  1       -1 0.44811252E-01 0.73505371E+03</pdfrwt>
<totfact> 0.93929522E+00</totfact>
</mgrwt>
</event>
<event>
 4    1  0.4964158E-009  0.2314930E+03  0.7818608E-02  0.1125593E+00
         -1   -1    0    0    0  501 -0.00000000000E+00  0.00000000000E+00  0.12988242444E+03  0.12988242454E+03  0.50400000000E-02 0.  1.
          1   -1    0    0  501    0  0.00000000000E+00 -0.00000000000E+00 -0.69605295518E+03  0.69605295520E+03  0.50400000000E-02 0. -1.
    8880022    1    1    2    0    0  0.13371528027E+03  0.11098459122E+03 -0.54662023827E+03  0.59361830629E+03  0.15294330000E+03 0.  0.
    8880022    1    1    2    0    0 -0.13371528027E+03 -0.11098459122E+03 -0.19550292472E+02  0.23231707345E+03  0.15294330000E+03 0.  1.
<mgrwt>
<rscale>  0 0.23149300E+03</rscale>
<asrwt>0</asrwt>
<pdfrwt beam="1">  1        1 0.10708507E+00 0.23149300E+03</pdfrwt>
<pdfrwt beam="2">  1       -1 0.19981912E-01 0.23149300E+03</pdfrwt>
<totfact> 0.57802351E+02</totfact>
</mgrwt>
</event>
<event>
 4    1  0.4964158E-009  0.1403862E+04  0.7818608E-02  0.8951028E-01
          1   -1    0    0  501    0  0.00000000000E+00  0.00000000000E+00  0.19511553920E+04  0.19511553920E+04  0.50400000000E-02 0. -1.
         -1   -1    0    0    0  501 -0.00000000000E+00 -0.00000000000E+00 -0.11732023213E+04  0.11732023213E+04  0.50400000000E-02 0.  1.
    8880022    1    1    2    0    0  0.23034845501E+03  0.13763634904E+04  0.97147831199E+03  0.17072195618E+04  0.15294330000E+03 0.  0.
    8880022    1    1    2    0    0 -0.23034845501E+03 -0.13763634904E+04 -0.19352524132E+03  0.14171381515E+04  0.15294330000E+03 0.  0.
<mgrwt>
<rscale>  0 0.14038620E+04</rscale>
<asrwt>0</asrwt>
<pdfrwt beam="1">  1        1 0.30017775E+00 0.14038620E+04</pdfrwt>
<pdfrwt beam="2">  1       -1 0.18049267E+00 0.14038620E+04</pdfrwt>
<totfact> 0.63546357E-01</totfact>
</mgrwt>
</event>
<event>
 4    1  0.4964158E-009  0.2996470E+03  0.7818608E-02  0.1085417E+00
          1   -1    0    0  501    0  0.00000000000E+00  0.00000000000E+00  0.16229068076E+04  0.16229068076E+04  0.50400000000E-02 0. -1.
         -1   -1    0    0    0  501 -0.00000000000E+00 -0.00000000000E+00 -0.88414220799E+03  0.88414220800E+03  0.50400000000E-02 0.  1.
    8880022    1    1    2    0    0  0.24369884728E+03 -0.83710995166E+02 -0.84428873370E+03  0.89588602944E+03  0.15294330000E+03 0.  0.
    8880022    1    1    2    0    0 -0.24369884728E+03  0.83710995166E+02  0.15830533333E+04  0.16111629862E+04  0.15294330000E+03 0.  0.
<mgrwt>
<rscale>  0 0.29964698E+03</rscale>
<asrwt>0</asrwt>
<pdfrwt beam="1">  1        1 0.24967797E+00 0.29964698E+03</pdfrwt>
<pdfrwt beam="2">  1       -1 0.13602188E+00 0.29964698E+03</pdfrwt>
<totfact> 0.29052774E+00</totfact>
</mgrwt>
</event>
<event>
 4    1  0.4964158E-009  0.3253403E+03  0.7818608E-02  0.1073217E+00
          1   -1    0    0  501    0  0.00000000000E+00  0.00000000000E+00  0.35870784105E+03  0.35870784109E+03  0.50400000000E-02 0. -1.
         -1   -1    0    0    0  501 -0.00000000000E+00 -0.00000000000E+00 -0.75205657835E+03  0.75205657837E+03  0.50400000000E-02 0.  1.
    8880022    1    1    2    0    0  0.20891157893E+03  0.19700403532E+03  0.23625324990E+03  0.40207199461E+03  0.15294330000E+03 0.  0.
    8880022    1    1    2    0    0 -0.20891157893E+03 -0.19700403532E+03 -0.62960198720E+03  0.70869242486E+03  0.15294330000E+03 0.  0.
<mgrwt>
<rscale>  0 0.32534027E+03</rscale>
<asrwt>0</asrwt>
<pdfrwt beam="1">  1        1 0.55185822E-01 0.32534027E+03</pdfrwt>
<pdfrwt beam="2">  1       -1 0.11570101E+00 0.32534027E+03</pdfrwt>
<totfact> 0.50350304E+01</totfact>
</mgrwt>
</event>
<event>
 4    1  0.4964158E-009  0.7163650E+03  0.7818608E-02  0.9689648E-01
          1   -1    0    0  501    0  0.00000000000E+00  0.00000000000E+00  0.16070402262E+04  0.16070402262E+04  0.50400000000E-02 0. -1.
         -1   -1    0    0    0  501 -0.00000000000E+00 -0.00000000000E+00 -0.53061666370E+03  0.53061666373E+03  0.50400000000E-02 0.  1.
    8880022    1    1    2    0    0 -0.45569108598E+03  0.53116178943E+03  0.12126650606E+04  0.14084514243E+04  0.15294330000E+03 0.  0.
    8880022    1    1    2    0    0  0.45569108598E+03 -0.53116178943E+03 -0.13624149804E+03  0.72920546570E+03  0.15294330000E+03 0.  0.
<mgrwt>
<rscale>  0 0.71636504E+03</rscale>
<asrwt>0</asrwt>
<pdfrwt beam="1">  1        1 0.24723695E+00 0.71636504E+03</pdfrwt>
<pdfrwt beam="2">  1       -1 0.81633335E-01 0.71636504E+03</pdfrwt>
<totfact> 0.86254322E+00</totfact>
</mgrwt>
</event>
<event>
 4    1  0.4964158E-009  0.1075348E+04  0.7818608E-02  0.9229558E-01
          1   -1    0    0  501    0  0.00000000000E+00  0.00000000000E+00  0.14221841177E+04  0.14221841177E+04  0.50400000000E-02 0. -1.
         -1   -1    0    0    0  501 -0.00000000000E+00 -0.00000000000E+00 -0.87710441595E+03  0.87710441596E+03  0.50400000000E-02 0.  1.
    8880022    1    1    2    0    0 -0.56000773831E+03  0.90519239842E+03  0.58310525496E+03  0.12232683011E+04  0.15294330000E+03 0.  0.
    8880022    1    1    2    0    0  0.56000773831E+03 -0.90519239842E+03 -0.38025553225E+02  0.10760202325E+04  0.15294330000E+03 0.  0.
<mgrwt>
<rscale>  0 0.10753481E+04</rscale>
<asrwt>0</asrwt>
<pdfrwt beam="1">  1        1 0.21879756E+00 0.10753481E+04</pdfrwt>
<pdfrwt beam="2">  1       -1 0.13493914E+00 0.10753481E+04</pdfrwt>
<totfact> 0.34029462E+00</totfact>
</mgrwt>
</event>
<event>
 4    1  0.1281895E-008  0.1584841E+04  0.7818608E-02  0.8829915E-01
         -1   -1    0    0    0  501 -0.00000000000E+00  0.00000000000E+00  0.23839146216E+04  0.23839146216E+04  0.50400000000E-02 0.  1.
          1   -1    0    0  501    0  0.00000000000E+00 -0.00000000000E+00 -0.24303501855E+04  0.24303501855E+04  0.50400000000E-02 0. -1.
    8880022    1    1    2    0    0  0.68922170336E+03 -0.14189087121E+04 -0.18349386679E+04  0.24246071966E+04  0.15294330000E+03 0.  0.
    8880022    1    1    2    0    0 -0.68922170336E+03  0.14189087121E+04  0.17885031040E+04  0.23896576106E+04  0.15294330000E+03 0.  0.
<mgrwt>
<rscale>  0 0.15848407E+04</rscale>
<asrwt>0</asrwt>
<pdfrwt beam="1">  1        1 0.37390003E+00 0.15848407E+04</pdfrwt>
<pdfrwt beam="2">  1       -1 0.36675610E+00 0.15848407E+04</pdfrwt>
<totfact> 0.16961717E-02</totfact>
</mgrwt>
</event>
<event>
 4    1  0.4964158E-009  0.5477139E+03  0.7818608E-02  0.1002024E+00
         -1   -1    0    0    0  501 -0.00000000000E+00  0.00000000000E+00  0.93524399394E+03  0.93524399395E+03  0.50400000000E-02 0.  1.
          1   -1    0    0  501    0  0.00000000000E+00 -0.00000000000E+00 -0.23442798654E+04  0.23442798654E+04  0.50400000000E-02 0. -1.
    8880022    1    1    2    0    0  0.45787649837E+03 -0.25874308990E+03  0.81893701230E+03  0.98521487883E+03  0.15294330000E+03 0.  0.
    8880022    1    1    2    0    0 -0.45787649837E+03  0.25874308990E+03 -0.22279728838E+04  0.22943089805E+04  0.15294330000E+03 0.  0.
<mgrwt>
<rscale>  0 0.54771391E+03</rscale>
<asrwt>0</asrwt>
<pdfrwt beam="1">  1        1 0.36065844E+00 0.54771391E+03</pdfrwt>
<pdfrwt beam="2">  1       -1 0.14388369E+00 0.54771391E+03</pdfrwt>
<totfact> 0.76209217E-01</totfact>
</mgrwt>
</event>
<event>
 4    1  0.4964158E-009  0.1101680E+04  0.7818608E-02  0.9203556E-01
         -1   -1    0    0    0  501 -0.00000000000E+00  0.00000000000E+00  0.64277039570E+03  0.64277039572E+03  0.50400000000E-02 0.  1.
          1   -1    0    0  501    0  0.00000000000E+00 -0.00000000000E+00 -0.22216425301E+04  0.22216425301E+04  0.50400000000E-02 0. -1.
    8880022    1    1    2    0    0  0.11964906410E+03 -0.10844313769E+04 -0.13442647069E+04  0.17380295063E+04  0.15294330000E+03 0.  0.
    8880022    1    1    2    0    0 -0.11964906410E+03  0.10844313769E+04 -0.23460742757E+03  0.11263834195E+04  0.15294330000E+03 0.  0.
<mgrwt>
<rscale>  0 0.11016801E+04</rscale>
<asrwt>0</asrwt>
<pdfrwt beam="1">  1        1 0.34179115E+00 0.11016801E+04</pdfrwt>
<pdfrwt beam="2">  1       -1 0.98887754E-01 0.11016801E+04</pdfrwt>
<totfact> 0.20590922E+00</totfact>
</mgrwt>
</event>
<event>
 4    1  0.4964158E-009  0.4704922E+03  0.7818608E-02  0.1021781E+00
         -1   -1    0    0    0  501 -0.00000000000E+00  0.00000000000E+00  0.49540514916E+03  0.49540514919E+03  0.50400000000E-02 0.  1.
          1   -1    0    0  501    0  0.00000000000E+00 -0.00000000000E+00 -0.48889870341E+03  0.48889870343E+03  0.50400000000E-02 0. -1.
    8880022    1    1    2    0    0  0.23802352900E+03  0.37592032720E+03 -0.14111055366E+03  0.49119765281E+03  0.15294330000E+03 0. -1.
    8880022    1    1    2    0    0 -0.23802352900E+03 -0.37592032720E+03  0.14761699941E+03  0.49310619981E+03  0.15294330000E+03 0.  0.
<mgrwt>
<rscale>  0 0.47049224E+03</rscale>
<asrwt>0</asrwt>
<pdfrwt beam="1">  1        1 0.75215186E-01 0.47049224E+03</pdfrwt>
<pdfrwt beam="2">  1       -1 0.76216176E-01 0.47049224E+03</pdfrwt>
<totfact> 0.82555469E+01</totfact>
</mgrwt>
</event>
<event>
 4    1  0.4964158E-009  0.1060448E+04  0.7818608E-02  0.9244623E-01
          1   -1    0    0  501    0  0.00000000000E+00  0.00000000000E+00  0.36691324268E+04  0.36691324268E+04  0.50400000000E-02 0. -1.
         -1   -1    0    0    0  501 -0.00000000000E+00 -0.00000000000E+00 -0.36376421605E+03  0.36376421608E+03  0.50400000000E-02 0.  1.
    8880022    1    1    2    0    0  0.99473379158E+03 -0.33416153562E+03  0.85255838376E+03  0.13606640654E+04  0.15294330000E+03 0.  0.
    8880022    1    1    2    0    0 -0.99473379158E+03  0.33416153562E+03  0.24528098270E+04  0.26722325775E+04  0.15294330000E+03 0.  0.
<mgrwt>
<rscale>  0 0.10604484E+04</rscale>
<asrwt>0</asrwt>
<pdfrwt beam="1">  1        1 0.56448189E+00 0.10604484E+04</pdfrwt>
<pdfrwt beam="2">  1       -1 0.55963727E-01 0.10604484E+04</pdfrwt>
<totfact> 0.61044429E-01</totfact>
</mgrwt>
</event>
<event>
 4    1  0.4964158E-009  0.1355762E+04  0.7818608E-02  0.8986478E-01
          1   -1    0    0  501    0  0.00000000000E+00  0.00000000000E+00  0.18545373415E+04  0.18545373415E+04  0.50400000000E-02 0. -1.
         -1   -1    0    0    0  501 -0.00000000000E+00 -0.00000000000E+00 -0.10781090453E+04  0.10781090454E+04  0.50400000000E-02 0.  1.
    8880022    1    1    2    0    0 -0.38686118631E+03 -0.12903633200E+04  0.80470115786E+03  0.15765895729E+04  0.15294330000E+03 0. -1.
    8880022    1    1    2    0    0  0.38686118631E+03  0.12903633200E+04 -0.28272861695E+02  0.13560568140E+04  0.15294330000E+03 0.  0.
<mgrwt>
<rscale>  0 0.13557620E+04</rscale>
<asrwt>0</asrwt>
<pdfrwt beam="1">  1        1 0.28531343E+00 0.13557620E+04</pdfrwt>
<pdfrwt beam="2">  1       -1 0.16586293E+00 0.13557620E+04</pdfrwt>
<totfact> 0.95149116E-01</totfact>
</mgrwt>
</event>
<event>
 4    1  0.4964158E-009  0.3397664E+03  0.7818608E-02  0.1066895E+00
         -1   -1    0    0    0  501 -0.00000000000E+00  0.00000000000E+00  0.61170045550E+02  0.61170045758E+02  0.50400000000E-02 0.  1.
          1   -1    0    0  501    0  0.00000000000E+00 -0.00000000000E+00 -0.34594646559E+04  0.34594646559E+04  0.50400000000E-02 0. -1.
    8880022    1    1    2    0    0 -0.22301441179E+03  0.20570404038E+03 -0.28858633416E+04  0.29057956672E+04  0.15294330000E+03 0.  0.
    8880022    1    1    2    0    0  0.22301441179E+03 -0.20570404038E+03 -0.51243126874E+03  0.61483903445E+03  0.15294330000E+03 0.  0.
<mgrwt>
<rscale>  0 0.33976644E+03</rscale>
<asrwt>0</asrwt>
<pdfrwt beam="1">  1        1 0.53222518E+00 0.33976644E+03</pdfrwt>
<pdfrwt beam="2">  1       -1 0.94107790E-02 0.33976644E+03</pdfrwt>
<totfact> 0.21988003E+01</totfact>
</mgrwt>
</event>
<event>
 4    1  0.4964158E-009  0.9696685E+03  0.7818608E-02  0.9342452E-01
          1   -1    0    0  501    0  0.00000000000E+00  0.00000000000E+00  0.13106661301E+04  0.13106661301E+04  0.50400000000E-02 0. -1.
         -1   -1    0    0    0  501 -0.00000000000E+00 -0.00000000000E+00 -0.16590530135E+04  0.16590530135E+04  0.50400000000E-02 0.  1.
    8880022    1    1    2    0    0  0.86054171121E+03  0.41992063130E+03  0.94447996735E+03  0.13536245547E+04  0.15294330000E+03 0.  0.
    8880022    1    1    2    0    0 -0.86054171121E+03 -0.41992063130E+03 -0.12928668508E+04  0.16160945889E+04  0.15294330000E+03 0.  0.
<mgrwt>
<rscale>  0 0.96966851E+03</rscale>
<asrwt>0</asrwt>
<pdfrwt beam="1">  1        1 0.20164094E+00 0.96966851E+03</pdfrwt>
<pdfrwt beam="2">  1       -1 0.25523893E+00 0.96966851E+03</pdfrwt>
<totfact> 0.58152865E-01</totfact>
</mgrwt>
</event>
<event>
 4    1  0.4964158E-009  0.8515986E+03  0.7818608E-02  0.9488194E-01
          1   -1    0    0  501    0  0.00000000000E+00  0.00000000000E+00  0.17820775330E+04  0.17820775330E+04  0.50400000000E-02 0. -1.
         -1   -1    0    0    0  501 -0.00000000000E+00 -0.00000000000E+00 -0.12459637428E+04  0.12459637429E+04  0.50400000000E-02 0.  1.
    8880022    1    1    2    0    0  0.77400068077E+03 -0.32054864213E+03  0.15104616208E+04  0.17339880181E+04  0.15294330000E+03 0.  0.
    8880022    1    1    2    0    0 -0.77400068077E+03  0.32054864213E+03 -0.97434783068E+03  0.12940532578E+04  0.15294330000E+03 0.  0.
<mgrwt>
<rscale>  0 0.85159858E+03</rscale>
<asrwt>0</asrwt>
<pdfrwt beam="1">  1        1 0.27416577E+00 0.85159858E+03</pdfrwt>
<pdfrwt beam="2">  1       -1 0.19168673E+00 0.85159858E+03</pdfrwt>
<totfact> 0.74656951E-01</totfact>
</mgrwt>
</event>
<event>
 4    1  0.4964158E-009  0.8274869E+03  0.7818608E-02  0.9521062E-01
         -1   -1    0    0    0  501 -0.00000000000E+00  0.00000000000E+00  0.18569329654E+04  0.18569329654E+04  0.50400000000E-02 0.  1.
          1   -1    0    0  501    0  0.00000000000E+00 -0.00000000000E+00 -0.17766849006E+04  0.17766849006E+04  0.50400000000E-02 0. -1.
    8880022    1    1    2    0    0  0.54076768588E+03  0.60738223527E+03 -0.15771966034E+04  0.17810905785E+04  0.15294330000E+03 0.  0.
    8880022    1    1    2    0    0 -0.54076768588E+03 -0.60738223527E+03  0.16574446683E+04  0.18525272876E+04  0.15294330000E+03 0.  0.
<mgrwt>
<rscale>  0 0.82748687E+03</rscale>
<asrwt>0</asrwt>
<pdfrwt beam="1">  1        1 0.27333614E+00 0.82748687E+03</pdfrwt>
<pdfrwt beam="2">  1       -1 0.28568199E+00 0.82748687E+03</pdfrwt>
<totfact> 0.18238589E-01</totfact>
</mgrwt>
</event>
<event>
 4    1  0.4964158E-009  0.7532992E+03  0.7818608E-02  0.9630189E-01
         -1   -1    0    0    0  501 -0.00000000000E+00  0.00000000000E+00  0.11200100147E+04  0.11200100147E+04  0.50400000000E-02 0.  1.
          1   -1    0    0  501    0  0.00000000000E+00 -0.00000000000E+00 -0.15613937409E+04  0.15613937409E+04  0.50400000000E-02 0. -1.
    8880022    1    1    2    0    0 -0.65631196399E+03  0.33663424524E+03 -0.13226073021E+04  0.15220872963E+04  0.15294330000E+03 0.  0.
    8880022    1    1    2    0    0  0.65631196399E+03 -0.33663424524E+03  0.88122357589E+03  0.11593164593E+04  0.15294330000E+03 0.  1.
<mgrwt>
<rscale>  0 0.75329919E+03</rscale>
<asrwt>0</asrwt>
<pdfrwt beam="1">  1        1 0.24021442E+00 0.75329919E+03</pdfrwt>
<pdfrwt beam="2">  1       -1 0.17230923E+00 0.75329919E+03</pdfrwt>
<totfact> 0.14733734E+00</totfact>
</mgrwt>
</event>
<event>
 4    1  0.4964158E-009  0.7001442E+03  0.7818608E-02  0.9716986E-01
          1   -1    0    0  501    0  0.00000000000E+00  0.00000000000E+00  0.70989627348E+03  0.70989627350E+03  0.50400000000E-02 0. -1.
         -1   -1    0    0    0  501 -0.00000000000E+00 -0.00000000000E+00 -0.81307245244E+03  0.81307245245E+03  0.50400000000E-02 0.  1.
    8880022    1    1    2    0    0 -0.43553839577E+03  0.52641866401E+03  0.24404049990E+03  0.74145648734E+03  0.15294330000E+03 0.  0.
    8880022    1    1    2    0    0  0.43553839577E+03 -0.52641866401E+03 -0.34721667885E+03  0.78151223861E+03  0.15294330000E+03 0.  0.
<mgrwt>
<rscale>  0 0.70014424E+03</rscale>
<asrwt>0</asrwt>
<pdfrwt beam="1">  1        1 0.10921481E+00 0.70014424E+03</pdfrwt>
<pdfrwt beam="2">  1       -1 0.12508807E+00 0.70014424E+03</pdfrwt>
<totfact> 0.15414010E+01</totfact>
</mgrwt>
</event>
<event>
 4    1  0.4964158E-009  0.1114546E+04  0.7818608E-02  0.9191130E-01
         -1   -1    0    0    0  501 -0.00000000000E+00  0.00000000000E+00  0.12119557792E+04  0.12119557793E+04  0.50400000000E-02 0.  1.
          1   -1    0    0  501    0  0.00000000000E+00 -0.00000000000E+00 -0.14359449834E+04  0.14359449834E+04  0.50400000000E-02 0. -1.
    8880022    1    1    2    0    0 -0.64321653586E+03  0.89726948450E+03 -0.82028831852E+03  0.13838658238E+04  0.15294330000E+03 0.  0.
    8880022    1    1    2    0    0  0.64321653586E+03 -0.89726948450E+03  0.59629911436E+03  0.12640349388E+04  0.15294330000E+03 0.  0.
<mgrwt>
<rscale>  0 0.11145455E+04</rscale>
<asrwt>0</asrwt>
<pdfrwt beam="1">  1        1 0.22091461E+00 0.11145455E+04</pdfrwt>
<pdfrwt beam="2">  1       -1 0.18645473E+00 0.11145455E+04</pdfrwt>
<totfact> 0.13438669E+00</totfact>
</mgrwt>
</event>
<event>
 4    1  0.4964158E-009  0.1151627E+04  0.7818608E-02  0.9156284E-01
         -1   -1    0    0    0  501 -0.00000000000E+00  0.00000000000E+00  0.97239945004E+03  0.97239945005E+03  0.50400000000E-02 0.  1.
          1   -1    0    0  501    0  0.00000000000E+00 -0.00000000000E+00 -0.17810288765E+04  0.17810288765E+04  0.50400000000E-02 0. -1.
    8880022    1    1    2    0    0 -0.71758442434E+02  0.11391682886E+04  0.26195326058E+03  0.11810439567E+04  0.15294330000E+03 0.  0.
    8880022    1    1    2    0    0  0.71758442434E+02 -0.11391682886E+04 -0.10705826870E+04  0.15723843699E+04  0.15294330000E+03 0.  0.
<mgrwt>
<rscale>  0 0.11516272E+04</rscale>
<asrwt>0</asrwt>
<pdfrwt beam="1">  1        1 0.27400444E+00 0.11516272E+04</pdfrwt>
<pdfrwt beam="2">  1       -1 0.14959992E+00 0.11516272E+04</pdfrwt>
<totfact> 0.14567710E+00</totfact>
</mgrwt>
</event>
<event>
 4    1  0.4964158E-009  0.1044307E+04  0.7818608E-02  0.9261241E-01
         -1   -1    0    0    0  501 -0.00000000000E+00  0.00000000000E+00  0.16054926158E+04  0.16054926158E+04  0.50400000000E-02 0.  1.
          1   -1    0    0  501    0  0.00000000000E+00 -0.00000000000E+00 -0.13440370139E+04  0.13440370139E+04  0.50400000000E-02 0. -1.
    8880022    1    1    2    0    0  0.48347220861E+03 -0.91292990726E+03 -0.90643950051E+03  0.13828270366E+04  0.15294330000E+03 0.  0.
    8880022    1    1    2    0    0 -0.48347220861E+03  0.91292990726E+03  0.11678951024E+04  0.15667025931E+04  0.15294330000E+03 0.  0.
<mgrwt>
<rscale>  0 0.10443074E+04</rscale>
<asrwt>0</asrwt>
<pdfrwt beam="1">  1        1 0.20677492E+00 0.10443074E+04</pdfrwt>
<pdfrwt beam="2">  1       -1 0.24699886E+00 0.10443074E+04</pdfrwt>
<totfact> 0.61544467E-01</totfact>
</mgrwt>
</event>
<event>
 4    1  0.4964158E-009  0.5810043E+03  0.7818608E-02  0.9945619E-01
          1   -1    0    0  501    0  0.00000000000E+00  0.00000000000E+00  0.46263007228E+03  0.46263007231E+03  0.50400000000E-02 0. -1.
         -1   -1    0    0    0  501 -0.00000000000E+00 -0.00000000000E+00 -0.14690534282E+04  0.14690534282E+04  0.50400000000E-02 0.  1.
    8880022    1    1    2    0    0  0.35920367693E+03  0.43028723381E+03  0.18199695632E+03  0.60884228682E+03  0.15294330000E+03 0. -1.
    8880022    1    1    2    0    0 -0.35920367693E+03 -0.43028723381E+03 -0.11884203123E+04  0.13228412137E+04  0.15294330000E+03 0.  0.
<mgrwt>
<rscale>  0 0.58100434E+03</rscale>
<asrwt>0</asrwt>
<pdfrwt beam="1">  1        1 0.71173858E-01 0.58100434E+03</pdfrwt>
<pdfrwt beam="2">  1       -1 0.22600822E+00 0.58100434E+03</pdfrwt>
<totfact> 0.52752712E+00</totfact>
</mgrwt>
</event>
<event>
 4    1  0.4964158E-009  0.1503963E+04  0.7818608E-02  0.8881822E-01
         -1   -1    0    0    0  501 -0.00000000000E+00  0.00000000000E+00  0.12443639781E+04  0.12443639781E+04  0.50400000000E-02 0.  1.
          1   -1    0    0  501    0  0.00000000000E+00 -0.00000000000E+00 -0.19940827909E+04  0.19940827909E+04  0.50400000000E-02 0. -1.
    8880022    1    1    2    0    0  0.96558871367E+03 -0.11428697168E+04 -0.85640734750E+03  0.17307044668E+04  0.15294330000E+03 0.  0.
    8880022    1    1    2    0    0 -0.96558871367E+03  0.11428697168E+04  0.10668853467E+03  0.15077423022E+04  0.15294330000E+03 0.  0.
<mgrwt>
<rscale>  0 0.15039629E+04</rscale>
<asrwt>0</asrwt>
<pdfrwt beam="1">  1        1 0.30678197E+00 0.15039629E+04</pdfrwt>
<pdfrwt beam="2">  1       -1 0.19144061E+00 0.15039629E+04</pdfrwt>
<totfact> 0.49099550E-01</totfact>
</mgrwt>
</event>
<event>
 4    1  0.4964158E-009  0.1448013E+04  0.7818608E-02  0.8919779E-01
         -1   -1    0    0    0  501 -0.00000000000E+00  0.00000000000E+00  0.10777795370E+04  0.10777795370E+04  0.50400000000E-02 0.  1.
          1   -1    0    0  501    0  0.00000000000E+00 -0.00000000000E+00 -0.26820250807E+04  0.26820250807E+04  0.50400000000E-02 0. -1.
    8880022    1    1    2    0    0  0.13345812007E+04 -0.54059629684E+03 -0.17873098873E+04  0.23002651203E+04  0.15294330000E+03 0.  0.
    8880022    1    1    2    0    0 -0.13345812007E+04  0.54059629684E+03  0.18306434373E+03  0.14595394974E+04  0.15294330000E+03 0.  0.
<mgrwt>
<rscale>  0 0.14480135E+04</rscale>
<asrwt>0</asrwt>
<pdfrwt beam="1">  1        1 0.41261924E+00 0.14480135E+04</pdfrwt>
<pdfrwt beam="2">  1       -1 0.16581224E+00 0.14480135E+04</pdfrwt>
<totfact> 0.25500522E-01</totfact>
</mgrwt>
</event>
<event>
 4    1  0.4964158E-009  0.6946591E+03  0.7818608E-02  0.9726410E-01
         -1   -1    0    0    0  501 -0.00000000000E+00  0.00000000000E+00  0.45311948027E+03  0.45311948029E+03  0.50400000000E-02 0.  1.
          1   -1    0    0  501    0  0.00000000000E+00 -0.00000000000E+00 -0.10697889374E+04  0.10697889374E+04  0.50400000000E-02 0. -1.
    8880022    1    1    2    0    0 -0.29465466378E+03 -0.61019520246E+03 -0.35952758888E+03  0.78218367164E+03  0.15294330000E+03 0.  1.
    8880022    1    1    2    0    0  0.29465466378E+03  0.61019520246E+03 -0.25714186824E+03  0.74072474605E+03  0.15294330000E+03 0. -1.
<mgrwt>
<rscale>  0 0.69465906E+03</rscale>
<asrwt>0</asrwt>
<pdfrwt beam="1">  1        1 0.16458291E+00 0.69465906E+03</pdfrwt>
<pdfrwt beam="2">  1       -1 0.69710690E-01 0.69465906E+03</pdfrwt>
<totfact> 0.28775370E+01</totfact>
</mgrwt>
</event>
<event>
 4    1  0.4964158E-009  0.2371714E+03  0.7818608E-02  0.1121692E+00
          1   -1    0    0  501    0  0.00000000000E+00  0.00000000000E+00  0.22358933207E+04  0.22358933207E+04  0.50400000000E-02 0. -1.
         -1   -1    0    0    0  501 -0.00000000000E+00 -0.00000000000E+00 -0.16646340120E+03  0.16646340128E+03  0.50400000000E-02 0.  1.
    8880022    1    1    2    0    0 -0.17595053157E+03  0.43589416277E+02  0.21414093845E+04  0.21545032912E+04  0.15294330000E+03 0.  0.
    8880022    1    1    2    0    0  0.17595053157E+03 -0.43589416277E+02 -0.71979464976E+02  0.24785343081E+03  0.15294330000E+03 0.  0.
<mgrwt>
<rscale>  0 0.23717141E+03</rscale>
<asrwt>0</asrwt>
<pdfrwt beam="1">  1        1 0.34398356E+00 0.23717141E+03</pdfrwt>
<pdfrwt beam="2">  1       -1 0.25609756E-01 0.23717141E+03</pdfrwt>
<totfact> 0.32425857E+01</totfact>
</mgrwt>
</event>
<event>
 4    1  0.4964158E-009  0.5309163E+03  0.7818608E-02  0.1006010E+00
          1   -1    0    0  501    0  0.00000000000E+00  0.00000000000E+00  0.24604313003E+04  0.24604313003E+04  0.50400000000E-02 0. -1.
         -1   -1    0    0    0  501 -0.00000000000E+00 -0.00000000000E+00 -0.40842339594E+03  0.40842339598E+03  0.50400000000E-02 0.  1.
    8880022    1    1    2    0    0  0.11582550949E+03  0.49504032172E+03 -0.19072673606E+03  0.56413545327E+03  0.15294330000E+03 0.  0.
    8880022    1    1    2    0    0 -0.11582550949E+03 -0.49504032172E+03  0.22427346404E+04  0.23047192430E+04  0.15294330000E+03 0.  0.
<mgrwt>
<rscale>  0 0.53091630E+03</rscale>
<asrwt>0</asrwt>
<pdfrwt beam="1">  1        1 0.37852790E+00 0.53091630E+03</pdfrwt>
<pdfrwt beam="2">  1       -1 0.62834368E-01 0.53091630E+03</pdfrwt>
<totfact> 0.41247798E+00</totfact>
</mgrwt>
</event>
<event>
 4    1  0.4964158E-009  0.7857286E+03  0.7818608E-02  0.9580907E-01
          1   -1    0    0  501    0  0.00000000000E+00  0.00000000000E+00  0.19382260608E+04  0.19382260608E+04  0.50400000000E-02 0. -1.
         -1   -1    0    0    0  501 -0.00000000000E+00 -0.00000000000E+00 -0.51569394069E+03  0.51569394072E+03  0.50400000000E-02 0.  1.
    8880022    1    1    2    0    0 -0.62268822458E+03 -0.45413334419E+03 -0.47409270428E+02  0.78715755175E+03  0.15294330000E+03 0.  0.
    8880022    1    1    2    0    0  0.62268822458E+03  0.45413334419E+03  0.14699413905E+04  0.16667624497E+04  0.15294330000E+03 0.  0.
<mgrwt>
<rscale>  0 0.78572856E+03</rscale>
<asrwt>0</asrwt>
<pdfrwt beam="1">  1        1 0.29818862E+00 0.78572856E+03</pdfrwt>
<pdfrwt beam="2">  1       -1 0.79337530E-01 0.78572856E+03</pdfrwt>
<totfact> 0.54306991E+00</totfact>
</mgrwt>
</event>
<event>
 4    1  0.4964158E-009  0.1298249E+04  0.7818608E-02  0.9030955E-01
         -1   -1    0    0    0  501 -0.00000000000E+00  0.00000000000E+00  0.89288279854E+03  0.89288279856E+03  0.50400000000E-02 0.  1.
          1   -1    0    0  501    0  0.00000000000E+00 -0.00000000000E+00 -0.40938816600E+04  0.40938816600E+04  0.50400000000E-02 0. -1.
    8880022    1    1    2    0    0  0.84519186819E+03 -0.97350402705E+03 -0.34309022799E+04  0.36683158932E+04  0.15294330000E+03 0.  0.
    8880022    1    1    2    0    0 -0.84519186819E+03  0.97350402705E+03  0.22990341846E+03  0.13184485654E+04  0.15294330000E+03 0.  0.
<mgrwt>
<rscale>  0 0.12982492E+04</rscale>
<asrwt>0</asrwt>
<pdfrwt beam="1">  1        1 0.62982794E+00 0.12982492E+04</pdfrwt>
<pdfrwt beam="2">  1       -1 0.13736659E+00 0.12982492E+04</pdfrwt>
<totfact> 0.34741206E-02</totfact>
</mgrwt>
</event>
<event>
 4    1  0.4964158E-009  0.1422202E+04  0.7818608E-02  0.8937903E-01
         -1   -1    0    0    0  501 -0.00000000000E+00  0.00000000000E+00  0.98285266123E+03  0.98285266125E+03  0.50400000000E-02 0.  1.
          1   -1    0    0  501    0  0.00000000000E+00 -0.00000000000E+00 -0.21712039589E+04  0.21712039589E+04  0.50400000000E-02 0. -1.
    8880022    1    1    2    0    0  0.12757179920E+04 -0.60976187204E+03 -0.23399218830E+03  0.14413222863E+04  0.15294330000E+03 0.  0.
    8880022    1    1    2    0    0 -0.12757179920E+04  0.60976187204E+03 -0.95435910940E+03  0.17127343339E+04  0.15294330000E+03 0.  0.
<mgrwt>
<rscale>  0 0.14222017E+04</rscale>
<asrwt>0</asrwt>
<pdfrwt beam="1">  1        1 0.33403138E+00 0.14222017E+04</pdfrwt>
<pdfrwt beam="2">  1       -1 0.15120810E+00 0.14222017E+04</pdfrwt>
<totfact> 0.74520108E-01</totfact>
</mgrwt>
</event>
<event>
 4    1  0.4964158E-009  0.9223772E+03  0.7818608E-02  0.9398033E-01
          1   -1    0    0  501    0  0.00000000000E+00  0.00000000000E+00  0.84983850075E+03  0.84983850076E+03  0.50400000000E-02 0. -1.
         -1   -1    0    0    0  501 -0.00000000000E+00 -0.00000000000E+00 -0.12126259680E+04  0.12126259680E+04  0.50400000000E-02 0.  1.
    8880022    1    1    2    0    0  0.48091236221E+02 -0.90833651984E+03 -0.61208617156E+03  0.11069910274E+04  0.15294330000E+03 0.  0.
    8880022    1    1    2    0    0 -0.48091236221E+02  0.90833651984E+03  0.24929870428E+03  0.95547344142E+03  0.15294330000E+03 0.  0.
<mgrwt>
<rscale>  0 0.92237718E+03</rscale>
<asrwt>0</asrwt>
<pdfrwt beam="1">  1        1 0.13074438E+00 0.92237718E+03</pdfrwt>
<pdfrwt beam="2">  1       -1 0.18655784E+00 0.92237718E+03</pdfrwt>
<totfact> 0.37919136E+00</totfact>
</mgrwt>
</event>
<event>
 4    1  0.4964158E-009  0.1171942E+04  0.7818608E-02  0.9137776E-01
          1   -1    0    0  501    0  0.00000000000E+00  0.00000000000E+00  0.12943414763E+04  0.12943414763E+04  0.50400000000E-02 0. -1.
         -1   -1    0    0    0  501 -0.00000000000E+00 -0.00000000000E+00 -0.17506206683E+04  0.17506206683E+04  0.50400000000E-02 0.  1.
    8880022    1    1    2    0    0  0.98008403350E+02  0.11577787639E+04 -0.11836245873E+04  0.16656578670E+04  0.15294330000E+03 0.  0.
    8880022    1    1    2    0    0 -0.98008403350E+02 -0.11577787639E+04  0.72734539520E+03  0.13793042776E+04  0.15294330000E+03 0.  0.
<mgrwt>
<rscale>  0 0.11719424E+04</rscale>
<asrwt>0</asrwt>
<pdfrwt beam="1">  1        1 0.19912946E+00 0.11719424E+04</pdfrwt>
<pdfrwt beam="2">  1       -1 0.26932626E+00 0.11719424E+04</pdfrwt>
<totfact> 0.46980669E-01</totfact>
</mgrwt>
</event>
<event>
 4    1  0.4964158E-009  0.7095065E+03  0.7818608E-02  0.9701112E-01
         -1   -1    0    0    0  501 -0.00000000000E+00  0.00000000000E+00  0.79597207861E+03  0.79597207863E+03  0.50400000000E-02 0.  1.
          1   -1    0    0  501    0  0.00000000000E+00 -0.00000000000E+00 -0.97077423791E+03  0.97077423792E+03  0.50400000000E-02 0. -1.
    8880022    1    1    2    0    0  0.69104127195E+03  0.49696291427E+02 -0.60891057295E+03  0.93497138982E+03  0.15294330000E+03 0.  0.
    8880022    1    1    2    0    0 -0.69104127195E+03 -0.49696291427E+02  0.43410841365E+03  0.83177492673E+03  0.15294330000E+03 0.  0.
<mgrwt>
<rscale>  0 0.70950646E+03</rscale>
<asrwt>0</asrwt>
<pdfrwt beam="1">  1        1 0.14934988E+00 0.70950646E+03</pdfrwt>
<pdfrwt beam="2">  1       -1 0.12245724E+00 0.70950646E+03</pdfrwt>
<totfact> 0.97573953E+00</totfact>
</mgrwt>
</event>
<event>
 4    1  0.4964158E-009  0.9733928E+03  0.7818608E-02  0.9338218E-01
         -1   -1    0    0    0  501 -0.00000000000E+00  0.00000000000E+00  0.37881635722E+03  0.37881635725E+03  0.50400000000E-02 0.  1.
          1   -1    0    0  501    0  0.00000000000E+00 -0.00000000000E+00 -0.31416491221E+04  0.31416491221E+04  0.50400000000E-02 0. -1.
    8880022    1    1    2    0    0  0.92140509512E+03 -0.27407020361E+03 -0.21761752037E+04  0.23839530189E+04  0.15294330000E+03 0.  0.
    8880022    1    1    2    0    0 -0.92140509512E+03  0.27407020361E+03 -0.58665756119E+03  0.11365124605E+04  0.15294330000E+03 0.  0.
<mgrwt>
<rscale>  0 0.97339277E+03</rscale>
<asrwt>0</asrwt>
<pdfrwt beam="1">  1        1 0.48333062E+00 0.97339277E+03</pdfrwt>
<pdfrwt beam="2">  1       -1 0.58279442E-01 0.97339277E+03</pdfrwt>
<totfact> 0.14519941E+00</totfact>
</mgrwt>
</event>
<event>
 4    1  0.4964158E-009  0.5567790E+03  0.7818608E-02  0.9999369E-01
         -1   -1    0    0    0  501 -0.00000000000E+00  0.00000000000E+00  0.55709240885E+03  0.55709240887E+03  0.50400000000E-02 0.  1.
          1   -1    0    0  501    0  0.00000000000E+00 -0.00000000000E+00 -0.32479644886E+04  0.32479644886E+04  0.50400000000E-02 0. -1.
    8880022    1    1    2    0    0 -0.52016793066E+03  0.12663557051E+03 -0.30773352185E+04  0.31272983458E+04  0.15294330000E+03 0.  0.
    8880022    1    1    2    0    0  0.52016793066E+03 -0.12663557051E+03  0.38646313869E+03  0.67775855169E+03  0.15294330000E+03 0.  0.
<mgrwt>
<rscale>  0 0.55677904E+03</rscale>
<asrwt>0</asrwt>
<pdfrwt beam="1">  1        1 0.49968683E+00 0.55677904E+03</pdfrwt>
<pdfrwt beam="2">  1       -1 0.85706526E-01 0.55677904E+03</pdfrwt>
<totfact> 0.60424806E-01</totfact>
</mgrwt>
</event>
<event>
 4    1  0.4964158E-009  0.1815078E+03  0.7818608E-02  0.1166352E+00
          1   -1    0    0  501    0  0.00000000000E+00  0.00000000000E+00  0.64819634832E+03  0.64819634834E+03  0.50400000000E-02 0. -1.
         -1   -1    0    0    0  501 -0.00000000000E+00 -0.00000000000E+00 -0.99061950371E+02  0.99061950499E+02  0.50400000000E-02 0.  1.
    8880022    1    1    2    0    0  0.73459827291E+02  0.64475528789E+02  0.13847606552E+02  0.18203529674E+03  0.15294330000E+03 0.  0.
    8880022    1    1    2    0    0 -0.73459827291E+02 -0.64475528789E+02  0.53528679140E+03  0.56522300210E+03  0.15294330000E+03 0. -1.
<mgrwt>
<rscale>  0 0.18150783E+03</rscale>
<asrwt>0</asrwt>
<pdfrwt beam="1">  1        1 0.99722513E-01 0.18150783E+03</pdfrwt>
<pdfrwt beam="2">  1       -1 0.15240300E-01 0.18150783E+03</pdfrwt>
<totfact> 0.98925473E+02</totfact>
</mgrwt>
</event>
<event>
 4    1  0.4964158E-009  0.5559911E+03  0.7818608E-02  0.1000117E+00
          1   -1    0    0  501    0  0.00000000000E+00  0.00000000000E+00  0.22356664557E+04  0.22356664557E+04  0.50400000000E-02 0. -1.
         -1   -1    0    0    0  501 -0.00000000000E+00 -0.00000000000E+00 -0.57807777725E+03  0.57807777728E+03  0.50400000000E-02 0.  1.
    8880022    1    1    2    0    0 -0.42902308431E+03  0.31886310474E+03 -0.39834200412E+03  0.68396088462E+03  0.15294330000E+03 0.  0.
    8880022    1    1    2    0    0  0.42902308431E+03 -0.31886310474E+03  0.20559306826E+04  0.21297833484E+04  0.15294330000E+03 0. -1.
<mgrwt>
<rscale>  0 0.55599113E+03</rscale>
<asrwt>0</asrwt>
<pdfrwt beam="1">  1        1 0.34394870E+00 0.55599113E+03</pdfrwt>
<pdfrwt beam="2">  1       -1 0.88935040E-01 0.55599113E+03</pdfrwt>
<totfact> 0.28217920E+00</totfact>
</mgrwt>
</event>
<event>
 4    1  0.4964158E-009  0.2429818E+03  0.7818608E-02  0.1117822E+00
         -1   -1    0    0    0  501 -0.00000000000E+00  0.00000000000E+00  0.11932048377E+04  0.11932048378E+04  0.50400000000E-02 0.  1.
          1   -1    0    0  501    0  0.00000000000E+00 -0.00000000000E+00 -0.85068594062E+03  0.85068594063E+03  0.50400000000E-02 0. -1.
    8880022    1    1    2    0    0  0.55842928225E+01  0.18872557112E+03  0.11630387716E+04  0.11881495541E+04  0.15294330000E+03 0.  0.
    8880022    1    1    2    0    0 -0.55842928225E+01 -0.18872557112E+03 -0.82051987450E+03  0.85574122431E+03  0.15294330000E+03 0. -1.
<mgrwt>
<rscale>  0 0.24298185E+03</rscale>
<asrwt>0</asrwt>
<pdfrwt beam="1">  1        1 0.13087476E+00 0.24298185E+03</pdfrwt>
<pdfrwt beam="2">  1       -1 0.18356997E+00 0.24298185E+03</pdfrwt>
<totfact> 0.46710959E+00</totfact>
</mgrwt>
</event>
<event>
 4    1  0.4964158E-009  0.1005401E+04  0.7818608E-02  0.9302641E-01
          1   -1    0    0  501    0  0.00000000000E+00  0.00000000000E+00  0.98159660311E+03  0.98159660313E+03  0.50400000000E-02 0. -1.
         -1   -1    0    0    0  501 -0.00000000000E+00 -0.00000000000E+00 -0.16389393728E+04  0.16389393728E+04  0.50400000000E-02 0.  1.
    8880022    1    1    2    0    0 -0.18636800799E+03 -0.97606685887E+03 -0.11274808261E+04  0.15106436422E+04  0.15294330000E+03 0.  0.
    8880022    1    1    2    0    0  0.18636800799E+03  0.97606685887E+03  0.47013805645E+03  0.11098923337E+04  0.15294330000E+03 0.  0.
<mgrwt>
<rscale>  0 0.10054010E+04</rscale>
<asrwt>0</asrwt>
<pdfrwt beam="1">  1        1 0.15101486E+00 0.10054010E+04</pdfrwt>
<pdfrwt beam="2">  1       -1 0.25214452E+00 0.10054010E+04</pdfrwt>
<totfact> 0.10640898E+00</totfact>
</mgrwt>
</event>
<event>
 4    1  0.4964158E-009  0.5435925E+03  0.7818608E-02  0.1002988E+00
         -1   -1    0    0    0  501 -0.00000000000E+00  0.00000000000E+00  0.31791309138E+03  0.31791309142E+03  0.50400000000E-02 0.  1.
          1   -1    0    0  501    0  0.00000000000E+00 -0.00000000000E+00 -0.20391729112E+04  0.20391729112E+04  0.50400000000E-02 0. -1.
    8880022    1    1    2    0    0  0.46379004767E+03 -0.23874664562E+03  0.87717226727E+01  0.54366328297E+03  0.15294330000E+03 0.  0.
    8880022    1    1    2    0    0 -0.46379004767E+03  0.23874664562E+03 -0.17300315425E+04  0.18134227197E+04  0.15294330000E+03 0.  0.
<mgrwt>
<rscale>  0 0.54359251E+03</rscale>
<asrwt>0</asrwt>
<pdfrwt beam="1">  1        1 0.31371890E+00 0.54359251E+03</pdfrwt>
<pdfrwt beam="2">  1       -1 0.48909708E-01 0.54359251E+03</pdfrwt>
<totfact> 0.12727549E+01</totfact>
</mgrwt>
</event>
<event>
 4    1  0.4964158E-009  0.8666407E+03  0.7818608E-02  0.9468271E-01
         -1   -1    0    0    0  501 -0.00000000000E+00  0.00000000000E+00  0.14412231485E+04  0.14412231485E+04  0.50400000000E-02 0.  1.
          1   -1    0    0  501    0  0.00000000000E+00 -0.00000000000E+00 -0.65713889099E+03  0.65713889101E+03  0.50400000000E-02 0. -1.
    8880022    1    1    2    0    0  0.82775667914E+03 -0.20613909653E+03 -0.85271516121E+02  0.87082566077E+03  0.15294330000E+03 0.  0.
    8880022    1    1    2    0    0 -0.82775667914E+03  0.20613909653E+03  0.86935577358E+03  0.12275363787E+04  0.15294330000E+03 0.  0.
<mgrwt>
<rscale>  0 0.86664070E+03</rscale>
<asrwt>0</asrwt>
<pdfrwt beam="1">  1        1 0.10109829E+00 0.86664070E+03</pdfrwt>
<pdfrwt beam="2">  1       -1 0.22172664E+00 0.86664070E+03</pdfrwt>
<totfact> 0.32835493E+00</totfact>
</mgrwt>
</event>
<event>
 4    1  0.4964158E-009  0.9639361E+03  0.7818608E-02  0.9349008E-01
         -1   -1    0    0    0  501 -0.00000000000E+00  0.00000000000E+00  0.54707758748E+03  0.54707758751E+03  0.50400000000E-02 0.  1.
          1   -1    0    0  501    0  0.00000000000E+00 -0.00000000000E+00 -0.28177651011E+04  0.28177651011E+04  0.50400000000E-02 0. -1.
    8880022    1    1    2    0    0  0.64907145948E+03 -0.69605131443E+03 -0.21957261021E+04  0.23979962385E+04  0.15294330000E+03 0.  0.
    8880022    1    1    2    0    0 -0.64907145948E+03  0.69605131443E+03 -0.74961411608E+02  0.96684645011E+03  0.15294330000E+03 0.  0.
<mgrwt>
<rscale>  0 0.96393612E+03</rscale>
<asrwt>0</asrwt>
<pdfrwt beam="1">  1        1 0.43350232E+00 0.96393612E+03</pdfrwt>
<pdfrwt beam="2">  1       -1 0.84165784E-01 0.96393612E+03</pdfrwt>
<totfact> 0.11667548E+00</totfact>
</mgrwt>
</event>
<event>
 4    1  0.4964158E-009  0.4490799E+03  0.7818608E-02  0.1027997E+00
          1   -1    0    0  501    0  0.00000000000E+00  0.00000000000E+00  0.64715846943E+03  0.64715846945E+03  0.50400000000E-02 0. -1.
         -1   -1    0    0    0  501 -0.00000000000E+00 -0.00000000000E+00 -0.62540574979E+03  0.62540574981E+03  0.50400000000E-02 0.  1.
    8880022    1    1    2    0    0 -0.18286653700E+03 -0.38057967499E+03  0.46156834594E+03  0.64398606379E+03  0.15294330000E+03 0.  0.
    8880022    1    1    2    0    0  0.18286653700E+03  0.38057967499E+03 -0.43981562630E+03  0.62857815546E+03  0.15294330000E+03 0.  1.
<mgrwt>
<rscale>  0 0.44907985E+03</rscale>
<asrwt>0</asrwt>
<pdfrwt beam="1">  1        1 0.99562841E-01 0.44907985E+03</pdfrwt>
<pdfrwt beam="2">  1       -1 0.96216270E-01 0.44907985E+03</pdfrwt>
<totfact> 0.33941758E+01</totfact>
</mgrwt>
</event>
<event>
 4    1  0.4964158E-009  0.1140888E+04  0.7818608E-02  0.9166231E-01
          1   -1    0    0  501    0  0.00000000000E+00  0.00000000000E+00  0.81763322184E+03  0.81763322185E+03  0.50400000000E-02 0. -1.
         -1   -1    0    0    0  501 -0.00000000000E+00 -0.00000000000E+00 -0.18142774177E+04  0.18142774177E+04  0.50400000000E-02 0.  1.
    8880022    1    1    2    0    0  0.20672678717E+03 -0.11115294583E+04 -0.37649053951E+02  0.11415090036E+04  0.15294330000E+03 0.  0.
    8880022    1    1    2    0    0 -0.20672678717E+03  0.11115294583E+04 -0.95899514191E+03  0.14904016359E+04  0.15294330000E+03 0.  0.
<mgrwt>
<rscale>  0 0.11408880E+04</rscale>
<asrwt>0</asrwt>
<pdfrwt beam="1">  1        1 0.12578973E+00 0.11408880E+04</pdfrwt>
<pdfrwt beam="2">  1       -1 0.27911960E+00 0.11408880E+04</pdfrwt>
<totfact> 0.95518929E-01</totfact>
</mgrwt>
</event>
<event>
 4    1  0.4964158E-009  0.9278597E+03  0.7818608E-02  0.9391410E-01
         -1   -1    0    0    0  501 -0.00000000000E+00  0.00000000000E+00  0.90789778361E+03  0.90789778363E+03  0.50400000000E-02 0.  1.
          1   -1    0    0  501    0  0.00000000000E+00 -0.00000000000E+00 -0.17838737220E+04  0.17838737220E+04  0.50400000000E-02 0. -1.
    8880022    1    1    2    0    0  0.36567134946E+03  0.83893767838E+03  0.48315870913E+03  0.10461194746E+04  0.15294330000E+03 0.  0.
    8880022    1    1    2    0    0 -0.36567134946E+03 -0.83893767838E+03 -0.13591346475E+04  0.16456520310E+04  0.15294330000E+03 0.  0.
<mgrwt>
<rscale>  0 0.92785970E+03</rscale>
<asrwt>0</asrwt>
<pdfrwt beam="1">  1        1 0.27444211E+00 0.92785970E+03</pdfrwt>
<pdfrwt beam="2">  1       -1 0.13967658E+00 0.92785970E+03</pdfrwt>
<totfact> 0.17960028E+00</totfact>
</mgrwt>
</event>
<event>
 4    1  0.4964158E-009  0.5450652E+03  0.7818608E-02  0.1002643E+00
          1   -1    0    0  501    0  0.00000000000E+00  0.00000000000E+00  0.29029964005E+04  0.29029964005E+04  0.50400000000E-02 0. -1.
         -1   -1    0    0    0  501 -0.00000000000E+00 -0.00000000000E+00 -0.13506939987E+04  0.13506939988E+04  0.50400000000E-02 0.  1.
    8880022    1    1    2    0    0  0.41583833773E+03  0.31746328852E+03 -0.12685321798E+04  0.13806773725E+04  0.15294330000E+03 0.  1.
    8880022    1    1    2    0    0 -0.41583833773E+03 -0.31746328852E+03  0.28208345816E+04  0.28730130268E+04  0.15294330000E+03 0.  0.
<mgrwt>
<rscale>  0 0.54506524E+03</rscale>
<asrwt>0</asrwt>
<pdfrwt beam="1">  1        1 0.44661483E+00 0.54506524E+03</pdfrwt>
<pdfrwt beam="2">  1       -1 0.20779908E+00 0.54506524E+03</pdfrwt>
<totfact> 0.10940320E-01</totfact>
</mgrwt>
</event>
<event>
 4    1  0.4964158E-009  0.3867049E+03  0.7818608E-02  0.1048483E+00
         -1   -1    0    0    0  501 -0.00000000000E+00  0.00000000000E+00  0.12891896941E+04  0.12891896941E+04  0.50400000000E-02 0.  1.
          1   -1    0    0  501    0  0.00000000000E+00 -0.00000000000E+00 -0.18831562945E+04  0.18831562945E+04  0.50400000000E-02 0. -1.
    8880022    1    1    2    0    0  0.24399243206E+03  0.25810215256E+03 -0.18335285584E+04  0.18738643642E+04  0.15294330000E+03 0.  0.
    8880022    1    1    2    0    0 -0.24399243206E+03 -0.25810215256E+03  0.12395619580E+04  0.12984816244E+04  0.15294330000E+03 0.  0.
<mgrwt>
<rscale>  0 0.38670490E+03</rscale>
<asrwt>0</asrwt>
<pdfrwt beam="1">  1        1 0.28971635E+00 0.38670490E+03</pdfrwt>
<pdfrwt beam="2">  1       -1 0.19833688E+00 0.38670490E+03</pdfrwt>
<totfact> 0.65903561E-01</totfact>
</mgrwt>
</event>
<event>
 4    1  0.4964158E-009  0.8662597E+03  0.7818608E-02  0.9468770E-01
         -1   -1    0    0    0  501 -0.00000000000E+00  0.00000000000E+00  0.82554854695E+03  0.82554854696E+03  0.50400000000E-02 0.  1.
          1   -1    0    0  501    0  0.00000000000E+00 -0.00000000000E+00 -0.14472894295E+04  0.14472894295E+04  0.50400000000E-02 0. -1.
    8880022    1    1    2    0    0 -0.54714372710E+03  0.65394797469E+03  0.38220002507E+03  0.94682771605E+03  0.15294330000E+03 0.  0.
    8880022    1    1    2    0    0  0.54714372710E+03 -0.65394797469E+03 -0.10039409076E+04  0.13260102604E+04  0.15294330000E+03 0.  0.
<mgrwt>
<rscale>  0 0.86625970E+03</rscale>
<asrwt>0</asrwt>
<pdfrwt beam="1">  1        1 0.22265991E+00 0.86625970E+03</pdfrwt>
<pdfrwt beam="2">  1       -1 0.12700747E+00 0.86625970E+03</pdfrwt>
<totfact> 0.39175155E+00</totfact>
</mgrwt>
</event>
<event>
 4    1  0.5672660E-009  0.1122186E+04  0.7818608E-02  0.9183834E-01
         -1   -1    0    0    0  501 -0.00000000000E+00  0.00000000000E+00  0.99844620928E+03  0.99844620929E+03  0.50400000000E-02 0.  1.
          1   -1    0    0  501    0  0.00000000000E+00 -0.00000000000E+00 -0.28458831420E+04  0.28458831420E+04  0.50400000000E-02 0. -1.
    8880022    1    1    2    0    0 -0.96781197639E+03  0.54703651455E+03  0.51059807946E+03  0.12328872705E+04  0.15294330000E+03 0.  0.
    8880022    1    1    2    0    0  0.96781197639E+03 -0.54703651455E+03 -0.23580350122E+04  0.26114420809E+04  0.15294330000E+03 0.  0.
<mgrwt>
<rscale>  0 0.11221856E+04</rscale>
<asrwt>0</asrwt>
<pdfrwt beam="1">  1        1 0.43782817E+00 0.11221856E+04</pdfrwt>
<pdfrwt beam="2">  1       -1 0.15360711E+00 0.11221856E+04</pdfrwt>
<totfact> 0.25352432E-01</totfact>
</mgrwt>
</event>
<event>
 4    1  0.4964158E-009  0.9158503E+03  0.7818608E-02  0.9405982E-01
          1   -1    0    0  501    0  0.00000000000E+00  0.00000000000E+00  0.16745000580E+04  0.16745000580E+04  0.50400000000E-02 0. -1.
         -1   -1    0    0    0  501 -0.00000000000E+00 -0.00000000000E+00 -0.78376976844E+03  0.78376976846E+03  0.50400000000E-02 0.  1.
    8880022    1    1    2    0    0  0.74092471449E+03 -0.51615959270E+03  0.11837575654E+04  0.14966842634E+04  0.15294330000E+03 0.  0.
    8880022    1    1    2    0    0 -0.74092471449E+03  0.51615959270E+03 -0.29302727584E+03  0.96158556306E+03  0.15294330000E+03 0.  0.
<mgrwt>
<rscale>  0 0.91585032E+03</rscale>
<asrwt>0</asrwt>
<pdfrwt beam="1">  1        1 0.25761539E+00 0.91585032E+03</pdfrwt>
<pdfrwt beam="2">  1       -1 0.12057997E+00 0.91585032E+03</pdfrwt>
<totfact> 0.30928564E+00</totfact>
</mgrwt>
</event>
<event>
 4    1  0.4964158E-009  0.4767845E+03  0.7818608E-02  0.1020023E+00
         -1   -1    0    0    0  501 -0.00000000000E+00  0.00000000000E+00  0.40173748262E+03  0.40173748265E+03  0.50400000000E-02 0.  1.
          1   -1    0    0  501    0  0.00000000000E+00 -0.00000000000E+00 -0.92631325148E+03  0.92631325149E+03  0.50400000000E-02 0. -1.
    8880022    1    1    2    0    0  0.29388974130E+03  0.34287114536E+03 -0.67651238115E+03  0.82764271109E+03  0.15294330000E+03 0.  0.
    8880022    1    1    2    0    0 -0.29388974130E+03 -0.34287114536E+03  0.15193661230E+03  0.50040802305E+03  0.15294330000E+03 0.  0.
<mgrwt>
<rscale>  0 0.47678450E+03</rscale>
<asrwt>0</asrwt>
<pdfrwt beam="1">  1        1 0.14250973E+00 0.47678450E+03</pdfrwt>
<pdfrwt beam="2">  1       -1 0.61805767E-01 0.47678450E+03</pdfrwt>
<totfact> 0.48680970E+01</totfact>
</mgrwt>
</event>
<event>
 4    1  0.4964158E-009  0.1384000E+04  0.7818608E-02  0.8965482E-01
          1   -1    0    0  501    0  0.00000000000E+00  0.00000000000E+00  0.26177029124E+04  0.26177029124E+04  0.50400000000E-02 0. -1.
         -1   -1    0    0    0  501 -0.00000000000E+00 -0.00000000000E+00 -0.95196246905E+03  0.95196246907E+03  0.50400000000E-02 0.  1.
    8880022    1    1    2    0    0 -0.13379986782E+04 -0.31909853123E+03  0.16913432928E+04  0.21854285902E+04  0.15294330000E+03 0.  0.
    8880022    1    1    2    0    0  0.13379986782E+04  0.31909853123E+03 -0.25602849457E+02  0.13842367913E+04  0.15294330000E+03 0.  0.
<mgrwt>
<rscale>  0 0.13840000E+04</rscale>
<asrwt>0</asrwt>
<pdfrwt beam="1">  1        1 0.40272352E+00 0.13840000E+04</pdfrwt>
<pdfrwt beam="2">  1       -1 0.14645577E+00 0.13840000E+04</pdfrwt>
<totfact> 0.40219003E-01</totfact>
</mgrwt>
</event>
<event>
 4    1  0.4964158E-009  0.4954166E+03  0.7818608E-02  0.1014982E+00
          1   -1    0    0  501    0  0.00000000000E+00  0.00000000000E+00  0.21924690995E+04  0.21924690995E+04  0.50400000000E-02 0. -1.
         -1   -1    0    0    0  501 -0.00000000000E+00 -0.00000000000E+00 -0.24391810321E+03  0.24391810326E+03  0.50400000000E-02 0.  1.
    8880022    1    1    2    0    0  0.33947150928E+03  0.32681043686E+03  0.18703327529E+04  0.19348339016E+04  0.15294330000E+03 0.  0.
    8880022    1    1    2    0    0 -0.33947150928E+03 -0.32681043686E+03  0.78218243355E+02  0.50155330112E+03  0.15294330000E+03 0.  1.
<mgrwt>
<rscale>  0 0.49541661E+03</rscale>
<asrwt>0</asrwt>
<pdfrwt beam="1">  1        1 0.33730295E+00 0.49541661E+03</pdfrwt>
<pdfrwt beam="2">  1       -1 0.37525861E-01 0.49541661E+03</pdfrwt>
<totfact> 0.16521957E+01</totfact>
</mgrwt>
</event>
<event>
 4    1  0.4964158E-009  0.7536872E+03  0.7818608E-02  0.9629583E-01
          1   -1    0    0  501    0  0.00000000000E+00  0.00000000000E+00  0.59557608651E+03  0.59557608653E+03  0.50400000000E-02 0. -1.
         -1   -1    0    0    0  501 -0.00000000000E+00 -0.00000000000E+00 -0.11421380801E+04  0.11421380801E+04  0.50400000000E-02 0.  1.
    8880022    1    1    2    0    0  0.20178850012E+03  0.70988314182E+03 -0.62613037891E+03  0.97983854702E+03  0.15294330000E+03 0.  0.
    8880022    1    1    2    0    0 -0.20178850012E+03 -0.70988314182E+03  0.79568385332E+02  0.75787561960E+03  0.15294330000E+03 0.  0.
<mgrwt>
<rscale>  0 0.75368715E+03</rscale>
<asrwt>0</asrwt>
<pdfrwt beam="1">  1        1 0.91627090E-01 0.75368715E+03</pdfrwt>
<pdfrwt beam="2">  1       -1 0.17571355E+00 0.75368715E+03</pdfrwt>
<totfact> 0.79825077E+00</totfact>
</mgrwt>
</event>
<event>
 4    1  0.4964158E-009  0.1548975E+04  0.7818608E-02  0.8852523E-01
          1   -1    0    0  501    0  0.00000000000E+00  0.00000000000E+00  0.19229066605E+04  0.19229066605E+04  0.50400000000E-02 0. -1.
         -1   -1    0    0    0  501 -0.00000000000E+00 -0.00000000000E+00 -0.15034344022E+04  0.15034344022E+04  0.50400000000E-02 0.  1.
    8880022    1    1    2    0    0  0.14914078671E+04 -0.38940079887E+03 -0.49675013799E+03  0.16266784442E+04  0.15294330000E+03 0.  0.
    8880022    1    1    2    0    0 -0.14914078671E+04  0.38940079887E+03  0.91622239628E+03  0.17996626186E+04  0.15294330000E+03 0.  0.
<mgrwt>
<rscale>  0 0.15489745E+04</rscale>
<asrwt>0</asrwt>
<pdfrwt beam="1">  1        1 0.29583179E+00 0.15489745E+04</pdfrwt>
<pdfrwt beam="2">  1       -1 0.23129760E+00 0.15489745E+04</pdfrwt>
<totfact> 0.29206378E-01</totfact>
</mgrwt>
</event>
<event>
 4    1  0.4964158E-009  0.6599594E+03  0.7818608E-02  0.9788269E-01
         -1   -1    0    0    0  501 -0.00000000000E+00  0.00000000000E+00  0.17703608139E+04  0.17703608140E+04  0.50400000000E-02 0.  1.
          1   -1    0    0  501    0  0.00000000000E+00 -0.00000000000E+00 -0.33121385989E+03  0.33121385993E+03  0.50400000000E-02 0. -1.
    8880022    1    1    2    0    0  0.64023706741E+03  0.47447114376E+02  0.18665407033E+03  0.68584701365E+03  0.15294330000E+03 0.  0.
    8880022    1    1    2    0    0 -0.64023706741E+03 -0.47447114376E+02  0.12524928837E+04  0.14157276602E+04  0.15294330000E+03 0.  0.
<mgrwt>
<rscale>  0 0.65995938E+03</rscale>
<asrwt>0</asrwt>
<pdfrwt beam="1">  1        1 0.50955979E-01 0.65995938E+03</pdfrwt>
<pdfrwt beam="2">  1       -1 0.27236320E+00 0.65995938E+03</pdfrwt>
<totfact> 0.40646783E+00</totfact>
</mgrwt>
</event>
<event>
 4    1  0.4964158E-009  0.1088034E+04  0.7818608E-02  0.9216934E-01
         -1   -1    0    0    0  501 -0.00000000000E+00  0.00000000000E+00  0.17999023044E+04  0.17999023044E+04  0.50400000000E-02 0.  1.
          1   -1    0    0  501    0  0.00000000000E+00 -0.00000000000E+00 -0.20803697161E+04  0.20803697161E+04  0.50400000000E-02 0. -1.
    8880022    1    1    2    0    0 -0.10449411862E+04  0.26177220311E+03  0.14641640117E+04  0.18241695850E+04  0.15294330000E+03 0.  0.
    8880022    1    1    2    0    0  0.10449411862E+04 -0.26177220311E+03 -0.17446314234E+04  0.20561024355E+04  0.15294330000E+03 0.  0.
<mgrwt>
<rscale>  0 0.10880342E+04</rscale>
<asrwt>0</asrwt>
<pdfrwt beam="1">  1        1 0.32005688E+00 0.10880342E+04</pdfrwt>
<pdfrwt beam="2">  1       -1 0.27690805E+00 0.10880342E+04</pdfrwt>
<totfact> 0.12296392E-01</totfact>
</mgrwt>
</event>
<event>
 4    1  0.4964158E-009  0.1148952E+04  0.7818608E-02  0.9158750E-01
         -1   -1    0    0    0  501 -0.00000000000E+00  0.00000000000E+00  0.11964409225E+04  0.11964409225E+04  0.50400000000E-02 0.  1.
          1   -1    0    0  501    0  0.00000000000E+00 -0.00000000000E+00 -0.13422068045E+04  0.13422068045E+04  0.50400000000E-02 0. -1.
    8880022    1    1    2    0    0  0.19792977672E+03  0.11213937494E+04  0.46258382877E+03  0.12385780514E+04  0.15294330000E+03 0.  0.
    8880022    1    1    2    0    0 -0.19792977672E+03 -0.11213937494E+04 -0.60834971083E+03  0.13000696756E+04  0.15294330000E+03 0.  0.
<mgrwt>
<rscale>  0 0.11489525E+04</rscale>
<asrwt>0</asrwt>
<pdfrwt beam="1">  1        1 0.20649335E+00 0.11489525E+04</pdfrwt>
<pdfrwt beam="2">  1       -1 0.18406783E+00 0.11489525E+04</pdfrwt>
<totfact> 0.16195440E+00</totfact>
</mgrwt>
</event>
<event>
 4    1  0.4964158E-009  0.3230081E+03  0.7818608E-02  0.1074273E+00
         -1   -1    0    0    0  501 -0.00000000000E+00  0.00000000000E+00  0.64719017595E+03  0.64719017597E+03  0.50400000000E-02 0.  1.
          1   -1    0    0  501    0  0.00000000000E+00 -0.00000000000E+00 -0.23659711507E+04  0.23659711508E+04  0.50400000000E-02 0. -1.
    8880022    1    1    2    0    0 -0.11121485032E+03  0.26186611121E+03 -0.23137384598E+04  0.23361763453E+04  0.15294330000E+03 0.  0.
    8880022    1    1    2    0    0  0.11121485032E+03 -0.26186611121E+03  0.59495748497E+03  0.67698498142E+03  0.15294330000E+03 0.  0.
<mgrwt>
<rscale>  0 0.32300814E+03</rscale>
<asrwt>0</asrwt>
<pdfrwt beam="1">  1        1 0.36399556E+00 0.32300814E+03</pdfrwt>
<pdfrwt beam="2">  1       -1 0.99567720E-01 0.32300814E+03</pdfrwt>
<totfact> 0.19610765E+00</totfact>
</mgrwt>
</event>
<event>
 4    1  0.4964158E-009  0.4584655E+03  0.7818608E-02  0.1025227E+00
          1   -1    0    0  501    0  0.00000000000E+00  0.00000000000E+00  0.20030184606E+04  0.20030184606E+04  0.50400000000E-02 0. -1.
         -1   -1    0    0    0  501 -0.00000000000E+00 -0.00000000000E+00 -0.69182465621E+03  0.69182465623E+03  0.50400000000E-02 0.  1.
    8880022    1    1    2    0    0  0.18117458493E+02 -0.43182252144E+03 -0.58543513066E+03  0.74358918601E+03  0.15294330000E+03 0.  0.
    8880022    1    1    2    0    0 -0.18117458493E+02  0.43182252144E+03  0.18966289350E+04  0.19512539308E+04  0.15294330000E+03 0.  0.
<mgrwt>
<rscale>  0 0.45846547E+03</rscale>
<asrwt>0</asrwt>
<pdfrwt beam="1">  1        1 0.30815668E+00 0.45846547E+03</pdfrwt>
<pdfrwt beam="2">  1       -1 0.10643456E+00 0.45846547E+03</pdfrwt>
<totfact> 0.27688538E+00</totfact>
</mgrwt>
</event>
<event>
 4    1  0.4964158E-009  0.9716386E+03  0.7818608E-02  0.9340210E-01
         -1   -1    0    0    0  501 -0.00000000000E+00  0.00000000000E+00  0.53258374572E+03  0.53258374574E+03  0.50400000000E-02 0.  1.
          1   -1    0    0  501    0  0.00000000000E+00 -0.00000000000E+00 -0.23369400325E+04  0.23369400325E+04  0.50400000000E-02 0. -1.
    8880022    1    1    2    0    0  0.95789577933E+03 -0.55906928747E+02 -0.19714519053E+03  0.99143723347E+03  0.15294330000E+03 0.  0.
    8880022    1    1    2    0    0 -0.95789577933E+03  0.55906928747E+02 -0.16072110963E+04  0.18780865448E+04  0.15294330000E+03 0.  0.
<mgrwt>
<rscale>  0 0.97163860E+03</rscale>
<asrwt>0</asrwt>
<pdfrwt beam="1">  1        1 0.35952923E+00 0.97163860E+03</pdfrwt>
<pdfrwt beam="2">  1       -1 0.81935962E-01 0.97163860E+03</pdfrwt>
<totfact> 0.26550393E+00</totfact>
</mgrwt>
</event>
<event>
 4    1  0.4964158E-009  0.1267209E+04  0.7818608E-02  0.9055980E-01
         -1   -1    0    0    0  501 -0.00000000000E+00  0.00000000000E+00  0.18247462039E+04  0.18247462039E+04  0.50400000000E-02 0.  1.
          1   -1    0    0  501    0  0.00000000000E+00 -0.00000000000E+00 -0.13672688793E+04  0.13672688793E+04  0.50400000000E-02 0. -1.
    8880022    1    1    2    0    0 -0.10939622435E+04 -0.62102672965E+03  0.11814951448E+04  0.17325559210E+04  0.15294330000E+03 0.  0.
    8880022    1    1    2    0    0  0.10939622435E+04  0.62102672965E+03 -0.72401782025E+03  0.14594591622E+04  0.15294330000E+03 0.  0.
<mgrwt>
<rscale>  0 0.12672092E+04</rscale>
<asrwt>0</asrwt>
<pdfrwt beam="1">  1        1 0.21034906E+00 0.12672092E+04</pdfrwt>
<pdfrwt beam="2">  1       -1 0.28073018E+00 0.12672092E+04</pdfrwt>
<totfact> 0.34730339E-01</totfact>
</mgrwt>
</event>
<event>
 4    1  0.4964158E-009  0.4714620E+03  0.7818608E-02  0.1021508E+00
         -1   -1    0    0    0  501 -0.00000000000E+00  0.00000000000E+00  0.35544862979E+03  0.35544862983E+03  0.50400000000E-02 0.  1.
          1   -1    0    0  501    0  0.00000000000E+00 -0.00000000000E+00 -0.20477018301E+04  0.20477018301E+04  0.50400000000E-02 0. -1.
    8880022    1    1    2    0    0  0.29659603485E+03 -0.33303984160E+03 -0.18475611890E+04  0.19067665678E+04  0.15294330000E+03 0.  0.
    8880022    1    1    2    0    0 -0.29659603485E+03  0.33303984160E+03  0.15530798871E+03  0.49638389211E+03  0.15294330000E+03 0.  0.
<mgrwt>
<rscale>  0 0.47146198E+03</rscale>
<asrwt>0</asrwt>
<pdfrwt beam="1">  1        1 0.31503104E+00 0.47146198E+03</pdfrwt>
<pdfrwt beam="2">  1       -1 0.54684406E-01 0.47146198E+03</pdfrwt>
<totfact> 0.10345387E+01</totfact>
</mgrwt>
</event>
<event>
 4    1  0.4964158E-009  0.1673185E+03  0.7818608E-02  0.1180673E+00
         -1   -1    0    0    0  501 -0.00000000000E+00  0.00000000000E+00  0.18827073280E+04  0.18827073280E+04  0.50400000000E-02 0.  1.
          1   -1    0    0  501    0  0.00000000000E+00 -0.00000000000E+00 -0.17408275112E+03  0.17408275119E+03  0.50400000000E-02 0. -1.
    8880022    1    1    2    0    0 -0.33300574542E+02 -0.59117746432E+02  0.18378053333E+04  0.18454061700E+04  0.15294330000E+03 0.  1.
    8880022    1    1    2    0    0  0.33300574542E+02  0.59117746432E+02 -0.12918075643E+03  0.21138390917E+03  0.15294330000E+03 0.  0.
<mgrwt>
<rscale>  0 0.16731853E+03</rscale>
<asrwt>0</asrwt>
<pdfrwt beam="1">  1        1 0.26781960E-01 0.16731853E+03</pdfrwt>
<pdfrwt beam="2">  1       -1 0.28964730E+00 0.16731853E+03</pdfrwt>
<totfact> 0.82940165E+00</totfact>
</mgrwt>
</event>
<event>
 4    1  0.6214320E-009  0.7240005E+03  0.7818608E-02  0.9677046E-01
          1   -1    0    0  501    0  0.00000000000E+00  0.00000000000E+00  0.19055788253E+04  0.19055788253E+04  0.50400000000E-02 0. -1.
         -1   -1    0    0    0  501 -0.00000000000E+00 -0.00000000000E+00 -0.99068578381E+03  0.99068578382E+03  0.50400000000E-02 0.  1.
    8880022    1    1    2    0    0 -0.70765953796E+03 -0.17548141688E+01  0.16882218121E+04  0.18369185177E+04  0.15294330000E+03 0.  0.
    8880022    1    1    2    0    0  0.70765953796E+03  0.17548141688E+01 -0.77332877055E+03  0.10593460914E+04  0.15294330000E+03 0.  0.
<mgrwt>
<rscale>  0 0.72400052E+03</rscale>
<asrwt>0</asrwt>
<pdfrwt beam="1">  1        1 0.29316597E+00 0.72400052E+03</pdfrwt>
<pdfrwt beam="2">  1       -1 0.15241320E+00 0.72400052E+03</pdfrwt>
<totfact> 0.12252773E+00</totfact>
</mgrwt>
</event>
<event>
 4    1  0.4964158E-009  0.5836325E+03  0.7818608E-02  0.9939958E-01
          1   -1    0    0  501    0  0.00000000000E+00  0.00000000000E+00  0.59000126006E+03  0.59000126009E+03  0.50400000000E-02 0. -1.
         -1   -1    0    0    0  501 -0.00000000000E+00 -0.00000000000E+00 -0.10621134618E+04  0.10621134618E+04  0.50400000000E-02 0.  1.
    8880022    1    1    2    0    0 -0.21221678076E+03  0.52172718396E+03 -0.79413750529E+03  0.98553602006E+03  0.15294330000E+03 0.  0.
    8880022    1    1    2    0    0  0.21221678076E+03 -0.52172718396E+03  0.32202530359E+03  0.66657870179E+03  0.15294330000E+03 0.  0.
<mgrwt>
<rscale>  0 0.58363248E+03</rscale>
<asrwt>0</asrwt>
<pdfrwt beam="1">  1        1 0.90769424E-01 0.58363248E+03</pdfrwt>
<pdfrwt beam="2">  1       -1 0.16340207E+00 0.58363248E+03</pdfrwt>
<totfact> 0.10204500E+01</totfact>
</mgrwt>
</event>
<event>
 4    1  0.4964158E-009  0.7146144E+03  0.7818608E-02  0.9692561E-01
         -1   -1    0    0    0  501 -0.00000000000E+00  0.00000000000E+00  0.26080295112E+03  0.26080295116E+03  0.50400000000E-02 0.  1.
          1   -1    0    0  501    0  0.00000000000E+00 -0.00000000000E+00 -0.36399914948E+04  0.36399914948E+04  0.50400000000E-02 0. -1.
    8880022    1    1    2    0    0 -0.19640907776E+02  0.69777960908E+03 -0.36380628552E+03  0.80189077468E+03  0.15294330000E+03 0.  0.
    8880022    1    1    2    0    0  0.19640907776E+02 -0.69777960908E+03 -0.30153822582E+04  0.30989036713E+04  0.15294330000E+03 0.  0.
<mgrwt>
<rscale>  0 0.71461444E+03</rscale>
<asrwt>0</asrwt>
<pdfrwt beam="1">  1        1 0.55999866E+00 0.71461444E+03</pdfrwt>
<pdfrwt beam="2">  1       -1 0.40123533E-01 0.71461444E+03</pdfrwt>
<totfact> 0.12888420E+00</totfact>
</mgrwt>
</event>
<event>
 4    1  0.4964158E-009  0.1366868E+04  0.7818608E-02  0.8978157E-01
         -1   -1    0    0    0  501 -0.00000000000E+00  0.00000000000E+00  0.14729758278E+04  0.14729758278E+04  0.50400000000E-02 0.  1.
          1   -1    0    0  501    0  0.00000000000E+00 -0.00000000000E+00 -0.14956417385E+04  0.14956417385E+04  0.50400000000E-02 0. -1.
    8880022    1    1    2    0    0 -0.13505204775E+04  0.14501657851E+03  0.56723131976E+03  0.14798913444E+04  0.15294330000E+03 0.  0.
    8880022    1    1    2    0    0  0.13505204775E+04 -0.14501657851E+03 -0.58989723041E+03  0.14887262219E+04  0.15294330000E+03 0.  0.
<mgrwt>
<rscale>  0 0.13668676E+04</rscale>
<asrwt>0</asrwt>
<pdfrwt beam="1">  1        1 0.23009873E+00 0.13668676E+04</pdfrwt>
<pdfrwt beam="2">  1       -1 0.22661167E+00 0.13668676E+04</pdfrwt>
<totfact> 0.62891801E-01</totfact>
</mgrwt>
</event>
<event>
 4    1  0.4964158E-009  0.4656066E+03  0.7818608E-02  0.1023168E+00
         -1   -1    0    0    0  501 -0.00000000000E+00  0.00000000000E+00  0.20521316534E+03  0.20521316540E+03  0.50400000000E-02 0.  1.
          1   -1    0    0  501    0  0.00000000000E+00 -0.00000000000E+00 -0.22392962247E+04  0.22392962247E+04  0.50400000000E-02 0. -1.
    8880022    1    1    2    0    0 -0.41176877392E+03  0.15441618937E+03 -0.12870573318E+03  0.48306800916E+03  0.15294330000E+03 0.  0.
    8880022    1    1    2    0    0  0.41176877392E+03 -0.15441618937E+03 -0.19053773262E+04  0.19614413809E+04  0.15294330000E+03 0.  0.
<mgrwt>
<rscale>  0 0.46560663E+03</rscale>
<asrwt>0</asrwt>
<pdfrwt beam="1">  1        1 0.34450710E+00 0.46560663E+03</pdfrwt>
<pdfrwt beam="2">  1       -1 0.31571258E-01 0.46560663E+03</pdfrwt>
<totfact> 0.20999222E+01</totfact>
</mgrwt>
</event>
<event>
 4    1  0.4964158E-009  0.1997302E+03  0.7818608E-02  0.1149967E+00
          1   -1    0    0  501    0  0.00000000000E+00  0.00000000000E+00  0.35882711698E+03  0.35882711701E+03  0.50400000000E-02 0. -1.
         -1   -1    0    0    0  501 -0.00000000000E+00 -0.00000000000E+00 -0.27876511959E+03  0.27876511964E+03  0.50400000000E-02 0.  1.
    8880022    1    1    2    0    0  0.54347474686E+02 -0.11639102751E+03  0.28721455471E+03  0.34983477921E+03  0.15294330000E+03 0.  0.
    8880022    1    1    2    0    0 -0.54347474686E+02  0.11639102751E+03 -0.20715255733E+03  0.28775745744E+03  0.15294330000E+03 0.  1.
<mgrwt>
<rscale>  0 0.19973025E+03</rscale>
<asrwt>0</asrwt>
<pdfrwt beam="1">  1        1 0.55204171E-01 0.19973025E+03</pdfrwt>
<pdfrwt beam="2">  1       -1 0.42886942E-01 0.19973025E+03</pdfrwt>
<totfact> 0.38369576E+02</totfact>
</mgrwt>
</event>
<event>
 4    1  0.4964158E-009  0.3794260E+03  0.7818608E-02  0.1051146E+00
         -1   -1    0    0    0  501 -0.00000000000E+00  0.00000000000E+00  0.66328283353E+03  0.66328283355E+03  0.50400000000E-02 0.  1.
          1   -1    0    0  501    0  0.00000000000E+00 -0.00000000000E+00 -0.67372059395E+03  0.67372059397E+03  0.50400000000E-02 0. -1.
    8880022    1    1    2    0    0  0.15143984602E+03  0.31247142093E+03  0.54516434787E+03  0.66420496466E+03  0.15294330000E+03 0.  1.
    8880022    1    1    2    0    0 -0.15143984602E+03 -0.31247142093E+03 -0.55560210830E+03  0.67279846286E+03  0.15294330000E+03 0.  0.
<mgrwt>
<rscale>  0 0.37942597E+03</rscale>
<asrwt>0</asrwt>
<pdfrwt beam="1">  1        1 0.10364932E+00 0.37942597E+03</pdfrwt>
<pdfrwt beam="2">  1       -1 0.10204351E+00 0.37942597E+03</pdfrwt>
<totfact> 0.28417629E+01</totfact>
</mgrwt>
</event>
<event>
 4    1  0.4964158E-009  0.1059892E+04  0.7818608E-02  0.9245190E-01
         -1   -1    0    0    0  501 -0.00000000000E+00  0.00000000000E+00  0.10936544482E+04  0.10936544482E+04  0.50400000000E-02 0.  1.
          1   -1    0    0  501    0  0.00000000000E+00 -0.00000000000E+00 -0.19922897487E+04  0.19922897487E+04  0.50400000000E-02 0. -1.
    8880022    1    1    2    0    0  0.35917849851E+03 -0.98537852835E+03  0.62460222101E+03  0.12302437260E+04  0.15294330000E+03 0.  0.
    8880022    1    1    2    0    0 -0.35917849851E+03  0.98537852835E+03 -0.15232375215E+04  0.18557004709E+04  0.15294330000E+03 0.  0.
<mgrwt>
<rscale>  0 0.10598923E+04</rscale>
<asrwt>0</asrwt>
<pdfrwt beam="1">  1        1 0.30650612E+00 0.10598923E+04</pdfrwt>
<pdfrwt beam="2">  1       -1 0.16825453E+00 0.10598923E+04</pdfrwt>
<totfact> 0.76588773E-01</totfact>
</mgrwt>
</event>
<event>
 4    1  0.4964158E-009  0.5990435E+03  0.7818608E-02  0.9907392E-01
          1   -1    0    0  501    0  0.00000000000E+00  0.00000000000E+00  0.11905608511E+04  0.11905608511E+04  0.50400000000E-02 0. -1.
         -1   -1    0    0    0  501 -0.00000000000E+00 -0.00000000000E+00 -0.40317063776E+03  0.40317063779E+03  0.50400000000E-02 0.  1.
    8880022    1    1    2    0    0 -0.56835256142E+03 -0.11152066243E+03  0.79402637164E+03  0.99465120725E+03  0.15294330000E+03 0.  0.
    8880022    1    1    2    0    0  0.56835256142E+03  0.11152066243E+03 -0.66361583222E+01  0.59908028163E+03  0.15294330000E+03 0.  0.
<mgrwt>
<rscale>  0 0.59904353E+03</rscale>
<asrwt>0</asrwt>
<pdfrwt beam="1">  1        1 0.18316321E+00 0.59904353E+03</pdfrwt>
<pdfrwt beam="2">  1       -1 0.62026252E-01 0.59904353E+03</pdfrwt>
<totfact> 0.30032169E+01</totfact>
</mgrwt>
</event>
<event>
 4    1  0.4964158E-009  0.4626432E+03  0.7818608E-02  0.1024017E+00
         -1   -1    0    0    0  501 -0.00000000000E+00  0.00000000000E+00  0.92916374353E+02  0.92916374490E+02  0.50400000000E-02 0.  1.
          1   -1    0    0  501    0  0.00000000000E+00 -0.00000000000E+00 -0.27569571761E+04  0.27569571761E+04  0.50400000000E-02 0. -1.
    8880022    1    1    2    0    0  0.24302100647E+03 -0.36275042400E+03 -0.75416590111E+03  0.88476264563E+03  0.15294330000E+03 0.  0.
    8880022    1    1    2    0    0 -0.24302100647E+03  0.36275042400E+03 -0.19098749006E+04  0.19651109050E+04  0.15294330000E+03 0.  0.
<mgrwt>
<rscale>  0 0.46264320E+03</rscale>
<asrwt>0</asrwt>
<pdfrwt beam="1">  1        1 0.42414720E+00 0.46264320E+03</pdfrwt>
<pdfrwt beam="2">  1       -1 0.14294829E-01 0.46264320E+03</pdfrwt>
<totfact> 0.35125110E+01</totfact>
</mgrwt>
</event>
<event>
 4    1  0.4964158E-009  0.5867749E+03  0.7818608E-02  0.9933230E-01
         -1   -1    0    0    0  501 -0.00000000000E+00  0.00000000000E+00  0.66751463161E+03  0.66751463163E+03  0.50400000000E-02 0.  1.
          1   -1    0    0  501    0  0.00000000000E+00 -0.00000000000E+00 -0.10049847369E+04  0.10049847369E+04  0.50400000000E-02 0. -1.
    8880022    1    1    2    0    0  0.27764938528E+03  0.49378535650E+03  0.41469953780E+03  0.71852663076E+03  0.15294330000E+03 0.  0.
    8880022    1    1    2    0    0 -0.27764938528E+03 -0.49378535650E+03 -0.75216964312E+03  0.95397273781E+03  0.15294330000E+03 0.  0.
<mgrwt>
<rscale>  0 0.58677492E+03</rscale>
<asrwt>0</asrwt>
<pdfrwt beam="1">  1        1 0.15461304E+00 0.58677492E+03</pdfrwt>
<pdfrwt beam="2">  1       -1 0.10269456E+00 0.58677492E+03</pdfrwt>
<totfact> 0.14197182E+01</totfact>
</mgrwt>
</event>
<event>
 4    1  0.4964158E-009  0.1179976E+04  0.7818608E-02  0.9130567E-01
         -1   -1    0    0    0  501 -0.00000000000E+00  0.00000000000E+00  0.10425662791E+04  0.10425662791E+04  0.50400000000E-02 0.  1.
          1   -1    0    0  501    0  0.00000000000E+00 -0.00000000000E+00 -0.20889542590E+04  0.20889542590E+04  0.50400000000E-02 0. -1.
    8880022    1    1    2    0    0 -0.74079621831E+03  0.90563340092E+03 -0.14635462095E+04  0.18799760781E+04  0.15294330000E+03 0.  0.
    8880022    1    1    2    0    0  0.74079621831E+03 -0.90563340092E+03  0.41715822957E+03  0.12515444600E+04  0.15294330000E+03 0.  0.
<mgrwt>
<rscale>  0 0.11799757E+04</rscale>
<asrwt>0</asrwt>
<pdfrwt beam="1">  1        1 0.32137758E+00 0.11799757E+04</pdfrwt>
<pdfrwt beam="2">  1       -1 0.16039481E+00 0.11799757E+04</pdfrwt>
<totfact> 0.74177479E-01</totfact>
</mgrwt>
</event>
<event>
 4    1  0.4964158E-009  0.7849859E+03  0.7818608E-02  0.9582007E-01
         -1   -1    0    0    0  501 -0.00000000000E+00  0.00000000000E+00  0.73706804158E+03  0.73706804160E+03  0.50400000000E-02 0.  1.
          1   -1    0    0  501    0  0.00000000000E+00 -0.00000000000E+00 -0.93619920102E+03  0.93619920103E+03  0.50400000000E-02 0. -1.
    8880022    1    1    2    0    0  0.49715737596E+03 -0.58791650417E+03  0.17411376231E+03  0.80406375841E+03  0.15294330000E+03 0.  0.
    8880022    1    1    2    0    0 -0.49715737596E+03  0.58791650417E+03 -0.37324492174E+03  0.86920348422E+03  0.15294330000E+03 0.  0.
<mgrwt>
<rscale>  0 0.78498594E+03</rscale>
<asrwt>0</asrwt>
<pdfrwt beam="1">  1        1 0.14403065E+00 0.78498594E+03</pdfrwt>
<pdfrwt beam="2">  1       -1 0.11339508E+00 0.78498594E+03</pdfrwt>
<totfact> 0.12389230E+01</totfact>
</mgrwt>
</event>
<event>
 4    1  0.4964158E-009  0.8977247E+03  0.7818608E-02  0.9428430E-01
          1   -1    0    0  501    0  0.00000000000E+00  0.00000000000E+00  0.11348554777E+04  0.11348554777E+04  0.50400000000E-02 0. -1.
         -1   -1    0    0    0  501 -0.00000000000E+00 -0.00000000000E+00 -0.10158430946E+04  0.10158430946E+04  0.50400000000E-02 0.  1.
    8880022    1    1    2    0    0 -0.37633219112E+02 -0.88379961510E+03  0.64941383367E+03  0.11079927794E+04  0.15294330000E+03 0.  0.
    8880022    1    1    2    0    0  0.37633219112E+02  0.88379961510E+03 -0.53040145053E+03  0.10427057929E+04  0.15294330000E+03 0.  0.
<mgrwt>
<rscale>  0 0.89772472E+03</rscale>
<asrwt>0</asrwt>
<pdfrwt beam="1">  1        1 0.17459315E+00 0.89772472E+03</pdfrwt>
<pdfrwt beam="2">  1       -1 0.15628355E+00 0.89772472E+03</pdfrwt>
<totfact> 0.37855789E+00</totfact>
</mgrwt>
</event>
<event>
 4    1  0.4964158E-009  0.1596669E+04  0.7818608E-02  0.8822597E-01
          1   -1    0    0  501    0  0.00000000000E+00  0.00000000000E+00  0.34436595348E+04  0.34436595348E+04  0.50400000000E-02 0. -1.
         -1   -1    0    0    0  501 -0.00000000000E+00 -0.00000000000E+00 -0.10633266934E+04  0.10633266934E+04  0.50400000000E-02 0.  1.
    8880022    1    1    2    0    0 -0.83521327051E+03  0.13521760051E+04 -0.51885663275E+02  0.15975121067E+04  0.15294330000E+03 0.  0.
    8880022    1    1    2    0    0  0.83521327051E+03 -0.13521760051E+04  0.24322185048E+04  0.29094741215E+04  0.15294330000E+03 0.  0.
<mgrwt>
<rscale>  0 0.15966693E+04</rscale>
<asrwt>0</asrwt>
<pdfrwt beam="1">  1        1 0.52979378E+00 0.15966693E+04</pdfrwt>
<pdfrwt beam="2">  1       -1 0.16358872E+00 0.15966693E+04</pdfrwt>
<totfact> 0.71568547E-02</totfact>
</mgrwt>
</event>
<event>
 4    1  0.4964158E-009  0.7130981E+03  0.7818608E-02  0.9695091E-01
          1   -1    0    0  501    0  0.00000000000E+00  0.00000000000E+00  0.15816723140E+04  0.15816723140E+04  0.50400000000E-02 0. -1.
         -1   -1    0    0    0  501 -0.00000000000E+00 -0.00000000000E+00 -0.65761024492E+03  0.65761024494E+03  0.50400000000E-02 0.  1.
    8880022    1    1    2    0    0  0.41367855321E+03  0.56034568807E+03  0.12624824658E+04  0.14499554700E+04  0.15294330000E+03 0.  0.
    8880022    1    1    2    0    0 -0.41367855321E+03 -0.56034568807E+03 -0.33842039666E+03  0.78932708899E+03  0.15294330000E+03 0.  0.
<mgrwt>
<rscale>  0 0.71309809E+03</rscale>
<asrwt>0</asrwt>
<pdfrwt beam="1">  1        1 0.24333420E+00 0.71309809E+03</pdfrwt>
<pdfrwt beam="2">  1       -1 0.10117081E+00 0.71309809E+03</pdfrwt>
<totfact> 0.55922811E+00</totfact>
</mgrwt>
</event>
<event>
 4    1  0.4964158E-009  0.1217815E+04  0.7818608E-02  0.9097405E-01
         -1   -1    0    0    0  501 -0.00000000000E+00  0.00000000000E+00  0.16746701600E+04  0.16746701600E+04  0.50400000000E-02 0.  1.
          1   -1    0    0  501    0  0.00000000000E+00 -0.00000000000E+00 -0.19666249354E+04  0.19666249354E+04  0.50400000000E-02 0. -1.
    8880022    1    1    2    0    0 -0.91822660494E+03  0.78520146722E+03  0.12038702184E+04  0.17124183478E+04  0.15294330000E+03 0.  0.
    8880022    1    1    2    0    0  0.91822660494E+03 -0.78520146722E+03 -0.14958249939E+04  0.19288767476E+04  0.15294330000E+03 0.  0.
<mgrwt>
<rscale>  0 0.12178149E+04</rscale>
<asrwt>0</asrwt>
<pdfrwt beam="1">  1        1 0.30255768E+00 0.12178149E+04</pdfrwt>
<pdfrwt beam="2">  1       -1 0.25764156E+00 0.12178149E+04</pdfrwt>
<totfact> 0.19131233E-01</totfact>
</mgrwt>
</event>
<event>
 4    1  0.4964158E-009  0.2774040E+03  0.7818608E-02  0.1097115E+00
          1   -1    0    0  501    0  0.00000000000E+00  0.00000000000E+00  0.23664243270E+04  0.23664243270E+04  0.50400000000E-02 0. -1.
         -1   -1    0    0    0  501 -0.00000000000E+00 -0.00000000000E+00 -0.32665255967E+03  0.32665255970E+03  0.50400000000E-02 0.  1.
    8880022    1    1    2    0    0  0.17085207636E+03 -0.15611173769E+03  0.22976428604E+04  0.23143283417E+04  0.15294330000E+03 0.  0.
    8880022    1    1    2    0    0 -0.17085207636E+03  0.15611173769E+03 -0.25787109305E+03  0.37874854494E+03  0.15294330000E+03 0.  0.
<mgrwt>
<rscale>  0 0.27740396E+03</rscale>
<asrwt>0</asrwt>
<pdfrwt beam="1">  1        1 0.36406529E+00 0.27740396E+03</pdfrwt>
<pdfrwt beam="2">  1       -1 0.50254238E-01 0.27740396E+03</pdfrwt>
<totfact> 0.80085987E+00</totfact>
</mgrwt>
</event>
<event>
 4    1  0.4964158E-009  0.4691771E+03  0.7818608E-02  0.1022153E+00
         -1   -1    0    0    0  501 -0.00000000000E+00  0.00000000000E+00  0.83680690698E+03  0.83680690700E+03  0.50400000000E-02 0.  1.
          1   -1    0    0  501    0  0.00000000000E+00 -0.00000000000E+00 -0.60288601646E+03  0.60288601648E+03  0.50400000000E-02 0. -1.
    8880022    1    1    2    0    0 -0.25555418019E+03 -0.36252934520E+03  0.65740744012E+03  0.80765813342E+03  0.15294330000E+03 0.  0.
    8880022    1    1    2    0    0  0.25555418019E+03  0.36252934520E+03 -0.42348654959E+03  0.63203479006E+03  0.15294330000E+03 0.  0.
<mgrwt>
<rscale>  0 0.46917706E+03</rscale>
<asrwt>0</asrwt>
<pdfrwt beam="1">  1        1 0.92751695E-01 0.46917706E+03</pdfrwt>
<pdfrwt beam="2">  1       -1 0.12873952E+00 0.46917706E+03</pdfrwt>
<totfact> 0.18891509E+01</totfact>
</mgrwt>
</event>
<event>
 4    1  0.4964158E-009  0.4899477E+03  0.7818608E-02  0.1016437E+00
         -1   -1    0    0    0  501 -0.00000000000E+00  0.00000000000E+00  0.22388372758E+03  0.22388372764E+03  0.50400000000E-02 0.  1.
          1   -1    0    0  501    0  0.00000000000E+00 -0.00000000000E+00 -0.21061783364E+04  0.21061783365E+04  0.50400000000E-02 0. -1.
    8880022    1    1    2    0    0  0.44827551770E+03  0.12532401556E+03 -0.12485611510E+03  0.50560632031E+03  0.15294330000E+03 0.  0.
    8880022    1    1    2    0    0 -0.44827551770E+03 -0.12532401556E+03 -0.17574384938E+04  0.18244557438E+04  0.15294330000E+03 0.  0.
<mgrwt>
<rscale>  0 0.48994765E+03</rscale>
<asrwt>0</asrwt>
<pdfrwt beam="1">  1        1 0.32402742E+00 0.48994765E+03</pdfrwt>
<pdfrwt beam="2">  1       -1 0.34443652E-01 0.48994765E+03</pdfrwt>
<totfact> 0.21970492E+01</totfact>
</mgrwt>
</event>
<event>
 4    1  0.4964158E-009  0.3725476E+03  0.7818608E-02  0.1053723E+00
          1   -1    0    0  501    0  0.00000000000E+00  0.00000000000E+00  0.28147159163E+04  0.28147159163E+04  0.50400000000E-02 0. -1.
         -1   -1    0    0    0  501 -0.00000000000E+00 -0.00000000000E+00 -0.20592958338E+03  0.20592958344E+03  0.50400000000E-02 0.  1.
    8880022    1    1    2    0    0  0.28769207552E+03 -0.18064702749E+03  0.26215405295E+04  0.26478796196E+04  0.15294330000E+03 0. -1.
    8880022    1    1    2    0    0 -0.28769207552E+03  0.18064702749E+03 -0.12754196620E+02  0.37276588015E+03  0.15294330000E+03 0.  0.
<mgrwt>
<rscale>  0 0.37254762E+03</rscale>
<asrwt>0</asrwt>
<pdfrwt beam="1">  1        1 0.43303321E+00 0.37254762E+03</pdfrwt>
<pdfrwt beam="2">  1       -1 0.31681475E-01 0.37254762E+03</pdfrwt>
<totfact> 0.87658531E+00</totfact>
</mgrwt>
</event>
<event>
 4    1  0.4964158E-009  0.1230713E+04  0.7818608E-02  0.9086390E-01
          1   -1    0    0  501    0  0.00000000000E+00  0.00000000000E+00  0.16828516306E+04  0.16828516306E+04  0.50400000000E-02 0. -1.
         -1   -1    0    0    0  501 -0.00000000000E+00 -0.00000000000E+00 -0.14776454000E+04  0.14776454000E+04  0.50400000000E-02 0.  1.
    8880022    1    1    2    0    0  0.66839232841E+03  0.10220146299E+04  0.10905905346E+04  0.16443970249E+04  0.15294330000E+03 0.  0.
    8880022    1    1    2    0    0 -0.66839232841E+03 -0.10220146299E+04 -0.88538430404E+03  0.15161000057E+04  0.15294330000E+03 0.  0.
<mgrwt>
<rscale>  0 0.12307127E+04</rscale>
<asrwt>0</asrwt>
<pdfrwt beam="1">  1        1 0.25890025E+00 0.12307127E+04</pdfrwt>
<pdfrwt beam="2">  1       -1 0.22733006E+00 0.12307127E+04</pdfrwt>
<totfact> 0.47010612E-01</totfact>
</mgrwt>
</event>
<event>
 4    1  0.4964158E-009  0.7997330E+03  0.7818608E-02  0.9560404E-01
         -1   -1    0    0    0  501 -0.00000000000E+00  0.00000000000E+00  0.93890733804E+03  0.93890733805E+03  0.50400000000E-02 0.  1.
          1   -1    0    0  501    0  0.00000000000E+00 -0.00000000000E+00 -0.15065517969E+04  0.15065517969E+04  0.50400000000E-02 0. -1.
    8880022    1    1    2    0    0  0.47263192216E+03 -0.62673785826E+03  0.62120353488E+03  0.10126533274E+04  0.15294330000E+03 0.  0.
    8880022    1    1    2    0    0 -0.47263192216E+03  0.62673785826E+03 -0.11888479938E+04  0.14328058075E+04  0.15294330000E+03 0.  0.
<mgrwt>
<rscale>  0 0.79973304E+03</rscale>
<asrwt>0</asrwt>
<pdfrwt beam="1">  1        1 0.23177720E+00 0.79973304E+03</pdfrwt>
<pdfrwt beam="2">  1       -1 0.14444728E+00 0.79973304E+03</pdfrwt>
<totfact> 0.25898170E+00</totfact>
</mgrwt>
</event>
<event>
 4    1  0.4964158E-009  0.2407127E+03  0.7818608E-02  0.1119319E+00
         -1   -1    0    0    0  501 -0.00000000000E+00  0.00000000000E+00  0.23686838090E+03  0.23686838096E+03  0.50400000000E-02 0.  1.
          1   -1    0    0  501    0  0.00000000000E+00 -0.00000000000E+00 -0.10750005159E+04  0.10750005159E+04  0.50400000000E-02 0. -1.
    8880022    1    1    2    0    0 -0.16457524879E+03 -0.86405640145E+02 -0.99556012729E+03  0.10242473174E+04  0.15294330000E+03 0.  0.
    8880022    1    1    2    0    0  0.16457524879E+03  0.86405640145E+02  0.15742799233E+03  0.28762157942E+03  0.15294330000E+03 0.  0.
<mgrwt>
<rscale>  0 0.24071269E+03</rscale>
<asrwt>0</asrwt>
<pdfrwt beam="1">  1        1 0.16538469E+00 0.24071269E+03</pdfrwt>
<pdfrwt beam="2">  1       -1 0.36441290E-01 0.24071269E+03</pdfrwt>
<totfact> 0.10456041E+02</totfact>
</mgrwt>
</event>
<event>
 4    1  0.4964158E-009  0.4346287E+03  0.7818608E-02  0.1032408E+00
          1   -1    0    0  501    0  0.00000000000E+00  0.00000000000E+00  0.53708413342E+03  0.53708413344E+03  0.50400000000E-02 0. -1.
         -1   -1    0    0    0  501 -0.00000000000E+00 -0.00000000000E+00 -0.11177005475E+04  0.11177005475E+04  0.50400000000E-02 0.  1.
    8880022    1    1    2    0    0 -0.39880675626E+03 -0.80396495514E+02  0.39464080444E+03  0.58706340617E+03  0.15294330000E+03 0. -1.
    8880022    1    1    2    0    0  0.39880675626E+03  0.80396495514E+02 -0.97525721849E+03  0.10677212748E+04  0.15294330000E+03 0.  0.
<mgrwt>
<rscale>  0 0.43462867E+03</rscale>
<asrwt>0</asrwt>
<pdfrwt beam="1">  1        1 0.82628329E-01 0.43462867E+03</pdfrwt>
<pdfrwt beam="2">  1       -1 0.17195393E+00 0.43462867E+03</pdfrwt>
<totfact> 0.10370147E+01</totfact>
</mgrwt>
</event>
<event>
 4    1  0.4964158E-009  0.5833931E+03  0.7818608E-02  0.9940472E-01
          1   -1    0    0  501    0  0.00000000000E+00  0.00000000000E+00  0.81926118407E+03  0.81926118409E+03  0.50400000000E-02 0. -1.
         -1   -1    0    0    0  501 -0.00000000000E+00 -0.00000000000E+00 -0.16087398086E+04  0.16087398086E+04  0.50400000000E-02 0.  1.
    8880022    1    1    2    0    0  0.54621101668E+02  0.56033241993E+03 -0.14403069943E+04  0.15539729008E+04  0.15294330000E+03 0.  0.
    8880022    1    1    2    0    0 -0.54621101668E+02 -0.56033241993E+03  0.65082836975E+03  0.87402809192E+03  0.15294330000E+03 0.  0.
<mgrwt>
<rscale>  0 0.58339313E+03</rscale>
<asrwt>0</asrwt>
<pdfrwt beam="1">  1        1 0.12604018E+00 0.58339313E+03</pdfrwt>
<pdfrwt beam="2">  1       -1 0.24749843E+00 0.58339313E+03</pdfrwt>
<totfact> 0.16703549E+00</totfact>
</mgrwt>
</event>
<event>
 4    1  0.4964158E-009  0.6615683E+03  0.7818608E-02  0.9785311E-01
          1   -1    0    0  501    0  0.00000000000E+00  0.00000000000E+00  0.14878449057E+04  0.14878449057E+04  0.50400000000E-02 0. -1.
         -1   -1    0    0    0  501 -0.00000000000E+00 -0.00000000000E+00 -0.56129981411E+03  0.56129981414E+03  0.50400000000E-02 0.  1.
    8880022    1    1    2    0    0  0.86548140133E+02  0.63780116058E+03 -0.24354947725E+03  0.70497439804E+03  0.15294330000E+03 0.  0.
    8880022    1    1    2    0    0 -0.86548140133E+02 -0.63780116058E+03  0.11700945688E+04  0.13441703218E+04  0.15294330000E+03 0.  0.
<mgrwt>
<rscale>  0 0.66156825E+03</rscale>
<asrwt>0</asrwt>
<pdfrwt beam="1">  1        1 0.22889922E+00 0.66156825E+03</pdfrwt>
<pdfrwt beam="2">  1       -1 0.86353818E-01 0.66156825E+03</pdfrwt>
<totfact> 0.92966709E+00</totfact>
</mgrwt>
</event>
<event>
 4    1  0.4964158E-009  0.9775820E+03  0.7818608E-02  0.9333480E-01
          1   -1    0    0  501    0  0.00000000000E+00  0.00000000000E+00  0.11541311436E+04  0.11541311436E+04  0.50400000000E-02 0. -1.
         -1   -1    0    0    0  501 -0.00000000000E+00 -0.00000000000E+00 -0.17270275623E+04  0.17270275623E+04  0.50400000000E-02 0.  1.
    8880022    1    1    2    0    0 -0.88533043734E+03  0.38531157531E+03 -0.13258044196E+04  0.16472474026E+04  0.15294330000E+03 0.  0.
    8880022    1    1    2    0    0  0.88533043734E+03 -0.38531157531E+03  0.75290800100E+03  0.12339113033E+04  0.15294330000E+03 0.  0.
<mgrwt>
<rscale>  0 0.97758204E+03</rscale>
<asrwt>0</asrwt>
<pdfrwt beam="1">  1        1 0.17755864E+00 0.97758204E+03</pdfrwt>
<pdfrwt beam="2">  1       -1 0.26569655E+00 0.97758204E+03</pdfrwt>
<totfact> 0.64544204E-01</totfact>
</mgrwt>
</event>
<event>
 4    1  0.4964158E-009  0.6839960E+03  0.7818608E-02  0.9744999E-01
         -1   -1    0    0    0  501 -0.00000000000E+00  0.00000000000E+00  0.65749897252E+03  0.65749897254E+03  0.50400000000E-02 0.  1.
          1   -1    0    0  501    0  0.00000000000E+00 -0.00000000000E+00 -0.23519920017E+04  0.23519920018E+04  0.50400000000E-02 0. -1.
    8880022    1    1    2    0    0 -0.51071736475E+03 -0.42851683432E+03  0.40943181860E+03  0.79717311235E+03  0.15294330000E+03 0.  1.
    8880022    1    1    2    0    0  0.51071736475E+03  0.42851683432E+03 -0.21039248478E+04  0.22123178619E+04  0.15294330000E+03 0.  0.
<mgrwt>
<rscale>  0 0.68399602E+03</rscale>
<asrwt>0</asrwt>
<pdfrwt beam="1">  1        1 0.36184492E+00 0.68399602E+03</pdfrwt>
<pdfrwt beam="2">  1       -1 0.10115369E+00 0.68399602E+03</pdfrwt>
<totfact> 0.17143771E+00</totfact>
</mgrwt>
</event>
<event>
 4    1  0.4964158E-009  0.9513367E+03  0.7818608E-02  0.9363590E-01
          1   -1    0    0  501    0  0.00000000000E+00  0.00000000000E+00  0.82790035941E+03  0.82790035943E+03  0.50400000000E-02 0. -1.
         -1   -1    0    0    0  501 -0.00000000000E+00 -0.00000000000E+00 -0.13546997214E+04  0.13546997214E+04  0.50400000000E-02 0.  1.
    8880022    1    1    2    0    0 -0.85909100844E+03  0.37896227831E+03  0.21608813234E+03  0.97556932256E+03  0.15294330000E+03 0.  0.
    8880022    1    1    2    0    0  0.85909100844E+03 -0.37896227831E+03 -0.74288749433E+03  0.12070307583E+04  0.15294330000E+03 0.  0.
<mgrwt>
<rscale>  0 0.95133665E+03</rscale>
<asrwt>0</asrwt>
<pdfrwt beam="1">  1        1 0.12736929E+00 0.95133665E+03</pdfrwt>
<pdfrwt beam="2">  1       -1 0.20841534E+00 0.95133665E+03</pdfrwt>
<totfact> 0.27857742E+00</totfact>
</mgrwt>
</event>
<event>
 4    1  0.4964158E-009  0.1206900E+04  0.7818608E-02  0.9106839E-01
         -1   -1    0    0    0  501 -0.00000000000E+00  0.00000000000E+00  0.11570961094E+04  0.11570961094E+04  0.50400000000E-02 0.  1.
          1   -1    0    0  501    0  0.00000000000E+00 -0.00000000000E+00 -0.12764302816E+04  0.12764302817E+04  0.50400000000E-02 0. -1.
    8880022    1    1    2    0    0  0.11327644329E+04  0.38737520490E+03 -0.20247847841E+03  0.12237663163E+04  0.15294330000E+03 0.  0.
    8880022    1    1    2    0    0 -0.11327644329E+04 -0.38737520490E+03  0.83144306143E+02  0.12097600747E+04  0.15294330000E+03 0.  0.
<mgrwt>
<rscale>  0 0.12068995E+04</rscale>
<asrwt>0</asrwt>
<pdfrwt beam="1">  1        1 0.19637389E+00 0.12068995E+04</pdfrwt>
<pdfrwt beam="2">  1       -1 0.17801479E+00 0.12068995E+04</pdfrwt>
<totfact> 0.19812198E+00</totfact>
</mgrwt>
</event>
<event>
 4    1  0.4964158E-009  0.6617268E+03  0.7818608E-02  0.9785020E-01
         -1   -1    0    0    0  501 -0.00000000000E+00  0.00000000000E+00  0.28950355837E+04  0.28950355837E+04  0.50400000000E-02 0.  1.
          1   -1    0    0  501    0  0.00000000000E+00 -0.00000000000E+00 -0.31529718386E+03  0.31529718390E+03  0.50400000000E-02 0. -1.
    8880022    1    1    2    0    0  0.39847214468E+03 -0.50567842155E+03  0.13205030285E+03  0.67477377810E+03  0.15294330000E+03 0.  0.
    8880022    1    1    2    0    0 -0.39847214468E+03  0.50567842155E+03  0.24476880970E+04  0.25355589895E+04  0.15294330000E+03 0.  0.
<mgrwt>
<rscale>  0 0.66172681E+03</rscale>
<asrwt>0</asrwt>
<pdfrwt beam="1">  1        1 0.48507256E-01 0.66172681E+03</pdfrwt>
<pdfrwt beam="2">  1       -1 0.44539012E+00 0.66172681E+03</pdfrwt>
<totfact> 0.31261426E-01</totfact>
</mgrwt>
</event>
<event>
 4    1  0.4964158E-009  0.8040030E+03  0.7818608E-02  0.9554241E-01
          1   -1    0    0  501    0  0.00000000000E+00  0.00000000000E+00  0.14187669332E+04  0.14187669332E+04  0.50400000000E-02 0. -1.
         -1   -1    0    0    0  501 -0.00000000000E+00 -0.00000000000E+00 -0.69435621430E+03  0.69435621432E+03  0.50400000000E-02 0.  1.
    8880022    1    1    2    0    0 -0.77023545061E+03  0.17252995508E+03  0.98173391208E+03  0.12689453739E+04  0.15294330000E+03 0.  0.
    8880022    1    1    2    0    0  0.77023545061E+03 -0.17252995508E+03 -0.25732319316E+03  0.84417777365E+03  0.15294330000E+03 0.  0.
<mgrwt>
<rscale>  0 0.80400304E+03</rscale>
<asrwt>0</asrwt>
<pdfrwt beam="1">  1        1 0.21827183E+00 0.80400304E+03</pdfrwt>
<pdfrwt beam="2">  1       -1 0.10682403E+00 0.80400304E+03</pdfrwt>
<totfact> 0.62843292E+00</totfact>
</mgrwt>
</event>
<event>
 4    1  0.4964158E-009  0.1349885E+04  0.7818608E-02  0.8990915E-01
         -1   -1    0    0    0  501 -0.00000000000E+00  0.00000000000E+00  0.11445677486E+04  0.11445677487E+04  0.50400000000E-02 0.  1.
          1   -1    0    0  501    0  0.00000000000E+00 -0.00000000000E+00 -0.23053294870E+04  0.23053294870E+04  0.50400000000E-02 0. -1.
    8880022    1    1    2    0    0  0.53445052334E+03 -0.12301058034E+04 -0.15398804496E+04  0.20477844372E+04  0.15294330000E+03 0.  0.
    8880022    1    1    2    0    0 -0.53445052334E+03  0.12301058034E+04  0.37911871120E+03  0.14021127984E+04  0.15294330000E+03 0.  0.
<mgrwt>
<rscale>  0 0.13498849E+04</rscale>
<asrwt>0</asrwt>
<pdfrwt beam="1">  1        1 0.35466607E+00 0.13498849E+04</pdfrwt>
<pdfrwt beam="2">  1       -1 0.17608735E+00 0.13498849E+04</pdfrwt>
<totfact> 0.39531008E-01</totfact>
</mgrwt>
</event>
<event>
 4    1  0.4964158E-009  0.3441405E+03  0.7818608E-02  0.1065046E+00
          1   -1    0    0  501    0  0.00000000000E+00  0.00000000000E+00  0.15107203858E+04  0.15107203858E+04  0.50400000000E-02 0. -1.
         -1   -1    0    0    0  501 -0.00000000000E+00 -0.00000000000E+00 -0.98260883539E+02  0.98260883668E+02  0.50400000000E-02 0.  1.
    8880022    1    1    2    0    0 -0.25128654909E+03  0.17859472495E+03  0.10679614174E+04  0.11220402165E+04  0.15294330000E+03 0.  0.
    8880022    1    1    2    0    0  0.25128654909E+03 -0.17859472495E+03  0.34449808491E+03  0.48694105296E+03  0.15294330000E+03 0.  0.
<mgrwt>
<rscale>  0 0.34414046E+03</rscale>
<asrwt>0</asrwt>
<pdfrwt beam="1">  1        1 0.23241852E+00 0.34414046E+03</pdfrwt>
<pdfrwt beam="2">  1       -1 0.15117059E-01 0.34414046E+03</pdfrwt>
<totfact> 0.22191558E+02</totfact>
</mgrwt>
</event>
<event>
 4    1  0.4964158E-009  0.8529808E+03  0.7818608E-02  0.9486345E-01
          1   -1    0    0  501    0  0.00000000000E+00  0.00000000000E+00  0.11778635576E+04  0.11778635576E+04  0.50400000000E-02 0. -1.
         -1   -1    0    0    0  501 -0.00000000000E+00 -0.00000000000E+00 -0.13790087319E+04  0.13790087319E+04  0.50400000000E-02 0.  1.
    8880022    1    1    2    0    0 -0.17696794992E+03 -0.82028469340E+03  0.84931786990E+03  0.12037097369E+04  0.15294330000E+03 0.  0.
    8880022    1    1    2    0    0  0.17696794992E+03  0.82028469340E+03 -0.10504630442E+04  0.13531625526E+04  0.15294330000E+03 0.  0.
<mgrwt>
<rscale>  0 0.85298082E+03</rscale>
<asrwt>0</asrwt>
<pdfrwt beam="1">  1        1 0.18120978E+00 0.85298082E+03</pdfrwt>
<pdfrwt beam="2">  1       -1 0.21215519E+00 0.85298082E+03</pdfrwt>
<totfact> 0.14184707E+00</totfact>
</mgrwt>
</event>
<event>
 4    1  0.4964158E-009  0.5111603E+03  0.7818608E-02  0.1010906E+00
          1   -1    0    0  501    0  0.00000000000E+00  0.00000000000E+00  0.19152230413E+04  0.19152230413E+04  0.50400000000E-02 0. -1.
         -1   -1    0    0    0  501 -0.00000000000E+00 -0.00000000000E+00 -0.51334558587E+03  0.51334558589E+03  0.50400000000E-02 0.  1.
    8880022    1    1    2    0    0  0.46525076497E+03 -0.14640686617E+03  0.17414342575E+04  0.18149044523E+04  0.15294330000E+03 0.  0.
    8880022    1    1    2    0    0 -0.46525076497E+03  0.14640686617E+03 -0.33955680204E+03  0.61366417493E+03  0.15294330000E+03 0.  0.
<mgrwt>
<rscale>  0 0.51116034E+03</rscale>
<asrwt>0</asrwt>
<pdfrwt beam="1">  1        1 0.29464970E+00 0.51116034E+03</pdfrwt>
<pdfrwt beam="2">  1       -1 0.78976243E-01 0.51116034E+03</pdfrwt>
<totfact> 0.60053393E+00</totfact>
</mgrwt>
</event>
<event>
 4    1  0.4964158E-009  0.5498717E+03  0.7818608E-02  0.1001524E+00
          1   -1    0    0  501    0  0.00000000000E+00  0.00000000000E+00  0.14069577866E+04  0.14069577866E+04  0.50400000000E-02 0. -1.
         -1   -1    0    0    0  501 -0.00000000000E+00 -0.00000000000E+00 -0.24811779901E+03  0.24811779906E+03  0.50400000000E-02 0.  1.
    8880022    1    1    2    0    0 -0.52680416388E+03  0.38008034797E+02  0.88220006452E+03  0.10395363604E+04  0.15294330000E+03 0.  0.
    8880022    1    1    2    0    0  0.52680416388E+03 -0.38008034797E+02  0.27663992309E+03  0.61553922527E+03  0.15294330000E+03 0.  0.
<mgrwt>
<rscale>  0 0.54987170E+03</rscale>
<asrwt>0</asrwt>
<pdfrwt beam="1">  1        1 0.21645504E+00 0.54987170E+03</pdfrwt>
<pdfrwt beam="2">  1       -1 0.38171969E-01 0.54987170E+03</pdfrwt>
<totfact> 0.53053639E+01</totfact>
</mgrwt>
</event>
<event>
 4    1  0.4964158E-009  0.1154248E+04  0.7818608E-02  0.9153874E-01
          1   -1    0    0  501    0  0.00000000000E+00  0.00000000000E+00  0.24325156708E+04  0.24325156708E+04  0.50400000000E-02 0. -1.
         -1   -1    0    0    0  501 -0.00000000000E+00 -0.00000000000E+00 -0.11052343329E+04  0.11052343329E+04  0.50400000000E-02 0.  1.
    8880022    1    1    2    0    0  0.63174503366E+03 -0.95383162905E+03 -0.59269551326E+03  0.12975269510E+04  0.15294330000E+03 0.  0.
    8880022    1    1    2    0    0 -0.63174503366E+03  0.95383162905E+03  0.19199768512E+04  0.22402230528E+04  0.15294330000E+03 0.  0.
<mgrwt>
<rscale>  0 0.11542479E+04</rscale>
<asrwt>0</asrwt>
<pdfrwt beam="1">  1        1 0.37423318E+00 0.11542479E+04</pdfrwt>
<pdfrwt beam="2">  1       -1 0.17003605E+00 0.11542479E+04</pdfrwt>
<totfact> 0.36813520E-01</totfact>
</mgrwt>
</event>
<event>
 4    1  0.4964158E-009  0.6180214E+03  0.7818608E-02  0.9868707E-01
          1   -1    0    0  501    0  0.00000000000E+00  0.00000000000E+00  0.54460705860E+03  0.54460705862E+03  0.50400000000E-02 0. -1.
         -1   -1    0    0    0  501 -0.00000000000E+00 -0.00000000000E+00 -0.16188775735E+04  0.16188775735E+04  0.50400000000E-02 0.  1.
    8880022    1    1    2    0    0  0.52119875708E+03  0.29480606085E+03 -0.13515218490E+04  0.14861230498E+04  0.15294330000E+03 0.  0.
    8880022    1    1    2    0    0 -0.52119875708E+03 -0.29480606085E+03  0.27725133411E+03  0.67736158230E+03  0.15294330000E+03 0.  0.
<mgrwt>
<rscale>  0 0.61802137E+03</rscale>
<asrwt>0</asrwt>
<pdfrwt beam="1">  1        1 0.83785702E-01 0.61802137E+03</pdfrwt>
<pdfrwt beam="2">  1       -1 0.24905809E+00 0.61802137E+03</pdfrwt>
<totfact> 0.29702905E+00</totfact>
</mgrwt>
</event>
<event>
 4    1  0.4964158E-009  0.6398608E+03  0.7818608E-02  0.9825993E-01
          1   -1    0    0  501    0  0.00000000000E+00  0.00000000000E+00  0.29029139308E+04  0.29029139308E+04  0.50400000000E-02 0. -1.
         -1   -1    0    0    0  501 -0.00000000000E+00 -0.00000000000E+00 -0.66784502398E+03  0.66784502400E+03  0.50400000000E-02 0.  1.
    8880022    1    1    2    0    0 -0.78259906833E+02  0.61636483230E+03  0.27032247568E+04  0.27779211577E+04  0.15294330000E+03 0.  0.
    8880022    1    1    2    0    0  0.78259906833E+02 -0.61636483230E+03 -0.46815585004E+03  0.79283779707E+03  0.15294330000E+03 0.  0.
<mgrwt>
<rscale>  0 0.63986082E+03</rscale>
<asrwt>0</asrwt>
<pdfrwt beam="1">  1        1 0.44660214E+00 0.63986082E+03</pdfrwt>
<pdfrwt beam="2">  1       -1 0.10274539E+00 0.63986082E+03</pdfrwt>
<totfact> 0.69828798E-01</totfact>
</mgrwt>
</event>
<event>
 4    1  0.4964158E-009  0.7402359E+03  0.7818608E-02  0.9650794E-01
         -1   -1    0    0    0  501 -0.00000000000E+00  0.00000000000E+00  0.78584609684E+03  0.78584609685E+03  0.50400000000E-02 0.  1.
          1   -1    0    0  501    0  0.00000000000E+00 -0.00000000000E+00 -0.14214878186E+04  0.14214878186E+04  0.50400000000E-02 0. -1.
    8880022    1    1    2    0    0 -0.58354115406E+03  0.42899565720E+03 -0.11055922356E+04  0.13305199724E+04  0.15294330000E+03 0.  0.
    8880022    1    1    2    0    0  0.58354115406E+03 -0.42899565720E+03  0.46995051384E+03  0.87681394312E+03  0.15294330000E+03 0.  0.
<mgrwt>
<rscale>  0 0.74023591E+03</rscale>
<asrwt>0</asrwt>
<pdfrwt beam="1">  1        1 0.21869043E+00 0.74023591E+03</pdfrwt>
<pdfrwt beam="2">  1       -1 0.12089940E+00 0.74023591E+03</pdfrwt>
<totfact> 0.47037878E+00</totfact>
</mgrwt>
</event>
<event>
 4    1  0.4964158E-009  0.4739060E+03  0.7818608E-02  0.1020824E+00
          1   -1    0    0  501    0  0.00000000000E+00  0.00000000000E+00  0.16762352486E+04  0.16762352486E+04  0.50400000000E-02 0. -1.
         -1   -1    0    0    0  501 -0.00000000000E+00 -0.00000000000E+00 -0.56583319460E+03  0.56583319462E+03  0.50400000000E-02 0.  1.
    8880022    1    1    2    0    0 -0.43130064644E+03  0.12318691567E+03 -0.42415647070E+03  0.63599970791E+03  0.15294330000E+03 0.  1.
    8880022    1    1    2    0    0  0.43130064644E+03 -0.12318691567E+03  0.15345585247E+04  0.16060687353E+04  0.15294330000E+03 0.  0.
<mgrwt>
<rscale>  0 0.47390602E+03</rscale>
<asrwt>0</asrwt>
<pdfrwt beam="1">  1        1 0.25788235E+00 0.47390602E+03</pdfrwt>
<pdfrwt beam="2">  1       -1 0.87051261E-01 0.47390602E+03</pdfrwt>
<totfact> 0.70988992E+00</totfact>
</mgrwt>
</event>
<event>
 4    1  0.4964158E-009  0.4180016E+03  0.7818608E-02  0.1037719E+00
          1   -1    0    0  501    0  0.00000000000E+00  0.00000000000E+00  0.20728949937E+04  0.20728949937E+04  0.50400000000E-02 0. -1.
         -1   -1    0    0    0  501 -0.00000000000E+00 -0.00000000000E+00 -0.51117261019E+03  0.51117261022E+03  0.50400000000E-02 0.  1.
    8880022    1    1    2    0    0 -0.10117975522E+03 -0.37562792746E+03  0.19615734450E+04  0.20056160440E+04  0.15294330000E+03 0.  0.
    8880022    1    1    2    0    0  0.10117975522E+03  0.37562792746E+03 -0.39985106152E+03  0.57845155991E+03  0.15294330000E+03 0.  0.
<mgrwt>
<rscale>  0 0.41800160E+03</rscale>
<asrwt>0</asrwt>
<pdfrwt beam="1">  1        1 0.31890692E+00 0.41800160E+03</pdfrwt>
<pdfrwt beam="2">  1       -1 0.78641941E-01 0.41800160E+03</pdfrwt>
<totfact> 0.48992007E+00</totfact>
</mgrwt>
</event>
<event>
 4    1  0.4964158E-009  0.1162593E+04  0.7818608E-02  0.9146244E-01
          1   -1    0    0  501    0  0.00000000000E+00  0.00000000000E+00  0.12599333732E+04  0.12599333732E+04  0.50400000000E-02 0. -1.
         -1   -1    0    0    0  501 -0.00000000000E+00 -0.00000000000E+00 -0.11822555208E+04  0.11822555208E+04  0.50400000000E-02 0.  1.
    8880022    1    1    2    0    0  0.59543874250E+03 -0.98675439544E+03 -0.33275183044E+03  0.12092753891E+04  0.15294330000E+03 0.  0.
    8880022    1    1    2    0    0 -0.59543874250E+03  0.98675439544E+03  0.41042968287E+03  0.12329135049E+04  0.15294330000E+03 0.  0.
<mgrwt>
<rscale>  0 0.11625933E+04</rscale>
<asrwt>0</asrwt>
<pdfrwt beam="1">  1        1 0.19383590E+00 0.11625933E+04</pdfrwt>
<pdfrwt beam="2">  1       -1 0.18188546E+00 0.11625933E+04</pdfrwt>
<totfact> 0.19193556E+00</totfact>
</mgrwt>
</event>
<event>
 4    1  0.4964158E-009  0.5022763E+03  0.7818608E-02  0.1013186E+00
         -1   -1    0    0    0  501 -0.00000000000E+00  0.00000000000E+00  0.86793216373E+03  0.86793216374E+03  0.50400000000E-02 0.  1.
          1   -1    0    0  501    0  0.00000000000E+00 -0.00000000000E+00 -0.74171128370E+03  0.74171128372E+03  0.50400000000E-02 0. -1.
    8880022    1    1    2    0    0  0.12151795939E+02 -0.47826995714E+03 -0.56450063749E+03  0.75560733240E+03  0.15294330000E+03 0.  0.
    8880022    1    1    2    0    0 -0.12151795939E+02  0.47826995714E+03  0.69072151751E+03  0.85403611505E+03  0.15294330000E+03 0.  0.
<mgrwt>
<rscale>  0 0.50227629E+03</rscale>
<asrwt>0</asrwt>
<pdfrwt beam="1">  1        1 0.11410943E+00 0.50227629E+03</pdfrwt>
<pdfrwt beam="2">  1       -1 0.13352803E+00 0.50227629E+03</pdfrwt>
<totfact> 0.12632385E+01</totfact>
</mgrwt>
</event>
<event>
 4    1  0.4964158E-009  0.1516198E+04  0.7818608E-02  0.8873752E-01
         -1   -1    0    0    0  501 -0.00000000000E+00  0.00000000000E+00  0.16351618182E+04  0.16351618182E+04  0.50400000000E-02 0.  1.
          1   -1    0    0  501    0  0.00000000000E+00 -0.00000000000E+00 -0.15797272970E+04  0.15797272970E+04  0.50400000000E-02 0. -1.
    8880022    1    1    2    0    0  0.86490924888E+03  0.12358789234E+04 -0.50551620090E+03  0.15982499818E+04  0.15294330000E+03 0.  0.
    8880022    1    1    2    0    0 -0.86490924888E+03 -0.12358789234E+04  0.56095072203E+03  0.16166391334E+04  0.15294330000E+03 0.  0.
<mgrwt>
<rscale>  0 0.15161980E+04</rscale>
<asrwt>0</asrwt>
<pdfrwt beam="1">  1        1 0.24303497E+00 0.15161980E+04</pdfrwt>
<pdfrwt beam="2">  1       -1 0.25156336E+00 0.15161980E+04</pdfrwt>
<totfact> 0.37021597E-01</totfact>
</mgrwt>
</event>
<event>
 4    1  0.4964158E-009  0.1192552E+04  0.7818608E-02  0.9119401E-01
         -1   -1    0    0    0  501 -0.00000000000E+00  0.00000000000E+00  0.98896606077E+03  0.98896606079E+03  0.50400000000E-02 0.  1.
          1   -1    0    0  501    0  0.00000000000E+00 -0.00000000000E+00 -0.21403654545E+04  0.21403654545E+04  0.50400000000E-02 0. -1.
    8880022    1    1    2    0    0 -0.88192902631E+03 -0.78802920263E+03 -0.14719811290E+04  0.18944415876E+04  0.15294330000E+03 0.  0.
    8880022    1    1    2    0    0  0.88192902631E+03  0.78802920263E+03  0.32058173523E+03  0.12348899277E+04  0.15294330000E+03 0.  0.
<mgrwt>
<rscale>  0 0.11925521E+04</rscale>
<asrwt>0</asrwt>
<pdfrwt beam="1">  1        1 0.32928699E+00 0.11925521E+04</pdfrwt>
<pdfrwt beam="2">  1       -1 0.15214863E+00 0.11925521E+04</pdfrwt>
<totfact> 0.79081793E-01</totfact>
</mgrwt>
</event>
<event>
 4    1  0.4964158E-009  0.9602664E+03  0.7818608E-02  0.9353231E-01
          1   -1    0    0  501    0  0.00000000000E+00  0.00000000000E+00  0.13797579409E+04  0.13797579409E+04  0.50400000000E-02 0. -1.
         -1   -1    0    0    0  501 -0.00000000000E+00 -0.00000000000E+00 -0.12421687145E+04  0.12421687146E+04  0.50400000000E-02 0.  1.
    8880022    1    1    2    0    0 -0.88023863391E+03  0.35199416821E+03 -0.82225361822E+03  0.12642043398E+04  0.15294330000E+03 0.  0.
    8880022    1    1    2    0    0  0.88023863391E+03 -0.35199416821E+03  0.95984284454E+03  0.13577223156E+04  0.15294330000E+03 0.  0.
<mgrwt>
<rscale>  0 0.96026642E+03</rscale>
<asrwt>0</asrwt>
<pdfrwt beam="1">  1        1 0.21227045E+00 0.96026642E+03</pdfrwt>
<pdfrwt beam="2">  1       -1 0.19110288E+00 0.96026642E+03</pdfrwt>
<totfact> 0.13942166E+00</totfact>
</mgrwt>
</event>
<event>
 4    1  0.4964158E-009  0.4602439E+03  0.7818608E-02  0.1024711E+00
          1   -1    0    0  501    0  0.00000000000E+00  0.00000000000E+00  0.16051628866E+04  0.16051628866E+04  0.50400000000E-02 0. -1.
         -1   -1    0    0    0  501 -0.00000000000E+00 -0.00000000000E+00 -0.13509229477E+03  0.13509229487E+03  0.50400000000E-02 0.  1.
    8880022    1    1    2    0    0 -0.38667026736E+03 -0.19727862562E+03  0.60263417429E+03  0.75828250199E+03  0.15294330000E+03 0.  0.
    8880022    1    1    2    0    0  0.38667026736E+03  0.19727862562E+03  0.86743641758E+03  0.98197267953E+03  0.15294330000E+03 0.  0.
<mgrwt>
<rscale>  0 0.46024385E+03</rscale>
<asrwt>0</asrwt>
<pdfrwt beam="1">  1        1 0.24694813E+00 0.46024385E+03</pdfrwt>
<pdfrwt beam="2">  1       -1 0.20783431E-01 0.46024385E+03</pdfrwt>
<totfact> 0.11226509E+02</totfact>
</mgrwt>
</event>
<event>
 4    1  0.4964158E-009  0.1303449E+04  0.7818608E-02  0.9026835E-01
         -1   -1    0    0    0  501 -0.00000000000E+00  0.00000000000E+00  0.12053528018E+04  0.12053528018E+04  0.50400000000E-02 0.  1.
          1   -1    0    0  501    0  0.00000000000E+00 -0.00000000000E+00 -0.16768029882E+04  0.16768029882E+04  0.50400000000E-02 0. -1.
    8880022    1    1    2    0    0  0.10973888953E+04  0.68653048334E+03 -0.81106679254E+03  0.15351897235E+04  0.15294330000E+03 0.  0.
    8880022    1    1    2    0    0 -0.10973888953E+04 -0.68653048334E+03  0.33961660618E+03  0.13469660665E+04  0.15294330000E+03 0.  0.
<mgrwt>
<rscale>  0 0.13034486E+04</rscale>
<asrwt>0</asrwt>
<pdfrwt beam="1">  1        1 0.25796969E+00 0.13034486E+04</pdfrwt>
<pdfrwt beam="2">  1       -1 0.18543889E+00 0.13034486E+04</pdfrwt>
<totfact> 0.91060568E-01</totfact>
</mgrwt>
</event>
<event>
 4    1  0.4964158E-009  0.8271431E+03  0.7818608E-02  0.9521539E-01
          1   -1    0    0  501    0  0.00000000000E+00  0.00000000000E+00  0.31119081585E+04  0.31119081585E+04  0.50400000000E-02 0. -1.
         -1   -1    0    0    0  501 -0.00000000000E+00 -0.00000000000E+00 -0.39451792369E+03  0.39451792373E+03  0.50400000000E-02 0.  1.
    8880022    1    1    2    0    0 -0.71867764601E+03  0.37983743614E+03  0.25252437147E+04  0.26572582691E+04  0.15294330000E+03 0.  0.
    8880022    1    1    2    0    0  0.71867764601E+03 -0.37983743614E+03  0.19214652012E+03  0.84916781320E+03  0.15294330000E+03 0.  0.
<mgrwt>
<rscale>  0 0.82714309E+03</rscale>
<asrwt>0</asrwt>
<pdfrwt beam="1">  1        1 0.47875511E+00 0.82714309E+03</pdfrwt>
<pdfrwt beam="2">  1       -1 0.60695064E-01 0.82714309E+03</pdfrwt>
<totfact> 0.14461202E+00</totfact>
</mgrwt>
</event>
<event>
 4    1  0.4964158E-009  0.2331375E+03  0.7818608E-02  0.1124451E+00
          1   -1    0    0  501    0  0.00000000000E+00  0.00000000000E+00  0.62676148756E+03  0.62676148758E+03  0.50400000000E-02 0. -1.
         -1   -1    0    0    0  501 -0.00000000000E+00 -0.00000000000E+00 -0.44495018093E+03  0.44495018096E+03  0.50400000000E-02 0.  1.
    8880022    1    1    2    0    0  0.15709151449E+03 -0.79269641264E+02  0.57171516389E+03  0.61742311391E+03  0.15294330000E+03 0.  0.
    8880022    1    1    2    0    0 -0.15709151449E+03  0.79269641264E+02 -0.38990385726E+03  0.45428855464E+03  0.15294330000E+03 0.  0.
<mgrwt>
<rscale>  0 0.23313746E+03</rscale>
<asrwt>0</asrwt>
<pdfrwt beam="1">  1        1 0.96424844E-01 0.23313746E+03</pdfrwt>
<pdfrwt beam="2">  1       -1 0.68453874E-01 0.23313746E+03</pdfrwt>
<totfact> 0.75863007E+01</totfact>
</mgrwt>
</event>
<event>
 4    1  0.4964158E-009  0.7665722E+03  0.7818608E-02  0.9609704E-01
         -1   -1    0    0    0  501 -0.00000000000E+00  0.00000000000E+00  0.39206005514E+03  0.39206005517E+03  0.50400000000E-02 0.  1.
          1   -1    0    0  501    0  0.00000000000E+00 -0.00000000000E+00 -0.28618851829E+04  0.28618851829E+04  0.50400000000E-02 0. -1.
    8880022    1    1    2    0    0 -0.16467538222E+03  0.73288701006E+03 -0.11209241529E+03  0.77472428231E+03  0.15294330000E+03 0.  0.
    8880022    1    1    2    0    0  0.16467538222E+03 -0.73288701006E+03 -0.23577327124E+04  0.24792209557E+04  0.15294330000E+03 0.  0.
<mgrwt>
<rscale>  0 0.76657224E+03</rscale>
<asrwt>0</asrwt>
<pdfrwt beam="1">  1        1 0.44029001E+00 0.76657224E+03</pdfrwt>
<pdfrwt beam="2">  1       -1 0.60316934E-01 0.76657224E+03</pdfrwt>
<totfact> 0.22390015E+00</totfact>
</mgrwt>
</event>
<event>
 4    1  0.4964158E-009  0.3553495E+03  0.7818608E-02  0.1060441E+00
         -1   -1    0    0    0  501 -0.00000000000E+00  0.00000000000E+00  0.34935572591E+03  0.34935572595E+03  0.50400000000E-02 0.  1.
          1   -1    0    0  501    0  0.00000000000E+00 -0.00000000000E+00 -0.15014950887E+04  0.15014950888E+04  0.50400000000E-02 0. -1.
    8880022    1    1    2    0    0  0.24329154676E+02 -0.31982764671E+03 -0.13824523906E+04  0.14273919913E+04  0.15294330000E+03 0.  0.
    8880022    1    1    2    0    0 -0.24329154676E+02  0.31982764671E+03  0.23031302778E+03  0.42345882344E+03  0.15294330000E+03 0.  1.
<mgrwt>
<rscale>  0 0.35534952E+03</rscale>
<asrwt>0</asrwt>
<pdfrwt beam="1">  1        1 0.23099924E+00 0.35534952E+03</pdfrwt>
<pdfrwt beam="2">  1       -1 0.53747036E-01 0.35534952E+03</pdfrwt>
<totfact> 0.25345073E+01</totfact>
</mgrwt>
</event>
<event>
 4    1  0.4964158E-009  0.1315263E+04  0.7818608E-02  0.9017549E-01
         -1   -1    0    0    0  501 -0.00000000000E+00  0.00000000000E+00  0.21959410603E+04  0.21959410603E+04  0.50400000000E-02 0.  1.
          1   -1    0    0  501    0  0.00000000000E+00 -0.00000000000E+00 -0.89470131696E+03  0.89470131698E+03  0.50400000000E-02 0. -1.
    8880022    1    1    2    0    0 -0.11591616812E+04 -0.60238547810E+03  0.11848327997E+04  0.17702385387E+04  0.15294330000E+03 0.  0.
    8880022    1    1    2    0    0  0.11591616812E+04  0.60238547810E+03  0.11640694363E+03  0.13204038386E+04  0.15294330000E+03 0.  0.
<mgrwt>
<rscale>  0 0.13152626E+04</rscale>
<asrwt>0</asrwt>
<pdfrwt beam="1">  1        1 0.13764636E+00 0.13152626E+04</pdfrwt>
<pdfrwt beam="2">  1       -1 0.33783708E+00 0.13152626E+04</pdfrwt>
<totfact> 0.33487172E-01</totfact>
</mgrwt>
</event>
<event>
 4    1  0.4964158E-009  0.2114923E+03  0.7818608E-02  0.1140390E+00
          1   -1    0    0  501    0  0.00000000000E+00  0.00000000000E+00  0.56628903656E+03  0.56628903658E+03  0.50400000000E-02 0. -1.
         -1   -1    0    0    0  501 -0.00000000000E+00 -0.00000000000E+00 -0.11373402713E+03  0.11373402724E+03  0.50400000000E-02 0.  1.
    8880022    1    1    2    0    0  0.13303032030E+03  0.60334734093E+02  0.41421458852E+03  0.46508356734E+03  0.15294330000E+03 0.  0.
    8880022    1    1    2    0    0 -0.13303032030E+03 -0.60334734093E+02  0.38340420906E+02  0.21493949648E+03  0.15294330000E+03 0.  1.
<mgrwt>
<rscale>  0 0.21149231E+03</rscale>
<asrwt>0</asrwt>
<pdfrwt beam="1">  1        1 0.87121388E-01 0.21149231E+03</pdfrwt>
<pdfrwt beam="2">  1       -1 0.17497543E-01 0.21149231E+03</pdfrwt>
<totfact> 0.95758688E+02</totfact>
</mgrwt>
</event>
<event>
 4    1  0.4964158E-009  0.7082060E+03  0.7818608E-02  0.9703301E-01
          1   -1    0    0  501    0  0.00000000000E+00  0.00000000000E+00  0.83079070351E+03  0.83079070353E+03  0.50400000000E-02 0. -1.
         -1   -1    0    0    0  501 -0.00000000000E+00 -0.00000000000E+00 -0.16419778018E+04  0.16419778018E+04  0.50400000000E-02 0.  1.
    8880022    1    1    2    0    0 -0.68193769727E+03  0.11456484049E+03  0.57756766687E+03  0.91386004862E+03  0.15294330000E+03 0.  0.
    8880022    1    1    2    0    0  0.68193769727E+03 -0.11456484049E+03 -0.13887547651E+04  0.15589084567E+04  0.15294330000E+03 0.  0.
<mgrwt>
<rscale>  0 0.70820603E+03</rscale>
<asrwt>0</asrwt>
<pdfrwt beam="1">  1        1 0.12781395E+00 0.70820603E+03</pdfrwt>
<pdfrwt beam="2">  1       -1 0.25261197E+00 0.70820603E+03</pdfrwt>
<totfact> 0.14737943E+00</totfact>
</mgrwt>
</event>
<event>
 4    1  0.4964158E-009  0.2014566E+03  0.7818608E-02  0.1148516E+00
          1   -1    0    0  501    0  0.00000000000E+00  0.00000000000E+00  0.75651449429E+03  0.75651449430E+03  0.50400000000E-02 0. -1.
         -1   -1    0    0    0  501 -0.00000000000E+00 -0.00000000000E+00 -0.17388375792E+03  0.17388375799E+03  0.50400000000E-02 0.  1.
    8880022    1    1    2    0    0 -0.88161991464E+02 -0.97059690503E+02 -0.95521549587E+02  0.22295546576E+03  0.15294330000E+03 0.  1.
    8880022    1    1    2    0    0  0.88161991464E+02  0.97059690503E+02  0.67815228596E+03  0.70744278654E+03  0.15294330000E+03 0.  0.
<mgrwt>
<rscale>  0 0.20145663E+03</rscale>
<asrwt>0</asrwt>
<pdfrwt beam="1">  1        1 0.11638684E+00 0.20145663E+03</pdfrwt>
<pdfrwt beam="2">  1       -1 0.26751348E-01 0.20145663E+03</pdfrwt>
<totfact> 0.31702424E+02</totfact>
</mgrwt>
</event>
<event>
 4    1  0.4964158E-009  0.4919173E+03  0.7818608E-02  0.1015910E+00
         -1   -1    0    0    0  501 -0.00000000000E+00  0.00000000000E+00  0.33657251990E+03  0.33657251994E+03  0.50400000000E-02 0.  1.
          1   -1    0    0  501    0  0.00000000000E+00 -0.00000000000E+00 -0.96538009369E+03  0.96538009370E+03  0.50400000000E-02 0. -1.
    8880022    1    1    2    0    0  0.29535930292E+03 -0.36242767776E+03  0.14487970145E+02  0.49213056573E+03  0.15294330000E+03 0.  0.
    8880022    1    1    2    0    0 -0.29535930292E+03  0.36242767776E+03 -0.64329554394E+03  0.80982204792E+03  0.15294330000E+03 0.  0.
<mgrwt>
<rscale>  0 0.49191726E+03</rscale>
<asrwt>0</asrwt>
<pdfrwt beam="1">  1        1 0.14852001E+00 0.49191726E+03</pdfrwt>
<pdfrwt beam="2">  1       -1 0.51780388E-01 0.49191726E+03</pdfrwt>
<totfact> 0.63672751E+01</totfact>
</mgrwt>
</event>
<event>
 4    1  0.4964158E-009  0.5318831E+03  0.7818608E-02  0.1005776E+00
          1   -1    0    0  501    0  0.00000000000E+00  0.00000000000E+00  0.87174294572E+03  0.87174294574E+03  0.50400000000E-02 0. -1.
         -1   -1    0    0    0  501 -0.00000000000E+00 -0.00000000000E+00 -0.74074925594E+03  0.74074925596E+03  0.50400000000E-02 0.  1.
    8880022    1    1    2    0    0  0.21473387297E+03 -0.46194946927E+03 -0.53886546270E+03  0.75714964720E+03  0.15294330000E+03 0.  0.
    8880022    1    1    2    0    0 -0.21473387297E+03  0.46194946927E+03  0.66985915248E+03  0.85534255450E+03  0.15294330000E+03 0.  0.
<mgrwt>
<rscale>  0 0.53188307E+03</rscale>
<asrwt>0</asrwt>
<pdfrwt beam="1">  1        1 0.13411430E+00 0.53188307E+03</pdfrwt>
<pdfrwt beam="2">  1       -1 0.11396142E+00 0.53188307E+03</pdfrwt>
<totfact> 0.14337425E+01</totfact>
</mgrwt>
</event>
<event>
 4    1  0.4964158E-009  0.5864595E+03  0.7818608E-02  0.9933903E-01
          1   -1    0    0  501    0  0.00000000000E+00  0.00000000000E+00  0.11596379956E+04  0.11596379956E+04  0.50400000000E-02 0. -1.
         -1   -1    0    0    0  501 -0.00000000000E+00 -0.00000000000E+00 -0.58039207132E+03  0.58039207134E+03  0.50400000000E-02 0.  1.
    8880022    1    1    2    0    0  0.48828340237E+03 -0.28657003641E+03 -0.31875759797E+03  0.66748867112E+03  0.15294330000E+03 0.  0.
    8880022    1    1    2    0    0 -0.48828340237E+03  0.28657003641E+03  0.89800352229E+03  0.10725413959E+04  0.15294330000E+03 0.  0.
<mgrwt>
<rscale>  0 0.58645948E+03</rscale>
<asrwt>0</asrwt>
<pdfrwt beam="1">  1        1 0.17840584E+00 0.58645948E+03</pdfrwt>
<pdfrwt beam="2">  1       -1 0.89291089E-01 0.58645948E+03</pdfrwt>
<totfact> 0.14881575E+01</totfact>
</mgrwt>
</event>
<event>
 4    1  0.4964158E-009  0.6628739E+03  0.7818608E-02  0.9782918E-01
          1   -1    0    0  501    0  0.00000000000E+00  0.00000000000E+00  0.87603733506E+03  0.87603733507E+03  0.50400000000E-02 0. -1.
         -1   -1    0    0    0  501 -0.00000000000E+00 -0.00000000000E+00 -0.13828205571E+04  0.13828205571E+04  0.50400000000E-02 0.  1.
    8880022    1    1    2    0    0  0.61831526431E+03 -0.18356589556E+03  0.64822832444E+03  0.92714713920E+03  0.15294330000E+03 0.  0.
    8880022    1    1    2    0    0 -0.61831526431E+03  0.18356589556E+03 -0.11550115465E+04  0.13317107530E+04  0.15294330000E+03 0.  0.
<mgrwt>
<rscale>  0 0.66287394E+03</rscale>
<asrwt>0</asrwt>
<pdfrwt beam="1">  1        1 0.13477497E+00 0.66287394E+03</pdfrwt>
<pdfrwt beam="2">  1       -1 0.21274162E+00 0.66287394E+03</pdfrwt>
<totfact> 0.24846948E+00</totfact>
</mgrwt>
</event>
<event>
 4    1  0.4964158E-009  0.3380584E+03  0.7818608E-02  0.1067626E+00
          1   -1    0    0  501    0  0.00000000000E+00  0.00000000000E+00  0.37624609092E+03  0.37624609095E+03  0.50400000000E-02 0. -1.
         -1   -1    0    0    0  501 -0.00000000000E+00 -0.00000000000E+00 -0.20994070463E+04  0.20994070463E+04  0.50400000000E-02 0.  1.
    8880022    1    1    2    0    0  0.17273810917E+03  0.24708978344E+03  0.28320360914E+03  0.44100765604E+03  0.15294330000E+03 0.  0.
    8880022    1    1    2    0    0 -0.17273810917E+03 -0.24708978344E+03 -0.20063645645E+04  0.20346454812E+04  0.15294330000E+03 0.  0.
<mgrwt>
<rscale>  0 0.33805838E+03</rscale>
<asrwt>0</asrwt>
<pdfrwt beam="1">  1        1 0.57884015E-01 0.33805838E+03</pdfrwt>
<pdfrwt beam="2">  1       -1 0.32298569E+00 0.33805838E+03</pdfrwt>
<totfact> 0.17865292E+00</totfact>
</mgrwt>
</event>
<event>
 4    1  0.4964158E-009  0.8156222E+03  0.7818608E-02  0.9537676E-01
          1   -1    0    0  501    0  0.00000000000E+00  0.00000000000E+00  0.15668522432E+04  0.15668522432E+04  0.50400000000E-02 0. -1.
         -1   -1    0    0    0  501 -0.00000000000E+00 -0.00000000000E+00 -0.16602437786E+04  0.16602437786E+04  0.50400000000E-02 0.  1.
    8880022    1    1    2    0    0  0.64532303394E+03 -0.47476951350E+03 -0.14387230691E+04  0.16538330120E+04  0.15294330000E+03 0.  0.
    8880022    1    1    2    0    0 -0.64532303394E+03  0.47476951350E+03  0.13453315337E+04  0.15732630097E+04  0.15294330000E+03 0.  0.
<mgrwt>
<rscale>  0 0.81562219E+03</rscale>
<asrwt>0</asrwt>
<pdfrwt beam="1">  1        1 0.24105419E+00 0.81562219E+03</pdfrwt>
<pdfrwt beam="2">  1       -1 0.25542212E+00 0.81562219E+03</pdfrwt>
<totfact> 0.39636103E-01</totfact>
</mgrwt>
</event>
<event>
 4    1  0.4964158E-009  0.3580723E+03  0.7818608E-02  0.1059350E+00
         -1   -1    0    0    0  501 -0.00000000000E+00  0.00000000000E+00  0.93034949642E+03  0.93034949644E+03  0.50400000000E-02 0.  1.
          1   -1    0    0  501    0  0.00000000000E+00 -0.00000000000E+00 -0.37347518303E+03  0.37347518307E+03  0.50400000000E-02 0. -1.
    8880022    1    1    2    0    0 -0.26598962823E+03 -0.18459038808E+03  0.79628455448E+03  0.87308924997E+03  0.15294330000E+03 0.  0.
    8880022    1    1    2    0    0  0.26598962823E+03  0.18459038808E+03 -0.23941024109E+03  0.43073542953E+03  0.15294330000E+03 0.  0.
<mgrwt>
<rscale>  0 0.35807226E+03</rscale>
<asrwt>0</asrwt>
<pdfrwt beam="1">  1        1 0.57457721E-01 0.35807226E+03</pdfrwt>
<pdfrwt beam="2">  1       -1 0.14313069E+00 0.35807226E+03</pdfrwt>
<totfact> 0.28079168E+01</totfact>
</mgrwt>
</event>
<event>
 4    1  0.4964158E-009  0.1133765E+04  0.7818608E-02  0.9172893E-01
         -1   -1    0    0    0  501 -0.00000000000E+00  0.00000000000E+00  0.93906849715E+03  0.93906849716E+03  0.50400000000E-02 0.  1.
          1   -1    0    0  501    0  0.00000000000E+00 -0.00000000000E+00 -0.24821456576E+04  0.24821456576E+04  0.50400000000E-02 0. -1.
    8880022    1    1    2    0    0  0.62258696004E+03 -0.93510310872E+03 -0.19171729291E+04  0.22273248618E+04  0.15294330000E+03 0.  0.
    8880022    1    1    2    0    0 -0.62258696004E+03  0.93510310872E+03  0.37409576868E+03  0.11938892930E+04  0.15294330000E+03 0.  0.
<mgrwt>
<rscale>  0 0.11337654E+04</rscale>
<asrwt>0</asrwt>
<pdfrwt beam="1">  1        1 0.38186856E+00 0.11337654E+04</pdfrwt>
<pdfrwt beam="2">  1       -1 0.14447208E+00 0.11337654E+04</pdfrwt>
<totfact> 0.53593044E-01</totfact>
</mgrwt>
</event>
<event>
 4    1  0.4964158E-009  0.1094801E+04  0.7818608E-02  0.9210274E-01
          1   -1    0    0  501    0  0.00000000000E+00  0.00000000000E+00  0.96001718987E+03  0.96001718989E+03  0.50400000000E-02 0. -1.
         -1   -1    0    0    0  501 -0.00000000000E+00 -0.00000000000E+00 -0.17478608627E+04  0.17478608627E+04  0.50400000000E-02 0.  1.
    8880022    1    1    2    0    0  0.10666070387E+04 -0.19377276201E+03 -0.11176059024E+04  0.15644913117E+04  0.15294330000E+03 0.  0.
    8880022    1    1    2    0    0 -0.10666070387E+04  0.19377276201E+03  0.32976222955E+03  0.11433867409E+04  0.15294330000E+03 0.  0.
<mgrwt>
<rscale>  0 0.10948014E+04</rscale>
<asrwt>0</asrwt>
<pdfrwt beam="1">  1        1 0.14769495E+00 0.10948014E+04</pdfrwt>
<pdfrwt beam="2">  1       -1 0.26890167E+00 0.10948014E+04</pdfrwt>
<totfact> 0.85193117E-01</totfact>
</mgrwt>
</event>
<event>
 4    1  0.4964158E-009  0.4419165E+03  0.7818608E-02  0.1030160E+00
          1   -1    0    0  501    0  0.00000000000E+00  0.00000000000E+00  0.94123272153E+03  0.94123272154E+03  0.50400000000E-02 0. -1.
         -1   -1    0    0    0  501 -0.00000000000E+00 -0.00000000000E+00 -0.22067710507E+03  0.22067710512E+03  0.50400000000E-02 0.  1.
    8880022    1    1    2    0    0 -0.13993735848E+03  0.39027694010E+03  0.21822610629E+03  0.49286188811E+03  0.15294330000E+03 0.  0.
    8880022    1    1    2    0    0  0.13993735848E+03 -0.39027694010E+03  0.50232951017E+03  0.66904793855E+03  0.15294330000E+03 0.  0.
<mgrwt>
<rscale>  0 0.44191652E+03</rscale>
<asrwt>0</asrwt>
<pdfrwt beam="1">  1        1 0.14480504E+00 0.44191652E+03</pdfrwt>
<pdfrwt beam="2">  1       -1 0.33950323E-01 0.44191652E+03</pdfrwt>
<totfact> 0.14424220E+02</totfact>
</mgrwt>
</event>
