<event>
 4    2  0.3396630E-007  0.6853591E+03  0.7818608E-02  0.1006441E+00
          1   -1    0    0  501    0  0.00000000000E+00  0.00000000000E+00  0.13533056307E+04  0.13533056307E+04  0.50400000000E-02 0. -1.
         -1   -1    0    0    0  501 -0.00000000000E+00 -0.00000000000E+00 -0.21559510986E+03  0.21559510992E+03  0.50400000000E-02 0.  1.
    8880023    1    1    2    0    0  0.18560006170E+03 -0.38202952755E+02  0.40340046537E+03  0.79526661581E+03  0.65864270000E+03 0.  1.
    8880022    1    1    2    0    0 -0.18560006170E+03  0.38202952755E+02  0.73431005550E+03  0.77363412485E+03  0.15294330000E+03 0.  0.
<mgrwt>
<rscale>  0 0.52913817E+03</rscale>
<asrwt>0</asrwt>
<pdfrwt beam="1">  1        1 0.20820086E+00 0.68535907E+03</pdfrwt>
<pdfrwt beam="2">  1       -1 0.33168479E-01 0.68535907E+03</pdfrwt>
<totfact> 0.72963436E+01</totfact>
</mgrwt>
</event>
<event>
 4    2  0.3396630E-007  0.7608639E+03  0.7818608E-02  0.9802876E-01
         -1   -1    0    0    0  501 -0.00000000000E+00  0.00000000000E+00  0.39092350808E+03  0.39092350811E+03  0.50400000000E-02 0.  1.
          1   -1    0    0  501    0  0.00000000000E+00 -0.00000000000E+00 -0.12040782976E+04  0.12040782976E+04  0.50400000000E-02 0. -1.
    8880023    1    1    2    0    0  0.37730256091E+03  0.52406032081E+02 -0.93603209217E+02  0.76659988371E+03  0.65864270000E+03 0.  0.
    8880022    1    1    2    0    0 -0.37730256091E+03 -0.52406032081E+02 -0.71955158034E+03  0.82840192204E+03  0.15294330000E+03 0.  0.
<mgrwt>
<rscale>  0 0.65208421E+03</rscale>
<asrwt>0</asrwt>
<pdfrwt beam="1">  1        1 0.18524281E+00 0.76086386E+03</pdfrwt>
<pdfrwt beam="2">  1       -1 0.60142079E-01 0.76086386E+03</pdfrwt>
<totfact> 0.30568612E+01</totfact>
</mgrwt>
</event>
<event>
 4    2  0.3396630E-007  0.7275553E+03  0.7818608E-02  0.9897804E-01
         -1   -1    0    0    0  501 -0.00000000000E+00  0.00000000000E+00  0.13672425848E+03  0.13672425857E+03  0.50400000000E-02 0.  1.
          1   -1    0    0  501    0  0.00000000000E+00 -0.00000000000E+00 -0.26373029187E+04  0.26373029187E+04  0.50400000000E-02 0. -1.
    8880023    1    1    2    0    0  0.30057607202E+03 -0.71975569318E+02 -0.21978992440E+04  0.23151884914E+04  0.65864270000E+03 0. -1.
    8880022    1    1    2    0    0 -0.30057607202E+03  0.71975569318E+02 -0.30267941625E+03  0.45883868591E+03  0.15294330000E+03 0.  1.
<mgrwt>
<rscale>  0 0.60367820E+03</rscale>
<asrwt>0</asrwt>
<pdfrwt beam="1">  1        1 0.40573887E+00 0.72755527E+03</pdfrwt>
<pdfrwt beam="2">  1       -1 0.21034503E-01 0.72755527E+03</pdfrwt>
<totfact> 0.21497067E+01</totfact>
</mgrwt>
</event>
<event>
 4    2  0.3396630E-007  0.8349185E+03  0.7818608E-02  0.9639837E-01
         -1   -1    0    0    0  501 -0.00000000000E+00  0.00000000000E+00  0.31918719625E+03  0.31918719629E+03  0.50400000000E-02 0.  1.
          1   -1    0    0  501    0  0.00000000000E+00 -0.00000000000E+00 -0.18151369950E+04  0.18151369950E+04  0.50400000000E-02 0. -1.
    8880023    1    1    2    0    0 -0.36487569402E+03 -0.36075537695E+03 -0.13361696537E+04  0.15755755341E+04  0.65864270000E+03 0. -1.
    8880022    1    1    2    0    0  0.36487569402E+03  0.36075537695E+03 -0.15978014505E+03  0.55874865714E+03  0.15294330000E+03 0.  0.
<mgrwt>
<rscale>  0 0.74714676E+03</rscale>
<asrwt>0</asrwt>
<pdfrwt beam="1">  1        1 0.27925184E+00 0.83491851E+03</pdfrwt>
<pdfrwt beam="2">  1       -1 0.49105724E-01 0.83491851E+03</pdfrwt>
<totfact> 0.16988726E+01</totfact>
</mgrwt>
</event>
<event>
 4    2  0.3396630E-007  0.9050681E+03  0.7818608E-02  0.9517944E-01
          1   -1    0    0  501    0  0.00000000000E+00  0.00000000000E+00  0.10360551944E+04  0.10360551944E+04  0.50400000000E-02 0. -1.
         -1   -1    0    0    0  501 -0.00000000000E+00 -0.00000000000E+00 -0.68687069987E+03  0.68687069989E+03  0.50400000000E-02 0.  1.
    8880023    1    1    2    0    0 -0.55562349527E+03  0.27680413597E+03  0.54226945618E+03  0.10550850049E+04  0.65864270000E+03 0. -1.
    8880022    1    1    2    0    0  0.55562349527E+03 -0.27680413597E+03 -0.19308496163E+03  0.66784088943E+03  0.15294330000E+03 0.  0.
<mgrwt>
<rscale>  0 0.82973699E+03</rscale>
<asrwt>0</asrwt>
<pdfrwt beam="1">  1        1 0.15939311E+00 0.90506807E+03</pdfrwt>
<pdfrwt beam="2">  1       -1 0.10567242E+00 0.90506807E+03</pdfrwt>
<totfact> 0.12049568E+01</totfact>
</mgrwt>
</event>
<event>
 4    2  0.3396630E-007  0.8397009E+03  0.7818608E-02  0.9630744E-01
         -1   -1    0    0    0  501 -0.00000000000E+00  0.00000000000E+00  0.56883921202E+03  0.56883921205E+03  0.50400000000E-02 0.  1.
          1   -1    0    0  501    0  0.00000000000E+00 -0.00000000000E+00 -0.11766151681E+04  0.11766151681E+04  0.50400000000E-02 0. -1.
    8880023    1    1    2    0    0 -0.49077552406E+03 -0.17443292259E+03  0.10853725683E+03  0.84668648382E+03  0.65864270000E+03 0.  1.
    8880022    1    1    2    0    0  0.49077552406E+03  0.17443292259E+03 -0.71631321292E+03  0.89876789636E+03  0.15294330000E+03 0.  0.
<mgrwt>
<rscale>  0 0.75294308E+03</rscale>
<asrwt>0</asrwt>
<pdfrwt beam="1">  1        1 0.18101772E+00 0.83970094E+03</pdfrwt>
<pdfrwt beam="2">  1       -1 0.87513725E-01 0.83970094E+03</pdfrwt>
<totfact> 0.14581396E+01</totfact>
</mgrwt>
</event>
<event>
 4    2  0.3396630E-007  0.6931560E+03  0.7818608E-02  0.1002687E+00
         -1   -1    0    0    0  501 -0.00000000000E+00  0.00000000000E+00  0.40901420021E+03  0.40901420024E+03  0.50400000000E-02 0.  1.
          1   -1    0    0  501    0  0.00000000000E+00 -0.00000000000E+00 -0.15788550606E+04  0.15788550606E+04  0.50400000000E-02 0. -1.
    8880023    1    1    2    0    0  0.14095096944E+03  0.16366978712E+03  0.91402335936E+02  0.69915632607E+03  0.65864270000E+03 0.  1.
    8880022    1    1    2    0    0 -0.14095096944E+03 -0.16366978712E+03 -0.12612431963E+04  0.12887129348E+04  0.15294330000E+03 0.  0.
<mgrwt>
<rscale>  0 0.54487468E+03</rscale>
<asrwt>0</asrwt>
<pdfrwt beam="1">  1        1 0.24290078E+00 0.69315596E+03</pdfrwt>
<pdfrwt beam="2">  1       -1 0.62925262E-01 0.69315596E+03</pdfrwt>
<totfact> 0.15457907E+01</totfact>
</mgrwt>
</event>
<event>
 4    2  0.3396630E-007  0.9270908E+03  0.7818608E-02  0.9483871E-01
          1   -1    0    0  501    0  0.00000000000E+00  0.00000000000E+00  0.63912560596E+03  0.63912560598E+03  0.50400000000E-02 0. -1.
         -1   -1    0    0    0  501 -0.00000000000E+00 -0.00000000000E+00 -0.11790029482E+04  0.11790029482E+04  0.50400000000E-02 0.  1.
    8880023    1    1    2    0    0  0.61205665139E+03  0.22599501014E+03  0.45671384003E+02  0.92821504550E+03  0.65864270000E+03 0.  0.
    8880022    1    1    2    0    0 -0.61205665139E+03 -0.22599501014E+03 -0.58554872621E+03  0.88991350866E+03  0.15294330000E+03 0.  0.
<mgrwt>
<rscale>  0 0.85483443E+03</rscale>
<asrwt>0</asrwt>
<pdfrwt beam="1">  1        1 0.98327017E-01 0.92709077E+03</pdfrwt>
<pdfrwt beam="2">  1       -1 0.18138507E+00 0.92709077E+03</pdfrwt>
<totfact> 0.64227625E+00</totfact>
</mgrwt>
</event>
<event>
 4    2  0.3396630E-007  0.7105224E+03  0.7818608E-02  0.9956066E-01
         -1   -1    0    0    0  501 -0.00000000000E+00  0.00000000000E+00  0.55608906918E+03  0.55608906920E+03  0.50400000000E-02 0.  1.
          1   -1    0    0  501    0  0.00000000000E+00 -0.00000000000E+00 -0.10761154186E+04  0.10761154186E+04  0.50400000000E-02 0. -1.
    8880023    1    1    2    0    0 -0.73870102497E+01  0.26641565926E+03  0.28880088705E+03  0.76697329161E+03  0.65864270000E+03 0.  1.
    8880022    1    1    2    0    0  0.73870102497E+01 -0.26641565926E+03 -0.80882723643E+03  0.86523119617E+03  0.15294330000E+03 0.  0.
<mgrwt>
<rscale>  0 0.57619350E+03</rscale>
<asrwt>0</asrwt>
<pdfrwt beam="1">  1        1 0.16555622E+00 0.71052240E+03</pdfrwt>
<pdfrwt beam="2">  1       -1 0.85552165E-01 0.71052240E+03</pdfrwt>
<totfact> 0.18476944E+01</totfact>
</mgrwt>
</event>
<event>
 4    2  0.3396630E-007  0.8150017E+03  0.7818608E-02  0.9679251E-01
          1   -1    0    0  501    0  0.00000000000E+00  0.00000000000E+00  0.20966292088E+04  0.20966292088E+04  0.50400000000E-02 0. -1.
         -1   -1    0    0    0  501 -0.00000000000E+00 -0.00000000000E+00 -0.40121144924E+03  0.40121144927E+03  0.50400000000E-02 0.  1.
    8880023    1    1    2    0    0  0.16767094298E+02 -0.47972532991E+03  0.95619413611E+02  0.82059174145E+03  0.65864270000E+03 0.  1.
    8880022    1    1    2    0    0 -0.16767094298E+02  0.47972532991E+03  0.15997983459E+04  0.16772489166E+04  0.15294330000E+03 0.  0.
<mgrwt>
<rscale>  0 0.72265713E+03</rscale>
<asrwt>0</asrwt>
<pdfrwt beam="1">  1        1 0.32255834E+00 0.81500168E+03</pdfrwt>
<pdfrwt beam="2">  1       -1 0.61724839E-01 0.81500168E+03</pdfrwt>
<totfact> 0.70839341E+00</totfact>
</mgrwt>
</event>
<event>
 4    2  0.3396630E-007  0.8989920E+03  0.7818608E-02  0.9527652E-01
         -1   -1    0    0    0  501 -0.00000000000E+00  0.00000000000E+00  0.21736549960E+03  0.21736549966E+03  0.50400000000E-02 0.  1.
          1   -1    0    0  501    0  0.00000000000E+00 -0.00000000000E+00 -0.27727362391E+04  0.27727362392E+04  0.50400000000E-02 0. -1.
    8880023    1    1    2    0    0 -0.31051483976E+03  0.52721625988E+03 -0.12427300542E+04  0.15338072383E+04  0.65864270000E+03 0.  1.
    8880022    1    1    2    0    0  0.31051483976E+03 -0.52721625988E+03 -0.13126406853E+04  0.14562945005E+04  0.15294330000E+03 0.  0.
<mgrwt>
<rscale>  0 0.82275518E+03</rscale>
<asrwt>0</asrwt>
<pdfrwt beam="1">  1        1 0.42657478E+00 0.89899202E+03</pdfrwt>
<pdfrwt beam="2">  1       -1 0.33440848E-01 0.89899202E+03</pdfrwt>
<totfact> 0.75985608E+00</totfact>
</mgrwt>
</event>
<event>
 4    2  0.3396630E-007  0.7023232E+03  0.7818608E-02  0.9987697E-01
          1   -1    0    0  501    0  0.00000000000E+00  0.00000000000E+00  0.76201945993E+03  0.76201945994E+03  0.50400000000E-02 0. -1.
         -1   -1    0    0    0  501 -0.00000000000E+00 -0.00000000000E+00 -0.32165103006E+03  0.32165103010E+03  0.50400000000E-02 0.  1.
    8880023    1    1    2    0    0 -0.24381471030E+03  0.14441477327E+01  0.31538895932E+03  0.76988836882E+03  0.65864270000E+03 0.  1.
    8880022    1    1    2    0    0  0.24381471030E+03 -0.14441477327E+01  0.12497947055E+03  0.31378212122E+03  0.15294330000E+03 0.  1.
<mgrwt>
<rscale>  0 0.56193018E+03</rscale>
<asrwt>0</asrwt>
<pdfrwt beam="1">  1        1 0.11723376E+00 0.70232322E+03</pdfrwt>
<pdfrwt beam="2">  1       -1 0.49484774E-01 0.70232322E+03</pdfrwt>
<totfact> 0.99969934E+01</totfact>
</mgrwt>
</event>
<event>
 4    2  0.3396630E-007  0.6625419E+03  0.7818608E-02  0.1021691E+00
          1   -1    0    0  501    0  0.00000000000E+00  0.00000000000E+00  0.88916504868E+03  0.88916504869E+03  0.50400000000E-02 0. -1.
         -1   -1    0    0    0  501 -0.00000000000E+00 -0.00000000000E+00 -0.44845876014E+03  0.44845876017E+03  0.50400000000E-02 0.  1.
    8880023    1    1    2    0    0 -0.33806966125E+02  0.63314260413E+02 -0.18631476695E+03  0.68824051405E+03  0.65864270000E+03 0.  1.
    8880022    1    1    2    0    0  0.33806966125E+02 -0.63314260413E+02  0.62702105549E+03  0.64938329481E+03  0.15294330000E+03 0.  0.
<mgrwt>
<rscale>  0 0.47081249E+03</rscale>
<asrwt>0</asrwt>
<pdfrwt beam="1">  1        1 0.13679462E+00 0.66254193E+03</pdfrwt>
<pdfrwt beam="2">  1       -1 0.68993655E-01 0.66254193E+03</pdfrwt>
<totfact> 0.40830726E+01</totfact>
</mgrwt>
</event>
<event>
 4    2  0.3396630E-007  0.8380105E+03  0.7818608E-02  0.9633943E-01
          1   -1    0    0  501    0  0.00000000000E+00  0.00000000000E+00  0.14707169874E+04  0.14707169874E+04  0.50400000000E-02 0. -1.
         -1   -1    0    0    0  501 -0.00000000000E+00 -0.00000000000E+00 -0.32322291324E+03  0.32322291328E+03  0.50400000000E-02 0.  1.
    8880023    1    1    2    0    0 -0.43139004656E+03 -0.28697386492E+03  0.66957712571E+03  0.10726579627E+04  0.65864270000E+03 0.  1.
    8880022    1    1    2    0    0  0.43139004656E+03  0.28697386492E+03  0.47791694841E+03  0.72128193795E+03  0.15294330000E+03 0. -1.
<mgrwt>
<rscale>  0 0.75089767E+03</rscale>
<asrwt>0</asrwt>
<pdfrwt beam="1">  1        1 0.22626415E+00 0.83801049E+03</pdfrwt>
<pdfrwt beam="2">  1       -1 0.49726602E-01 0.83801049E+03</pdfrwt>
<totfact> 0.28403481E+01</totfact>
</mgrwt>
</event>
<event>
 4    2  0.3396630E-007  0.8692991E+03  0.7818608E-02  0.9577231E-01
         -1   -1    0    0    0  501 -0.00000000000E+00  0.00000000000E+00  0.31787331566E+03  0.31787331570E+03  0.50400000000E-02 0.  1.
          1   -1    0    0  501    0  0.00000000000E+00 -0.00000000000E+00 -0.21388697728E+04  0.21388697728E+04  0.50400000000E-02 0. -1.
    8880023    1    1    2    0    0 -0.36210813834E+03  0.43674752203E+03 -0.16149901516E+04  0.18340867204E+04  0.65864270000E+03 0. -1.
    8880022    1    1    2    0    0  0.36210813834E+03 -0.43674752203E+03 -0.20600630555E+03  0.62265636814E+03  0.15294330000E+03 0.  0.
<mgrwt>
<rscale>  0 0.78821659E+03</rscale>
<asrwt>0</asrwt>
<pdfrwt beam="1">  1        1 0.32905688E+00 0.86929909E+03</pdfrwt>
<pdfrwt beam="2">  1       -1 0.48903588E-01 0.86929909E+03</pdfrwt>
<totfact> 0.10335681E+01</totfact>
</mgrwt>
</event>
<event>
 4    2  0.3396630E-007  0.7386082E+03  0.7818608E-02  0.9864020E-01
          1   -1    0    0  501    0  0.00000000000E+00  0.00000000000E+00  0.35774026649E+04  0.35774026649E+04  0.50400000000E-02 0. -1.
         -1   -1    0    0    0  501 -0.00000000000E+00 -0.00000000000E+00 -0.20944160548E+03  0.20944160554E+03  0.50400000000E-02 0.  1.
    8880023    1    1    2    0    0 -0.25243790593E+03 -0.21910503868E+03  0.49196634777E+03  0.88745310182E+03  0.65864270000E+03 0.  1.
    8880022    1    1    2    0    0  0.25243790593E+03  0.21910503868E+03  0.28759947116E+04  0.28993911686E+04  0.15294330000E+03 0.  0.
<mgrwt>
<rscale>  0 0.62037173E+03</rscale>
<asrwt>0</asrwt>
<pdfrwt beam="1">  1        1 0.55036965E+00 0.73860823E+03</pdfrwt>
<pdfrwt beam="2">  1       -1 0.32221785E-01 0.73860823E+03</pdfrwt>
<totfact> 0.21260079E+00</totfact>
</mgrwt>
</event>
<event>
 4    2  0.3396630E-007  0.6693787E+03  0.7818608E-02  0.1016112E+00
         -1   -1    0    0    0  501 -0.00000000000E+00  0.00000000000E+00  0.50088970126E+03  0.50088970129E+03  0.50400000000E-02 0.  1.
          1   -1    0    0  501    0  0.00000000000E+00 -0.00000000000E+00 -0.16553856986E+04  0.16553856986E+04  0.50400000000E-02 0. -1.
    8880023    1    1    2    0    0 -0.63621283689E+02  0.10104433612E+03  0.26768554826E+03  0.72091843131E+03  0.65864270000E+03 0.  1.
    8880022    1    1    2    0    0  0.63621283689E+02 -0.10104433612E+03 -0.14221815456E+04  0.14353569686E+04  0.15294330000E+03 0.  0.
<mgrwt>
<rscale>  0 0.49116057E+03</rscale>
<asrwt>0</asrwt>
<pdfrwt beam="1">  1        1 0.25467472E+00 0.66937869E+03</pdfrwt>
<pdfrwt beam="2">  1       -1 0.77059955E-01 0.66937869E+03</pdfrwt>
<totfact> 0.91109090E+00</totfact>
</mgrwt>
</event>
<event>
 4    2  0.3396630E-007  0.6758219E+03  0.7818608E-02  0.1011793E+00
          1   -1    0    0  501    0  0.00000000000E+00  0.00000000000E+00  0.54720789085E+03  0.54720789088E+03  0.50400000000E-02 0. -1.
         -1   -1    0    0    0  501 -0.00000000000E+00 -0.00000000000E+00 -0.62419057147E+03  0.62419057149E+03  0.50400000000E-02 0.  1.
    8880023    1    1    2    0    0  0.10007686979E+03 -0.11362075374E+03 -0.39845401650E+03  0.78453863198E+03  0.65864270000E+03 0.  1.
    8880022    1    1    2    0    0 -0.10007686979E+03  0.11362075374E+03  0.32147133589E+03  0.38685983038E+03  0.15294330000E+03 0.  0.
<mgrwt>
<rscale>  0 0.50768159E+03</rscale>
<asrwt>0</asrwt>
<pdfrwt beam="1">  1        1 0.84185830E-01 0.67582192E+03</pdfrwt>
<pdfrwt beam="2">  1       -1 0.96029319E-01 0.67582192E+03</pdfrwt>
<totfact> 0.42042986E+01</totfact>
</mgrwt>
</event>
<event>
 4    2  0.3396630E-007  0.7603807E+03  0.7818608E-02  0.9804123E-01
          1   -1    0    0  501    0  0.00000000000E+00  0.00000000000E+00  0.40893131227E+03  0.40893131230E+03  0.50400000000E-02 0. -1.
         -1   -1    0    0    0  501 -0.00000000000E+00 -0.00000000000E+00 -0.10152381458E+04  0.10152381458E+04  0.50400000000E-02 0.  1.
    8880023    1    1    2    0    0 -0.18861298706E+03  0.32983897540E+03 -0.66531178925E+03  0.10103556759E+04  0.65864270000E+03 0.  1.
    8880022    1    1    2    0    0  0.18861298706E+03 -0.32983897540E+03  0.59004955693E+02  0.41381378226E+03  0.15294330000E+03 0.  1.
<mgrwt>
<rscale>  0 0.65141755E+03</rscale>
<asrwt>0</asrwt>
<pdfrwt beam="1">  1        1 0.62912510E-01 0.76038070E+03</pdfrwt>
<pdfrwt beam="2">  1       -1 0.15619048E+00 0.76038070E+03</pdfrwt>
<totfact> 0.18660133E+01</totfact>
</mgrwt>
</event>
<event>
 4    2  0.3396630E-007  0.9135509E+03  0.7818608E-02  0.9504619E-01
         -1   -1    0    0    0  501 -0.00000000000E+00  0.00000000000E+00  0.69901293316E+03  0.69901293317E+03  0.50400000000E-02 0.  1.
          1   -1    0    0  501    0  0.00000000000E+00 -0.00000000000E+00 -0.23494145059E+04  0.23494145059E+04  0.50400000000E-02 0. -1.
    8880023    1    1    2    0    0 -0.13090889977E+03  0.61937701953E+03  0.32406253829E+03  0.96932541871E+03  0.65864270000E+03 0.  1.
    8880022    1    1    2    0    0  0.13090889977E+03 -0.61937701953E+03 -0.19744641111E+04  0.20791020204E+04  0.15294330000E+03 0.  0.
<mgrwt>
<rscale>  0 0.83944133E+03</rscale>
<asrwt>0</asrwt>
<pdfrwt beam="1">  1        1 0.36144838E+00 0.91355090E+03</pdfrwt>
<pdfrwt beam="2">  1       -1 0.10754045E+00 0.91355090E+03</pdfrwt>
<totfact> 0.14278155E+00</totfact>
</mgrwt>
</event>
<event>
 4    2  0.3396630E-007  0.9550428E+03  0.7818608E-02  0.9442895E-01
          1   -1    0    0  501    0  0.00000000000E+00  0.00000000000E+00  0.14036589975E+04  0.14036589975E+04  0.50400000000E-02 0. -1.
         -1   -1    0    0    0  501 -0.00000000000E+00 -0.00000000000E+00 -0.57086419923E+03  0.57086419926E+03  0.50400000000E-02 0.  1.
    8880023    1    1    2    0    0 -0.52196960371E+02  0.68961734751E+03  0.10804086289E+03  0.96113456029E+03  0.65864270000E+03 0.  0.
    8880022    1    1    2    0    0  0.52196960371E+02 -0.68961734751E+03  0.72475393534E+03  0.10133886364E+04  0.15294330000E+03 0.  0.
<mgrwt>
<rscale>  0 0.88628088E+03</rscale>
<asrwt>0</asrwt>
<pdfrwt beam="1">  1        1 0.21594754E+00 0.95504283E+03</pdfrwt>
<pdfrwt beam="2">  1       -1 0.87825262E-01 0.95504283E+03</pdfrwt>
<totfact> 0.98337744E+00</totfact>
</mgrwt>
</event>
<event>
 4    2  0.3396630E-007  0.8685054E+03  0.7818608E-02  0.9578609E-01
         -1   -1    0    0    0  501 -0.00000000000E+00  0.00000000000E+00  0.13727740361E+04  0.13727740361E+04  0.50400000000E-02 0.  1.
          1   -1    0    0  501    0  0.00000000000E+00 -0.00000000000E+00 -0.75757337886E+03  0.75757337888E+03  0.50400000000E-02 0. -1.
    8880023    1    1    2    0    0 -0.55670059505E+03 -0.10283925182E+03  0.10772654311E+04  0.13837638815E+04  0.65864270000E+03 0.  1.
    8880022    1    1    2    0    0  0.55670059505E+03  0.10283925182E+03 -0.46206477390E+03  0.74658353353E+03  0.15294330000E+03 0.  0.
<mgrwt>
<rscale>  0 0.78728279E+03</rscale>
<asrwt>0</asrwt>
<pdfrwt beam="1">  1        1 0.11654975E+00 0.86850542E+03</pdfrwt>
<pdfrwt beam="2">  1       -1 0.21119600E+00 0.86850542E+03</pdfrwt>
<totfact> 0.31084621E+00</totfact>
</mgrwt>
</event>
<event>
 4    2  0.3396630E-007  0.7593248E+03  0.7818608E-02  0.9806859E-01
         -1   -1    0    0    0  501 -0.00000000000E+00  0.00000000000E+00  0.19024792544E+03  0.19024792551E+03  0.50400000000E-02 0.  1.
          1   -1    0    0  501    0  0.00000000000E+00 -0.00000000000E+00 -0.23888630417E+04  0.23888630417E+04  0.50400000000E-02 0. -1.
    8880023    1    1    2    0    0 -0.37171139991E+03 -0.67783076755E+02 -0.72389842547E+03  0.10490963001E+04  0.65864270000E+03 0.  1.
    8880022    1    1    2    0    0  0.37171139991E+03  0.67783076755E+02 -0.14747166908E+04  0.15300146671E+04  0.15294330000E+03 0.  0.
<mgrwt>
<rscale>  0 0.64995762E+03</rscale>
<asrwt>0</asrwt>
<pdfrwt beam="1">  1        1 0.36751737E+00 0.75932478E+03</pdfrwt>
<pdfrwt beam="2">  1       -1 0.29268913E-01 0.75932478E+03</pdfrwt>
<totfact> 0.18013562E+01</totfact>
</mgrwt>
</event>
<event>
 4    2  0.3396630E-007  0.1004908E+04  0.7818608E-02  0.9375164E-01
         -1   -1    0    0    0  501 -0.00000000000E+00  0.00000000000E+00  0.51479453133E+03  0.51479453135E+03  0.50400000000E-02 0.  1.
          1   -1    0    0  501    0  0.00000000000E+00 -0.00000000000E+00 -0.17932197376E+04  0.17932197376E+04  0.50400000000E-02 0. -1.
    8880023    1    1    2    0    0  0.50406146832E+03 -0.56740857060E+03 -0.27734670916E+03  0.10424787063E+04  0.65864270000E+03 0.  1.
    8880022    1    1    2    0    0 -0.50406146832E+03  0.56740857060E+03 -0.10010784971E+04  0.12655355626E+04  0.15294330000E+03 0.  0.
<mgrwt>
<rscale>  0 0.94148068E+03</rscale>
<asrwt>0</asrwt>
<pdfrwt beam="1">  1        1 0.27587996E+00 0.10049083E+04</pdfrwt>
<pdfrwt beam="2">  1       -1 0.79199159E-01 0.10049083E+04</pdfrwt>
<totfact> 0.66160136E+00</totfact>
</mgrwt>
</event>
<event>
 4    2  0.3396630E-007  0.8267563E+03  0.7818608E-02  0.9655677E-01
         -1   -1    0    0    0  501 -0.00000000000E+00  0.00000000000E+00  0.84339958850E+03  0.84339958852E+03  0.50400000000E-02 0.  1.
          1   -1    0    0  501    0  0.00000000000E+00 -0.00000000000E+00 -0.17449948696E+04  0.17449948696E+04  0.50400000000E-02 0. -1.
    8880023    1    1    2    0    0 -0.31737289078E+02  0.49870685640E+03  0.58488419320E+03  0.10127267696E+04  0.65864270000E+03 0.  1.
    8880022    1    1    2    0    0  0.31737289078E+02 -0.49870685640E+03 -0.14864794743E+04  0.15756676886E+04  0.15294330000E+03 0.  0.
<mgrwt>
<rscale>  0 0.73718218E+03</rscale>
<asrwt>0</asrwt>
<pdfrwt beam="1">  1        1 0.26846075E+00 0.82675631E+03</pdfrwt>
<pdfrwt beam="2">  1       -1 0.12975378E+00 0.82675631E+03</pdfrwt>
<totfact> 0.23423979E+00</totfact>
</mgrwt>
</event>
<event>
 4    2  0.3396630E-007  0.6712687E+03  0.7818608E-02  0.1014769E+00
          1   -1    0    0  501    0  0.00000000000E+00  0.00000000000E+00  0.62186040526E+03  0.62186040528E+03  0.50400000000E-02 0. -1.
         -1   -1    0    0    0  501 -0.00000000000E+00 -0.00000000000E+00 -0.48491675989E+03  0.48491675992E+03  0.50400000000E-02 0.  1.
    8880023    1    1    2    0    0 -0.19540682592E+02  0.12809987113E+03 -0.21234535045E+03  0.70405409549E+03  0.65864270000E+03 0.  1.
    8880022    1    1    2    0    0  0.19540682592E+02 -0.12809987113E+03  0.34928899581E+03  0.40272306970E+03  0.15294330000E+03 0.  0.
<mgrwt>
<rscale>  0 0.49622389E+03</rscale>
<asrwt>0</asrwt>
<pdfrwt beam="1">  1        1 0.95670831E-01 0.67126867E+03</pdfrwt>
<pdfrwt beam="2">  1       -1 0.74602579E-01 0.67126867E+03</pdfrwt>
<totfact> 0.60424362E+01</totfact>
</mgrwt>
</event>
<event>
 4    2  0.3396630E-007  0.6597933E+03  0.7818608E-02  0.1024369E+00
          1   -1    0    0  501    0  0.00000000000E+00  0.00000000000E+00  0.23535501816E+04  0.23535501816E+04  0.50400000000E-02 0. -1.
         -1   -1    0    0    0  501 -0.00000000000E+00 -0.00000000000E+00 -0.12251890863E+03  0.12251890873E+03  0.50400000000E-02 0.  1.
    8880023    1    1    2    0    0  0.27573563126E+02 -0.27508211608E+02  0.80278792089E+03  0.10391321645E+04  0.65864270000E+03 0.  1.
    8880022    1    1    2    0    0 -0.27573563126E+02  0.27508211608E+02  0.14282433521E+04  0.14369369258E+04  0.15294330000E+03 0.  0.
<mgrwt>
<rscale>  0 0.46142351E+03</rscale>
<asrwt>0</asrwt>
<pdfrwt beam="1">  1        1 0.36208462E+00 0.65979331E+03</pdfrwt>
<pdfrwt beam="2">  1       -1 0.18849064E-01 0.65979331E+03</pdfrwt>
<totfact> 0.40680386E+01</totfact>
</mgrwt>
</event>
<event>
 4    2  0.3396630E-007  0.7047869E+03  0.7818608E-02  0.9977894E-01
         -1   -1    0    0    0  501 -0.00000000000E+00  0.00000000000E+00  0.33858509676E+03  0.33858509680E+03  0.50400000000E-02 0.  1.
          1   -1    0    0  501    0  0.00000000000E+00 -0.00000000000E+00 -0.23300526379E+04  0.23300526379E+04  0.50400000000E-02 0. -1.
    8880023    1    1    2    0    0  0.16268418132E+03  0.19091433680E+03 -0.51624442658E+02  0.70667511361E+03  0.65864270000E+03 0.  0.
    8880022    1    1    2    0    0 -0.16268418132E+03 -0.19091433680E+03 -0.19398430985E+04  0.19619626211E+04  0.15294330000E+03 0.  0.
<mgrwt>
<rscale>  0 0.56630261E+03</rscale>
<asrwt>0</asrwt>
<pdfrwt beam="1">  1        1 0.35846963E+00 0.70478694E+03</pdfrwt>
<pdfrwt beam="2">  1       -1 0.52090016E-01 0.70478694E+03</pdfrwt>
<totfact> 0.69951837E+00</totfact>
</mgrwt>
</event>
<event>
 4    2  0.3396630E-007  0.1000265E+04  0.7818608E-02  0.9381212E-01
         -1   -1    0    0    0  501 -0.00000000000E+00  0.00000000000E+00  0.22075387039E+04  0.22075387040E+04  0.50400000000E-02 0.  1.
          1   -1    0    0  501    0  0.00000000000E+00 -0.00000000000E+00 -0.42281479097E+03  0.42281479100E+03  0.50400000000E-02 0. -1.
    8880023    1    1    2    0    0  0.57960863846E+03  0.48038808147E+03  0.15165256663E+04  0.18166945768E+04  0.65864270000E+03 0.  1.
    8880022    1    1    2    0    0 -0.57960863846E+03 -0.48038808147E+03  0.26819824673E+03  0.81365891819E+03  0.15294330000E+03 0.  0.
<mgrwt>
<rscale>  0 0.93638148E+03</rscale>
<asrwt>0</asrwt>
<pdfrwt beam="1">  1        1 0.65048429E-01 0.10002645E+04</pdfrwt>
<pdfrwt beam="2">  1       -1 0.33962134E+00 0.10002645E+04</pdfrwt>
<totfact> 0.10336527E+00</totfact>
</mgrwt>
</event>
<event>
 4    2  0.3396630E-007  0.7474806E+03  0.7818608E-02  0.9838669E-01
          1   -1    0    0  501    0  0.00000000000E+00  0.00000000000E+00  0.12079725854E+04  0.12079725854E+04  0.50400000000E-02 0. -1.
         -1   -1    0    0    0  501 -0.00000000000E+00 -0.00000000000E+00 -0.61137360179E+03  0.61137360181E+03  0.50400000000E-02 0.  1.
    8880023    1    1    2    0    0 -0.34404420197E+03 -0.80935845116E+02 -0.32911088176E+03  0.81672590426E+03  0.65864270000E+03 0.  1.
    8880022    1    1    2    0    0  0.34404420197E+03  0.80935845116E+02  0.92570986534E+03  0.10026202829E+04  0.15294330000E+03 0.  0.
<mgrwt>
<rscale>  0 0.63327998E+03</rscale>
<asrwt>0</asrwt>
<pdfrwt beam="1">  1        1 0.18584193E+00 0.74748059E+03</pdfrwt>
<pdfrwt beam="2">  1       -1 0.94057478E-01 0.74748059E+03</pdfrwt>
<totfact> 0.11939665E+01</totfact>
</mgrwt>
</event>
<event>
 4    2  0.3396630E-007  0.7115083E+03  0.7818608E-02  0.9952442E-01
         -1   -1    0    0    0  501 -0.00000000000E+00  0.00000000000E+00  0.14223712770E+03  0.14223712779E+03  0.50400000000E-02 0.  1.
          1   -1    0    0  501    0  0.00000000000E+00 -0.00000000000E+00 -0.25567398750E+04  0.25567398750E+04  0.50400000000E-02 0. -1.
    8880023    1    1    2    0    0  0.18268001059E+02  0.26851457317E+03 -0.87067172918E+03  0.11244168543E+04  0.65864270000E+03 0.  1.
    8880022    1    1    2    0    0 -0.18268001059E+02 -0.26851457317E+03 -0.15438310181E+04  0.15745601486E+04  0.15294330000E+03 0.  0.
<mgrwt>
<rscale>  0 0.57785659E+03</rscale>
<asrwt>0</asrwt>
<pdfrwt beam="1">  1        1 0.39334456E+00 0.71150826E+03</pdfrwt>
<pdfrwt beam="2">  1       -1 0.21882637E-01 0.71150826E+03</pdfrwt>
<totfact> 0.22909134E+01</totfact>
</mgrwt>
</event>
<event>
 4    2  0.3396630E-007  0.7152762E+03  0.7818608E-02  0.9938906E-01
         -1   -1    0    0    0  501 -0.00000000000E+00  0.00000000000E+00  0.37884505194E+03  0.37884505198E+03  0.50400000000E-02 0.  1.
          1   -1    0    0  501    0  0.00000000000E+00 -0.00000000000E+00 -0.16147702556E+04  0.16147702556E+04  0.50400000000E-02 0. -1.
    8880023    1    1    2    0    0 -0.27384820298E+03 -0.53075677487E+02  0.21946185592E+01  0.71527958760E+03  0.65864270000E+03 0.  1.
    8880022    1    1    2    0    0  0.27384820298E+03  0.53075677487E+02 -0.12381198222E+04  0.12783357200E+04  0.15294330000E+03 0.  0.
<mgrwt>
<rscale>  0 0.58412221E+03</rscale>
<asrwt>0</asrwt>
<pdfrwt beam="1">  1        1 0.24842619E+00 0.71527622E+03</pdfrwt>
<pdfrwt beam="2">  1       -1 0.58283855E-01 0.71527622E+03</pdfrwt>
<totfact> 0.16945517E+01</totfact>
</mgrwt>
</event>
<event>
 4    2  0.3396630E-007  0.7030490E+03  0.7818608E-02  0.9984780E-01
          1   -1    0    0  501    0  0.00000000000E+00  0.00000000000E+00  0.14251847502E+04  0.14251847502E+04  0.50400000000E-02 0. -1.
         -1   -1    0    0    0  501 -0.00000000000E+00 -0.00000000000E+00 -0.17689134957E+03  0.17689134964E+03  0.50400000000E-02 0.  1.
    8880023    1    1    2    0    0  0.45425985133E+02 -0.24166952518E+03  0.76771118750E+03  0.10409891225E+04  0.65864270000E+03 0.  1.
    8880022    1    1    2    0    0 -0.45425985133E+02  0.24166952518E+03  0.48058221310E+03  0.56108697729E+03  0.15294330000E+03 0. -1.
<mgrwt>
<rscale>  0 0.56322655E+03</rscale>
<asrwt>0</asrwt>
<pdfrwt beam="1">  1        1 0.21925920E+00 0.70304899E+03</pdfrwt>
<pdfrwt beam="2">  1       -1 0.27214053E-01 0.70304899E+03</pdfrwt>
<totfact> 0.91645485E+01</totfact>
</mgrwt>
</event>
<event>
 4    2  0.3396630E-007  0.8869373E+03  0.7818608E-02  0.9547335E-01
          1   -1    0    0  501    0  0.00000000000E+00  0.00000000000E+00  0.26604943526E+04  0.26604943526E+04  0.50400000000E-02 0. -1.
         -1   -1    0    0    0  501 -0.00000000000E+00 -0.00000000000E+00 -0.44443914539E+03  0.44443914542E+03  0.50400000000E-02 0.  1.
    8880023    1    1    2    0    0 -0.49801021429E+03  0.32377993563E+03  0.89219083468E+02  0.89141341216E+03  0.65864270000E+03 0.  1.
    8880022    1    1    2    0    0  0.49801021429E+03 -0.32377993563E+03  0.21268361238E+04  0.22135200859E+04  0.15294330000E+03 0.  0.
<mgrwt>
<rscale>  0 0.80882155E+03</rscale>
<asrwt>0</asrwt>
<pdfrwt beam="1">  1        1 0.40930681E+00 0.88693733E+03</pdfrwt>
<pdfrwt beam="2">  1       -1 0.68375255E-01 0.88693733E+03</pdfrwt>
<totfact> 0.23558823E+00</totfact>
</mgrwt>
</event>
<event>
 4    2  0.3396630E-007  0.7142845E+03  0.7818608E-02  0.9942422E-01
         -1   -1    0    0    0  501 -0.00000000000E+00  0.00000000000E+00  0.37228787846E+03  0.37228787849E+03  0.50400000000E-02 0.  1.
          1   -1    0    0  501    0  0.00000000000E+00 -0.00000000000E+00 -0.12581547393E+04  0.12581547393E+04  0.50400000000E-02 0. -1.
    8880023    1    1    2    0    0  0.25278417702E+03 -0.11176909789E+03 -0.26408990760E+02  0.71477255995E+03  0.65864270000E+03 0.  0.
    8880022    1    1    2    0    0 -0.25278417702E+03  0.11176909789E+03 -0.85945787005E+03  0.91567005782E+03  0.15294330000E+03 0.  0.
<mgrwt>
<rscale>  0 0.58248661E+03</rscale>
<asrwt>0</asrwt>
<pdfrwt beam="1">  1        1 0.19356227E+00 0.71428452E+03</pdfrwt>
<pdfrwt beam="2">  1       -1 0.57275059E-01 0.71428452E+03</pdfrwt>
<totfact> 0.30931846E+01</totfact>
</mgrwt>
</event>
<event>
 4    2  0.3396630E-007  0.7269886E+03  0.7818608E-02  0.9899611E-01
          1   -1    0    0  501    0  0.00000000000E+00  0.00000000000E+00  0.20591130110E+04  0.20591130110E+04  0.50400000000E-02 0. -1.
         -1   -1    0    0    0  501 -0.00000000000E+00 -0.00000000000E+00 -0.83806293142E+03  0.83806293144E+03  0.50400000000E-02 0.  1.
    8880023    1    1    2    0    0  0.71002838377E+02  0.29943425694E+03 -0.66187196445E+03  0.98315155540E+03  0.65864270000E+03 0.  1.
    8880022    1    1    2    0    0 -0.71002838377E+02 -0.29943425694E+03  0.18829220441E+04  0.19140243871E+04  0.15294330000E+03 0.  0.
<mgrwt>
<rscale>  0 0.60280128E+03</rscale>
<asrwt>0</asrwt>
<pdfrwt beam="1">  1        1 0.31678661E+00 0.72698864E+03</pdfrwt>
<pdfrwt beam="2">  1       -1 0.12893276E+00 0.72698864E+03</pdfrwt>
<totfact> 0.14943951E+00</totfact>
</mgrwt>
</event>
<event>
 4    2  0.3396630E-007  0.9315314E+03  0.7818608E-02  0.9477200E-01
         -1   -1    0    0    0  501 -0.00000000000E+00  0.00000000000E+00  0.11502863248E+04  0.11502863248E+04  0.50400000000E-02 0.  1.
          1   -1    0    0  501    0  0.00000000000E+00 -0.00000000000E+00 -0.23163220303E+04  0.23163220303E+04  0.50400000000E-02 0. -1.
    8880023    1    1    2    0    0  0.65238243588E+03  0.91311478046E+02 -0.21093757458E+04  0.23059091205E+04  0.65864270000E+03 0. -1.
    8880022    1    1    2    0    0 -0.65238243588E+03 -0.91311478046E+02  0.94334004025E+03  0.11606992346E+04  0.15294330000E+03 0.  0.
<mgrwt>
<rscale>  0 0.85985876E+03</rscale>
<asrwt>0</asrwt>
<pdfrwt beam="1">  1        1 0.35635724E+00 0.93153145E+03</pdfrwt>
<pdfrwt beam="2">  1       -1 0.17696713E+00 0.93153145E+03</pdfrwt>
<totfact> 0.40853582E-01</totfact>
</mgrwt>
</event>
<event>
 4    2  0.3396630E-007  0.7795855E+03  0.7818608E-02  0.9756812E-01
          1   -1    0    0  501    0  0.00000000000E+00  0.00000000000E+00  0.20619303176E+04  0.20619303176E+04  0.50400000000E-02 0. -1.
         -1   -1    0    0    0  501 -0.00000000000E+00 -0.00000000000E+00 -0.30504127137E+03  0.30504127141E+03  0.50400000000E-02 0.  1.
    8880023    1    1    2    0    0 -0.68058708444E+01  0.41700963468E+03  0.28587807286E+03  0.83034922418E+03  0.65864270000E+03 0.  1.
    8880022    1    1    2    0    0  0.68058708444E+01 -0.41700963468E+03  0.14710109733E+04  0.15366223648E+04  0.15294330000E+03 0.  0.
<mgrwt>
<rscale>  0 0.67732692E+03</rscale>
<asrwt>0</asrwt>
<pdfrwt beam="1">  1        1 0.31722005E+00 0.77958551E+03</pdfrwt>
<pdfrwt beam="2">  1       -1 0.46929426E-01 0.77958551E+03</pdfrwt>
<totfact> 0.12739388E+01</totfact>
</mgrwt>
</event>
<event>
 4    2  0.3396630E-007  0.7823319E+03  0.7818608E-02  0.9750387E-01
          1   -1    0    0  501    0  0.00000000000E+00  0.00000000000E+00  0.13404634828E+04  0.13404634828E+04  0.50400000000E-02 0. -1.
         -1   -1    0    0    0  501 -0.00000000000E+00 -0.00000000000E+00 -0.33166247189E+03  0.33166247193E+03  0.50400000000E-02 0.  1.
    8880023    1    1    2    0    0  0.69177333146E+02  0.41647032931E+03  0.31003664993E+03  0.84152597653E+03  0.65864270000E+03 0. -1.
    8880022    1    1    2    0    0 -0.69177333146E+02 -0.41647032931E+03  0.69876436100E+03  0.83059997823E+03  0.15294330000E+03 0.  1.
<mgrwt>
<rscale>  0 0.68094378E+03</rscale>
<asrwt>0</asrwt>
<pdfrwt beam="1">  1        1 0.20622516E+00 0.78233193E+03</pdfrwt>
<pdfrwt beam="2">  1       -1 0.51024994E-01 0.78233193E+03</pdfrwt>
<totfact> 0.33523661E+01</totfact>
</mgrwt>
</event>
<event>
 4    2  0.3396630E-007  0.7646462E+03  0.7818608E-02  0.9793224E-01
          1   -1    0    0  501    0  0.00000000000E+00  0.00000000000E+00  0.39439401971E+03  0.39439401974E+03  0.50400000000E-02 0. -1.
         -1   -1    0    0    0  501 -0.00000000000E+00 -0.00000000000E+00 -0.21811547695E+04  0.21811547695E+04  0.50400000000E-02 0.  1.
    8880023    1    1    2    0    0  0.35648526965E+03 -0.15424629735E+03 -0.19748247848E+04  0.21176913856E+04  0.65864270000E+03 0.  1.
    8880022    1    1    2    0    0 -0.35648526965E+03  0.15424629735E+03  0.18806403506E+03  0.45785740359E+03  0.15294330000E+03 0.  0.
<mgrwt>
<rscale>  0 0.65727451E+03</rscale>
<asrwt>0</asrwt>
<pdfrwt beam="1">  1        1 0.60676004E-01 0.76464624E+03</pdfrwt>
<pdfrwt beam="2">  1       -1 0.33556227E+00 0.76464624E+03</pdfrwt>
<totfact> 0.12498595E+00</totfact>
</mgrwt>
</event>
<event>
 4    2  0.3396630E-007  0.6772826E+03  0.7818608E-02  0.1010904E+00
         -1   -1    0    0    0  501 -0.00000000000E+00  0.00000000000E+00  0.95696807988E+02  0.95696808121E+02  0.50400000000E-02 0.  1.
          1   -1    0    0  501    0  0.00000000000E+00 -0.00000000000E+00 -0.25102987451E+04  0.25102987451E+04  0.50400000000E-02 0. -1.
    8880023    1    1    2    0    0  0.63459808289E+02 -0.14447979053E+03 -0.12583013579E+04  0.14289975755E+04  0.65864270000E+03 0.  1.
    8880022    1    1    2    0    0 -0.63459808289E+02  0.14447979053E+03 -0.11563005792E+04  0.11769979778E+04  0.15294330000E+03 0.  0.
<mgrwt>
<rscale>  0 0.51116748E+03</rscale>
<asrwt>0</asrwt>
<pdfrwt beam="1">  1        1 0.38619976E+00 0.67728263E+03</pdfrwt>
<pdfrwt beam="2">  1       -1 0.14722588E-01 0.67728263E+03</pdfrwt>
<totfact> 0.47612175E+01</totfact>
</mgrwt>
</event>
<event>
 4    2  0.3396630E-007  0.6680692E+03  0.7818608E-02  0.1017086E+00
         -1   -1    0    0    0  501 -0.00000000000E+00  0.00000000000E+00  0.26093778782E+03  0.26093778787E+03  0.50400000000E-02 0.  1.
          1   -1    0    0  501    0  0.00000000000E+00 -0.00000000000E+00 -0.21039142923E+04  0.21039142923E+04  0.50400000000E-02 0. -1.
    8880023    1    1    2    0    0 -0.10914752058E+03 -0.24354007478E+02 -0.18105954461E+03  0.69216982301E+03  0.65864270000E+03 0.  1.
    8880022    1    1    2    0    0  0.10914752058E+03  0.24354007478E+02 -0.16619169599E+04  0.16726822572E+04  0.15294330000E+03 0.  0.
<mgrwt>
<rscale>  0 0.48752828E+03</rscale>
<asrwt>0</asrwt>
<pdfrwt beam="1">  1        1 0.32367911E+00 0.66806924E+03</pdfrwt>
<pdfrwt beam="2">  1       -1 0.40144276E-01 0.66806924E+03</pdfrwt>
<totfact> 0.16206707E+01</totfact>
</mgrwt>
</event>
<event>
 4    2  0.3396630E-007  0.7869517E+03  0.7818608E-02  0.9739754E-01
         -1   -1    0    0    0  501 -0.00000000000E+00  0.00000000000E+00  0.10422167905E+04  0.10422167905E+04  0.50400000000E-02 0.  1.
          1   -1    0    0  501    0  0.00000000000E+00 -0.00000000000E+00 -0.15431059825E+04  0.15431059825E+04  0.50400000000E-02 0. -1.
    8880023    1    1    2    0    0  0.35795298751E+03  0.23948364312E+03  0.85051137298E+03  0.11587331696E+04  0.65864270000E+03 0.  1.
    8880022    1    1    2    0    0 -0.35795298751E+03 -0.23948364312E+03 -0.13514005649E+04  0.14265896034E+04  0.15294330000E+03 0.  0.
<mgrwt>
<rscale>  0 0.68698414E+03</rscale>
<asrwt>0</asrwt>
<pdfrwt beam="1">  1        1 0.23740092E+00 0.78695169E+03</pdfrwt>
<pdfrwt beam="2">  1       -1 0.16034104E+00 0.78695169E+03</pdfrwt>
<totfact> 0.18470602E+00</totfact>
</mgrwt>
</event>
<event>
 4    2  0.3396630E-007  0.8290578E+03  0.7818608E-02  0.9651168E-01
          1   -1    0    0  501    0  0.00000000000E+00  0.00000000000E+00  0.11036673551E+04  0.11036673551E+04  0.50400000000E-02 0. -1.
         -1   -1    0    0    0  501 -0.00000000000E+00 -0.00000000000E+00 -0.76493517800E+03  0.76493517801E+03  0.50400000000E-02 0.  1.
    8880023    1    1    2    0    0 -0.38450624723E+03  0.32508698817E+03 -0.43238717766E+03  0.93503768999E+03  0.65864270000E+03 0.  1.
    8880022    1    1    2    0    0  0.38450624723E+03 -0.32508698817E+03  0.77111935479E+03  0.93356484316E+03  0.15294330000E+03 0.  0.
<mgrwt>
<rscale>  0 0.74000141E+03</rscale>
<asrwt>0</asrwt>
<pdfrwt beam="1">  1        1 0.16979498E+00 0.82905778E+03</pdfrwt>
<pdfrwt beam="2">  1       -1 0.11768233E+00 0.82905778E+03</pdfrwt>
<totfact> 0.83699993E+00</totfact>
</mgrwt>
</event>
<event>
 4    2  0.3396630E-007  0.6665325E+03  0.7818608E-02  0.1018281E+00
         -1   -1    0    0    0  501 -0.00000000000E+00  0.00000000000E+00  0.32747861671E+03  0.32747861675E+03  0.50400000000E-02 0.  1.
          1   -1    0    0  501    0  0.00000000000E+00 -0.00000000000E+00 -0.71316537235E+03  0.71316537237E+03  0.50400000000E-02 0. -1.
    8880023    1    1    2    0    0  0.97868382960E+02 -0.29616121248E+02 -0.63397013718E+02  0.66954068034E+03  0.65864270000E+03 0.  1.
    8880022    1    1    2    0    0 -0.97868382960E+02  0.29616121248E+02 -0.32228974192E+03  0.37110330877E+03  0.15294330000E+03 0.  0.
<mgrwt>
<rscale>  0 0.48312108E+03</rscale>
<asrwt>0</asrwt>
<pdfrwt beam="1">  1        1 0.10971775E+00 0.66653248E+03</pdfrwt>
<pdfrwt beam="2">  1       -1 0.50381326E-01 0.66653248E+03</pdfrwt>
<totfact> 0.10730273E+02</totfact>
</mgrwt>
</event>
<event>
 4    2  0.3396630E-007  0.7410452E+03  0.7818608E-02  0.9856913E-01
          1   -1    0    0  501    0  0.00000000000E+00  0.00000000000E+00  0.57861529862E+03  0.57861529864E+03  0.50400000000E-02 0. -1.
         -1   -1    0    0    0  501 -0.00000000000E+00 -0.00000000000E+00 -0.10984768394E+04  0.10984768394E+04  0.50400000000E-02 0.  1.
    8880023    1    1    2    0    0  0.17511197752E+03 -0.29098717925E+03 -0.88583018762E+03  0.11549212401E+04  0.65864270000E+03 0.  1.
    8880022    1    1    2    0    0 -0.17511197752E+03  0.29098717925E+03  0.36596864688E+03  0.52217089796E+03  0.15294330000E+03 0.  0.
<mgrwt>
<rscale>  0 0.62395688E+03</rscale>
<asrwt>0</asrwt>
<pdfrwt beam="1">  1        1 0.89017739E-01 0.74104517E+03</pdfrwt>
<pdfrwt beam="2">  1       -1 0.16899644E+00 0.74104517E+03</pdfrwt>
<totfact> 0.93238685E+00</totfact>
</mgrwt>
</event>
<event>
 4    2  0.3396630E-007  0.9007473E+03  0.7818608E-02  0.9524833E-01
          1   -1    0    0  501    0  0.00000000000E+00  0.00000000000E+00  0.19687843760E+04  0.19687843760E+04  0.50400000000E-02 0. -1.
         -1   -1    0    0    0  501 -0.00000000000E+00 -0.00000000000E+00 -0.31064556994E+03  0.31064556998E+03  0.50400000000E-02 0.  1.
    8880023    1    1    2    0    0  0.31529133464E+03 -0.52737740305E+03  0.74872590818E+03  0.11712968210E+04  0.65864270000E+03 0. -1.
    8880022    1    1    2    0    0 -0.31529133464E+03  0.52737740305E+03  0.90941289789E+03  0.11081331250E+04  0.15294330000E+03 0.  1.
<mgrwt>
<rscale>  0 0.82477489E+03</rscale>
<asrwt>0</asrwt>
<pdfrwt beam="1">  1        1 0.30288990E+00 0.90074733E+03</pdfrwt>
<pdfrwt beam="2">  1       -1 0.47791626E-01 0.90074733E+03</pdfrwt>
<totfact> 0.13986436E+01</totfact>
</mgrwt>
</event>
<event>
 4    2  0.3396630E-007  0.1372958E+04  0.7818608E-02  0.9004985E-01
         -1   -1    0    0    0  501 -0.00000000000E+00  0.00000000000E+00  0.16907302421E+04  0.16907302421E+04  0.50400000000E-02 0.  1.
          1   -1    0    0  501    0  0.00000000000E+00 -0.00000000000E+00 -0.16178256451E+04  0.16178256451E+04  0.50400000000E-02 0. -1.
    8880023    1    1    2    0    0 -0.37401045568E+03  0.11451289156E+04  0.10673172153E+04  0.17390170496E+04  0.65864270000E+03 0.  1.
    8880022    1    1    2    0    0  0.37401045568E+03 -0.11451289156E+04 -0.99441261841E+03  0.15695388376E+04  0.15294330000E+03 0.  0.
<mgrwt>
<rscale>  0 0.13314569E+04</rscale>
<asrwt>0</asrwt>
<pdfrwt beam="1">  1        1 0.24889625E+00 0.13729582E+04</pdfrwt>
<pdfrwt beam="2">  1       -1 0.26011234E+00 0.13729582E+04</pdfrwt>
<totfact> 0.31172272E-01</totfact>
</mgrwt>
</event>
<event>
 4    2  0.3396630E-007  0.1187405E+04  0.7818608E-02  0.9169464E-01
         -1   -1    0    0    0  501 -0.00000000000E+00  0.00000000000E+00  0.63692010101E+03  0.63692010103E+03  0.50400000000E-02 0.  1.
          1   -1    0    0  501    0  0.00000000000E+00 -0.00000000000E+00 -0.33749925148E+04  0.33749925148E+04  0.50400000000E-02 0. -1.
    8880023    1    1    2    0    0  0.66369349270E+03 -0.73186784276E+03 -0.10100420037E+03  0.11916927651E+04  0.65864270000E+03 0.  0.
    8880022    1    1    2    0    0 -0.66369349270E+03  0.73186784276E+03 -0.26370682134E+04  0.28202198508E+04  0.15294330000E+03 0.  0.
<mgrwt>
<rscale>  0 0.11374243E+04</rscale>
<asrwt>0</asrwt>
<pdfrwt beam="1">  1        1 0.51922961E+00 0.11874046E+04</pdfrwt>
<pdfrwt beam="2">  1       -1 0.97987710E-01 0.11874046E+04</pdfrwt>
<totfact> 0.31360184E-01</totfact>
</mgrwt>
</event>
<event>
 4    2  0.3396630E-007  0.6740181E+03  0.7818608E-02  0.1012932E+00
          1   -1    0    0  501    0  0.00000000000E+00  0.00000000000E+00  0.42038434456E+03  0.42038434459E+03  0.50400000000E-02 0. -1.
         -1   -1    0    0    0  501 -0.00000000000E+00 -0.00000000000E+00 -0.69594933428E+03  0.69594933430E+03  0.50400000000E-02 0.  1.
    8880023    1    1    2    0    0 -0.13631438718E+03  0.43687715680E+02 -0.47699020265E+03  0.82572397830E+03  0.65864270000E+03 0.  1.
    8880022    1    1    2    0    0  0.13631438718E+03 -0.43687715680E+02  0.20142521293E+03  0.29060970058E+03  0.15294330000E+03 0.  0.
<mgrwt>
<rscale>  0 0.50325644E+03</rscale>
<asrwt>0</asrwt>
<pdfrwt beam="1">  1        1 0.64674514E-01 0.67401813E+03</pdfrwt>
<pdfrwt beam="2">  1       -1 0.10706913E+00 0.67401813E+03</pdfrwt>
<totfact> 0.46940039E+01</totfact>
</mgrwt>
</event>
<event>
 4    2  0.3396630E-007  0.1897333E+04  0.7818608E-02  0.8670524E-01
          1   -1    0    0  501    0  0.00000000000E+00  0.00000000000E+00  0.44832436440E+04  0.44832436440E+04  0.50400000000E-02 0. -1.
         -1   -1    0    0    0  501 -0.00000000000E+00 -0.00000000000E+00 -0.12821313592E+04  0.12821313592E+04  0.50400000000E-02 0.  1.
    8880023    1    1    2    0    0 -0.43295556702E+03 -0.17258650128E+04 -0.21612766976E+03  0.19096025611E+04  0.65864270000E+03 0.  0.
    8880022    1    1    2    0    0  0.43295556702E+03  0.17258650128E+04  0.34172399546E+04  0.38557724422E+04  0.15294330000E+03 0.  0.
<mgrwt>
<rscale>  0 0.18688399E+04</rscale>
<asrwt>0</asrwt>
<pdfrwt beam="1">  1        1 0.68972979E+00 0.18973325E+04</pdfrwt>
<pdfrwt beam="2">  1       -1 0.19725098E+00 0.18973325E+04</pdfrwt>
<totfact> 0.48006267E-03</totfact>
</mgrwt>
</event>
<event>
 4    2  0.3396630E-007  0.7682000E+03  0.7818608E-02  0.9784323E-01
          1   -1    0    0  501    0  0.00000000000E+00  0.00000000000E+00  0.48770394204E+03  0.48770394206E+03  0.50400000000E-02 0. -1.
         -1   -1    0    0    0  501 -0.00000000000E+00 -0.00000000000E+00 -0.99407789584E+03  0.99407789585E+03  0.50400000000E-02 0.  1.
    8880023    1    1    2    0    0 -0.18552438116E+02  0.39493911096E+03 -0.67783384808E+03  0.10244950103E+04  0.65864270000E+03 0.  0.
    8880022    1    1    2    0    0  0.18552438116E+02 -0.39493911096E+03  0.17145989428E+03  0.45728682759E+03  0.15294330000E+03 0.  0.
<mgrwt>
<rscale>  0 0.66210689E+03</rscale>
<asrwt>0</asrwt>
<pdfrwt beam="1">  1        1 0.75031376E-01 0.76820004E+03</pdfrwt>
<pdfrwt beam="2">  1       -1 0.15293506E+00 0.76820004E+03</pdfrwt>
<totfact> 0.15572023E+01</totfact>
</mgrwt>
</event>
<event>
 4    2  0.3396630E-007  0.6701028E+03  0.7818608E-02  0.1015589E+00
         -1   -1    0    0    0  501 -0.00000000000E+00  0.00000000000E+00  0.31372444035E+03  0.31372444039E+03  0.50400000000E-02 0.  1.
          1   -1    0    0  501    0  0.00000000000E+00 -0.00000000000E+00 -0.10915073594E+04  0.10915073594E+04  0.50400000000E-02 0. -1.
    8880023    1    1    2    0    0 -0.23915413545E+02  0.12106052608E+03 -0.73589426651E+02  0.67413144709E+03  0.65864270000E+03 0.  1.
    8880022    1    1    2    0    0  0.23915413545E+02 -0.12106052608E+03 -0.70419349238E+03  0.73110035269E+03  0.15294330000E+03 0.  0.
<mgrwt>
<rscale>  0 0.49312449E+03</rscale>
<asrwt>0</asrwt>
<pdfrwt beam="1">  1        1 0.16792421E+00 0.67010283E+03</pdfrwt>
<pdfrwt beam="2">  1       -1 0.48265299E-01 0.67010283E+03</pdfrwt>
<totfact> 0.57017925E+01</totfact>
</mgrwt>
</event>
<event>
 4    2  0.3396630E-007  0.7543556E+03  0.7818608E-02  0.9819946E-01
         -1   -1    0    0    0  501 -0.00000000000E+00  0.00000000000E+00  0.39052804380E+03  0.39052804383E+03  0.50400000000E-02 0.  1.
          1   -1    0    0  501    0  0.00000000000E+00 -0.00000000000E+00 -0.92623981417E+03  0.92623981418E+03  0.50400000000E-02 0. -1.
    8880023    1    1    2    0    0 -0.15038191605E+03 -0.33560017058E+03 -0.52365700021E+03  0.91829682309E+03  0.65864270000E+03 0. -1.
    8880022    1    1    2    0    0  0.15038191605E+03  0.33560017058E+03 -0.12054770162E+02  0.39847103492E+03  0.15294330000E+03 0.  0.
<mgrwt>
<rscale>  0 0.64303051E+03</rscale>
<asrwt>0</asrwt>
<pdfrwt beam="1">  1        1 0.14249843E+00 0.75435562E+03</pdfrwt>
<pdfrwt beam="2">  1       -1 0.60081238E-01 0.75435562E+03</pdfrwt>
<totfact> 0.49784684E+01</totfact>
</mgrwt>
</event>
<event>
 4    2  0.3396630E-007  0.6802841E+03  0.7818608E-02  0.1009163E+00
         -1   -1    0    0    0  501 -0.00000000000E+00  0.00000000000E+00  0.87380220138E+02  0.87380220284E+02  0.50400000000E-02 0.  1.
          1   -1    0    0  501    0  0.00000000000E+00 -0.00000000000E+00 -0.33795800389E+04  0.33795800389E+04  0.50400000000E-02 0. -1.
    8880023    1    1    2    0    0 -0.65686902019E+02  0.15703991733E+03 -0.13539177887E+04  0.15152161197E+04  0.65864270000E+03 0.  1.
    8880022    1    1    2    0    0  0.65686902019E+02 -0.15703991733E+03 -0.19382820301E+04  0.19517441395E+04  0.15294330000E+03 0. -1.
<mgrwt>
<rscale>  0 0.51808494E+03</rscale>
<asrwt>0</asrwt>
<pdfrwt beam="1">  1        1 0.51993529E+00 0.68028414E+03</pdfrwt>
<pdfrwt beam="2">  1       -1 0.13443113E-01 0.68028414E+03</pdfrwt>
<totfact> 0.13217748E+01</totfact>
</mgrwt>
</event>
<event>
 4    2  0.3396630E-007  0.6603411E+03  0.7818608E-02  0.1023810E+00
          1   -1    0    0  501    0  0.00000000000E+00  0.00000000000E+00  0.18370855018E+04  0.18370855018E+04  0.50400000000E-02 0. -1.
         -1   -1    0    0    0  501 -0.00000000000E+00 -0.00000000000E+00 -0.11678977191E+03  0.11678977202E+03  0.50400000000E-02 0.  1.
    8880023    1    1    2    0    0 -0.46981950785E+02 -0.57362653918E+01  0.88963356914E+03  0.11079252240E+04  0.65864270000E+03 0.  1.
    8880022    1    1    2    0    0  0.46981950785E+02  0.57362653918E+01  0.83066216075E+03  0.84595004980E+03  0.15294330000E+03 0.  0.
<mgrwt>
<rscale>  0 0.46336559E+03</rscale>
<asrwt>0</asrwt>
<pdfrwt beam="1">  1        1 0.28262854E+00 0.66034114E+03</pdfrwt>
<pdfrwt beam="2">  1       -1 0.17967657E-01 0.66034114E+03</pdfrwt>
<totfact> 0.97457686E+01</totfact>
</mgrwt>
</event>
<event>
 4    2  0.3396630E-007  0.8139227E+03  0.7818608E-02  0.9681463E-01
          1   -1    0    0  501    0  0.00000000000E+00  0.00000000000E+00  0.61447952228E+03  0.61447952230E+03  0.50400000000E-02 0. -1.
         -1   -1    0    0    0  501 -0.00000000000E+00 -0.00000000000E+00 -0.10346145024E+04  0.10346145024E+04  0.50400000000E-02 0.  1.
    8880023    1    1    2    0    0  0.30427300369E+03 -0.36888727605E+03 -0.70068359405E+03  0.10739774618E+04  0.65864270000E+03 0.  1.
    8880022    1    1    2    0    0 -0.30427300369E+03  0.36888727605E+03  0.28054861390E+03  0.57511656295E+03  0.15294330000E+03 0.  0.
<mgrwt>
<rscale>  0 0.72131260E+03</rscale>
<asrwt>0</asrwt>
<pdfrwt beam="1">  1        1 0.94535311E-01 0.81392266E+03</pdfrwt>
<pdfrwt beam="2">  1       -1 0.15917146E+00 0.81392266E+03</pdfrwt>
<totfact> 0.10029682E+01</totfact>
</mgrwt>
</event>
<event>
 4    2  0.3396630E-007  0.6935779E+03  0.7818608E-02  0.1002496E+00
          1   -1    0    0  501    0  0.00000000000E+00  0.00000000000E+00  0.14807609974E+04  0.14807609974E+04  0.50400000000E-02 0. -1.
         -1   -1    0    0    0  501 -0.00000000000E+00 -0.00000000000E+00 -0.17847462952E+03  0.17847462959E+03  0.50400000000E-02 0.  1.
    8880023    1    1    2    0    0 -0.14264759083E+03  0.16398702134E+03  0.63259405789E+03  0.93873613262E+03  0.65864270000E+03 0.  0.
    8880022    1    1    2    0    0  0.14264759083E+03 -0.16398702134E+03  0.66969230995E+03  0.72049949435E+03  0.15294330000E+03 0.  0.
<mgrwt>
<rscale>  0 0.54569052E+03</rscale>
<asrwt>0</asrwt>
<pdfrwt beam="1">  1        1 0.22780939E+00 0.69357789E+03</pdfrwt>
<pdfrwt beam="2">  1       -1 0.27457635E-01 0.69357789E+03</pdfrwt>
<totfact> 0.82728684E+01</totfact>
</mgrwt>
</event>
<event>
 4    2  0.3396630E-007  0.7885976E+03  0.7818608E-02  0.9736015E-01
          1   -1    0    0  501    0  0.00000000000E+00  0.00000000000E+00  0.15745192349E+03  0.15745192357E+03  0.50400000000E-02 0. -1.
         -1   -1    0    0    0  501 -0.00000000000E+00 -0.00000000000E+00 -0.25483856341E+04  0.25483856341E+04  0.50400000000E-02 0.  1.
    8880023    1    1    2    0    0 -0.28326858103E+03  0.32838222655E+03 -0.17232147907E+04  0.18950871739E+04  0.65864270000E+03 0.  0.
    8880022    1    1    2    0    0  0.28326858103E+03 -0.32838222655E+03 -0.66771891994E+03  0.81075038376E+03  0.15294330000E+03 0.  0.
<mgrwt>
<rscale>  0 0.68912353E+03</rscale>
<asrwt>0</asrwt>
<pdfrwt beam="1">  1        1 0.24223375E-01 0.78859760E+03</pdfrwt>
<pdfrwt beam="2">  1       -1 0.39205930E+00 0.78859760E+03</pdfrwt>
<totfact> 0.17416665E+00</totfact>
</mgrwt>
</event>
<event>
 4    2  0.3396630E-007  0.7790346E+03  0.7818608E-02  0.9758110E-01
          1   -1    0    0  501    0  0.00000000000E+00  0.00000000000E+00  0.46610359445E+03  0.46610359448E+03  0.50400000000E-02 0. -1.
         -1   -1    0    0    0  501 -0.00000000000E+00 -0.00000000000E+00 -0.11277894877E+04  0.11277894877E+04  0.50400000000E-02 0.  1.
    8880023    1    1    2    0    0  0.10862998293E+03  0.40160209597E+03 -0.81254664921E+03  0.11256673488E+04  0.65864270000E+03 0.  1.
    8880022    1    1    2    0    0 -0.10862998293E+03 -0.40160209597E+03  0.15086075600E+03  0.46822573338E+03  0.15294330000E+03 0.  0.
<mgrwt>
<rscale>  0 0.67659900E+03</rscale>
<asrwt>0</asrwt>
<pdfrwt beam="1">  1        1 0.71708246E-01 0.77903461E+03</pdfrwt>
<pdfrwt beam="2">  1       -1 0.17350607E+00 0.77903461E+03</pdfrwt>
<totfact> 0.11616672E+01</totfact>
</mgrwt>
</event>
<event>
 4    2  0.3396630E-007  0.7714539E+03  0.7818608E-02  0.9776309E-01
         -1   -1    0    0    0  501 -0.00000000000E+00  0.00000000000E+00  0.48656119860E+03  0.48656119863E+03  0.50400000000E-02 0.  1.
          1   -1    0    0  501    0  0.00000000000E+00 -0.00000000000E+00 -0.11309375460E+04  0.11309375460E+04  0.50400000000E-02 0. -1.
    8880023    1    1    2    0    0 -0.74640439844E+02  0.39466403129E+03  0.79608626014E+02  0.77555053507E+03  0.65864270000E+03 0.  1.
    8880022    1    1    2    0    0  0.74640439844E+02 -0.39466403129E+03 -0.72398497340E+03  0.84194820956E+03  0.15294330000E+03 0.  0.
<mgrwt>
<rscale>  0 0.66649588E+03</rscale>
<asrwt>0</asrwt>
<pdfrwt beam="1">  1        1 0.17399039E+00 0.77145389E+03</pdfrwt>
<pdfrwt beam="2">  1       -1 0.74855569E-01 0.77145389E+03</pdfrwt>
<totfact> 0.22162861E+01</totfact>
</mgrwt>
</event>
<event>
 4    2  0.3396630E-007  0.6837275E+03  0.7818608E-02  0.1007289E+00
          1   -1    0    0  501    0  0.00000000000E+00  0.00000000000E+00  0.20021608880E+03  0.20021608887E+03  0.50400000000E-02 0. -1.
         -1   -1    0    0    0  501 -0.00000000000E+00 -0.00000000000E+00 -0.18655272216E+04  0.18655272216E+04  0.50400000000E-02 0.  1.
    8880023    1    1    2    0    0  0.17528355499E+03  0.54302987801E+02 -0.16924337705E+04  0.18253261114E+04  0.65864270000E+03 0.  1.
    8880022    1    1    2    0    0 -0.17528355499E+03 -0.54302987801E+02  0.27122637685E+02  0.24041719910E+03  0.15294330000E+03 0.  0.
<mgrwt>
<rscale>  0 0.52566412E+03</rscale>
<asrwt>0</asrwt>
<pdfrwt beam="1">  1        1 0.30802477E-01 0.68372754E+03</pdfrwt>
<pdfrwt beam="2">  1       -1 0.28700418E+00 0.68372754E+03</pdfrwt>
<totfact> 0.62631918E+00</totfact>
</mgrwt>
</event>
<event>
 4    2  0.3396630E-007  0.7533508E+03  0.7818608E-02  0.9822636E-01
          1   -1    0    0  501    0  0.00000000000E+00  0.00000000000E+00  0.18885568391E+04  0.18885568391E+04  0.50400000000E-02 0. -1.
         -1   -1    0    0    0  501 -0.00000000000E+00 -0.00000000000E+00 -0.40372658756E+03  0.40372658759E+03  0.50400000000E-02 0.  1.
    8880023    1    1    2    0    0  0.35934238081E+03  0.67825168967E+02 -0.21751804566E+01  0.75335392603E+03  0.65864270000E+03 0.  0.
    8880022    1    1    2    0    0 -0.35934238081E+03 -0.67825168967E+02  0.14870054320E+04  0.15389295006E+04  0.15294330000E+03 0. -1.
<mgrwt>
<rscale>  0 0.64161790E+03</rscale>
<asrwt>0</asrwt>
<pdfrwt beam="1">  1        1 0.29054720E+00 0.75335079E+03</pdfrwt>
<pdfrwt beam="2">  1       -1 0.62111784E-01 0.75335079E+03</pdfrwt>
<totfact> 0.97337735E+00</totfact>
</mgrwt>
</event>
<event>
 4    2  0.3396630E-007  0.6643664E+03  0.7818608E-02  0.1020071E+00
         -1   -1    0    0    0  501 -0.00000000000E+00  0.00000000000E+00  0.75244711281E+03  0.75244711283E+03  0.50400000000E-02 0.  1.
          1   -1    0    0  501    0  0.00000000000E+00 -0.00000000000E+00 -0.25901155679E+03  0.25901155683E+03  0.50400000000E-02 0. -1.
    8880023    1    1    2    0    0  0.61093632911E+02 -0.61968448985E+02  0.50589402579E+03  0.83505179016E+03  0.65864270000E+03 0.  1.
    8880022    1    1    2    0    0 -0.61093632911E+02  0.61968448985E+02 -0.12458469768E+02  0.17640687950E+03  0.15294330000E+03 0. -1.
<mgrwt>
<rscale>  0 0.47661004E+03</rscale>
<asrwt>0</asrwt>
<pdfrwt beam="1">  1        1 0.39847932E-01 0.66436641E+03</pdfrwt>
<pdfrwt beam="2">  1       -1 0.11576109E+00 0.66436641E+03</pdfrwt>
<totfact> 0.73459043E+01</totfact>
</mgrwt>
</event>
<event>
 4    2  0.3396630E-007  0.1031298E+04  0.7818608E-02  0.9341709E-01
         -1   -1    0    0    0  501 -0.00000000000E+00  0.00000000000E+00  0.34782112731E+03  0.34782112735E+03  0.50400000000E-02 0.  1.
          1   -1    0    0  501    0  0.00000000000E+00 -0.00000000000E+00 -0.28196825944E+04  0.28196825944E+04  0.50400000000E-02 0. -1.
    8880023    1    1    2    0    0 -0.59174649010E+03 -0.52877385735E+03 -0.19487035431E+04  0.22047724159E+04  0.65864270000E+03 0.  0.
    8880022    1    1    2    0    0  0.59174649010E+03  0.52877385735E+03 -0.52315792393E+03  0.96273130579E+03  0.15294330000E+03 0.  0.
<mgrwt>
<rscale>  0 0.97032096E+03</rscale>
<asrwt>0</asrwt>
<pdfrwt beam="1">  1        1 0.43379731E+00 0.10312982E+04</pdfrwt>
<pdfrwt beam="2">  1       -1 0.53510944E-01 0.10312982E+04</pdfrwt>
<totfact> 0.28992207E+00</totfact>
</mgrwt>
</event>
<event>
 4    2  0.3396630E-007  0.6776125E+03  0.7818608E-02  0.1010708E+00
          1   -1    0    0  501    0  0.00000000000E+00  0.00000000000E+00  0.86021727337E+03  0.86021727338E+03  0.50400000000E-02 0. -1.
         -1   -1    0    0    0  501 -0.00000000000E+00 -0.00000000000E+00 -0.35426980109E+03  0.35426980113E+03  0.50400000000E-02 0.  1.
    8880023    1    1    2    0    0 -0.48897383743E+02  0.15151728300E+03  0.16794257972E+02  0.67782054745E+03  0.65864270000E+03 0.  1.
    8880022    1    1    2    0    0  0.48897383743E+02 -0.15151728300E+03  0.48915321431E+03  0.53666652706E+03  0.15294330000E+03 0.  0.
<mgrwt>
<rscale>  0 0.51194326E+03</rscale>
<asrwt>0</asrwt>
<pdfrwt beam="1">  1        1 0.13234112E+00 0.67761246E+03</pdfrwt>
<pdfrwt beam="2">  1       -1 0.54503047E-01 0.67761246E+03</pdfrwt>
<totfact> 0.68641976E+01</totfact>
</mgrwt>
</event>
<event>
 4    2  0.3396630E-007  0.8049534E+03  0.7818608E-02  0.9700186E-01
          1   -1    0    0  501    0  0.00000000000E+00  0.00000000000E+00  0.24876162770E+04  0.24876162770E+04  0.50400000000E-02 0. -1.
         -1   -1    0    0    0  501 -0.00000000000E+00 -0.00000000000E+00 -0.29765358241E+03  0.29765358246E+03  0.50400000000E-02 0.  1.
    8880023    1    1    2    0    0 -0.46272400127E+03 -0.51219885778E+01  0.34282462838E+03  0.87491637783E+03  0.65864270000E+03 0.  1.
    8880022    1    1    2    0    0  0.46272400127E+03  0.51219885778E+01  0.18471380662E+04  0.19103534816E+04  0.15294330000E+03 0.  0.
<mgrwt>
<rscale>  0 0.71005693E+03</rscale>
<asrwt>0</asrwt>
<pdfrwt beam="1">  1        1 0.38271020E+00 0.80495338E+03</pdfrwt>
<pdfrwt beam="2">  1       -1 0.45792858E-01 0.80495338E+03</pdfrwt>
<totfact> 0.68549958E+00</totfact>
</mgrwt>
</event>
<event>
 4    2  0.3396630E-007  0.8489577E+03  0.7818608E-02  0.9613516E-01
          1   -1    0    0  501    0  0.00000000000E+00  0.00000000000E+00  0.15889709284E+04  0.15889709284E+04  0.50400000000E-02 0. -1.
         -1   -1    0    0    0  501 -0.00000000000E+00 -0.00000000000E+00 -0.50419618733E+03  0.50419618736E+03  0.50400000000E-02 0.  1.
    8880023    1    1    2    0    0  0.43902993177E+03 -0.30687407498E+03 -0.27275865787E+02  0.84939576052E+03  0.65864270000E+03 0.  1.
    8880022    1    1    2    0    0 -0.43902993177E+03  0.30687407498E+03  0.11120506068E+04  0.12437713552E+04  0.15294330000E+03 0.  0.
<mgrwt>
<rscale>  0 0.76408051E+03</rscale>
<asrwt>0</asrwt>
<pdfrwt beam="1">  1        1 0.24445706E+00 0.84895771E+03</pdfrwt>
<pdfrwt beam="2">  1       -1 0.77568645E-01 0.84895771E+03</pdfrwt>
<totfact> 0.96971734E+00</totfact>
</mgrwt>
</event>
<event>
 4    2  0.3396630E-007  0.9136521E+03  0.7818608E-02  0.9504462E-01
         -1   -1    0    0    0  501 -0.00000000000E+00  0.00000000000E+00  0.85735049597E+03  0.85735049599E+03  0.50400000000E-02 0.  1.
          1   -1    0    0  501    0  0.00000000000E+00 -0.00000000000E+00 -0.94688697738E+03  0.94688697740E+03  0.50400000000E-02 0. -1.
    8880023    1    1    2    0    0 -0.51166103958E+03 -0.37303203438E+03  0.39196847762E+03  0.99418278592E+03  0.65864270000E+03 0.  1.
    8880022    1    1    2    0    0  0.51166103958E+03  0.37303203438E+03 -0.48150495903E+03  0.81005468747E+03  0.15294330000E+03 0.  0.
<mgrwt>
<rscale>  0 0.83955680E+03</rscale>
<asrwt>0</asrwt>
<pdfrwt beam="1">  1        1 0.14567492E+00 0.91365208E+03</pdfrwt>
<pdfrwt beam="2">  1       -1 0.13190008E+00 0.91365208E+03</pdfrwt>
<totfact> 0.82453167E+00</totfact>
</mgrwt>
</event>
<event>
 4    2  0.3396630E-007  0.6587653E+03  0.7818608E-02  0.1025459E+00
          1   -1    0    0  501    0  0.00000000000E+00  0.00000000000E+00  0.10600758492E+04  0.10600758492E+04  0.50400000000E-02 0. -1.
         -1   -1    0    0    0  501 -0.00000000000E+00 -0.00000000000E+00 -0.28328072214E+03  0.28328072218E+03  0.50400000000E-02 0.  1.
    8880023    1    1    2    0    0  0.98849360117E+01  0.79849881648E+01  0.12092741053E+03  0.66977243664E+03  0.65864270000E+03 0.  1.
    8880022    1    1    2    0    0 -0.98849360117E+01 -0.79849881648E+01  0.65586771649E+03  0.67358413472E+03  0.15294330000E+03 0.  0.
<mgrwt>
<rscale>  0 0.45767173E+03</rscale>
<asrwt>0</asrwt>
<pdfrwt beam="1">  1        1 0.16308859E+00 0.65876527E+03</pdfrwt>
<pdfrwt beam="2">  1       -1 0.43581649E-01 0.65876527E+03</pdfrwt>
<totfact> 0.72867146E+01</totfact>
</mgrwt>
</event>
<event>
 4    2  0.3396630E-007  0.6829298E+03  0.7818608E-02  0.1007713E+00
          1   -1    0    0  501    0  0.00000000000E+00  0.00000000000E+00  0.58046064857E+03  0.58046064860E+03  0.50400000000E-02 0. -1.
         -1   -1    0    0    0  501 -0.00000000000E+00 -0.00000000000E+00 -0.59300963278E+03  0.59300963280E+03  0.50400000000E-02 0.  1.
    8880023    1    1    2    0    0  0.12760117197E+02  0.18005560681E+03 -0.34523875941E+03  0.76523385275E+03  0.65864270000E+03 0.  1.
    8880022    1    1    2    0    0 -0.12760117197E+02 -0.18005560681E+03  0.33268977520E+03  0.40823642865E+03  0.15294330000E+03 0.  0.
<mgrwt>
<rscale>  0 0.52393909E+03</rscale>
<asrwt>0</asrwt>
<pdfrwt beam="1">  1        1 0.89301638E-01 0.68292975E+03</pdfrwt>
<pdfrwt beam="2">  1       -1 0.91232251E-01 0.68292975E+03</pdfrwt>
<totfact> 0.43324808E+01</totfact>
</mgrwt>
</event>
<event>
 4    2  0.3396630E-007  0.1014570E+04  0.7818608E-02  0.9362739E-01
          1   -1    0    0  501    0  0.00000000000E+00  0.00000000000E+00  0.13450551513E+04  0.13450551513E+04  0.50400000000E-02 0. -1.
         -1   -1    0    0    0  501 -0.00000000000E+00 -0.00000000000E+00 -0.14049318590E+04  0.14049318590E+04  0.50400000000E-02 0.  1.
    8880023    1    1    2    0    0 -0.56786803713E+03  0.52255966922E+03 -0.10667674118E+04  0.14721907596E+04  0.65864270000E+03 0.  0.
    8880022    1    1    2    0    0  0.56786803713E+03 -0.52255966922E+03  0.10068907041E+04  0.12777962508E+04  0.15294330000E+03 0.  0.
<mgrwt>
<rscale>  0 0.95206629E+03</rscale>
<asrwt>0</asrwt>
<pdfrwt beam="1">  1        1 0.20693156E+00 0.10145703E+04</pdfrwt>
<pdfrwt beam="2">  1       -1 0.21614336E+00 0.10145703E+04</pdfrwt>
<totfact> 0.98615207E-01</totfact>
</mgrwt>
</event>
<event>
 4    2  0.3396630E-007  0.7631757E+03  0.7818608E-02  0.9796954E-01
         -1   -1    0    0    0  501 -0.00000000000E+00  0.00000000000E+00  0.40956053429E+03  0.40956053432E+03  0.50400000000E-02 0.  1.
          1   -1    0    0  501    0  0.00000000000E+00 -0.00000000000E+00 -0.23432396860E+04  0.23432396861E+04  0.50400000000E-02 0. -1.
    8880023    1    1    2    0    0  0.33161396947E+03 -0.19661926739E+03  0.12137650809E+02  0.76327222528E+03  0.65864270000E+03 0.  1.
    8880022    1    1    2    0    0 -0.33161396947E+03  0.19661926739E+03 -0.19458168026E+04  0.19895279951E+04  0.15294330000E+03 0.  0.
<mgrwt>
<rscale>  0 0.65526253E+03</rscale>
<asrwt>0</asrwt>
<pdfrwt beam="1">  1        1 0.36049841E+00 0.76317571E+03</pdfrwt>
<pdfrwt beam="2">  1       -1 0.63009314E-01 0.76317571E+03</pdfrwt>
<totfact> 0.46797181E+00</totfact>
</mgrwt>
</event>
<event>
 4    2  0.3396630E-007  0.1236595E+04  0.7818608E-02  0.9122345E-01
          1   -1    0    0  501    0  0.00000000000E+00  0.00000000000E+00  0.50465260532E+04  0.50465260532E+04  0.50400000000E-02 0. -1.
         -1   -1    0    0    0  501 -0.00000000000E+00 -0.00000000000E+00 -0.33985439348E+03  0.33985439352E+03  0.50400000000E-02 0.  1.
    8880023    1    1    2    0    0 -0.94274644950E+03  0.45451667860E+03  0.11979460426E+04  0.17216971878E+04  0.65864270000E+03 0. -1.
    8880022    1    1    2    0    0  0.94274644950E+03 -0.45451667860E+03  0.35087256171E+04  0.36646832589E+04  0.15294330000E+03 0.  0.
<mgrwt>
<rscale>  0 0.11892196E+04</rscale>
<asrwt>0</asrwt>
<pdfrwt beam="1">  1        1 0.77638852E+00 0.12365947E+04</pdfrwt>
<pdfrwt beam="2">  1       -1 0.52285298E-01 0.12365947E+04</pdfrwt>
<totfact> 0.29046994E-02</totfact>
</mgrwt>
</event>
<event>
 4    2  0.3722258E-007  0.8429081E+03  0.7818608E-02  0.9624721E-01
          1   -1    0    0  501    0  0.00000000000E+00  0.00000000000E+00  0.19941007560E+04  0.19941007560E+04  0.50400000000E-02 0. -1.
         -1   -1    0    0    0  501 -0.00000000000E+00 -0.00000000000E+00 -0.53916599594E+03  0.53916599597E+03  0.50400000000E-02 0.  1.
    8880023    1    1    2    0    0 -0.55627204696E+02  0.52305774909E+03 -0.13314966571E+03  0.85335973337E+03  0.65864270000E+03 0.  0.
    8880022    1    1    2    0    0  0.55627204696E+02 -0.52305774909E+03  0.15880844258E+04  0.16799070186E+04  0.15294330000E+03 0.  0.
<mgrwt>
<rscale>  0 0.75681366E+03</rscale>
<asrwt>0</asrwt>
<pdfrwt beam="1">  1        1 0.30678473E+00 0.84290806E+03</pdfrwt>
<pdfrwt beam="2">  1       -1 0.82948616E-01 0.84290806E+03</pdfrwt>
<totfact> 0.44894323E+00</totfact>
</mgrwt>
</event>
<event>
 4    2  0.3396630E-007  0.1030586E+04  0.7818608E-02  0.9342592E-01
          1   -1    0    0  501    0  0.00000000000E+00  0.00000000000E+00  0.16272846016E+04  0.16272846016E+04  0.50400000000E-02 0. -1.
         -1   -1    0    0    0  501 -0.00000000000E+00 -0.00000000000E+00 -0.10157419420E+04  0.10157419421E+04  0.50400000000E-02 0.  1.
    8880023    1    1    2    0    0 -0.75774980477E+03 -0.23262285607E+03 -0.59598517805E+03  0.11905069082E+04  0.65864270000E+03 0.  0.
    8880022    1    1    2    0    0  0.75774980477E+03  0.23262285607E+03  0.12075278376E+04  0.14525196355E+04  0.15294330000E+03 0.  0.
<mgrwt>
<rscale>  0 0.96954602E+03</rscale>
<asrwt>0</asrwt>
<pdfrwt beam="1">  1        1 0.25035148E+00 0.10305864E+04</pdfrwt>
<pdfrwt beam="2">  1       -1 0.15626799E+00 0.10305864E+04</pdfrwt>
<totfact> 0.16718060E+00</totfact>
</mgrwt>
</event>
<event>
 4    2  0.3396630E-007  0.7371482E+03  0.7818608E-02  0.9868333E-01
         -1   -1    0    0    0  501 -0.00000000000E+00  0.00000000000E+00  0.37924542474E+03  0.37924542477E+03  0.50400000000E-02 0.  1.
          1   -1    0    0  501    0  0.00000000000E+00 -0.00000000000E+00 -0.18434559608E+04  0.18434559608E+04  0.50400000000E-02 0. -1.
    8880023    1    1    2    0    0 -0.27101103001E+03  0.19007949604E+03 -0.24527343686E+02  0.73755609282E+03  0.65864270000E+03 0.  1.
    8880022    1    1    2    0    0  0.27101103001E+03 -0.19007949604E+03 -0.14396831924E+04  0.14851452928E+04  0.15294330000E+03 0.  0.
<mgrwt>
<rscale>  0 0.61820829E+03</rscale>
<asrwt>0</asrwt>
<pdfrwt beam="1">  1        1 0.28360860E+00 0.73714815E+03</pdfrwt>
<pdfrwt beam="2">  1       -1 0.58345451E-01 0.73714815E+03</pdfrwt>
<totfact> 0.11833388E+01</totfact>
</mgrwt>
</event>
<event>
 4    2  0.3396630E-007  0.6815147E+03  0.7818608E-02  0.1008480E+00
          1   -1    0    0  501    0  0.00000000000E+00  0.00000000000E+00  0.14919986206E+03  0.14919986214E+03  0.50400000000E-02 0. -1.
         -1   -1    0    0    0  501 -0.00000000000E+00 -0.00000000000E+00 -0.15562073446E+04  0.15562073446E+04  0.50400000000E-02 0.  1.
    8880023    1    1    2    0    0 -0.77411017261E+02 -0.15703366823E+03 -0.12536113317E+04  0.14268859855E+04  0.65864270000E+03 0.  1.
    8880022    1    1    2    0    0  0.77411017261E+02  0.15703366823E+03 -0.15339615088E+03  0.27852122122E+03  0.15294330000E+03 0.  0.
<mgrwt>
<rscale>  0 0.52083425E+03</rscale>
<asrwt>0</asrwt>
<pdfrwt beam="1">  1        1 0.22953826E-01 0.68151467E+03</pdfrwt>
<pdfrwt beam="2">  1       -1 0.23941650E+00 0.68151467E+03</pdfrwt>
<totfact> 0.18555006E+01</totfact>
</mgrwt>
</event>
<event>
 4    2  0.3396630E-007  0.6828396E+03  0.7818608E-02  0.1007761E+00
         -1   -1    0    0    0  501 -0.00000000000E+00  0.00000000000E+00  0.54763628515E+03  0.54763628518E+03  0.50400000000E-02 0.  1.
          1   -1    0    0  501    0  0.00000000000E+00 -0.00000000000E+00 -0.14277915536E+04  0.14277915536E+04  0.50400000000E-02 0. -1.
    8880023    1    1    2    0    0  0.56670930032E+02  0.17102073685E+03  0.31866413677E+03  0.75353614716E+03  0.65864270000E+03 0.  1.
    8880022    1    1    2    0    0 -0.56670930032E+02 -0.17102073685E+03 -0.11988194052E+04  0.12218916916E+04  0.15294330000E+03 0.  0.
<mgrwt>
<rscale>  0 0.52374298E+03</rscale>
<asrwt>0</asrwt>
<pdfrwt beam="1">  1        1 0.21966024E+00 0.68283958E+03</pdfrwt>
<pdfrwt beam="2">  1       -1 0.84251737E-01 0.68283958E+03</pdfrwt>
<totfact> 0.10742554E+01</totfact>
</mgrwt>
</event>
<event>
 4    2  0.3396630E-007  0.6970294E+03  0.7818608E-02  0.1000975E+00
         -1   -1    0    0    0  501 -0.00000000000E+00  0.00000000000E+00  0.94696920972E+03  0.94696920973E+03  0.50400000000E-02 0.  1.
          1   -1    0    0  501    0  0.00000000000E+00 -0.00000000000E+00 -0.76152622523E+03  0.76152622524E+03  0.50400000000E-02 0. -1.
    8880023    1    1    2    0    0  0.38792798429E+02  0.22479961276E+03  0.78453424758E+03  0.10494493504E+04  0.65864270000E+03 0.  1.
    8880022    1    1    2    0    0 -0.38792798429E+02 -0.22479961276E+03 -0.59909126309E+03  0.65904608460E+03  0.15294330000E+03 0.  0.
<mgrwt>
<rscale>  0 0.55224569E+03</rscale>
<asrwt>0</asrwt>
<pdfrwt beam="1">  1        1 0.11715788E+00 0.69702938E+03</pdfrwt>
<pdfrwt beam="2">  1       -1 0.14568757E+00 0.69702938E+03</pdfrwt>
<totfact> 0.93745935E+00</totfact>
</mgrwt>
</event>
<event>
 4    2  0.3396630E-007  0.7651658E+03  0.7818608E-02  0.9791913E-01
         -1   -1    0    0    0  501 -0.00000000000E+00  0.00000000000E+00  0.83595930041E+03  0.83595930043E+03  0.50400000000E-02 0.  1.
          1   -1    0    0  501    0  0.00000000000E+00 -0.00000000000E+00 -0.59347426139E+03  0.59347426141E+03  0.50400000000E-02 0. -1.
    8880023    1    1    2    0    0  0.18119435737E+03  0.34472760417E+03  0.52199295057E+03  0.92625879911E+03  0.65864270000E+03 0.  1.
    8880022    1    1    2    0    0 -0.18119435737E+03 -0.34472760417E+03 -0.27950791155E+03  0.50317476273E+03  0.15294330000E+03 0.  0.
<mgrwt>
<rscale>  0 0.65798363E+03</rscale>
<asrwt>0</asrwt>
<pdfrwt beam="1">  1        1 0.91303733E-01 0.76516581E+03</pdfrwt>
<pdfrwt beam="2">  1       -1 0.12860912E+00 0.76516581E+03</pdfrwt>
<totfact> 0.18585771E+01</totfact>
</mgrwt>
</event>
<event>
 4    2  0.8176517E-007  0.7507169E+03  0.7818608E-02  0.9829762E-01
          1   -1    0    0  501    0  0.00000000000E+00  0.00000000000E+00  0.16846421929E+04  0.16846421929E+04  0.50400000000E-02 0. -1.
         -1   -1    0    0    0  501 -0.00000000000E+00 -0.00000000000E+00 -0.17444303448E+04  0.17444303448E+04  0.50400000000E-02 0.  1.
    8880023    1    1    2    0    0  0.30525421080E+03  0.19127341635E+03 -0.16386512616E+04  0.18024299755E+04  0.65864270000E+03 0.  1.
    8880022    1    1    2    0    0 -0.30525421080E+03 -0.19127341635E+03  0.15788631097E+04  0.16266425622E+04  0.15294330000E+03 0.  0.
<mgrwt>
<rscale>  0 0.63789523E+03</rscale>
<asrwt>0</asrwt>
<pdfrwt beam="1">  1        1 0.25917572E+00 0.75071690E+03</pdfrwt>
<pdfrwt beam="2">  1       -1 0.26837390E+00 0.75071690E+03</pdfrwt>
<totfact> 0.27644603E-01</totfact>
</mgrwt>
</event>
<event>
 4    2  0.3396630E-007  0.7825876E+03  0.7818608E-02  0.9749793E-01
          1   -1    0    0  501    0  0.00000000000E+00  0.00000000000E+00  0.16761407671E+04  0.16761407671E+04  0.50400000000E-02 0. -1.
         -1   -1    0    0    0  501 -0.00000000000E+00 -0.00000000000E+00 -0.35451378634E+03  0.35451378638E+03  0.50400000000E-02 0.  1.
    8880023    1    1    2    0    0  0.13957383091E+03  0.39893892491E+03  0.17899367660E+03  0.80279640171E+03  0.65864270000E+03 0.  1.
    8880022    1    1    2    0    0 -0.13957383091E+03 -0.39893892491E+03  0.11426333041E+04  0.12278581517E+04  0.15294330000E+03 0.  0.
<mgrwt>
<rscale>  0 0.68127946E+03</rscale>
<asrwt>0</asrwt>
<pdfrwt beam="1">  1        1 0.25786781E+00 0.78258758E+03</pdfrwt>
<pdfrwt beam="2">  1       -1 0.54540583E-01 0.78258758E+03</pdfrwt>
<totfact> 0.17360676E+01</totfact>
</mgrwt>
</event>
<event>
 4    2  0.3396630E-007  0.7410433E+03  0.7818608E-02  0.9856918E-01
         -1   -1    0    0    0  501 -0.00000000000E+00  0.00000000000E+00  0.69307153624E+03  0.69307153626E+03  0.50400000000E-02 0.  1.
          1   -1    0    0  501    0  0.00000000000E+00 -0.00000000000E+00 -0.62965597325E+03  0.62965597327E+03  0.50400000000E-02 0. -1.
    8880023    1    1    2    0    0 -0.28209352269E+02  0.33843637299E+03  0.38100130409E+03  0.83325095026E+03  0.65864270000E+03 0.  0.
    8880022    1    1    2    0    0  0.28209352269E+02 -0.33843637299E+03 -0.31758574110E+03  0.48947655928E+03  0.15294330000E+03 0.  0.
<mgrwt>
<rscale>  0 0.62395411E+03</rscale>
<asrwt>0</asrwt>
<pdfrwt beam="1">  1        1 0.96870149E-01 0.74104329E+03</pdfrwt>
<pdfrwt beam="2">  1       -1 0.10662639E+00 0.74104329E+03</pdfrwt>
<totfact> 0.26898788E+01</totfact>
</mgrwt>
</event>
<event>
 4    2  0.3396630E-007  0.1035585E+04  0.7818608E-02  0.9336414E-01
          1   -1    0    0  501    0  0.00000000000E+00  0.00000000000E+00  0.97939530962E+03  0.97939530963E+03  0.50400000000E-02 0. -1.
         -1   -1    0    0    0  501 -0.00000000000E+00 -0.00000000000E+00 -0.13086824826E+04  0.13086824826E+04  0.50400000000E-02 0.  1.
    8880023    1    1    2    0    0  0.53037047717E+03  0.59777374900E+03 -0.83481985424E+03  0.13301731817E+04  0.65864270000E+03 0.  0.
    8880022    1    1    2    0    0 -0.53037047717E+03 -0.59777374900E+03  0.50553268126E+03  0.95790461053E+03  0.15294330000E+03 0.  0.
<mgrwt>
<rscale>  0 0.97498530E+03</rscale>
<asrwt>0</asrwt>
<pdfrwt beam="1">  1        1 0.15067620E+00 0.10355851E+04</pdfrwt>
<pdfrwt beam="2">  1       -1 0.20133577E+00 0.10355851E+04</pdfrwt>
<totfact> 0.23137350E+00</totfact>
</mgrwt>
</event>
<event>
 4    2  0.3396630E-007  0.7172088E+03  0.7818608E-02  0.9932146E-01
          1   -1    0    0  501    0  0.00000000000E+00  0.00000000000E+00  0.14673000542E+04  0.14673000542E+04  0.50400000000E-02 0. -1.
         -1   -1    0    0    0  501 -0.00000000000E+00 -0.00000000000E+00 -0.58781166315E+03  0.58781166317E+03  0.50400000000E-02 0.  1.
    8880023    1    1    2    0    0 -0.82472981489E+02 -0.27161817691E+03 -0.33999773424E+03  0.79371713617E+03  0.65864270000E+03 0.  1.
    8880022    1    1    2    0    0  0.82472981489E+02  0.27161817691E+03  0.12194861253E+04  0.12613945812E+04  0.15294330000E+03 0.  0.
<mgrwt>
<rscale>  0 0.58728329E+03</rscale>
<asrwt>0</asrwt>
<pdfrwt beam="1">  1        1 0.22573847E+00 0.71720878E+03</pdfrwt>
<pdfrwt beam="2">  1       -1 0.90432564E-01 0.71720878E+03</pdfrwt>
<totfact> 0.86019155E+00</totfact>
</mgrwt>
</event>
<event>
 4    2  0.3396630E-007  0.6981773E+03  0.7818608E-02  0.1000485E+00
          1   -1    0    0  501    0  0.00000000000E+00  0.00000000000E+00  0.55903046262E+03  0.55903046265E+03  0.50400000000E-02 0. -1.
         -1   -1    0    0    0  501 -0.00000000000E+00 -0.00000000000E+00 -0.11036325600E+04  0.11036325600E+04  0.50400000000E-02 0.  1.
    8880023    1    1    2    0    0 -0.19864790237E+03  0.11908150743E+03 -0.94533130653E+03  0.11752033356E+04  0.65864270000E+03 0.  1.
    8880022    1    1    2    0    0  0.19864790237E+03 -0.11908150743E+03  0.40072920912E+03  0.48745968714E+03  0.15294330000E+03 0.  0.
<mgrwt>
<rscale>  0 0.55438178E+03</rscale>
<asrwt>0</asrwt>
<pdfrwt beam="1">  1        1 0.86004687E-01 0.69817734E+03</pdfrwt>
<pdfrwt beam="2">  1       -1 0.16978962E+00 0.69817734E+03</pdfrwt>
<totfact> 0.97153260E+00</totfact>
</mgrwt>
</event>
<event>
 4    2  0.4171847E-007  0.6795468E+03  0.7818608E-02  0.1009581E+00
          1   -1    0    0  501    0  0.00000000000E+00  0.00000000000E+00  0.88236803431E+03  0.88236803433E+03  0.50400000000E-02 0. -1.
         -1   -1    0    0    0  501 -0.00000000000E+00 -0.00000000000E+00 -0.98051184545E+03  0.98051184546E+03  0.50400000000E-02 0.  1.
    8880023    1    1    2    0    0 -0.51075001254E+02  0.15926379333E+03 -0.84387438807E+03  0.10834702583E+04  0.65864270000E+03 0.  1.
    8880022    1    1    2    0    0  0.51075001254E+02 -0.15926379333E+03  0.74573057693E+03  0.77940962145E+03  0.15294330000E+03 0.  0.
<mgrwt>
<rscale>  0 0.51641424E+03</rscale>
<asrwt>0</asrwt>
<pdfrwt beam="1">  1        1 0.13574893E+00 0.67954677E+03</pdfrwt>
<pdfrwt beam="2">  1       -1 0.15084798E+00 0.67954677E+03</pdfrwt>
<totfact> 0.67583945E+00</totfact>
</mgrwt>
</event>
<event>
 4    2  0.3396630E-007  0.6754858E+03  0.7818608E-02  0.1012002E+00
         -1   -1    0    0    0  501 -0.00000000000E+00  0.00000000000E+00  0.65801780338E+02  0.65801780531E+02  0.50400000000E-02 0.  1.
          1   -1    0    0  501    0  0.00000000000E+00 -0.00000000000E+00 -0.38710811175E+04  0.38710811175E+04  0.50400000000E-02 0. -1.
    8880023    1    1    2    0    0  0.30666476296E+02 -0.14673231532E+03 -0.18418416819E+04  0.19618006505E+04  0.65864270000E+03 0. -1.
    8880022    1    1    2    0    0 -0.30666476296E+02  0.14673231532E+03 -0.19634376553E+04  0.19750822475E+04  0.15294330000E+03 0.  0.
<mgrwt>
<rscale>  0 0.50686735E+03</rscale>
<asrwt>0</asrwt>
<pdfrwt beam="1">  1        1 0.59555076E+00 0.67548576E+03</pdfrwt>
<pdfrwt beam="2">  1       -1 0.10123354E-01 0.67548576E+03</pdfrwt>
<totfact> 0.84913639E+00</totfact>
</mgrwt>
</event>
<event>
 4    2  0.3396630E-007  0.8966842E+03  0.7818608E-02  0.9531376E-01
         -1   -1    0    0    0  501 -0.00000000000E+00  0.00000000000E+00  0.63803301149E+03  0.63803301151E+03  0.50400000000E-02 0.  1.
          1   -1    0    0  501    0  0.00000000000E+00 -0.00000000000E+00 -0.19647327644E+04  0.19647327644E+04  0.50400000000E-02 0. -1.
    8880023    1    1    2    0    0 -0.43455610753E+03 -0.42590296920E+03  0.22887709955E+03  0.92543356473E+03  0.65864270000E+03 0.  1.
    8880022    1    1    2    0    0  0.43455610753E+03  0.42590296920E+03 -0.15555768525E+04  0.16773322112E+04  0.15294330000E+03 0.  0.
<mgrwt>
<rscale>  0 0.82009627E+03</rscale>
<asrwt>0</asrwt>
<pdfrwt beam="1">  1        1 0.30226658E+00 0.89668420E+03</pdfrwt>
<pdfrwt beam="2">  1       -1 0.98158926E-01 0.89668420E+03</pdfrwt>
<totfact> 0.32121415E+00</totfact>
</mgrwt>
</event>
<event>
 4    2  0.3396630E-007  0.9234398E+03  0.7818608E-02  0.9489405E-01
         -1   -1    0    0    0  501 -0.00000000000E+00  0.00000000000E+00  0.18957941383E+03  0.18957941390E+03  0.50400000000E-02 0.  1.
          1   -1    0    0  501    0  0.00000000000E+00 -0.00000000000E+00 -0.35712318184E+04  0.35712318184E+04  0.50400000000E-02 0. -1.
    8880023    1    1    2    0    0 -0.12202221385E+03  0.63564248890E+03 -0.24321313183E+04  0.26015387274E+04  0.65864270000E+03 0.  1.
    8880022    1    1    2    0    0  0.12202221385E+03 -0.63564248890E+03 -0.94952108623E+03  0.11592725049E+04  0.15294330000E+03 0.  0.
<mgrwt>
<rscale>  0 0.85069485E+03</rscale>
<asrwt>0</asrwt>
<pdfrwt beam="1">  1        1 0.54942023E+00 0.92343977E+03</pdfrwt>
<pdfrwt beam="2">  1       -1 0.29166066E-01 0.92343977E+03</pdfrwt>
<totfact> 0.24733511E+00</totfact>
</mgrwt>
</event>
<event>
 4    2  0.3396630E-007  0.6720018E+03  0.7818608E-02  0.1014267E+00
          1   -1    0    0  501    0  0.00000000000E+00  0.00000000000E+00  0.63649160860E+03  0.63649160862E+03  0.50400000000E-02 0. -1.
         -1   -1    0    0    0  501 -0.00000000000E+00 -0.00000000000E+00 -0.18155329428E+04  0.18155329428E+04  0.50400000000E-02 0.  1.
    8880023    1    1    2    0    0 -0.42022107323E+02  0.12653229109E+03 -0.17347885527E+04  0.18603972176E+04  0.65864270000E+03 0.  1.
    8880022    1    1    2    0    0  0.42022107323E+02 -0.12653229109E+03  0.55574721856E+03  0.59162733384E+03  0.15294330000E+03 0.  0.
<mgrwt>
<rscale>  0 0.49813577E+03</rscale>
<asrwt>0</asrwt>
<pdfrwt beam="1">  1        1 0.97921787E-01 0.67200185E+03</pdfrwt>
<pdfrwt beam="2">  1       -1 0.27931276E+00 0.67200185E+03</pdfrwt>
<totfact> 0.15073232E+00</totfact>
</mgrwt>
</event>
<event>
 4    2  0.3396630E-007  0.8034128E+03  0.7818608E-02  0.9703465E-01
          1   -1    0    0  501    0  0.00000000000E+00  0.00000000000E+00  0.16303725646E+04  0.16303725646E+04  0.50400000000E-02 0. -1.
         -1   -1    0    0    0  501 -0.00000000000E+00 -0.00000000000E+00 -0.36850567178E+03  0.36850567181E+03  0.50400000000E-02 0.  1.
    8880023    1    1    2    0    0  0.44993112230E+03 -0.96041180343E+02  0.19458767309E+03  0.82664169500E+03  0.65864270000E+03 0.  0.
    8880022    1    1    2    0    0 -0.44993112230E+03  0.96041180343E+02  0.10672792197E+04  0.11722365414E+04  0.15294330000E+03 0.  0.
<mgrwt>
<rscale>  0 0.70810868E+03</rscale>
<asrwt>0</asrwt>
<pdfrwt beam="1">  1        1 0.25082655E+00 0.80341280E+03</pdfrwt>
<pdfrwt beam="2">  1       -1 0.56693181E-01 0.80341280E+03</pdfrwt>
<totfact> 0.17248416E+01</totfact>
</mgrwt>
</event>
<event>
 4    2  0.3396630E-007  0.6853484E+03  0.7818608E-02  0.1006447E+00
          1   -1    0    0  501    0  0.00000000000E+00  0.00000000000E+00  0.10460924814E+04  0.10460924814E+04  0.50400000000E-02 0. -1.
         -1   -1    0    0    0  501 -0.00000000000E+00 -0.00000000000E+00 -0.29993651413E+03  0.29993651417E+03  0.50400000000E-02 0.  1.
    8880023    1    1    2    0    0 -0.15210291049E+03 -0.11294683004E+03  0.14930320362E+03  0.70142279309E+03  0.65864270000E+03 0.  1.
    8880022    1    1    2    0    0  0.15210291049E+03  0.11294683004E+03  0.59685276362E+03  0.64460620246E+03  0.15294330000E+03 0.  0.
<mgrwt>
<rscale>  0 0.52911576E+03</rscale>
<asrwt>0</asrwt>
<pdfrwt beam="1">  1        1 0.16093730E+00 0.68534844E+03</pdfrwt>
<pdfrwt beam="2">  1       -1 0.46144079E-01 0.68534844E+03</pdfrwt>
<totfact> 0.66985316E+01</totfact>
</mgrwt>
</event>
<event>
 4    2  0.3396630E-007  0.6605771E+03  0.7818608E-02  0.1023573E+00
          1   -1    0    0  501    0  0.00000000000E+00  0.00000000000E+00  0.36396458250E+03  0.36396458254E+03  0.50400000000E-02 0. -1.
         -1   -1    0    0    0  501 -0.00000000000E+00 -0.00000000000E+00 -0.14699672887E+04  0.14699672887E+04  0.50400000000E-02 0.  1.
    8880023    1    1    2    0    0 -0.44191045792E+02  0.24474755069E+02 -0.13721285462E+04  0.15228587642E+04  0.65864270000E+03 0.  1.
    8880022    1    1    2    0    0  0.44191045792E+02 -0.24474755069E+02  0.26612584002E+03  0.31107310701E+03  0.15294330000E+03 0.  0.
<mgrwt>
<rscale>  0 0.46419047E+03</rscale>
<asrwt>0</asrwt>
<pdfrwt beam="1">  1        1 0.55994552E-01 0.66057707E+03</pdfrwt>
<pdfrwt beam="2">  1       -1 0.22614881E+00 0.66057707E+03</pdfrwt>
<totfact> 0.71385092E+00</totfact>
</mgrwt>
</event>
<event>
 4    2  0.3396630E-007  0.9248455E+03  0.7818608E-02  0.9487269E-01
          1   -1    0    0  501    0  0.00000000000E+00  0.00000000000E+00  0.32614888061E+04  0.32614888061E+04  0.50400000000E-02 0. -1.
         -1   -1    0    0    0  501 -0.00000000000E+00 -0.00000000000E+00 -0.39843988942E+03  0.39843988945E+03  0.50400000000E-02 0.  1.
    8880023    1    1    2    0    0  0.64924514110E+03  0.31258520859E+01  0.24290313165E+03  0.95621188124E+03  0.65864270000E+03 0.  0.
    8880022    1    1    2    0    0 -0.64924514110E+03 -0.31258520859E+01  0.26201457851E+04  0.27037168143E+04  0.15294330000E+03 0.  0.
<mgrwt>
<rscale>  0 0.85228966E+03</rscale>
<asrwt>0</asrwt>
<pdfrwt beam="1">  1        1 0.50176750E+00 0.92484552E+03</pdfrwt>
<pdfrwt beam="2">  1       -1 0.61298445E-01 0.92484552E+03</pdfrwt>
<totfact> 0.10800083E+00</totfact>
</mgrwt>
</event>
<event>
 4    2  0.3396630E-007  0.6609586E+03  0.7818608E-02  0.1023195E+00
          1   -1    0    0  501    0  0.00000000000E+00  0.00000000000E+00  0.63034905174E+03  0.63034905176E+03  0.50400000000E-02 0. -1.
         -1   -1    0    0    0  501 -0.00000000000E+00 -0.00000000000E+00 -0.53765025420E+03  0.53765025423E+03  0.50400000000E-02 0.  1.
    8880023    1    1    2    0    0  0.18528085766E+02  0.52084812899E+02 -0.31270097796E+03  0.73119643433E+03  0.65864270000E+03 0.  1.
    8880022    1    1    2    0    0 -0.18528085766E+02 -0.52084812899E+02  0.40539977550E+03  0.43680287166E+03  0.15294330000E+03 0.  0.
<mgrwt>
<rscale>  0 0.46551036E+03</rscale>
<asrwt>0</asrwt>
<pdfrwt beam="1">  1        1 0.96976777E-01 0.66095864E+03</pdfrwt>
<pdfrwt beam="2">  1       -1 0.82715424E-01 0.66095864E+03</pdfrwt>
<totfact> 0.47713044E+01</totfact>
</mgrwt>
</event>
<event>
 4    2  0.3396630E-007  0.7116864E+03  0.7818608E-02  0.9951791E-01
          1   -1    0    0  501    0  0.00000000000E+00  0.00000000000E+00  0.94323645725E+03  0.94323645726E+03  0.50400000000E-02 0. -1.
         -1   -1    0    0    0  501 -0.00000000000E+00 -0.00000000000E+00 -0.46580232306E+03  0.46580232309E+03  0.50400000000E-02 0.  1.
    8880023    1    1    2    0    0 -0.25054462448E+03 -0.99572984836E+02 -0.13337958823E+03  0.72407714298E+03  0.65864270000E+03 0.  1.
    8880022    1    1    2    0    0  0.25054462448E+03  0.99572984836E+02  0.61081372242E+03  0.68496163737E+03  0.15294330000E+03 0.  0.
<mgrwt>
<rscale>  0 0.57815609E+03</rscale>
<asrwt>0</asrwt>
<pdfrwt beam="1">  1        1 0.14511330E+00 0.71168644E+03</pdfrwt>
<pdfrwt beam="2">  1       -1 0.71661896E-01 0.71168644E+03</pdfrwt>
<totfact> 0.33987955E+01</totfact>
</mgrwt>
</event>
<event>
 4    2  0.3396630E-007  0.1175357E+04  0.7818608E-02  0.9181457E-01
         -1   -1    0    0    0  501 -0.00000000000E+00  0.00000000000E+00  0.11767565450E+04  0.11767565450E+04  0.50400000000E-02 0.  1.
          1   -1    0    0  501    0  0.00000000000E+00 -0.00000000000E+00 -0.13432860674E+04  0.13432860674E+04  0.50400000000E-02 0. -1.
    8880023    1    1    2    0    0 -0.46906320002E+03  0.85301508259E+03  0.55392524792E+03  0.12993453749E+04  0.65864270000E+03 0.  0.
    8880022    1    1    2    0    0  0.46906320002E+03 -0.85301508259E+03 -0.72045477030E+03  0.12206972376E+04  0.15294330000E+03 0.  0.
<mgrwt>
<rscale>  0 0.11246891E+04</rscale>
<asrwt>0</asrwt>
<pdfrwt beam="1">  1        1 0.20665940E+00 0.11753575E+04</pdfrwt>
<pdfrwt beam="2">  1       -1 0.18103947E+00 0.11753575E+04</pdfrwt>
<totfact> 0.16939851E+00</totfact>
</mgrwt>
</event>
<event>
 4    2  0.3396630E-007  0.9453478E+03  0.7818608E-02  0.9456839E-01
          1   -1    0    0  501    0  0.00000000000E+00  0.00000000000E+00  0.19985466687E+04  0.19985466687E+04  0.50400000000E-02 0. -1.
         -1   -1    0    0    0  501 -0.00000000000E+00 -0.00000000000E+00 -0.38677336138E+03  0.38677336141E+03  0.50400000000E-02 0.  1.
    8880023    1    1    2    0    0 -0.67652145834E+03  0.46807930425E+02  0.48791210797E+03  0.10638330213E+04  0.65864270000E+03 0.  0.
    8880022    1    1    2    0    0  0.67652145834E+03 -0.46807930425E+02  0.11238611994E+04  0.13214870088E+04  0.15294330000E+03 0.  0.
<mgrwt>
<rscale>  0 0.87542060E+03</rscale>
<asrwt>0</asrwt>
<pdfrwt beam="1">  1        1 0.30746871E+00 0.94534780E+03</pdfrwt>
<pdfrwt beam="2">  1       -1 0.59503595E-01 0.94534780E+03</pdfrwt>
<totfact> 0.87062772E+00</totfact>
</mgrwt>
</event>
<event>
 4    2  0.3396630E-007  0.7831684E+03  0.7818608E-02  0.9748446E-01
         -1   -1    0    0    0  501 -0.00000000000E+00  0.00000000000E+00  0.73357845395E+03  0.73357845396E+03  0.50400000000E-02 0.  1.
          1   -1    0    0  501    0  0.00000000000E+00 -0.00000000000E+00 -0.11847936848E+04  0.11847936848E+04  0.50400000000E-02 0. -1.
    8880023    1    1    2    0    0 -0.31850800857E+03 -0.27945519258E+03  0.45544135791E+03  0.90596886974E+03  0.65864270000E+03 0.  1.
    8880022    1    1    2    0    0  0.31850800857E+03  0.27945519258E+03 -0.90665658873E+03  0.10124032690E+04  0.15294330000E+03 0.  0.
<mgrwt>
<rscale>  0 0.68204147E+03</rscale>
<asrwt>0</asrwt>
<pdfrwt beam="1">  1        1 0.18227595E+00 0.78316841E+03</pdfrwt>
<pdfrwt beam="2">  1       -1 0.11285822E+00 0.78316841E+03</pdfrwt>
<totfact> 0.81128766E+00</totfact>
</mgrwt>
</event>
<event>
 4    2  0.3396630E-007  0.7993456E+03  0.7818608E-02  0.9712213E-01
         -1   -1    0    0    0  501 -0.00000000000E+00  0.00000000000E+00  0.25135204624E+03  0.25135204629E+03  0.50400000000E-02 0.  1.
          1   -1    0    0  501    0  0.00000000000E+00 -0.00000000000E+00 -0.17218921400E+04  0.17218921400E+04  0.50400000000E-02 0. -1.
    8880023    1    1    2    0    0  0.28167414639E+03  0.35468704434E+03 -0.68026058754E+03  0.10496227405E+04  0.65864270000E+03 0. -1.
    8880022    1    1    2    0    0 -0.28167414639E+03 -0.35468704434E+03 -0.79027950626E+03  0.92362144582E+03  0.15294330000E+03 0.  1.
<mgrwt>
<rscale>  0 0.70294284E+03</rscale>
<asrwt>0</asrwt>
<pdfrwt beam="1">  1        1 0.26490648E+00 0.79934563E+03</pdfrwt>
<pdfrwt beam="2">  1       -1 0.38669547E-01 0.79934563E+03</pdfrwt>
<totfact> 0.30669941E+01</totfact>
</mgrwt>
</event>
<event>
 4    2  0.3396630E-007  0.8780035E+03  0.7818608E-02  0.9562308E-01
         -1   -1    0    0    0  501 -0.00000000000E+00  0.00000000000E+00  0.55222213823E+03  0.55222213825E+03  0.50400000000E-02 0.  1.
          1   -1    0    0  501    0  0.00000000000E+00 -0.00000000000E+00 -0.21349597531E+04  0.21349597531E+04  0.50400000000E-02 0. -1.
    8880023    1    1    2    0    0 -0.42598964841E+03 -0.39447776549E+03  0.11584409331E+03  0.88561275298E+03  0.65864270000E+03 0.  1.
    8880022    1    1    2    0    0  0.42598964841E+03  0.39447776549E+03 -0.16985817082E+04  0.18015691384E+04  0.15294330000E+03 0.  0.
<mgrwt>
<rscale>  0 0.79841934E+03</rscale>
<asrwt>0</asrwt>
<pdfrwt beam="1">  1        1 0.32845534E+00 0.87800347E+03</pdfrwt>
<pdfrwt beam="2">  1       -1 0.84957253E-01 0.87800347E+03</pdfrwt>
<totfact> 0.34103625E+00</totfact>
</mgrwt>
</event>
<event>
 4    2  0.3396630E-007  0.9031928E+03  0.7818608E-02  0.9520925E-01
          1   -1    0    0  501    0  0.00000000000E+00  0.00000000000E+00  0.10604335954E+04  0.10604335954E+04  0.50400000000E-02 0. -1.
         -1   -1    0    0    0  501 -0.00000000000E+00 -0.00000000000E+00 -0.13403547685E+04  0.13403547686E+04  0.50400000000E-02 0.  1.
    8880023    1    1    2    0    0 -0.15805857972E+01 -0.61801665043E+03 -0.10608288592E+04  0.13932390869E+04  0.65864270000E+03 0.  1.
    8880022    1    1    2    0    0  0.15805857972E+01  0.61801665043E+03  0.78090768605E+03  0.10075492770E+04  0.15294330000E+03 0.  0.
<mgrwt>
<rscale>  0 0.82758502E+03</rscale>
<asrwt>0</asrwt>
<pdfrwt beam="1">  1        1 0.16314363E+00 0.90319283E+03</pdfrwt>
<pdfrwt beam="2">  1       -1 0.20620843E+00 0.90319283E+03</pdfrwt>
<totfact> 0.18883137E+00</totfact>
</mgrwt>
</event>
<event>
 4    2  0.3396630E-007  0.1270470E+04  0.7818608E-02  0.9091490E-01
         -1   -1    0    0    0  501 -0.00000000000E+00  0.00000000000E+00  0.81428523833E+03  0.81428523834E+03  0.50400000000E-02 0.  1.
          1   -1    0    0  501    0  0.00000000000E+00 -0.00000000000E+00 -0.22107512912E+04  0.22107512912E+04  0.50400000000E-02 0. -1.
    8880023    1    1    2    0    0  0.10863627644E+04 -0.99681520895E+01 -0.14484538136E+04  0.19266842181E+04  0.65864270000E+03 0.  0.
    8880022    1    1    2    0    0 -0.10863627644E+04  0.99681520895E+01  0.51987760685E+02  0.10983523115E+04  0.15294330000E+03 0.  0.
<mgrwt>
<rscale>  0 0.12247203E+04</rscale>
<asrwt>0</asrwt>
<pdfrwt beam="1">  1        1 0.34011558E+00 0.12704698E+04</pdfrwt>
<pdfrwt beam="2">  1       -1 0.12527465E+00 0.12704698E+04</pdfrwt>
<totfact> 0.11648663E+00</totfact>
</mgrwt>
</event>
<event>
 4    2  0.3396630E-007  0.7541492E+03  0.7818608E-02  0.9820497E-01
         -1   -1    0    0    0  501 -0.00000000000E+00  0.00000000000E+00  0.28004061460E+03  0.28004061464E+03  0.50400000000E-02 0.  1.
          1   -1    0    0  501    0  0.00000000000E+00 -0.00000000000E+00 -0.12210901702E+04  0.12210901702E+04  0.50400000000E-02 0. -1.
    8880023    1    1    2    0    0 -0.29633692734E+03 -0.21706027915E+03 -0.48852886005E+03  0.89855516951E+03  0.65864270000E+03 0. -1.
    8880022    1    1    2    0    0  0.29633692734E+03  0.21706027915E+03 -0.45252069558E+03  0.60257561537E+03  0.15294330000E+03 0.  0.
<mgrwt>
<rscale>  0 0.64274059E+03</rscale>
<asrwt>0</asrwt>
<pdfrwt beam="1">  1        1 0.18786002E+00 0.75414915E+03</pdfrwt>
<pdfrwt beam="2">  1       -1 0.43083172E-01 0.75414915E+03</pdfrwt>
<totfact> 0.56112300E+01</totfact>
</mgrwt>
</event>
<event>
 4    2  0.3396630E-007  0.1327290E+04  0.7818608E-02  0.9042344E-01
         -1   -1    0    0    0  501 -0.00000000000E+00  0.00000000000E+00  0.12282543579E+04  0.12282543579E+04  0.50400000000E-02 0.  1.
          1   -1    0    0  501    0  0.00000000000E+00 -0.00000000000E+00 -0.17752878333E+04  0.17752878333E+04  0.50400000000E-02 0. -1.
    8880023    1    1    2    0    0 -0.52796224643E+03  0.10242778887E+04 -0.10928721377E+04  0.17193222626E+04  0.65864270000E+03 0.  0.
    8880022    1    1    2    0    0  0.52796224643E+03 -0.10242778887E+04  0.54583866237E+03  0.12842199287E+04  0.15294330000E+03 0.  0.
<mgrwt>
<rscale>  0 0.12840078E+04</rscale>
<asrwt>0</asrwt>
<pdfrwt beam="1">  1        1 0.27312121E+00 0.13272903E+04</pdfrwt>
<pdfrwt beam="2">  1       -1 0.18896221E+00 0.13272903E+04</pdfrwt>
<totfact> 0.73448875E-01</totfact>
</mgrwt>
</event>
<event>
 4    2  0.3396630E-007  0.8823037E+03  0.7818608E-02  0.9555059E-01
          1   -1    0    0  501    0  0.00000000000E+00  0.00000000000E+00  0.12478468346E+04  0.12478468346E+04  0.50400000000E-02 0. -1.
         -1   -1    0    0    0  501 -0.00000000000E+00 -0.00000000000E+00 -0.54065393703E+03  0.54065393705E+03  0.50400000000E-02 0.  1.
    8880023    1    1    2    0    0  0.49273782549E+03 -0.31915356276E+03  0.34959548518E+02  0.88299600089E+03  0.65864270000E+03 0.  1.
    8880022    1    1    2    0    0 -0.49273782549E+03  0.31915356276E+03  0.67223334905E+03  0.90550477077E+03  0.15294330000E+03 0.  0.
<mgrwt>
<rscale>  0 0.80343477E+03</rscale>
<asrwt>0</asrwt>
<pdfrwt beam="1">  1        1 0.19197643E+00 0.88230367E+03</pdfrwt>
<pdfrwt beam="2">  1       -1 0.83177530E-01 0.88230367E+03</pdfrwt>
<totfact> 0.14385008E+01</totfact>
</mgrwt>
</event>
<event>
 4    2  0.3396630E-007  0.7399449E+03  0.7818608E-02  0.9860108E-01
         -1   -1    0    0    0  501 -0.00000000000E+00  0.00000000000E+00  0.14652214963E+04  0.14652214963E+04  0.50400000000E-02 0.  1.
          1   -1    0    0  501    0  0.00000000000E+00 -0.00000000000E+00 -0.51789762649E+03  0.51789762651E+03  0.50400000000E-02 0. -1.
    8880023    1    1    2    0    0  0.30437007955E+03 -0.14514519798E+03  0.12844670633E+04  0.14823542481E+04  0.65864270000E+03 0.  1.
    8880022    1    1    2    0    0 -0.30437007955E+03  0.14514519798E+03 -0.33714319350E+03  0.50076487473E+03  0.15294330000E+03 0.  0.
<mgrwt>
<rscale>  0 0.62234212E+03</rscale>
<asrwt>0</asrwt>
<pdfrwt beam="1">  1        1 0.79676558E-01 0.73994492E+03</pdfrwt>
<pdfrwt beam="2">  1       -1 0.22541869E+00 0.73994492E+03</pdfrwt>
<totfact> 0.44443544E+00</totfact>
</mgrwt>
</event>
<event>
 4    2  0.3396630E-007  0.9166063E+03  0.7818608E-02  0.9499882E-01
          1   -1    0    0  501    0  0.00000000000E+00  0.00000000000E+00  0.25192679459E+04  0.25192679460E+04  0.50400000000E-02 0. -1.
         -1   -1    0    0    0  501 -0.00000000000E+00 -0.00000000000E+00 -0.39114322633E+03  0.39114322636E+03  0.50400000000E-02 0.  1.
    8880023    1    1    2    0    0  0.39602780246E+03  0.49951862943E+03  0.29392028585E+03  0.96257790446E+03  0.65864270000E+03 0.  1.
    8880022    1    1    2    0    0 -0.39602780246E+03 -0.49951862943E+03  0.18342044338E+04  0.19478332679E+04  0.15294330000E+03 0.  0.
<mgrwt>
<rscale>  0 0.84292498E+03</rscale>
<asrwt>0</asrwt>
<pdfrwt beam="1">  1        1 0.38757970E+00 0.91660629E+03</pdfrwt>
<pdfrwt beam="2">  1       -1 0.60175879E-01 0.91660629E+03</pdfrwt>
<totfact> 0.37940627E+00</totfact>
</mgrwt>
</event>
<event>
 4    2  0.3396630E-007  0.6869316E+03  0.7818608E-02  0.1005646E+00
          1   -1    0    0  501    0  0.00000000000E+00  0.00000000000E+00  0.10033001618E+04  0.10033001618E+04  0.50400000000E-02 0. -1.
         -1   -1    0    0    0  501 -0.00000000000E+00 -0.00000000000E+00 -0.49695888563E+03  0.49695888566E+03  0.50400000000E-02 0.  1.
    8880023    1    1    2    0    0 -0.19470958299E+03 -0.12369693351E+02 -0.22912473263E+03  0.72413616150E+03  0.65864270000E+03 0.  0.
    8880022    1    1    2    0    0  0.19470958299E+03  0.12369693351E+02  0.73546600875E+03  0.77612288593E+03  0.15294330000E+03 0. -1.
<mgrwt>
<rscale>  0 0.53242212E+03</rscale>
<asrwt>0</asrwt>
<pdfrwt beam="1">  1        1 0.15435387E+00 0.68693161E+03</pdfrwt>
<pdfrwt beam="2">  1       -1 0.76455214E-01 0.68693161E+03</pdfrwt>
<totfact> 0.26744723E+01</totfact>
</mgrwt>
</event>
<event>
 4    2  0.3396630E-007  0.9047263E+03  0.7818608E-02  0.9518487E-01
         -1   -1    0    0    0  501 -0.00000000000E+00  0.00000000000E+00  0.10607022699E+04  0.10607022699E+04  0.50400000000E-02 0.  1.
          1   -1    0    0  501    0  0.00000000000E+00 -0.00000000000E+00 -0.14414430465E+04  0.14414430465E+04  0.50400000000E-02 0. -1.
    8880023    1    1    2    0    0 -0.52714836845E+03 -0.32685473772E+03  0.76864304758E+03  0.11871570085E+04  0.65864270000E+03 0.  0.
    8880022    1    1    2    0    0  0.52714836845E+03  0.32685473772E+03 -0.11493838242E+04  0.13149883080E+04  0.15294330000E+03 0.  0.
<mgrwt>
<rscale>  0 0.82934494E+03</rscale>
<asrwt>0</asrwt>
<pdfrwt beam="1">  1        1 0.22176047E+00 0.90472627E+03</pdfrwt>
<pdfrwt beam="2">  1       -1 0.16318497E+00 0.90472627E+03</pdfrwt>
<totfact> 0.20252563E+00</totfact>
</mgrwt>
</event>
<event>
 4    2  0.3396630E-007  0.7556753E+03  0.7818608E-02  0.9816435E-01
          1   -1    0    0  501    0  0.00000000000E+00  0.00000000000E+00  0.18259584020E+04  0.18259584020E+04  0.50400000000E-02 0. -1.
         -1   -1    0    0    0  501 -0.00000000000E+00 -0.00000000000E+00 -0.43017295060E+03  0.43017295063E+03  0.50400000000E-02 0.  1.
    8880023    1    1    2    0    0  0.28733142336E+03 -0.23382816588E+03 -0.48538273532E+02  0.75723254570E+03  0.65864270000E+03 0.  1.
    8880022    1    1    2    0    0 -0.28733142336E+03  0.23382816588E+03  0.14443237249E+04  0.14988988069E+04  0.15294330000E+03 0.  0.
<mgrwt>
<rscale>  0 0.64487956E+03</rscale>
<asrwt>0</asrwt>
<pdfrwt beam="1">  1        1 0.28091667E+00 0.75567530E+03</pdfrwt>
<pdfrwt beam="2">  1       -1 0.66180455E-01 0.75567530E+03</pdfrwt>
<totfact> 0.94370709E+00</totfact>
</mgrwt>
</event>
<event>
 4    2  0.3396630E-007  0.6631032E+03  0.7818608E-02  0.1021181E+00
         -1   -1    0    0    0  501 -0.00000000000E+00  0.00000000000E+00  0.41983284426E+03  0.41983284429E+03  0.50400000000E-02 0.  1.
          1   -1    0    0  501    0  0.00000000000E+00 -0.00000000000E+00 -0.13177466730E+04  0.13177466730E+04  0.50400000000E-02 0. -1.
    8880023    1    1    2    0    0  0.73427657197E+02 -0.22451948697E+02  0.14661970659E+03  0.67911947069E+03  0.65864270000E+03 0.  1.
    8880022    1    1    2    0    0 -0.73427657197E+02  0.22451948697E+02 -0.10445335353E+04  0.10584600466E+04  0.15294330000E+03 0.  0.
<mgrwt>
<rscale>  0 0.47262958E+03</rscale>
<asrwt>0</asrwt>
<pdfrwt beam="1">  1        1 0.20273026E+00 0.66310325E+03</pdfrwt>
<pdfrwt beam="2">  1       -1 0.64589669E-01 0.66310325E+03</pdfrwt>
<totfact> 0.22292507E+01</totfact>
</mgrwt>
</event>
<event>
 4    2  0.3396630E-007  0.7103292E+03  0.7818608E-02  0.9956781E-01
          1   -1    0    0  501    0  0.00000000000E+00  0.00000000000E+00  0.46190739899E+04  0.46190739899E+04  0.50400000000E-02 0. -1.
         -1   -1    0    0    0  501 -0.00000000000E+00 -0.00000000000E+00 -0.86126515454E+02  0.86126515601E+02  0.50400000000E-02 0.  1.
    8880023    1    1    2    0    0  0.21005150449E+03  0.16320447439E+03  0.15326663111E+04  0.16892701272E+04  0.65864270000E+03 0.  1.
    8880022    1    1    2    0    0 -0.21005150449E+03 -0.16320447439E+03  0.30002811633E+04  0.30159303784E+04  0.15294330000E+03 0.  0.
<mgrwt>
<rscale>  0 0.57586634E+03</rscale>
<asrwt>0</asrwt>
<pdfrwt beam="1">  1        1 0.71062689E+00 0.71032918E+03</pdfrwt>
<pdfrwt beam="2">  1       -1 0.13250231E-01 0.71032918E+03</pdfrwt>
<totfact> 0.11090015E+00</totfact>
</mgrwt>
</event>
<event>
 4    2  0.3396630E-007  0.7294383E+03  0.7818608E-02  0.9891855E-01
         -1   -1    0    0    0  501 -0.00000000000E+00  0.00000000000E+00  0.45701091708E+03  0.45701091711E+03  0.50400000000E-02 0.  1.
          1   -1    0    0  501    0  0.00000000000E+00 -0.00000000000E+00 -0.10355332593E+04  0.10355332593E+04  0.50400000000E-02 0. -1.
    8880023    1    1    2    0    0 -0.31233714263E+03  0.26749043723E+02 -0.79743923763E+03  0.10807356504E+04  0.65864270000E+03 0. -1.
    8880022    1    1    2    0    0  0.31233714263E+03 -0.26749043723E+02  0.21891689541E+03  0.41180852604E+03  0.15294330000E+03 0.  0.
<mgrwt>
<rscale>  0 0.60657657E+03</rscale>
<asrwt>0</asrwt>
<pdfrwt beam="1">  1        1 0.15931281E+00 0.72943828E+03</pdfrwt>
<pdfrwt beam="2">  1       -1 0.70309372E-01 0.72943828E+03</pdfrwt>
<totfact> 0.29894507E+01</totfact>
</mgrwt>
</event>
<event>
 4    2  0.3396630E-007  0.6675613E+03  0.7818608E-02  0.1017475E+00
         -1   -1    0    0    0  501 -0.00000000000E+00  0.00000000000E+00  0.57167265968E+03  0.57167265970E+03  0.50400000000E-02 0.  1.
          1   -1    0    0  501    0  0.00000000000E+00 -0.00000000000E+00 -0.11474395293E+04  0.11474395293E+04  0.50400000000E-02 0. -1.
    8880023    1    1    2    0    0  0.50347758657E+02 -0.96399907972E+02  0.36430065817E+03  0.76049524316E+03  0.65864270000E+03 0.  1.
    8880022    1    1    2    0    0 -0.50347758657E+02  0.96399907972E+02 -0.94006752777E+03  0.95861694583E+03  0.15294330000E+03 0.  0.
<mgrwt>
<rscale>  0 0.48608949E+03</rscale>
<asrwt>0</asrwt>
<pdfrwt beam="1">  1        1 0.17652916E+00 0.66756127E+03</pdfrwt>
<pdfrwt beam="2">  1       -1 0.87949640E-01 0.66756127E+03</pdfrwt>
<totfact> 0.15498732E+01</totfact>
</mgrwt>
</event>
<event>
 4    2  0.3396630E-007  0.7020771E+03  0.7818608E-02  0.9988691E-01
          1   -1    0    0  501    0  0.00000000000E+00  0.00000000000E+00  0.12863315902E+04  0.12863315902E+04  0.50400000000E-02 0. -1.
         -1   -1    0    0    0  501 -0.00000000000E+00 -0.00000000000E+00 -0.41075951879E+03  0.41075951882E+03  0.50400000000E-02 0.  1.
    8880023    1    1    2    0    0 -0.29723342491E+02 -0.24128533105E+03 -0.73119977134E+02  0.70587451108E+03  0.65864270000E+03 0.  1.
    8880022    1    1    2    0    0  0.29723342491E+02  0.24128533105E+03  0.94869204857E+03  0.99121659797E+03  0.15294330000E+03 0.  0.
<mgrwt>
<rscale>  0 0.56148899E+03</rscale>
<asrwt>0</asrwt>
<pdfrwt beam="1">  1        1 0.19789716E+00 0.70207713E+03</pdfrwt>
<pdfrwt beam="2">  1       -1 0.63193774E-01 0.70207713E+03</pdfrwt>
<totfact> 0.24373720E+01</totfact>
</mgrwt>
</event>
<event>
 4    2  0.3396630E-007  0.8326543E+03  0.7818608E-02  0.9644190E-01
         -1   -1    0    0    0  501 -0.00000000000E+00  0.00000000000E+00  0.51409109723E+03  0.51409109726E+03  0.50400000000E-02 0.  1.
          1   -1    0    0  501    0  0.00000000000E+00 -0.00000000000E+00 -0.13923128894E+04  0.13923128894E+04  0.50400000000E-02 0. -1.
    8880023    1    1    2    0    0  0.46219824072E+03  0.21418609538E+03  0.52626623480E+02  0.83431568662E+03  0.65864270000E+03 0.  1.
    8880022    1    1    2    0    0 -0.46219824072E+03 -0.21418609538E+03 -0.93084841565E+03  0.10720883001E+04  0.15294330000E+03 0.  0.
<mgrwt>
<rscale>  0 0.74439183E+03</rscale>
<asrwt>0</asrwt>
<pdfrwt beam="1">  1        1 0.21420198E+00 0.83265425E+03</pdfrwt>
<pdfrwt beam="2">  1       -1 0.79090939E-01 0.83265425E+03</pdfrwt>
<totfact> 0.12736707E+01</totfact>
</mgrwt>
</event>
<event>
 4    2  0.3396630E-007  0.7954979E+03  0.7818608E-02  0.9720616E-01
          1   -1    0    0  501    0  0.00000000000E+00  0.00000000000E+00  0.81454857573E+03  0.81454857574E+03  0.50400000000E-02 0. -1.
         -1   -1    0    0    0  501 -0.00000000000E+00 -0.00000000000E+00 -0.54674744161E+03  0.54674744163E+03  0.50400000000E-02 0.  1.
    8880023    1    1    2    0    0 -0.35112490421E+03 -0.27516909752E+03 -0.42734596337E+02  0.79664495390E+03  0.65864270000E+03 0.  0.
    8880022    1    1    2    0    0  0.35112490421E+03  0.27516909752E+03  0.31053573045E+03  0.56465106348E+03  0.15294330000E+03 0.  0.
<mgrwt>
<rscale>  0 0.69802462E+03</rscale>
<asrwt>0</asrwt>
<pdfrwt beam="1">  1        1 0.12531517E+00 0.79549792E+03</pdfrwt>
<pdfrwt beam="2">  1       -1 0.84114991E-01 0.79549792E+03</pdfrwt>
<totfact> 0.30700542E+01</totfact>
</mgrwt>
</event>
<event>
 4    2  0.3396630E-007  0.1285700E+04  0.7818608E-02  0.9078009E-01
          1   -1    0    0  501    0  0.00000000000E+00  0.00000000000E+00  0.23732329347E+04  0.23732329347E+04  0.50400000000E-02 0. -1.
         -1   -1    0    0    0  501 -0.00000000000E+00 -0.00000000000E+00 -0.85017980203E+03  0.85017980204E+03  0.50400000000E-02 0.  1.
    8880023    1    1    2    0    0  0.48489202348E+03  0.99201467958E+03 -0.60193886496E+02  0.12871079633E+04  0.65864270000E+03 0.  0.
    8880022    1    1    2    0    0 -0.48489202348E+03 -0.99201467958E+03  0.15832470192E+04  0.19363047734E+04  0.15294330000E+03 0.  0.
<mgrwt>
<rscale>  0 0.12406414E+04</rscale>
<asrwt>0</asrwt>
<pdfrwt beam="1">  1        1 0.36511276E+00 0.12856997E+04</pdfrwt>
<pdfrwt beam="2">  1       -1 0.13079689E+00 0.12856997E+04</pdfrwt>
<totfact> 0.80768259E-01</totfact>
</mgrwt>
</event>
<event>
 4    2  0.3396630E-007  0.1104375E+04  0.7818608E-02  0.9256201E-01
         -1   -1    0    0    0  501 -0.00000000000E+00  0.00000000000E+00  0.88193780545E+03  0.88193780547E+03  0.50400000000E-02 0.  1.
          1   -1    0    0  501    0  0.00000000000E+00 -0.00000000000E+00 -0.11444456935E+04  0.11444456935E+04  0.50400000000E-02 0. -1.
    8880023    1    1    2    0    0 -0.36171811694E+03  0.80931690741E+03 -0.71000279137E+02  0.11066549140E+04  0.65864270000E+03 0. -1.
    8880022    1    1    2    0    0  0.36171811694E+03 -0.80931690741E+03 -0.19150760889E+03  0.91972858498E+03  0.15294330000E+03 0.  1.
<mgrwt>
<rscale>  0 0.10491706E+04</rscale>
<asrwt>0</asrwt>
<pdfrwt beam="1">  1        1 0.17606857E+00 0.11043750E+04</pdfrwt>
<pdfrwt beam="2">  1       -1 0.13568274E+00 0.11043750E+04</pdfrwt>
<totfact> 0.52951762E+00</totfact>
</mgrwt>
</event>
<event>
 4    2  0.3396630E-007  0.1042186E+04  0.7818608E-02  0.9328335E-01
         -1   -1    0    0    0  501 -0.00000000000E+00  0.00000000000E+00  0.74156453793E+03  0.74156453795E+03  0.50400000000E-02 0.  1.
          1   -1    0    0  501    0  0.00000000000E+00 -0.00000000000E+00 -0.17913139698E+04  0.17913139698E+04  0.50400000000E-02 0. -1.
    8880023    1    1    2    0    0 -0.22083479138E+03  0.77689958532E+03  0.17606563770E+03  0.10569533035E+04  0.65864270000E+03 0.  0.
    8880022    1    1    2    0    0  0.22083479138E+03 -0.77689958532E+03 -0.12258150696E+04  0.14759252043E+04  0.15294330000E+03 0.  0.
<mgrwt>
<rscale>  0 0.98215654E+03</rscale>
<asrwt>0</asrwt>
<pdfrwt beam="1">  1        1 0.27558676E+00 0.10421858E+04</pdfrwt>
<pdfrwt beam="2">  1       -1 0.11408685E+00 0.10421858E+04</pdfrwt>
<totfact> 0.28974943E+00</totfact>
</mgrwt>
</event>
<event>
 4    2  0.3396630E-007  0.7095462E+03  0.7818608E-02  0.9959690E-01
          1   -1    0    0  501    0  0.00000000000E+00  0.00000000000E+00  0.25196396702E+04  0.25196396703E+04  0.50400000000E-02 0. -1.
         -1   -1    0    0    0  501 -0.00000000000E+00 -0.00000000000E+00 -0.53729430789E+03  0.53729430792E+03  0.50400000000E-02 0.  1.
    8880023    1    1    2    0    0  0.93640325186E+02 -0.24673289174E+03 -0.28830942107E+03  0.76588390694E+03  0.65864270000E+03 0.  0.
    8880022    1    1    2    0    0 -0.93640325186E+02  0.24673289174E+03  0.22706547834E+04  0.22910500712E+04  0.15294330000E+03 0. -1.
<mgrwt>
<rscale>  0 0.57453653E+03</rscale>
<asrwt>0</asrwt>
<pdfrwt beam="1">  1        1 0.38763687E+00 0.70954622E+03</pdfrwt>
<pdfrwt beam="2">  1       -1 0.82660664E-01 0.70954622E+03</pdfrwt>
<totfact> 0.20493157E+00</totfact>
</mgrwt>
</event>
<event>
 4    2  0.3396630E-007  0.7038684E+03  0.7818608E-02  0.9981517E-01
          1   -1    0    0  501    0  0.00000000000E+00  0.00000000000E+00  0.17312305330E+04  0.17312305330E+04  0.50400000000E-02 0. -1.
         -1   -1    0    0    0  501 -0.00000000000E+00 -0.00000000000E+00 -0.16767050593E+03  0.16767050601E+03  0.50400000000E-02 0.  1.
    8880023    1    1    2    0    0  0.39279190472E+02 -0.24510734183E+03  0.72225919032E+03  0.10085083084E+04  0.65864270000E+03 0.  1.
    8880022    1    1    2    0    0 -0.39279190472E+02  0.24510734183E+03  0.84130083676E+03  0.89039273064E+03  0.15294330000E+03 0.  0.
<mgrwt>
<rscale>  0 0.56468167E+03</rscale>
<asrwt>0</asrwt>
<pdfrwt beam="1">  1        1 0.26634314E+00 0.70386836E+03</pdfrwt>
<pdfrwt beam="2">  1       -1 0.25795464E-01 0.70386836E+03</pdfrwt>
<totfact> 0.62255321E+01</totfact>
</mgrwt>
</event>
<event>
 4    2  0.3396630E-007  0.7217742E+03  0.7818608E-02  0.9916628E-01
          1   -1    0    0  501    0  0.00000000000E+00  0.00000000000E+00  0.25480861979E+04  0.25480861979E+04  0.50400000000E-02 0. -1.
         -1   -1    0    0    0  501 -0.00000000000E+00 -0.00000000000E+00 -0.11538851045E+03  0.11538851056E+03  0.50400000000E-02 0.  1.
    8880023    1    1    2    0    0  0.53864714319E+02 -0.29025239022E+03  0.13494209737E+04  0.15303251380E+04  0.65864270000E+03 0.  1.
    8880022    1    1    2    0    0 -0.53864714319E+02  0.29025239022E+03  0.10832767138E+04  0.11331495705E+04  0.15294330000E+03 0.  0.
<mgrwt>
<rscale>  0 0.59462167E+03</rscale>
<asrwt>0</asrwt>
<pdfrwt beam="1">  1        1 0.39201320E+00 0.72177425E+03</pdfrwt>
<pdfrwt beam="2">  1       -1 0.17752081E-01 0.72177425E+03</pdfrwt>
<totfact> 0.32839046E+01</totfact>
</mgrwt>
</event>
<event>
 4    2  0.3396630E-007  0.8198233E+03  0.7818608E-02  0.9669467E-01
          1   -1    0    0  501    0  0.00000000000E+00  0.00000000000E+00  0.54565394172E+03  0.54565394174E+03  0.50400000000E-02 0. -1.
         -1   -1    0    0    0  501 -0.00000000000E+00 -0.00000000000E+00 -0.11208944205E+04  0.11208944206E+04  0.50400000000E-02 0.  1.
    8880023    1    1    2    0    0  0.46284425300E+03  0.15516189459E+03 -0.76463048244E+03  0.11210575351E+04  0.65864270000E+03 0.  0.
    8880022    1    1    2    0    0 -0.46284425300E+03 -0.15516189459E+03  0.18939000362E+03  0.54549082719E+03  0.15294330000E+03 0.  0.
<mgrwt>
<rscale>  0 0.72864154E+03</rscale>
<asrwt>0</asrwt>
<pdfrwt beam="1">  1        1 0.83946760E-01 0.81982329E+03</pdfrwt>
<pdfrwt beam="2">  1       -1 0.17244530E+00 0.81982329E+03</pdfrwt>
<totfact> 0.94683018E+00</totfact>
</mgrwt>
</event>
<event>
 4    2  0.3396630E-007  0.6897558E+03  0.7818608E-02  0.1004269E+00
         -1   -1    0    0    0  501 -0.00000000000E+00  0.00000000000E+00  0.94035663835E+03  0.94035663837E+03  0.50400000000E-02 0.  1.
          1   -1    0    0  501    0  0.00000000000E+00 -0.00000000000E+00 -0.18732168072E+04  0.18732168072E+04  0.50400000000E-02 0. -1.
    8880023    1    1    2    0    0  0.29290099577E+01 -0.20480293669E+03  0.80324116873E+03  0.10587537029E+04  0.65864270000E+03 0.  1.
    8880022    1    1    2    0    0 -0.29290099577E+01  0.20480293669E+03 -0.17361013376E+04  0.17548197427E+04  0.15294330000E+03 0.  0.
<mgrwt>
<rscale>  0 0.53817388E+03</rscale>
<asrwt>0</asrwt>
<pdfrwt beam="1">  1        1 0.28818720E+00 0.68975577E+03</pdfrwt>
<pdfrwt beam="2">  1       -1 0.14467025E+00 0.68975577E+03</pdfrwt>
<totfact> 0.14912957E+00</totfact>
</mgrwt>
</event>
<event>
 4    2  0.3396630E-007  0.8203733E+03  0.7818608E-02  0.9668362E-01
          1   -1    0    0  501    0  0.00000000000E+00  0.00000000000E+00  0.22160938974E+04  0.22160938974E+04  0.50400000000E-02 0. -1.
         -1   -1    0    0    0  501 -0.00000000000E+00 -0.00000000000E+00 -0.32943372635E+03  0.32943372639E+03  0.50400000000E-02 0.  1.
    8880023    1    1    2    0    0 -0.41306122133E+03  0.26188275201E+03  0.29238298711E+03  0.87091914997E+03  0.65864270000E+03 0.  0.
    8880022    1    1    2    0    0  0.41306122133E+03 -0.26188275201E+03  0.15942771839E+04  0.16746084738E+04  0.15294330000E+03 0.  0.
<mgrwt>
<rscale>  0 0.72932180E+03</rscale>
<asrwt>0</asrwt>
<pdfrwt beam="1">  1        1 0.34093752E+00 0.82037330E+03</pdfrwt>
<pdfrwt beam="2">  1       -1 0.50682113E-01 0.82037330E+03</pdfrwt>
<totfact> 0.86296922E+00</totfact>
</mgrwt>
</event>
<event>
 4    2  0.3396630E-007  0.7113810E+03  0.7818608E-02  0.9952908E-01
          1   -1    0    0  501    0  0.00000000000E+00  0.00000000000E+00  0.64164243156E+03  0.64164243158E+03  0.50400000000E-02 0. -1.
         -1   -1    0    0    0  501 -0.00000000000E+00 -0.00000000000E+00 -0.79291476474E+03  0.79291476476E+03  0.50400000000E-02 0.  1.
    8880023    1    1    2    0    0  0.15151778949E+03 -0.22202507056E+03 -0.57169881561E+03  0.91263492949E+03  0.65864270000E+03 0.  1.
    8880022    1    1    2    0    0 -0.15151778949E+03  0.22202507056E+03  0.42042648243E+03  0.52192226684E+03  0.15294330000E+03 0.  0.
<mgrwt>
<rscale>  0 0.57764254E+03</rscale>
<asrwt>0</asrwt>
<pdfrwt beam="1">  1        1 0.98714220E-01 0.71138104E+03</pdfrwt>
<pdfrwt beam="2">  1       -1 0.12198689E+00 0.71138104E+03</pdfrwt>
<totfact> 0.19038926E+01</totfact>
</mgrwt>
</event>
<event>
 4    2  0.3396630E-007  0.9301150E+03  0.7818608E-02  0.9479321E-01
         -1   -1    0    0    0  501 -0.00000000000E+00  0.00000000000E+00  0.54258751506E+03  0.54258751508E+03  0.50400000000E-02 0.  1.
          1   -1    0    0  501    0  0.00000000000E+00 -0.00000000000E+00 -0.13611965633E+04  0.13611965633E+04  0.50400000000E-02 0. -1.
    8880023    1    1    2    0    0  0.31781349748E+03 -0.57471590755E+03 -0.12853608229E+03  0.93895448467E+03  0.65864270000E+03 0.  1.
    8880022    1    1    2    0    0 -0.31781349748E+03  0.57471590755E+03 -0.69007296599E+03  0.96482959376E+03  0.15294330000E+03 0. -1.
<mgrwt>
<rscale>  0 0.85825744E+03</rscale>
<asrwt>0</asrwt>
<pdfrwt beam="1">  1        1 0.20941486E+00 0.93011505E+03</pdfrwt>
<pdfrwt beam="2">  1       -1 0.83475002E-01 0.93011505E+03</pdfrwt>
<totfact> 0.11794957E+01</totfact>
</mgrwt>
</event>
<event>
 4    2  0.3396630E-007  0.7991350E+03  0.7818608E-02  0.9712669E-01
         -1   -1    0    0    0  501 -0.00000000000E+00  0.00000000000E+00  0.31086269822E+03  0.31086269826E+03  0.50400000000E-02 0.  1.
          1   -1    0    0  501    0  0.00000000000E+00 -0.00000000000E+00 -0.34324467368E+04  0.34324467368E+04  0.50400000000E-02 0. -1.
    8880023    1    1    2    0    0 -0.45234320694E+03 -0.13862531805E+02 -0.25740608115E+03  0.83956812918E+03  0.65864270000E+03 0.  0.
    8880022    1    1    2    0    0  0.45234320694E+03  0.13862531805E+02 -0.28641779574E+04  0.29037413059E+04  0.15294330000E+03 0.  0.
<mgrwt>
<rscale>  0 0.70267442E+03</rscale>
<asrwt>0</asrwt>
<pdfrwt beam="1">  1        1 0.52806870E+00 0.79913500E+03</pdfrwt>
<pdfrwt beam="2">  1       -1 0.47825033E-01 0.79913500E+03</pdfrwt>
<totfact> 0.13271112E+00</totfact>
</mgrwt>
</event>
<event>
 4    2  0.3396630E-007  0.6729833E+03  0.7818608E-02  0.1013609E+00
          1   -1    0    0  501    0  0.00000000000E+00  0.00000000000E+00  0.95988200294E+03  0.95988200295E+03  0.50400000000E-02 0. -1.
         -1   -1    0    0    0  501 -0.00000000000E+00 -0.00000000000E+00 -0.51775411051E+03  0.51775411054E+03  0.50400000000E-02 0.  1.
    8880023    1    1    2    0    0  0.13200476568E+03 -0.40878616526E+02 -0.27833257847E+03  0.72826887202E+03  0.65864270000E+03 0.  1.
    8880022    1    1    2    0    0 -0.13200476568E+03  0.40878616526E+02  0.72046047089E+03  0.74936724147E+03  0.15294330000E+03 0.  0.
<mgrwt>
<rscale>  0 0.50065259E+03</rscale>
<asrwt>0</asrwt>
<pdfrwt beam="1">  1        1 0.14767415E+00 0.67298330E+03</pdfrwt>
<pdfrwt beam="2">  1       -1 0.79654479E-01 0.67298330E+03</pdfrwt>
<totfact> 0.26569927E+01</totfact>
</mgrwt>
</event>
<event>
 4    2  0.3396630E-007  0.7518669E+03  0.7818608E-02  0.9826637E-01
          1   -1    0    0  501    0  0.00000000000E+00  0.00000000000E+00  0.12936728799E+04  0.12936728799E+04  0.50400000000E-02 0. -1.
         -1   -1    0    0    0  501 -0.00000000000E+00 -0.00000000000E+00 -0.31401963937E+03  0.31401963941E+03  0.50400000000E-02 0.  1.
    8880023    1    1    2    0    0  0.35987654952E+03 -0.44525698938E+02  0.27498998094E+03  0.80057689490E+03  0.65864270000E+03 0.  1.
    8880022    1    1    2    0    0 -0.35987654952E+03  0.44525698938E+02  0.70466325957E+03  0.80711562441E+03  0.15294330000E+03 0.  0.
<mgrwt>
<rscale>  0 0.63952425E+03</rscale>
<asrwt>0</asrwt>
<pdfrwt beam="1">  1        1 0.19902660E+00 0.75186693E+03</pdfrwt>
<pdfrwt beam="2">  1       -1 0.48310714E-01 0.75186693E+03</pdfrwt>
<totfact> 0.40246629E+01</totfact>
</mgrwt>
</event>
<event>
 4    2  0.3396630E-007  0.7144077E+03  0.7818608E-02  0.9941984E-01
          1   -1    0    0  501    0  0.00000000000E+00  0.00000000000E+00  0.64222424372E+03  0.64222424374E+03  0.50400000000E-02 0. -1.
         -1   -1    0    0    0  501 -0.00000000000E+00 -0.00000000000E+00 -0.13810441886E+04  0.13810441886E+04  0.50400000000E-02 0.  1.
    8880023    1    1    2    0    0  0.26096667615E+03  0.92002925480E+02 -0.12397785100E+04  0.14308840290E+04  0.65864270000E+03 0.  1.
    8880022    1    1    2    0    0 -0.26096667615E+03 -0.92002925480E+02  0.50095856512E+03  0.59238440335E+03  0.15294330000E+03 0.  0.
<mgrwt>
<rscale>  0 0.58269027E+03</rscale>
<asrwt>0</asrwt>
<pdfrwt beam="1">  1        1 0.98803730E-01 0.71440769E+03</pdfrwt>
<pdfrwt beam="2">  1       -1 0.21246834E+00 0.71440769E+03</pdfrwt>
<totfact> 0.40045500E+00</totfact>
</mgrwt>
</event>
<event>
 4    2  0.3396630E-007  0.6817238E+03  0.7818608E-02  0.1008365E+00
          1   -1    0    0  501    0  0.00000000000E+00  0.00000000000E+00  0.18717951880E+04  0.18717951880E+04  0.50400000000E-02 0. -1.
         -1   -1    0    0    0  501 -0.00000000000E+00 -0.00000000000E+00 -0.14960787731E+03  0.14960787739E+03  0.50400000000E-02 0.  1.
    8880023    1    1    2    0    0  0.11233060689E+03  0.13534746920E+03  0.71626368439E+03  0.98882808137E+03  0.65864270000E+03 0.  1.
    8880022    1    1    2    0    0 -0.11233060689E+03 -0.13534746920E+03  0.10059236263E+04  0.10325749840E+04  0.15294330000E+03 0. -1.
<mgrwt>
<rscale>  0 0.52129679E+03</rscale>
<asrwt>0</asrwt>
<pdfrwt beam="1">  1        1 0.28796848E+00 0.68172378E+03</pdfrwt>
<pdfrwt beam="2">  1       -1 0.23016598E-01 0.68172378E+03</pdfrwt>
<totfact> 0.61005826E+01</totfact>
</mgrwt>
</event>
<event>
 4    2  0.3396630E-007  0.6726075E+03  0.7818608E-02  0.1013859E+00
          1   -1    0    0  501    0  0.00000000000E+00  0.00000000000E+00  0.47966417818E+03  0.47966417821E+03  0.50400000000E-02 0. -1.
         -1   -1    0    0    0  501 -0.00000000000E+00 -0.00000000000E+00 -0.64358760465E+03  0.64358760467E+03  0.50400000000E-02 0.  1.
    8880023    1    1    2    0    0  0.11299028509E+03 -0.76313794357E+02 -0.42176985705E+03  0.79390844454E+03  0.65864270000E+03 0.  1.
    8880022    1    1    2    0    0 -0.11299028509E+03  0.76313794357E+02  0.25784643057E+03  0.32934333834E+03  0.15294330000E+03 0.  0.
<mgrwt>
<rscale>  0 0.49969440E+03</rscale>
<asrwt>0</asrwt>
<pdfrwt beam="1">  1        1 0.73794489E-01 0.67260747E+03</pdfrwt>
<pdfrwt beam="2">  1       -1 0.99013478E-01 0.67260747E+03</pdfrwt>
<totfact> 0.47069986E+01</totfact>
</mgrwt>
</event>
<event>
 4    2  0.3396630E-007  0.8321134E+03  0.7818608E-02  0.9645234E-01
          1   -1    0    0  501    0  0.00000000000E+00  0.00000000000E+00  0.18400132240E+04  0.18400132240E+04  0.50400000000E-02 0. -1.
         -1   -1    0    0    0  501 -0.00000000000E+00 -0.00000000000E+00 -0.87496875652E+03  0.87496875654E+03  0.50400000000E-02 0.  1.
    8880023    1    1    2    0    0 -0.46042205821E+03  0.21590269090E+03 -0.62365384217E+03  0.10398830534E+04  0.65864270000E+03 0.  0.
    8880022    1    1    2    0    0  0.46042205821E+03 -0.21590269090E+03  0.15886983096E+04  0.16750989271E+04  0.15294330000E+03 0.  0.
<mgrwt>
<rscale>  0 0.74373270E+03</rscale>
<asrwt>0</asrwt>
<pdfrwt beam="1">  1        1 0.28307895E+00 0.83211336E+03</pdfrwt>
<pdfrwt beam="2">  1       -1 0.13461058E+00 0.83211336E+03</pdfrwt>
<totfact> 0.18403541E+00</totfact>
</mgrwt>
</event>
<event>
 4    2  0.3396630E-007  0.1434308E+04  0.7818608E-02  0.8957473E-01
          1   -1    0    0  501    0  0.00000000000E+00  0.00000000000E+00  0.12835164383E+04  0.12835164383E+04  0.50400000000E-02 0. -1.
         -1   -1    0    0    0  501 -0.00000000000E+00 -0.00000000000E+00 -0.16262789655E+04  0.16262789655E+04  0.50400000000E-02 0.  1.
    8880023    1    1    2    0    0  0.37708821484E+03 -0.12170590512E+04  0.31390736161E+03  0.14682562085E+04  0.65864270000E+03 0.  0.
    8880022    1    1    2    0    0 -0.37708821484E+03  0.12170590512E+04 -0.65666988888E+03  0.14415391954E+04  0.15294330000E+03 0.  0.
<mgrwt>
<rscale>  0 0.13949624E+04</rscale>
<asrwt>0</asrwt>
<pdfrwt beam="1">  1        1 0.19746407E+00 0.14343077E+04</pdfrwt>
<pdfrwt beam="2">  1       -1 0.25019676E+00 0.14343077E+04</pdfrwt>
<totfact> 0.61667246E-01</totfact>
</mgrwt>
</event>
<event>
 4    2  0.3396630E-007  0.8508622E+03  0.7818608E-02  0.9610029E-01
          1   -1    0    0  501    0  0.00000000000E+00  0.00000000000E+00  0.14879566653E+04  0.14879566654E+04  0.50400000000E-02 0. -1.
         -1   -1    0    0    0  501 -0.00000000000E+00 -0.00000000000E+00 -0.61532563893E+03  0.61532563895E+03  0.50400000000E-02 0.  1.
    8880023    1    1    2    0    0  0.47291431560E+03  0.25789210288E+03 -0.21708391741E+03  0.87811839753E+03  0.65864270000E+03 0.  0.
    8880022    1    1    2    0    0 -0.47291431560E+03 -0.25789210288E+03  0.10897149438E+04  0.12251639068E+04  0.15294330000E+03 0.  0.
<mgrwt>
<rscale>  0 0.76635928E+03</rscale>
<asrwt>0</asrwt>
<pdfrwt beam="1">  1        1 0.22891641E+00 0.85086221E+03</pdfrwt>
<pdfrwt beam="2">  1       -1 0.94665483E-01 0.85086221E+03</pdfrwt>
<totfact> 0.73741187E+00</totfact>
</mgrwt>
</event>
<event>
 4    2  0.3396630E-007  0.1000955E+04  0.7818608E-02  0.9380309E-01
          1   -1    0    0  501    0  0.00000000000E+00  0.00000000000E+00  0.21189019061E+04  0.21189019061E+04  0.50400000000E-02 0. -1.
         -1   -1    0    0    0  501 -0.00000000000E+00 -0.00000000000E+00 -0.84982375594E+03  0.84982375595E+03  0.50400000000E-02 0.  1.
    8880023    1    1    2    0    0  0.71477522584E+03 -0.23915914542E+03 -0.44089816099E+03  0.10937559668E+04  0.65864270000E+03 0.  1.
    8880022    1    1    2    0    0 -0.71477522584E+03  0.23915914542E+03  0.17099763111E+04  0.18749696952E+04  0.15294330000E+03 0.  0.
<mgrwt>
<rscale>  0 0.93714018E+03</rscale>
<asrwt>0</asrwt>
<pdfrwt beam="1">  1        1 0.32598490E+00 0.10009550E+04</pdfrwt>
<pdfrwt beam="2">  1       -1 0.13074212E+00 0.10009550E+04</pdfrwt>
<totfact> 0.12521141E+00</totfact>
</mgrwt>
</event>
<event>
 4    2  0.3396630E-007  0.1012221E+04  0.7818608E-02  0.9365741E-01
         -1   -1    0    0    0  501 -0.00000000000E+00  0.00000000000E+00  0.99403636972E+03  0.99403636973E+03  0.50400000000E-02 0.  1.
          1   -1    0    0  501    0  0.00000000000E+00 -0.00000000000E+00 -0.22507378857E+04  0.22507378857E+04  0.50400000000E-02 0. -1.
    8880023    1    1    2    0    0 -0.20036115307E+03  0.74204826271E+03  0.63654691928E+03  0.11957350888E+04  0.65864270000E+03 0.  0.
    8880022    1    1    2    0    0  0.20036115307E+03 -0.74204826271E+03 -0.18932484352E+04  0.20490391666E+04  0.15294330000E+03 0.  0.
<mgrwt>
<rscale>  0 0.94949482E+03</rscale>
<asrwt>0</asrwt>
<pdfrwt beam="1">  1        1 0.34626737E+00 0.10122205E+04</pdfrwt>
<pdfrwt beam="2">  1       -1 0.15292867E+00 0.10122205E+04</pdfrwt>
<totfact> 0.67430677E-01</totfact>
</mgrwt>
</event>
<event>
 4    2  0.3396630E-007  0.9944909E+03  0.7818608E-02  0.9388801E-01
          1   -1    0    0  501    0  0.00000000000E+00  0.00000000000E+00  0.14912983900E+04  0.14912983900E+04  0.50400000000E-02 0. -1.
         -1   -1    0    0    0  501 -0.00000000000E+00 -0.00000000000E+00 -0.81637327044E+03  0.81637327046E+03  0.50400000000E-02 0.  1.
    8880023    1    1    2    0    0 -0.99339838624E+02  0.73846705549E+03  0.10613694827E+04  0.14544818255E+04  0.65864270000E+03 0.  0.
    8880022    1    1    2    0    0  0.99339838624E+02 -0.73846705549E+03 -0.38644436320E+03  0.85318983494E+03  0.15294330000E+03 0.  0.
<mgrwt>
<rscale>  0 0.93003079E+03</rscale>
<asrwt>0</asrwt>
<pdfrwt beam="1">  1        1 0.22943052E+00 0.99449093E+03</pdfrwt>
<pdfrwt beam="2">  1       -1 0.12559589E+00 0.99449093E+03</pdfrwt>
<totfact> 0.36906528E+00</totfact>
</mgrwt>
</event>
<event>
 4    2  0.3396630E-007  0.7158452E+03  0.7818608E-02  0.9936903E-01
         -1   -1    0    0    0  501 -0.00000000000E+00  0.00000000000E+00  0.26879980316E+03  0.26879980321E+03  0.50400000000E-02 0.  1.
          1   -1    0    0  501    0  0.00000000000E+00 -0.00000000000E+00 -0.15262086208E+04  0.15262086208E+04  0.50400000000E-02 0. -1.
    8880023    1    1    2    0    0  0.25033549757E+03 -0.12631836648E+03 -0.28328856524E+03  0.76986155152E+03  0.65864270000E+03 0.  0.
    8880022    1    1    2    0    0 -0.25033549757E+03  0.12631836648E+03 -0.97412025241E+03  0.10251468725E+04  0.15294330000E+03 0.  0.
<mgrwt>
<rscale>  0 0.58505650E+03</rscale>
<asrwt>0</asrwt>
<pdfrwt beam="1">  1        1 0.23480132E+00 0.71584523E+03</pdfrwt>
<pdfrwt beam="2">  1       -1 0.41353817E-01 0.71584523E+03</pdfrwt>
<totfact> 0.37195030E+01</totfact>
</mgrwt>
</event>
<event>
 4    2  0.3396630E-007  0.1223110E+04  0.7818608E-02  0.9134979E-01
          1   -1    0    0  501    0  0.00000000000E+00  0.00000000000E+00  0.80299222786E+03  0.80299222788E+03  0.50400000000E-02 0. -1.
         -1   -1    0    0    0  501 -0.00000000000E+00 -0.00000000000E+00 -0.20293332911E+04  0.20293332912E+04  0.50400000000E-02 0.  1.
    8880023    1    1    2    0    0 -0.10262441801E+04 -0.94926548588E+02 -0.13035915916E+04  0.17875540302E+04  0.65864270000E+03 0.  0.
    8880022    1    1    2    0    0  0.10262441801E+04  0.94926548588E+02  0.77250528332E+02  0.10447714889E+04  0.15294330000E+03 0.  0.
<mgrwt>
<rscale>  0 0.11750515E+04</rscale>
<asrwt>0</asrwt>
<pdfrwt beam="1">  1        1 0.12353727E+00 0.12231101E+04</pdfrwt>
<pdfrwt beam="2">  1       -1 0.31220512E+00 0.12231101E+04</pdfrwt>
<totfact> 0.59555761E-01</totfact>
</mgrwt>
</event>
<event>
 4    2  0.3396630E-007  0.1184452E+04  0.7818608E-02  0.9172386E-01
          1   -1    0    0  501    0  0.00000000000E+00  0.00000000000E+00  0.63934612934E+03  0.63934612936E+03  0.50400000000E-02 0. -1.
         -1   -1    0    0    0  501 -0.00000000000E+00 -0.00000000000E+00 -0.23097738637E+04  0.23097738637E+04  0.50400000000E-02 0.  1.
    8880023    1    1    2    0    0 -0.73417082598E+03  0.65582723240E+03 -0.15423450331E+04  0.19446733833E+04  0.65864270000E+03 0.  0.
    8880022    1    1    2    0    0  0.73417082598E+03 -0.65582723240E+03 -0.12808270131E+03  0.10044466098E+04  0.15294330000E+03 0.  0.
<mgrwt>
<rscale>  0 0.11343049E+04</rscale>
<asrwt>0</asrwt>
<pdfrwt beam="1">  1        1 0.98360944E-01 0.11844519E+04</pdfrwt>
<pdfrwt beam="2">  1       -1 0.35534982E+00 0.11844519E+04</pdfrwt>
<totfact> 0.44462846E-01</totfact>
</mgrwt>
</event>
<event>
 4    2  0.3396630E-007  0.9718990E+03  0.7818608E-02  0.9419283E-01
         -1   -1    0    0    0  501 -0.00000000000E+00  0.00000000000E+00  0.58148412510E+03  0.58148412512E+03  0.50400000000E-02 0.  1.
          1   -1    0    0  501    0  0.00000000000E+00 -0.00000000000E+00 -0.18189893543E+04  0.18189893543E+04  0.50400000000E-02 0. -1.
    8880023    1    1    2    0    0 -0.33724371835E+03 -0.63011436379E+03 -0.10107234899E+02  0.97195154174E+03  0.65864270000E+03 0.  1.
    8880022    1    1    2    0    0  0.33724371835E+03  0.63011436379E+03 -0.12273979943E+04  0.14285219377E+04  0.15294330000E+03 0.  0.
<mgrwt>
<rscale>  0 0.90505650E+03</rscale>
<asrwt>0</asrwt>
<pdfrwt beam="1">  1        1 0.27984451E+00 0.97189899E+03</pdfrwt>
<pdfrwt beam="2">  1       -1 0.89459097E-01 0.97189899E+03</pdfrwt>
<totfact> 0.49024833E+00</totfact>
</mgrwt>
</event>
<event>
 4    2  0.3396630E-007  0.1564891E+04  0.7818608E-02  0.8865123E-01
         -1   -1    0    0    0  501 -0.00000000000E+00  0.00000000000E+00  0.14324934131E+04  0.14324934131E+04  0.50400000000E-02 0.  1.
          1   -1    0    0  501    0  0.00000000000E+00 -0.00000000000E+00 -0.26867359318E+04  0.26867359318E+04  0.50400000000E-02 0. -1.
    8880023    1    1    2    0    0  0.44277337361E+02 -0.14188419222E+04  0.68735684607E+03  0.17091935300E+04  0.65864270000E+03 0.  0.
    8880022    1    1    2    0    0 -0.44277337361E+02  0.14188419222E+04 -0.19415993648E+04  0.24100358149E+04  0.15294330000E+03 0.  0.
<mgrwt>
<rscale>  0 0.15294170E+04</rscale>
<asrwt>0</asrwt>
<pdfrwt beam="1">  1        1 0.41334399E+00 0.15648908E+04</pdfrwt>
<pdfrwt beam="2">  1       -1 0.22038360E+00 0.15648908E+04</pdfrwt>
<totfact> 0.10281117E-01</totfact>
</mgrwt>
</event>
<event>
 4    2  0.3396630E-007  0.7762555E+03  0.7818608E-02  0.9764707E-01
         -1   -1    0    0    0  501 -0.00000000000E+00  0.00000000000E+00  0.44594144219E+03  0.44594144222E+03  0.50400000000E-02 0.  1.
          1   -1    0    0  501    0  0.00000000000E+00 -0.00000000000E+00 -0.86146511110E+03  0.86146511111E+03  0.50400000000E-02 0. -1.
    8880023    1    1    2    0    0 -0.41056243387E+03 -0.14174774381E+02 -0.13755458420E+03  0.78834884806E+03  0.65864270000E+03 0.  1.
    8880022    1    1    2    0    0  0.41056243387E+03  0.14174774381E+02 -0.27796908471E+03  0.51905770527E+03  0.15294330000E+03 0. -1.
<mgrwt>
<rscale>  0 0.67291426E+03</rscale>
<asrwt>0</asrwt>
<pdfrwt beam="1">  1        1 0.13253309E+00 0.77625553E+03</pdfrwt>
<pdfrwt beam="2">  1       -1 0.68606376E-01 0.77625553E+03</pdfrwt>
<totfact> 0.43020252E+01</totfact>
</mgrwt>
</event>
<event>
 4    2  0.3396630E-007  0.7413124E+03  0.7818608E-02  0.9856141E-01
         -1   -1    0    0    0  501 -0.00000000000E+00  0.00000000000E+00  0.50962660545E+03  0.50962660547E+03  0.50400000000E-02 0.  1.
          1   -1    0    0  501    0  0.00000000000E+00 -0.00000000000E+00 -0.61175457209E+03  0.61175457211E+03  0.50400000000E-02 0. -1.
    8880023    1    1    2    0    0  0.33394450911E+03  0.64922116774E+02 -0.33089623185E+02  0.74205050087E+03  0.65864270000E+03 0.  0.
    8880022    1    1    2    0    0 -0.33394450911E+03 -0.64922116774E+02 -0.69038343462E+02  0.37933067672E+03  0.15294330000E+03 0.  0.
<mgrwt>
<rscale>  0 0.62434806E+03</rscale>
<asrwt>0</asrwt>
<pdfrwt beam="1">  1        1 0.94116088E-01 0.74131237E+03</pdfrwt>
<pdfrwt beam="2">  1       -1 0.78404093E-01 0.74131237E+03</pdfrwt>
<totfact> 0.55413528E+01</totfact>
</mgrwt>
</event>
<event>
 4    2  0.3396630E-007  0.1145734E+04  0.7818608E-02  0.9211767E-01
         -1   -1    0    0    0  501 -0.00000000000E+00  0.00000000000E+00  0.12755405647E+04  0.12755405647E+04  0.50400000000E-02 0.  1.
          1   -1    0    0  501    0  0.00000000000E+00 -0.00000000000E+00 -0.15881527420E+04  0.15881527420E+04  0.50400000000E-02 0. -1.
    8880023    1    1    2    0    0  0.91930908176E+03 -0.18375830519E+03  0.80251907156E+03  0.13988364340E+04  0.65864270000E+03 0.  0.
    8880022    1    1    2    0    0 -0.91930908176E+03  0.18375830519E+03 -0.11151312489E+04  0.14648568728E+04  0.15294330000E+03 0.  0.
<mgrwt>
<rscale>  0 0.10932790E+04</rscale>
<asrwt>0</asrwt>
<pdfrwt beam="1">  1        1 0.24433119E+00 0.11457340E+04</pdfrwt>
<pdfrwt beam="2">  1       -1 0.19623701E+00 0.11457340E+04</pdfrwt>
<totfact> 0.89685759E-01</totfact>
</mgrwt>
</event>
<event>
 4    2  0.3396630E-007  0.6624505E+03  0.7818608E-02  0.1021775E+00
         -1   -1    0    0    0  501 -0.00000000000E+00  0.00000000000E+00  0.33192366740E+03  0.33192366744E+03  0.50400000000E-02 0.  1.
          1   -1    0    0  501    0  0.00000000000E+00 -0.00000000000E+00 -0.80492859193E+03  0.80492859194E+03  0.50400000000E-02 0. -1.
    8880023    1    1    2    0    0 -0.66752766401E+02 -0.23969864414E+02 -0.30311198056E+02  0.66314362035E+03  0.65864270000E+03 0.  1.
    8880022    1    1    2    0    0  0.66752766401E+02  0.23969864414E+02 -0.44269372647E+03  0.47370863903E+03  0.15294330000E+03 0.  0.
<mgrwt>
<rscale>  0 0.47051360E+03</rscale>
<asrwt>0</asrwt>
<pdfrwt beam="1">  1        1 0.12383517E+00 0.66245052E+03</pdfrwt>
<pdfrwt beam="2">  1       -1 0.51065180E-01 0.66245052E+03</pdfrwt>
<totfact> 0.86690915E+01</totfact>
</mgrwt>
</event>
<event>
 4    2  0.3396630E-007  0.7621539E+03  0.7818608E-02  0.9799563E-01
          1   -1    0    0  501    0  0.00000000000E+00  0.00000000000E+00  0.69234099414E+03  0.69234099416E+03  0.50400000000E-02 0. -1.
         -1   -1    0    0    0  501 -0.00000000000E+00 -0.00000000000E+00 -0.58013768492E+03  0.58013768494E+03  0.50400000000E-02 0.  1.
    8880023    1    1    2    0    0  0.37940721000E+03 -0.55843268674E+02 -0.15892209841E+03  0.77854655691E+03  0.65864270000E+03 0.  0.
    8880022    1    1    2    0    0 -0.37940721000E+03  0.55843268674E+02  0.27112540763E+03  0.49393212219E+03  0.15294330000E+03 0.  0.
<mgrwt>
<rscale>  0 0.65386002E+03</rscale>
<asrwt>0</asrwt>
<pdfrwt beam="1">  1        1 0.10651400E+00 0.76215386E+03</pdfrwt>
<pdfrwt beam="2">  1       -1 0.89251952E-01 0.76215386E+03</pdfrwt>
<totfact> 0.34867382E+01</totfact>
</mgrwt>
</event>
<event>
 4    2  0.3396630E-007  0.8079727E+03  0.7818608E-02  0.9693815E-01
         -1   -1    0    0    0  501 -0.00000000000E+00  0.00000000000E+00  0.33418940891E+03  0.33418940895E+03  0.50400000000E-02 0.  1.
          1   -1    0    0  501    0  0.00000000000E+00 -0.00000000000E+00 -0.15561635540E+04  0.15561635540E+04  0.50400000000E-02 0. -1.
    8880023    1    1    2    0    0  0.46223544705E+03  0.73130295507E+02 -0.33251066367E+03  0.87371803023E+03  0.65864270000E+03 0.  0.
    8880022    1    1    2    0    0 -0.46223544705E+03 -0.73130295507E+02 -0.88946348140E+03  0.10166349327E+04  0.15294330000E+03 0.  0.
<mgrwt>
<rscale>  0 0.71386218E+03</rscale>
<asrwt>0</asrwt>
<pdfrwt beam="1">  1        1 0.23940977E+00 0.80797268E+03</pdfrwt>
<pdfrwt beam="2">  1       -1 0.51413756E-01 0.80797268E+03</pdfrwt>
<totfact> 0.23373868E+01</totfact>
</mgrwt>
</event>
<event>
 4    2  0.3396630E-007  0.9468041E+03  0.7818608E-02  0.9454727E-01
          1   -1    0    0  501    0  0.00000000000E+00  0.00000000000E+00  0.20461916209E+04  0.20461916209E+04  0.50400000000E-02 0. -1.
         -1   -1    0    0    0  501 -0.00000000000E+00 -0.00000000000E+00 -0.36534004793E+03  0.36534004796E+03  0.50400000000E-02 0.  1.
    8880023    1    1    2    0    0  0.67999246503E+03  0.15431138963E+02  0.58572947025E+03  0.11133360190E+04  0.65864270000E+03 0.  0.
    8880022    1    1    2    0    0 -0.67999246503E+03 -0.15431138963E+02  0.10951221028E+04  0.12981956499E+04  0.15294330000E+03 0.  0.
<mgrwt>
<rscale>  0 0.87705499E+03</rscale>
<asrwt>0</asrwt>
<pdfrwt beam="1">  1        1 0.31479870E+00 0.94680414E+03</pdfrwt>
<pdfrwt beam="2">  1       -1 0.56206162E-01 0.94680414E+03</pdfrwt>
<totfact> 0.90428531E+00</totfact>
</mgrwt>
</event>
<event>
 4    2  0.3396630E-007  0.7852701E+03  0.7818608E-02  0.9743600E-01
         -1   -1    0    0    0  501 -0.00000000000E+00  0.00000000000E+00  0.10498269036E+04  0.10498269036E+04  0.50400000000E-02 0.  1.
          1   -1    0    0  501    0  0.00000000000E+00 -0.00000000000E+00 -0.83892174865E+03  0.83892174866E+03  0.50400000000E-02 0. -1.
    8880023    1    1    2    0    0 -0.31313807914E+03 -0.29117590306E+03  0.81581560643E+03  0.11323445470E+04  0.65864270000E+03 0.  1.
    8880022    1    1    2    0    0  0.31313807914E+03  0.29117590306E+03 -0.60491045149E+03  0.75640410527E+03  0.15294330000E+03 0.  0.
<mgrwt>
<rscale>  0 0.68479156E+03</rscale>
<asrwt>0</asrwt>
<pdfrwt beam="1">  1        1 0.12906488E+00 0.78527006E+03</pdfrwt>
<pdfrwt beam="2">  1       -1 0.16151183E+00 0.78527006E+03</pdfrwt>
<totfact> 0.59964582E+00</totfact>
</mgrwt>
</event>
<event>
 4    2  0.3396630E-007  0.9472207E+03  0.7818608E-02  0.9454124E-01
          1   -1    0    0  501    0  0.00000000000E+00  0.00000000000E+00  0.43074924439E+03  0.43074924442E+03  0.50400000000E-02 0. -1.
         -1   -1    0    0    0  501 -0.00000000000E+00 -0.00000000000E+00 -0.19301787306E+04  0.19301787307E+04  0.50400000000E-02 0.  1.
    8880023    1    1    2    0    0  0.67449880084E+03 -0.92022941498E+02 -0.33738867917E+03  0.10055138891E+04  0.65864270000E+03 0.  1.
    8880022    1    1    2    0    0 -0.67449880084E+03  0.92022941498E+02 -0.11620408071E+04  0.13554140860E+04  0.15294330000E+03 0.  0.
<mgrwt>
<rscale>  0 0.87752229E+03</rscale>
<asrwt>0</asrwt>
<pdfrwt beam="1">  1        1 0.66269116E-01 0.94722070E+03</pdfrwt>
<pdfrwt beam="2">  1       -1 0.29695057E+00 0.94722070E+03</pdfrwt>
<totfact> 0.19170531E+00</totfact>
</mgrwt>
</event>
<event>
 4    2  0.3396630E-007  0.7107121E+03  0.7818608E-02  0.9955366E-01
          1   -1    0    0  501    0  0.00000000000E+00  0.00000000000E+00  0.23149421084E+04  0.23149421084E+04  0.50400000000E-02 0. -1.
         -1   -1    0    0    0  501 -0.00000000000E+00 -0.00000000000E+00 -0.19468931331E+03  0.19468931338E+03  0.50400000000E-02 0.  1.
    8880023    1    1    2    0    0  0.24659596152E+03 -0.10243009770E+03  0.52146087786E+03  0.88149483637E+03  0.65864270000E+03 0.  1.
    8880022    1    1    2    0    0 -0.24659596152E+03  0.10243009770E+03  0.15987919172E+04  0.16281365854E+04  0.15294330000E+03 0.  0.
<mgrwt>
<rscale>  0 0.57651433E+03</rscale>
<asrwt>0</asrwt>
<pdfrwt beam="1">  1        1 0.35614494E+00 0.71071211E+03</pdfrwt>
<pdfrwt beam="2">  1       -1 0.29952202E-01 0.71071211E+03</pdfrwt>
<totfact> 0.19554689E+01</totfact>
</mgrwt>
</event>
<event>
 4    2  0.3396630E-007  0.8880574E+03  0.7818608E-02  0.9545482E-01
         -1   -1    0    0    0  501 -0.00000000000E+00  0.00000000000E+00  0.36851179725E+03  0.36851179729E+03  0.50400000000E-02 0.  1.
          1   -1    0    0  501    0  0.00000000000E+00 -0.00000000000E+00 -0.20079763279E+04  0.20079763279E+04  0.50400000000E-02 0. -1.
    8880023    1    1    2    0    0  0.26317052232E+03  0.53439412116E+03 -0.36259574483E+03  0.95922973316E+03  0.65864270000E+03 0.  0.
    8880022    1    1    2    0    0 -0.26317052232E+03 -0.53439412116E+03 -0.12768687858E+04  0.14172583920E+04  0.15294330000E+03 0.  0.
<mgrwt>
<rscale>  0 0.81012106E+03</rscale>
<asrwt>0</asrwt>
<pdfrwt beam="1">  1        1 0.30891943E+00 0.88805743E+03</pdfrwt>
<pdfrwt beam="2">  1       -1 0.56694124E-01 0.88805743E+03</pdfrwt>
<totfact> 0.95044607E+00</totfact>
</mgrwt>
</event>
<event>
 4    2  0.3396630E-007  0.8535808E+03  0.7818608E-02  0.9605086E-01
         -1   -1    0    0    0  501 -0.00000000000E+00  0.00000000000E+00  0.48675275112E+03  0.48675275114E+03  0.50400000000E-02 0.  1.
          1   -1    0    0  501    0  0.00000000000E+00 -0.00000000000E+00 -0.22305546315E+04  0.22305546315E+04  0.50400000000E-02 0. -1.
    8880023    1    1    2    0    0  0.53941868518E+03  0.61785257583E+02  0.31888447120E+02  0.85417622028E+03  0.65864270000E+03 0.  1.
    8880022    1    1    2    0    0 -0.53941868518E+03 -0.61785257583E+02 -0.17756903275E+04  0.18631311623E+04  0.15294330000E+03 0.  0.
<mgrwt>
<rscale>  0 0.76960495E+03</rscale>
<asrwt>0</asrwt>
<pdfrwt beam="1">  1        1 0.34316224E+00 0.85358078E+03</pdfrwt>
<pdfrwt beam="2">  1       -1 0.74885040E-01 0.85358078E+03</pdfrwt>
<totfact> 0.38607895E+00</totfact>
</mgrwt>
</event>
<event>
 4    2  0.3396630E-007  0.7682469E+03  0.7818608E-02  0.9784207E-01
         -1   -1    0    0    0  501 -0.00000000000E+00  0.00000000000E+00  0.58831835080E+03  0.58831835082E+03  0.50400000000E-02 0.  1.
          1   -1    0    0  501    0  0.00000000000E+00 -0.00000000000E+00 -0.83959754089E+03  0.83959754091E+03  0.50400000000E-02 0. -1.
    8880023    1    1    2    0    0  0.39544637515E+03  0.39047670889E+01  0.21491327926E+03  0.79774119030E+03  0.65864270000E+03 0.  0.
    8880022    1    1    2    0    0 -0.39544637515E+03 -0.39047670889E+01 -0.46619246935E+03  0.63017470143E+03  0.15294330000E+03 0.  0.
<mgrwt>
<rscale>  0 0.66217032E+03</rscale>
<asrwt>0</asrwt>
<pdfrwt beam="1">  1        1 0.12916885E+00 0.76824689E+03</pdfrwt>
<pdfrwt beam="2">  1       -1 0.90510515E-01 0.76824689E+03</pdfrwt>
<totfact> 0.24983110E+01</totfact>
</mgrwt>
</event>
<event>
 4    2  0.3396630E-007  0.8339790E+03  0.7818608E-02  0.9641640E-01
         -1   -1    0    0    0  501 -0.00000000000E+00  0.00000000000E+00  0.37306932491E+03  0.37306932494E+03  0.50400000000E-02 0.  1.
          1   -1    0    0  501    0  0.00000000000E+00 -0.00000000000E+00 -0.14725238727E+04  0.14725238727E+04  0.50400000000E-02 0. -1.
    8880023    1    1    2    0    0 -0.50306334060E+03 -0.92940924419E+02 -0.30422553076E+03  0.88773538846E+03  0.65864270000E+03 0.  1.
    8880022    1    1    2    0    0  0.50306334060E+03  0.92940924419E+02 -0.79522901699E+03  0.95785780915E+03  0.15294330000E+03 0.  0.
<mgrwt>
<rscale>  0 0.74600448E+03</rscale>
<asrwt>0</asrwt>
<pdfrwt beam="1">  1        1 0.22654213E+00 0.83397898E+03</pdfrwt>
<pdfrwt beam="2">  1       -1 0.57395282E-01 0.83397898E+03</pdfrwt>
<totfact> 0.21502024E+01</totfact>
</mgrwt>
</event>
<event>
 4    2  0.3396630E-007  0.7894683E+03  0.7818608E-02  0.9734048E-01
         -1   -1    0    0    0  501 -0.00000000000E+00  0.00000000000E+00  0.53009871953E+03  0.53009871956E+03  0.50400000000E-02 0.  1.
          1   -1    0    0  501    0  0.00000000000E+00 -0.00000000000E+00 -0.11893434066E+04  0.11893434066E+04  0.50400000000E-02 0. -1.
    8880023    1    1    2    0    0 -0.42792756980E+03 -0.79548816024E+02  0.13500126686E+03  0.80092794148E+03  0.65864270000E+03 0.  0.
    8880022    1    1    2    0    0  0.42792756980E+03  0.79548816024E+02 -0.79424595393E+03  0.91851418469E+03  0.15294330000E+03 0.  0.
<mgrwt>
<rscale>  0 0.69025270E+03</rscale>
<asrwt>0</asrwt>
<pdfrwt beam="1">  1        1 0.18297591E+00 0.78946832E+03</pdfrwt>
<pdfrwt beam="2">  1       -1 0.81553649E-01 0.78946832E+03</pdfrwt>
<totfact> 0.16723805E+01</totfact>
</mgrwt>
</event>
<event>
 4    2  0.3396630E-007  0.6717860E+03  0.7818608E-02  0.1014414E+00
          1   -1    0    0  501    0  0.00000000000E+00  0.00000000000E+00  0.33982088461E+03  0.33982088465E+03  0.50400000000E-02 0. -1.
         -1   -1    0    0    0  501 -0.00000000000E+00 -0.00000000000E+00 -0.76728512930E+03  0.76728512932E+03  0.50400000000E-02 0.  1.
    8880023    1    1    2    0    0  0.12330909101E+03 -0.47760440365E+02 -0.55214118313E+03  0.86957247194E+03  0.65864270000E+03 0.  1.
    8880022    1    1    2    0    0 -0.12330909101E+03  0.47760440365E+02  0.12467693845E+03  0.23753354202E+03  0.15294330000E+03 0.  0.
<mgrwt>
<rscale>  0 0.49757574E+03</rscale>
<asrwt>0</asrwt>
<pdfrwt beam="1">  1        1 0.52280136E-01 0.67178598E+03</pdfrwt>
<pdfrwt beam="2">  1       -1 0.11804387E+00 0.67178598E+03</pdfrwt>
<totfact> 0.49289790E+01</totfact>
</mgrwt>
</event>
<event>
 4    2  0.3396630E-007  0.8964056E+03  0.7818608E-02  0.9531827E-01
          1   -1    0    0  501    0  0.00000000000E+00  0.00000000000E+00  0.16378232815E+04  0.16378232815E+04  0.50400000000E-02 0. -1.
         -1   -1    0    0    0  501 -0.00000000000E+00 -0.00000000000E+00 -0.85523320021E+03  0.85523320022E+03  0.50400000000E-02 0.  1.
    8880023    1    1    2    0    0  0.60275946237E+03  0.80085849361E+02 -0.52789917760E+03  0.10402982557E+04  0.65864270000E+03 0.  1.
    8880022    1    1    2    0    0 -0.60275946237E+03 -0.80085849361E+02  0.13104892589E+04  0.14527582261E+04  0.15294330000E+03 0.  0.
<mgrwt>
<rscale>  0 0.81977496E+03</rscale>
<asrwt>0</asrwt>
<pdfrwt beam="1">  1        1 0.25197281E+00 0.89640555E+03</pdfrwt>
<pdfrwt beam="2">  1       -1 0.13157434E+00 0.89640555E+03</pdfrwt>
<totfact> 0.26419530E+00</totfact>
</mgrwt>
</event>
<event>
 4    2  0.3396630E-007  0.6619912E+03  0.7818608E-02  0.1022203E+00
         -1   -1    0    0    0  501 -0.00000000000E+00  0.00000000000E+00  0.41250292273E+03  0.41250292276E+03  0.50400000000E-02 0.  1.
          1   -1    0    0  501    0  0.00000000000E+00 -0.00000000000E+00 -0.81746415148E+03  0.81746415150E+03  0.50400000000E-02 0. -1.
    8880023    1    1    2    0    0  0.65003606764E+02 -0.14022186739E+02  0.12560934105E+03  0.67380264428E+03  0.65864270000E+03 0.  1.
    8880022    1    1    2    0    0 -0.65003606764E+02  0.14022186739E+02 -0.53057056981E+03  0.55616442998E+03  0.15294330000E+03 0.  0.
<mgrwt>
<rscale>  0 0.46899863E+03</rscale>
<asrwt>0</asrwt>
<pdfrwt beam="1">  1        1 0.12576372E+00 0.66199116E+03</pdfrwt>
<pdfrwt beam="2">  1       -1 0.63461988E-01 0.66199116E+03</pdfrwt>
<totfact> 0.55442128E+01</totfact>
</mgrwt>
</event>
<event>
 4    2  0.3396630E-007  0.9048408E+03  0.7818608E-02  0.9518305E-01
          1   -1    0    0  501    0  0.00000000000E+00  0.00000000000E+00  0.91070662865E+03  0.91070662867E+03  0.50400000000E-02 0. -1.
         -1   -1    0    0    0  501 -0.00000000000E+00 -0.00000000000E+00 -0.86113037343E+03  0.86113037344E+03  0.50400000000E-02 0.  1.
    8880023    1    1    2    0    0  0.27105315825E+03  0.55808319131E+03  0.45730733701E+03  0.10138376940E+04  0.65864270000E+03 0. -1.
    8880022    1    1    2    0    0 -0.27105315825E+03 -0.55808319131E+03 -0.40773108178E+03  0.75799930811E+03  0.15294330000E+03 0.  0.
<mgrwt>
<rscale>  0 0.82947631E+03</rscale>
<asrwt>0</asrwt>
<pdfrwt beam="1">  1        1 0.14010871E+00 0.90484080E+03</pdfrwt>
<pdfrwt beam="2">  1       -1 0.13248160E+00 0.90484080E+03</pdfrwt>
<totfact> 0.87288890E+00</totfact>
</mgrwt>
</event>
<event>
 4    2  0.3396630E-007  0.1016361E+04  0.7818608E-02  0.9360459E-01
          1   -1    0    0  501    0  0.00000000000E+00  0.00000000000E+00  0.57841597696E+03  0.57841597699E+03  0.50400000000E-02 0. -1.
         -1   -1    0    0    0  501 -0.00000000000E+00 -0.00000000000E+00 -0.15723251667E+04  0.15723251667E+04  0.50400000000E-02 0.  1.
    8880023    1    1    2    0    0  0.59858178985E+01 -0.77404337887E+03 -0.89737096520E+03  0.13558258877E+04  0.65864270000E+03 0.  0.
    8880022    1    1    2    0    0 -0.59858178985E+01  0.77404337887E+03 -0.96538224561E+02  0.79491525599E+03  0.15294330000E+03 0.  0.
<mgrwt>
<rscale>  0 0.95402443E+03</rscale>
<asrwt>0</asrwt>
<pdfrwt beam="1">  1        1 0.88987074E-01 0.10163608E+04</pdfrwt>
<pdfrwt beam="2">  1       -1 0.24189618E+00 0.10163608E+04</pdfrwt>
<totfact> 0.28602887E+00</totfact>
</mgrwt>
</event>
<event>
 4    2  0.3396630E-007  0.1277327E+04  0.7818608E-02  0.9085391E-01
         -1   -1    0    0    0  501 -0.00000000000E+00  0.00000000000E+00  0.15589482002E+04  0.15589482003E+04  0.50400000000E-02 0.  1.
          1   -1    0    0  501    0  0.00000000000E+00 -0.00000000000E+00 -0.18401588597E+04  0.18401588597E+04  0.50400000000E-02 0. -1.
    8880023    1    1    2    0    0  0.16060222823E+03 -0.10825717352E+04  0.10610105919E+04  0.16605144745E+04  0.65864270000E+03 0.  0.
    8880022    1    1    2    0    0 -0.16060222823E+03  0.10825717352E+04 -0.13422212514E+04  0.17385925855E+04  0.15294330000E+03 0.  0.
<mgrwt>
<rscale>  0 0.12318919E+04</rscale>
<asrwt>0</asrwt>
<pdfrwt beam="1">  1        1 0.28310136E+00 0.12773272E+04</pdfrwt>
<pdfrwt beam="2">  1       -1 0.23983819E+00 0.12773272E+04</pdfrwt>
<totfact> 0.30186845E-01</totfact>
</mgrwt>
</event>
<event>
 4    2  0.3396630E-007  0.7376671E+03  0.7818608E-02  0.9866795E-01
         -1   -1    0    0    0  501 -0.00000000000E+00  0.00000000000E+00  0.15089548179E+04  0.15089548179E+04  0.50400000000E-02 0.  1.
          1   -1    0    0  501    0  0.00000000000E+00 -0.00000000000E+00 -0.62413340940E+03  0.62413340942E+03  0.50400000000E-02 0. -1.
    8880023    1    1    2    0    0  0.97951902464E+02  0.31740818000E+03  0.13517913027E+04  0.15399650841E+04  0.65864270000E+03 0.  1.
    8880022    1    1    2    0    0 -0.97951902464E+02 -0.31740818000E+03 -0.46696989420E+03  0.59312314323E+03  0.15294330000E+03 0.  0.
<mgrwt>
<rscale>  0 0.61897856E+03</rscale>
<asrwt>0</asrwt>
<pdfrwt beam="1">  1        1 0.96020525E-01 0.73766709E+03</pdfrwt>
<pdfrwt beam="2">  1       -1 0.23214689E+00 0.73766709E+03</pdfrwt>
<totfact> 0.30825247E+00</totfact>
</mgrwt>
</event>
<event>
 4    2  0.3396630E-007  0.7962383E+03  0.7818608E-02  0.9718989E-01
          1   -1    0    0  501    0  0.00000000000E+00  0.00000000000E+00  0.18255218207E+04  0.18255218207E+04  0.50400000000E-02 0. -1.
         -1   -1    0    0    0  501 -0.00000000000E+00 -0.00000000000E+00 -0.38198442547E+03  0.38198442550E+03  0.50400000000E-02 0.  1.
    8880023    1    1    2    0    0 -0.15200980825E+03  0.42080668021E+03  0.12403442280E+03  0.80584116811E+03  0.65864270000E+03 0.  0.
    8880022    1    1    2    0    0  0.15200980825E+03 -0.42080668021E+03  0.13195029724E+04  0.14016650781E+04  0.15294330000E+03 0.  0.
<mgrwt>
<rscale>  0 0.69897343E+03</rscale>
<asrwt>0</asrwt>
<pdfrwt beam="1">  1        1 0.28084951E+00 0.79623831E+03</pdfrwt>
<pdfrwt beam="2">  1       -1 0.58766835E-01 0.79623831E+03</pdfrwt>
<totfact> 0.11891269E+01</totfact>
</mgrwt>
</event>
<event>
 4    2  0.3396630E-007  0.8190483E+03  0.7818608E-02  0.9671029E-01
          1   -1    0    0  501    0  0.00000000000E+00  0.00000000000E+00  0.23343388337E+04  0.23343388337E+04  0.50400000000E-02 0. -1.
         -1   -1    0    0    0  501 -0.00000000000E+00 -0.00000000000E+00 -0.39694825986E+03  0.39694825989E+03  0.50400000000E-02 0.  1.
    8880023    1    1    2    0    0  0.47718893209E+03  0.96543505210E+02  0.10093224889E+03  0.82524387331E+03  0.65864270000E+03 0.  1.
    8880022    1    1    2    0    0 -0.47718893209E+03 -0.96543505210E+02  0.18364583249E+04  0.19060432203E+04  0.15294330000E+03 0.  0.
<mgrwt>
<rscale>  0 0.72768221E+03</rscale>
<asrwt>0</asrwt>
<pdfrwt beam="1">  1        1 0.35912905E+00 0.81904831E+03</pdfrwt>
<pdfrwt beam="2">  1       -1 0.61068964E-01 0.81904831E+03</pdfrwt>
<totfact> 0.50018433E+00</totfact>
</mgrwt>
</event>
<event>
 4    2  0.3396630E-007  0.8390261E+03  0.7818608E-02  0.9632019E-01
          1   -1    0    0  501    0  0.00000000000E+00  0.00000000000E+00  0.10774052603E+04  0.10774052604E+04  0.50400000000E-02 0. -1.
         -1   -1    0    0    0  501 -0.00000000000E+00 -0.00000000000E+00 -0.59020086901E+03  0.59020086903E+03  0.50400000000E-02 0.  1.
    8880023    1    1    2    0    0 -0.32874408129E+03 -0.40259394285E+03 -0.12700340389E+03  0.84858389371E+03  0.65864270000E+03 0.  1.
    8880022    1    1    2    0    0  0.32874408129E+03  0.40259394285E+03  0.61420779523E+03  0.81902223568E+03  0.15294330000E+03 0.  0.
<mgrwt>
<rscale>  0 0.75212696E+03</rscale>
<asrwt>0</asrwt>
<pdfrwt beam="1">  1        1 0.16575466E+00 0.83902608E+03</pdfrwt>
<pdfrwt beam="2">  1       -1 0.90800134E-01 0.83902608E+03</pdfrwt>
<totfact> 0.15932793E+01</totfact>
</mgrwt>
</event>
<event>
 4    2  0.3489128E-007  0.6649402E+03  0.7818608E-02  0.1019584E+00
          1   -1    0    0  501    0  0.00000000000E+00  0.00000000000E+00  0.17856717807E+04  0.17856717807E+04  0.50400000000E-02 0. -1.
         -1   -1    0    0    0  501 -0.00000000000E+00 -0.00000000000E+00 -0.61877071276E+03  0.61877071278E+03  0.50400000000E-02 0.  1.
    8880023    1    1    2    0    0 -0.82808152790E+01 -0.90921594840E+02 -0.43375430859E+03  0.79390699380E+03  0.65864270000E+03 0.  1.
    8880022    1    1    2    0    0  0.82808152790E+01  0.90921594840E+02  0.16006553765E+04  0.16105354997E+04  0.15294330000E+03 0.  0.
<mgrwt>
<rscale>  0 0.47837174E+03</rscale>
<asrwt>0</asrwt>
<pdfrwt beam="1">  1        1 0.27471873E+00 0.66494023E+03</pdfrwt>
<pdfrwt beam="2">  1       -1 0.95195495E-01 0.66494023E+03</pdfrwt>
<totfact> 0.47215587E+00</totfact>
</mgrwt>
</event>
<event>
 4    2  0.3396630E-007  0.6645255E+03  0.7818608E-02  0.1019935E+00
         -1   -1    0    0    0  501 -0.00000000000E+00  0.00000000000E+00  0.18083187068E+03  0.18083187075E+03  0.50400000000E-02 0.  1.
          1   -1    0    0  501    0  0.00000000000E+00 -0.00000000000E+00 -0.14805411783E+04  0.14805411783E+04  0.50400000000E-02 0. -1.
    8880023    1    1    2    0    0  0.79394713827E+02 -0.38476089695E+02 -0.47213324435E+03  0.81517110888E+03  0.65864270000E+03 0.  1.
    8880022    1    1    2    0    0 -0.79394713827E+02  0.38476089695E+02 -0.82757606327E+03  0.84620194019E+03  0.15294330000E+03 0.  0.
<mgrwt>
<rscale>  0 0.47710126E+03</rscale>
<asrwt>0</asrwt>
<pdfrwt beam="1">  1        1 0.22777556E+00 0.66452550E+03</pdfrwt>
<pdfrwt beam="2">  1       -1 0.27820289E-01 0.66452550E+03</pdfrwt>
<totfact> 0.81159371E+01</totfact>
</mgrwt>
</event>
<event>
 4    2  0.3396630E-007  0.6801197E+03  0.7818608E-02  0.1009256E+00
          1   -1    0    0  501    0  0.00000000000E+00  0.00000000000E+00  0.16921426523E+04  0.16921426523E+04  0.50400000000E-02 0. -1.
         -1   -1    0    0    0  501 -0.00000000000E+00 -0.00000000000E+00 -0.33140097070E+03  0.33140097074E+03  0.50400000000E-02 0.  1.
    8880023    1    1    2    0    0  0.79046031328E+02 -0.15001431255E+03  0.37940233976E+02  0.68117709640E+03  0.65864270000E+03 0.  1.
    8880022    1    1    2    0    0 -0.79046031328E+02  0.15001431255E+03  0.13228014477E+04  0.13423665267E+04  0.15294330000E+03 0.  0.
<mgrwt>
<rscale>  0 0.51771384E+03</rscale>
<asrwt>0</asrwt>
<pdfrwt beam="1">  1        1 0.26032964E+00 0.68011968E+03</pdfrwt>
<pdfrwt beam="2">  1       -1 0.50984765E-01 0.68011968E+03</pdfrwt>
<totfact> 0.19548332E+01</totfact>
</mgrwt>
</event>
<event>
 4    2  0.3396630E-007  0.8065680E+03  0.7818608E-02  0.9696771E-01
          1   -1    0    0  501    0  0.00000000000E+00  0.00000000000E+00  0.62991814277E+03  0.62991814279E+03  0.50400000000E-02 0. -1.
         -1   -1    0    0    0  501 -0.00000000000E+00 -0.00000000000E+00 -0.11128377989E+04  0.11128377989E+04  0.50400000000E-02 0.  1.
    8880023    1    1    2    0    0 -0.35136882017E+03 -0.30542041257E+03 -0.81826736008E+03  0.11489618597E+04  0.65864270000E+03 0.  0.
    8880022    1    1    2    0    0  0.35136882017E+03  0.30542041257E+03  0.33534770398E+03  0.59379408197E+03  0.15294330000E+03 0.  0.
<mgrwt>
<rscale>  0 0.71209393E+03</rscale>
<asrwt>0</asrwt>
<pdfrwt beam="1">  1        1 0.96910483E-01 0.80656797E+03</pdfrwt>
<pdfrwt beam="2">  1       -1 0.17120582E+00 0.80656797E+03</pdfrwt>
<totfact> 0.78816280E+00</totfact>
</mgrwt>
</event>
<event>
 4    2  0.3396630E-007  0.8182424E+03  0.7818608E-02  0.9672657E-01
          1   -1    0    0  501    0  0.00000000000E+00  0.00000000000E+00  0.10585767354E+04  0.10585767355E+04  0.50400000000E-02 0. -1.
         -1   -1    0    0    0  501 -0.00000000000E+00 -0.00000000000E+00 -0.50568340454E+03  0.50568340457E+03  0.50400000000E-02 0.  1.
    8880023    1    1    2    0    0  0.33605340131E+03 -0.35039770027E+03  0.75601728167E+01  0.81827733646E+03  0.65864270000E+03 0.  0.
    8880022    1    1    2    0    0 -0.33605340131E+03  0.35039770027E+03  0.54533315808E+03  0.74598280356E+03  0.15294330000E+03 0.  0.
<mgrwt>
<rscale>  0 0.72668359E+03</rscale>
<asrwt>0</asrwt>
<pdfrwt beam="1">  1        1 0.16285796E+00 0.81824241E+03</pdfrwt>
<pdfrwt beam="2">  1       -1 0.77797447E-01 0.81824241E+03</pdfrwt>
<totfact> 0.23037063E+01</totfact>
</mgrwt>
</event>
<event>
 4    2  0.3935585E-007  0.7491538E+03  0.7818608E-02  0.9834043E-01
         -1   -1    0    0    0  501 -0.00000000000E+00  0.00000000000E+00  0.10623311229E+04  0.10623311229E+04  0.50400000000E-02 0.  1.
          1   -1    0    0  501    0  0.00000000000E+00 -0.00000000000E+00 -0.20901775636E+04  0.20901775636E+04  0.50400000000E-02 0. -1.
    8880023    1    1    2    0    0 -0.17786119712E+03  0.30949404428E+03  0.90853549460E+03  0.11775687326E+04  0.65864270000E+03 0.  1.
    8880022    1    1    2    0    0  0.17786119712E+03 -0.30949404428E+03 -0.19363819353E+04  0.19749399539E+04  0.15294330000E+03 0.  0.
<mgrwt>
<rscale>  0 0.63567190E+03</rscale>
<asrwt>0</asrwt>
<pdfrwt beam="1">  1        1 0.32156578E+00 0.74915377E+03</pdfrwt>
<pdfrwt beam="2">  1       -1 0.16343556E+00 0.74915377E+03</pdfrwt>
<totfact> 0.75679449E-01</totfact>
</mgrwt>
</event>
<event>
 4    2  0.3396630E-007  0.6677057E+03  0.7818608E-02  0.1017364E+00
         -1   -1    0    0    0  501 -0.00000000000E+00  0.00000000000E+00  0.40539285238E+03  0.40539285241E+03  0.50400000000E-02 0.  1.
          1   -1    0    0  501    0  0.00000000000E+00 -0.00000000000E+00 -0.45409852067E+03  0.45409852070E+03  0.50400000000E-02 0. -1.
    8880023    1    1    2    0    0 -0.76951587079E+02 -0.78097017554E+02 -0.12291020650E+02  0.66781881252E+03  0.65864270000E+03 0.  0.
    8880022    1    1    2    0    0  0.76951587079E+02  0.78097017554E+02 -0.36414647640E+02  0.19167256059E+03  0.15294330000E+03 0.  1.
<mgrwt>
<rscale>  0 0.48650034E+03</rscale>
<asrwt>0</asrwt>
<pdfrwt beam="1">  1        1 0.69861311E-01 0.66770570E+03</pdfrwt>
<pdfrwt beam="2">  1       -1 0.62368131E-01 0.66770570E+03</pdfrwt>
<totfact> 0.13467035E+02</totfact>
</mgrwt>
</event>
<event>
 4    2  0.3396630E-007  0.7694389E+03  0.7818608E-02  0.9781257E-01
          1   -1    0    0  501    0  0.00000000000E+00  0.00000000000E+00  0.17602237530E+04  0.17602237530E+04  0.50400000000E-02 0. -1.
         -1   -1    0    0    0  501 -0.00000000000E+00 -0.00000000000E+00 -0.24007917363E+03  0.24007917368E+03  0.50400000000E-02 0.  1.
    8880023    1    1    2    0    0 -0.37830466747E+03  0.12292926216E+03  0.56563180566E+03  0.95497412047E+03  0.65864270000E+03 0.  1.
    8880022    1    1    2    0    0  0.37830466747E+03 -0.12292926216E+03  0.95451277367E+03  0.10453288062E+04  0.15294330000E+03 0.  0.
<mgrwt>
<rscale>  0 0.66378185E+03</rscale>
<asrwt>0</asrwt>
<pdfrwt beam="1">  1        1 0.27080366E+00 0.76943891E+03</pdfrwt>
<pdfrwt beam="2">  1       -1 0.36935257E-01 0.76943891E+03</pdfrwt>
<totfact> 0.31508258E+01</totfact>
</mgrwt>
</event>
<event>
 4    2  0.3396630E-007  0.8081695E+03  0.7818608E-02  0.9693403E-01
          1   -1    0    0  501    0  0.00000000000E+00  0.00000000000E+00  0.81665430811E+03  0.81665430812E+03  0.50400000000E-02 0. -1.
         -1   -1    0    0    0  501 -0.00000000000E+00 -0.00000000000E+00 -0.96629288498E+03  0.96629288499E+03  0.50400000000E-02 0.  1.
    8880023    1    1    2    0    0 -0.46104601193E+03  0.82244933879E+02 -0.68208802021E+03  0.10575357809E+04  0.65864270000E+03 0.  1.
    8880022    1    1    2    0    0  0.46104601193E+03 -0.82244933879E+02  0.53244944334E+03  0.72541141223E+03  0.15294330000E+03 0.  0.
<mgrwt>
<rscale>  0 0.71410959E+03</rscale>
<asrwt>0</asrwt>
<pdfrwt beam="1">  1        1 0.12563912E+00 0.80816945E+03</pdfrwt>
<pdfrwt beam="2">  1       -1 0.14866044E+00 0.80816945E+03</pdfrwt>
<totfact> 0.78325283E+00</totfact>
</mgrwt>
</event>
<event>
 4    2  0.3396630E-007  0.7090126E+03  0.7818608E-02  0.9961686E-01
          1   -1    0    0  501    0  0.00000000000E+00  0.00000000000E+00  0.85682224796E+03  0.85682224797E+03  0.50400000000E-02 0. -1.
         -1   -1    0    0    0  501 -0.00000000000E+00 -0.00000000000E+00 -0.46958424029E+03  0.46958424032E+03  0.50400000000E-02 0.  1.
    8880023    1    1    2    0    0  0.16125584051E+03 -0.20708759404E+03 -0.13546861060E+03  0.72183839495E+03  0.65864270000E+03 0.  1.
    8880022    1    1    2    0    0 -0.16125584051E+03  0.20708759404E+03  0.52270661826E+03  0.60456809334E+03  0.15294330000E+03 0.  0.
<mgrwt>
<rscale>  0 0.57362643E+03</rscale>
<asrwt>0</asrwt>
<pdfrwt beam="1">  1        1 0.13181881E+00 0.70901264E+03</pdfrwt>
<pdfrwt beam="2">  1       -1 0.72243730E-01 0.70901264E+03</pdfrwt>
<totfact> 0.39308429E+01</totfact>
</mgrwt>
</event>
<event>
 4    2  0.3396630E-007  0.7237768E+03  0.7818608E-02  0.9910008E-01
         -1   -1    0    0    0  501 -0.00000000000E+00  0.00000000000E+00  0.26132905633E+03  0.26132905638E+03  0.50400000000E-02 0.  1.
          1   -1    0    0  501    0  0.00000000000E+00 -0.00000000000E+00 -0.21032584050E+04  0.21032584050E+04  0.50400000000E-02 0. -1.
    8880023    1    1    2    0    0 -0.24117763183E+03  0.17853859106E+03 -0.29528109514E+03  0.78169291285E+03  0.65864270000E+03 0.  1.
    8880022    1    1    2    0    0  0.24117763183E+03 -0.17853859106E+03 -0.15466482536E+04  0.15828945486E+04  0.15294330000E+03 0.  0.
<mgrwt>
<rscale>  0 0.59778714E+03</rscale>
<asrwt>0</asrwt>
<pdfrwt beam="1">  1        1 0.32357820E+00 0.72377682E+03</pdfrwt>
<pdfrwt beam="2">  1       -1 0.40204472E-01 0.72377682E+03</pdfrwt>
<totfact> 0.16034988E+01</totfact>
</mgrwt>
</event>
<event>
 4    2  0.3396630E-007  0.7800902E+03  0.7818608E-02  0.9755625E-01
         -1   -1    0    0    0  501 -0.00000000000E+00  0.00000000000E+00  0.44061933820E+03  0.44061933823E+03  0.50400000000E-02 0.  1.
          1   -1    0    0  501    0  0.00000000000E+00 -0.00000000000E+00 -0.17095581635E+04  0.17095581635E+04  0.50400000000E-02 0. -1.
    8880023    1    1    2    0    0  0.40847456411E+03  0.88763792570E+02  0.26359352126E+02  0.78053539452E+03  0.65864270000E+03 0.  1.
    8880022    1    1    2    0    0 -0.40847456411E+03 -0.88763792570E+02 -0.12952981775E+04  0.13696421072E+04  0.15294330000E+03 0.  0.
<mgrwt>
<rscale>  0 0.67799303E+03</rscale>
<asrwt>0</asrwt>
<pdfrwt beam="1">  1        1 0.26300894E+00 0.78009018E+03</pdfrwt>
<pdfrwt beam="2">  1       -1 0.67787591E-01 0.78009018E+03</pdfrwt>
<totfact> 0.10722665E+01</totfact>
</mgrwt>
</event>
<event>
 4    2  0.3396630E-007  0.1713247E+04  0.7818608E-02  0.8772106E-01
          1   -1    0    0  501    0  0.00000000000E+00  0.00000000000E+00  0.23279888720E+04  0.23279888720E+04  0.50400000000E-02 0. -1.
         -1   -1    0    0    0  501 -0.00000000000E+00 -0.00000000000E+00 -0.18745396857E+04  0.18745396857E+04  0.50400000000E-02 0.  1.
    8880023    1    1    2    0    0  0.15508005210E+04 -0.31052031626E+03 -0.10546414365E+04  0.20118359498E+04  0.65864270000E+03 0.  0.
    8880022    1    1    2    0    0 -0.15508005210E+04  0.31052031626E+03  0.15080906228E+04  0.21906926079E+04  0.15294330000E+03 0.  0.
<mgrwt>
<rscale>  0 0.16812926E+04</rscale>
<asrwt>0</asrwt>
<pdfrwt beam="1">  1        1 0.35815214E+00 0.17132470E+04</pdfrwt>
<pdfrwt beam="2">  1       -1 0.28839072E+00 0.17132470E+04</pdfrwt>
<totfact> 0.64197248E-02</totfact>
</mgrwt>
</event>
<event>
 4    2  0.3396630E-007  0.1364161E+04  0.7818608E-02  0.9012043E-01
          1   -1    0    0  501    0  0.00000000000E+00  0.00000000000E+00  0.12387193382E+04  0.12387193382E+04  0.50400000000E-02 0. -1.
         -1   -1    0    0    0  501 -0.00000000000E+00 -0.00000000000E+00 -0.14559196602E+04  0.14559196602E+04  0.50400000000E-02 0.  1.
    8880023    1    1    2    0    0 -0.54568733217E+03  0.10627084609E+04  0.27840423202E+03  0.13922798067E+04  0.65864270000E+03 0.  1.
    8880022    1    1    2    0    0  0.54568733217E+03 -0.10627084609E+04 -0.49560455407E+03  0.13023591918E+04  0.15294330000E+03 0.  0.
<mgrwt>
<rscale>  0 0.13223287E+04</rscale>
<asrwt>0</asrwt>
<pdfrwt beam="1">  1        1 0.19057221E+00 0.13641606E+04</pdfrwt>
<pdfrwt beam="2">  1       -1 0.22398764E+00 0.13641606E+04</pdfrwt>
<totfact> 0.99722003E-01</totfact>
</mgrwt>
</event>
<event>
 4    2  0.3396630E-007  0.7360797E+03  0.7818608E-02  0.9871517E-01
         -1   -1    0    0    0  501 -0.00000000000E+00  0.00000000000E+00  0.80082566124E+03  0.80082566126E+03  0.50400000000E-02 0.  1.
          1   -1    0    0  501    0  0.00000000000E+00 -0.00000000000E+00 -0.42216835275E+03  0.42216835278E+03  0.50400000000E-02 0. -1.
    8880023    1    1    2    0    0  0.11476012711E+03 -0.30795009504E+03  0.43672725512E+03  0.85588787200E+03  0.65864270000E+03 0.  0.
    8880022    1    1    2    0    0 -0.11476012711E+03  0.30795009504E+03 -0.58069946634E+02  0.36710614204E+03  0.15294330000E+03 0.  0.
<mgrwt>
<rscale>  0 0.61661759E+03</rscale>
<asrwt>0</asrwt>
<pdfrwt beam="1">  1        1 0.64948979E-01 0.73607972E+03</pdfrwt>
<pdfrwt beam="2">  1       -1 0.12320394E+00 0.73607972E+03</pdfrwt>
<totfact> 0.33166787E+01</totfact>
</mgrwt>
</event>
<event>
 4    2  0.3396630E-007  0.7801069E+03  0.7818608E-02  0.9755586E-01
         -1   -1    0    0    0  501 -0.00000000000E+00  0.00000000000E+00  0.40074179762E+03  0.40074179765E+03  0.50400000000E-02 0.  1.
          1   -1    0    0  501    0  0.00000000000E+00 -0.00000000000E+00 -0.28478009678E+04  0.28478009678E+04  0.50400000000E-02 0. -1.
    8880023    1    1    2    0    0 -0.30274496417E+03  0.28827435642E+03 -0.19335028010E+02  0.78034650475E+03  0.65864270000E+03 0.  1.
    8880022    1    1    2    0    0  0.30274496417E+03 -0.28827435642E+03 -0.24277241421E+04  0.24681962607E+04  0.15294330000E+03 0.  0.
<mgrwt>
<rscale>  0 0.67801513E+03</rscale>
<asrwt>0</asrwt>
<pdfrwt beam="1">  1        1 0.43812321E+00 0.78010693E+03</pdfrwt>
<pdfrwt beam="2">  1       -1 0.61652586E-01 0.78010693E+03</pdfrwt>
<totfact> 0.21877958E+00</totfact>
</mgrwt>
</event>
<event>
 4    2  0.3396630E-007  0.8533892E+03  0.7818608E-02  0.9605433E-01
         -1   -1    0    0    0  501 -0.00000000000E+00  0.00000000000E+00  0.58225513604E+03  0.58225513606E+03  0.50400000000E-02 0.  1.
          1   -1    0    0  501    0  0.00000000000E+00 -0.00000000000E+00 -0.13531008558E+04  0.13531008558E+04  0.50400000000E-02 0. -1.
    8880023    1    1    2    0    0 -0.37269709172E+03  0.39441075512E+03 -0.10105910709E+04  0.13227121700E+04  0.65864270000E+03 0.  0.
    8880022    1    1    2    0    0  0.37269709172E+03 -0.39441075512E+03  0.23974535119E+03  0.61264382178E+03  0.15294330000E+03 0.  0.
<mgrwt>
<rscale>  0 0.76937653E+03</rscale>
<asrwt>0</asrwt>
<pdfrwt beam="1">  1        1 0.20816936E+00 0.85338923E+03</pdfrwt>
<pdfrwt beam="2">  1       -1 0.89577713E-01 0.85338923E+03</pdfrwt>
<totfact> 0.10341000E+01</totfact>
</mgrwt>
</event>
<event>
 4    2  0.3396630E-007  0.1244236E+04  0.7818608E-02  0.9115277E-01
          1   -1    0    0  501    0  0.00000000000E+00  0.00000000000E+00  0.41414294263E+04  0.41414294263E+04  0.50400000000E-02 0. -1.
         -1   -1    0    0    0  501 -0.00000000000E+00 -0.00000000000E+00 -0.36465434761E+03  0.36465434765E+03  0.50400000000E-02 0.  1.
    8880023    1    1    2    0    0 -0.39926174328E+03 -0.97719079535E+03  0.12513761618E+04  0.17646711577E+04  0.65864270000E+03 0.  0.
    8880022    1    1    2    0    0  0.39926174328E+03  0.97719079535E+03  0.25253989170E+04  0.27414126163E+04  0.15294330000E+03 0.  0.
<mgrwt>
<rscale>  0 0.11972382E+04</rscale>
<asrwt>0</asrwt>
<pdfrwt beam="1">  1        1 0.63714302E+00 0.12442355E+04</pdfrwt>
<pdfrwt beam="2">  1       -1 0.56100666E-01 0.12442355E+04</pdfrwt>
<totfact> 0.23385226E-01</totfact>
</mgrwt>
</event>
<event>
 4    2  0.3396630E-007  0.8682756E+03  0.7818608E-02  0.9579009E-01
          1   -1    0    0  501    0  0.00000000000E+00  0.00000000000E+00  0.10782337654E+04  0.10782337654E+04  0.50400000000E-02 0. -1.
         -1   -1    0    0    0  501 -0.00000000000E+00 -0.00000000000E+00 -0.64870475432E+03  0.64870475434E+03  0.50400000000E-02 0.  1.
    8880023    1    1    2    0    0  0.27542834058E+03 -0.49419785651E+03  0.66668237460E+03  0.10946999073E+04  0.65864270000E+03 0.  0.
    8880022    1    1    2    0    0 -0.27542834058E+03  0.49419785651E+03 -0.23715336355E+03  0.63223861242E+03  0.15294330000E+03 0.  0.
<mgrwt>
<rscale>  0 0.78701226E+03</rscale>
<asrwt>0</asrwt>
<pdfrwt beam="1">  1        1 0.16588212E+00 0.86827559E+03</pdfrwt>
<pdfrwt beam="2">  1       -1 0.99800732E-01 0.86827559E+03</pdfrwt>
<totfact> 0.12823912E+01</totfact>
</mgrwt>
</event>
<event>
 4    2  0.3396630E-007  0.1135113E+04  0.7818608E-02  0.9222933E-01
          1   -1    0    0  501    0  0.00000000000E+00  0.00000000000E+00  0.19875348346E+04  0.19875348346E+04  0.50400000000E-02 0. -1.
         -1   -1    0    0    0  501 -0.00000000000E+00 -0.00000000000E+00 -0.56854152615E+03  0.56854152617E+03  0.50400000000E-02 0.  1.
    8880023    1    1    2    0    0  0.22705271260E+03 -0.89616918619E+03  0.48930778060E+03  0.12360843236E+04  0.65864270000E+03 0.  0.
    8880022    1    1    2    0    0 -0.22705271260E+03  0.89616918619E+03  0.92968552789E+03  0.13199920372E+04  0.15294330000E+03 0.  0.
<mgrwt>
<rscale>  0 0.10819824E+04</rscale>
<asrwt>0</asrwt>
<pdfrwt beam="1">  1        1 0.30577459E+00 0.11351134E+04</pdfrwt>
<pdfrwt beam="2">  1       -1 0.87467926E-01 0.11351134E+04</pdfrwt>
<totfact> 0.38866352E+00</totfact>
</mgrwt>
</event>
<event>
 4    2  0.3396630E-007  0.6783754E+03  0.7818608E-02  0.1010258E+00
         -1   -1    0    0    0  501 -0.00000000000E+00  0.00000000000E+00  0.47893210185E+03  0.47893210188E+03  0.50400000000E-02 0.  1.
          1   -1    0    0  501    0  0.00000000000E+00 -0.00000000000E+00 -0.56421902746E+03  0.56421902748E+03  0.50400000000E-02 0. -1.
    8880023    1    1    2    0    0 -0.86581155714E+02  0.13742858826E+03  0.17475165278E+03  0.70052213370E+03  0.65864270000E+03 0.  1.
    8880022    1    1    2    0    0  0.86581155714E+02 -0.13742858826E+03 -0.26003857839E+03  0.34262899565E+03  0.15294330000E+03 0.  0.
<mgrwt>
<rscale>  0 0.51372237E+03</rscale>
<asrwt>0</asrwt>
<pdfrwt beam="1">  1        1 0.86802927E-01 0.67837535E+03</pdfrwt>
<pdfrwt beam="2">  1       -1 0.73681862E-01 0.67837535E+03</pdfrwt>
<totfact> 0.71203655E+01</totfact>
</mgrwt>
</event>
<event>
 4    2  0.3396630E-007  0.6850048E+03  0.7818608E-02  0.1006623E+00
         -1   -1    0    0    0  501 -0.00000000000E+00  0.00000000000E+00  0.70495938773E+03  0.70495938775E+03  0.50400000000E-02 0.  1.
          1   -1    0    0  501    0  0.00000000000E+00 -0.00000000000E+00 -0.11028322244E+04  0.11028322244E+04  0.50400000000E-02 0. -1.
    8880023    1    1    2    0    0  0.14907309801E+03  0.11488494238E+03  0.51898360992E+03  0.85940417277E+03  0.65864270000E+03 0.  1.
    8880022    1    1    2    0    0 -0.14907309801E+03 -0.11488494238E+03 -0.91685644655E+03  0.94838743935E+03  0.15294330000E+03 0.  0.
<mgrwt>
<rscale>  0 0.52838972E+03</rscale>
<asrwt>0</asrwt>
<pdfrwt beam="1">  1        1 0.16966650E+00 0.68500478E+03</pdfrwt>
<pdfrwt beam="2">  1       -1 0.10845529E+00 0.68500478E+03</pdfrwt>
<totfact> 0.10387544E+01</totfact>
</mgrwt>
</event>
<event>
 4    2  0.3396630E-007  0.7965159E+03  0.7818608E-02  0.9718381E-01
          1   -1    0    0  501    0  0.00000000000E+00  0.00000000000E+00  0.28735596128E+04  0.28735596128E+04  0.50400000000E-02 0. -1.
         -1   -1    0    0    0  501 -0.00000000000E+00 -0.00000000000E+00 -0.24441546762E+03  0.24441546767E+03  0.50400000000E-02 0.  1.
    8880023    1    1    2    0    0 -0.42377651533E+03 -0.14505468784E+03  0.50812970667E+03  0.94479278282E+03  0.65864270000E+03 0.  1.
    8880022    1    1    2    0    0  0.42377651533E+03  0.14505468784E+03  0.21210144385E+04  0.21731822977E+04  0.15294330000E+03 0.  0.
<mgrwt>
<rscale>  0 0.69932888E+03</rscale>
<asrwt>0</asrwt>
<pdfrwt beam="1">  1        1 0.44208609E+00 0.79651592E+03</pdfrwt>
<pdfrwt beam="2">  1       -1 0.37602380E-01 0.79651592E+03</pdfrwt>
<totfact> 0.53152175E+00</totfact>
</mgrwt>
</event>
<event>
 4    2  0.3396630E-007  0.9908919E+03  0.7818608E-02  0.9393572E-01
          1   -1    0    0  501    0  0.00000000000E+00  0.00000000000E+00  0.25051639555E+04  0.25051639555E+04  0.50400000000E-02 0. -1.
         -1   -1    0    0    0  501 -0.00000000000E+00 -0.00000000000E+00 -0.61263885422E+03  0.61263885424E+03  0.50400000000E-02 0.  1.
    8880023    1    1    2    0    0 -0.27394412337E+03  0.68775806259E+03 -0.91048192312E+02  0.99506608573E+03  0.65864270000E+03 0.  0.
    8880022    1    1    2    0    0  0.27394412337E+03 -0.68775806259E+03  0.19835732936E+04  0.21227367240E+04  0.15294330000E+03 0.  0.
<mgrwt>
<rscale>  0 0.92606573E+03</rscale>
<asrwt>0</asrwt>
<pdfrwt beam="1">  1        1 0.38540984E+00 0.99089189E+03</pdfrwt>
<pdfrwt beam="2">  1       -1 0.94252132E-01 0.99089189E+03</pdfrwt>
<totfact> 0.14940563E+00</totfact>
</mgrwt>
</event>
<event>
 4    2  0.3396630E-007  0.8364751E+03  0.7818608E-02  0.9636863E-01
         -1   -1    0    0    0  501 -0.00000000000E+00  0.00000000000E+00  0.18177191245E+03  0.18177191252E+03  0.50400000000E-02 0.  1.
          1   -1    0    0  501    0  0.00000000000E+00 -0.00000000000E+00 -0.37170826457E+04  0.37170826457E+04  0.50400000000E-02 0. -1.
    8880023    1    1    2    0    0  0.51497977943E+03  0.26003654150E+02 -0.98409637124E+03  0.12915634856E+04  0.65864270000E+03 0.  1.
    8880022    1    1    2    0    0 -0.51497977943E+03 -0.26003654150E+02 -0.25512143620E+04  0.26072910726E+04  0.15294330000E+03 0.  0.
<mgrwt>
<rscale>  0 0.74903664E+03</rscale>
<asrwt>0</asrwt>
<pdfrwt beam="1">  1        1 0.57185881E+00 0.83647509E+03</pdfrwt>
<pdfrwt beam="2">  1       -1 0.27964912E-01 0.83647509E+03</pdfrwt>
<totfact> 0.20666622E+00</totfact>
</mgrwt>
</event>
<event>
 4    2  0.3396630E-007  0.8180770E+03  0.7818608E-02  0.9672992E-01
         -1   -1    0    0    0  501 -0.00000000000E+00  0.00000000000E+00  0.30920955353E+03  0.30920955357E+03  0.50400000000E-02 0.  1.
          1   -1    0    0  501    0  0.00000000000E+00 -0.00000000000E+00 -0.16667823494E+04  0.16667823494E+04  0.50400000000E-02 0. -1.
    8880023    1    1    2    0    0 -0.24456917746E+03  0.41907716305E+03 -0.44522890721E+03  0.93138538598E+03  0.65864270000E+03 0.  0.
    8880022    1    1    2    0    0  0.24456917746E+03 -0.41907716305E+03 -0.91234388867E+03  0.10446065170E+04  0.15294330000E+03 0.  0.
<mgrwt>
<rscale>  0 0.72647848E+03</rscale>
<asrwt>0</asrwt>
<pdfrwt beam="1">  1        1 0.25642805E+00 0.81807699E+03</pdfrwt>
<pdfrwt beam="2">  1       -1 0.47570702E-01 0.81807699E+03</pdfrwt>
<totfact> 0.22750493E+01</totfact>
</mgrwt>
</event>
<event>
 4    2  0.3396630E-007  0.6890659E+03  0.7818608E-02  0.1004600E+00
          1   -1    0    0  501    0  0.00000000000E+00  0.00000000000E+00  0.96852891016E+03  0.96852891017E+03  0.50400000000E-02 0. -1.
         -1   -1    0    0    0  501 -0.00000000000E+00 -0.00000000000E+00 -0.30439419182E+03  0.30439419186E+03  0.50400000000E-02 0.  1.
    8880023    1    1    2    0    0 -0.31730941962E+02  0.19998692594E+03  0.15831380339E+03  0.70701845084E+03  0.65864270000E+03 0.  1.
    8880022    1    1    2    0    0  0.31730941962E+02 -0.19998692594E+03  0.50582091495E+03  0.56590465119E+03  0.15294330000E+03 0.  0.
<mgrwt>
<rscale>  0 0.53678533E+03</rscale>
<asrwt>0</asrwt>
<pdfrwt beam="1">  1        1 0.14900445E+00 0.68906591E+03</pdfrwt>
<pdfrwt beam="2">  1       -1 0.46829876E-01 0.68906591E+03</pdfrwt>
<totfact> 0.74763152E+01</totfact>
</mgrwt>
</event>
<event>
 4    2  0.3396630E-007  0.9379699E+03  0.7818608E-02  0.9467638E-01
         -1   -1    0    0    0  501 -0.00000000000E+00  0.00000000000E+00  0.27781964179E+03  0.27781964184E+03  0.50400000000E-02 0.  1.
          1   -1    0    0  501    0  0.00000000000E+00 -0.00000000000E+00 -0.31468217478E+04  0.31468217478E+04  0.50400000000E-02 0. -1.
    8880023    1    1    2    0    0  0.66696273116E+03 -0.33735042033E+02 -0.24454964873E+04  0.26192061036E+04  0.65864270000E+03 0.  0.
    8880022    1    1    2    0    0 -0.66696273116E+03  0.33735042033E+02 -0.42350561873E+03  0.80543528599E+03  0.15294330000E+03 0.  0.
<mgrwt>
<rscale>  0 0.86712354E+03</rscale>
<asrwt>0</asrwt>
<pdfrwt beam="1">  1        1 0.48412640E+00 0.93796991E+03</pdfrwt>
<pdfrwt beam="2">  1       -1 0.42741486E-01 0.93796991E+03</pdfrwt>
<totfact> 0.26121800E+00</totfact>
</mgrwt>
</event>
<event>
 4    2  0.3396630E-007  0.7143096E+03  0.7818608E-02  0.9942333E-01
          1   -1    0    0  501    0  0.00000000000E+00  0.00000000000E+00  0.16735420372E+04  0.16735420372E+04  0.50400000000E-02 0. -1.
         -1   -1    0    0    0  501 -0.00000000000E+00 -0.00000000000E+00 -0.34312627030E+03  0.34312627034E+03  0.50400000000E-02 0.  1.
    8880023    1    1    2    0    0  0.16732192553E+03  0.22007115480E+03  0.70542825874E+02  0.71778439415E+03  0.65864270000E+03 0.  1.
    8880022    1    1    2    0    0 -0.16732192553E+03 -0.22007115480E+03  0.12598729410E+04  0.12988839134E+04  0.15294330000E+03 0.  0.
<mgrwt>
<rscale>  0 0.58252802E+03</rscale>
<asrwt>0</asrwt>
<pdfrwt beam="1">  1        1 0.25746802E+00 0.71430956E+03</pdfrwt>
<pdfrwt beam="2">  1       -1 0.52788655E-01 0.71430956E+03</pdfrwt>
<totfact> 0.18734232E+01</totfact>
</mgrwt>
</event>
<event>
 4    2  0.3396630E-007  0.6842712E+03  0.7818608E-02  0.1007004E+00
         -1   -1    0    0    0  501 -0.00000000000E+00  0.00000000000E+00  0.24679838386E+03  0.24679838391E+03  0.50400000000E-02 0.  1.
          1   -1    0    0  501    0  0.00000000000E+00 -0.00000000000E+00 -0.10706927113E+04  0.10706927113E+04  0.50400000000E-02 0. -1.
    8880023    1    1    2    0    0  0.82019622858E+01  0.18533657095E+03 -0.31220685891E+03  0.75213047122E+03  0.65864270000E+03 0.  1.
    8880022    1    1    2    0    0 -0.82019622858E+01 -0.18533657095E+03 -0.51168746852E+03  0.56536062400E+03  0.15294330000E+03 0.  0.
<mgrwt>
<rscale>  0 0.52682969E+03</rscale>
<asrwt>0</asrwt>
<pdfrwt beam="1">  1        1 0.16472195E+00 0.68427123E+03</pdfrwt>
<pdfrwt beam="2">  1       -1 0.37968983E-01 0.68427123E+03</pdfrwt>
<totfact> 0.91722554E+01</totfact>
</mgrwt>
</event>
<event>
 4    2  0.3396630E-007  0.7989850E+03  0.7818608E-02  0.9712995E-01
          1   -1    0    0  501    0  0.00000000000E+00  0.00000000000E+00  0.17210382094E+04  0.17210382094E+04  0.50400000000E-02 0. -1.
         -1   -1    0    0    0  501 -0.00000000000E+00 -0.00000000000E+00 -0.27248157039E+03  0.27248157043E+03  0.50400000000E-02 0.  1.
    8880023    1    1    2    0    0  0.22987685299E+03 -0.38951702018E+03  0.12339930575E+04  0.14700734501E+04  0.65864270000E+03 0.  0.
    8880022    1    1    2    0    0 -0.22987685299E+03  0.38951702018E+03  0.21456358150E+03  0.52344632970E+03  0.15294330000E+03 0.  0.
<mgrwt>
<rscale>  0 0.70248323E+03</rscale>
<asrwt>0</asrwt>
<pdfrwt beam="1">  1        1 0.26477510E+00 0.79898503E+03</pdfrwt>
<pdfrwt beam="2">  1       -1 0.41920243E-01 0.79898503E+03</pdfrwt>
<totfact> 0.26508245E+01</totfact>
</mgrwt>
</event>
<event>
 4    2  0.3396630E-007  0.9068007E+03  0.7818608E-02  0.9515201E-01
          1   -1    0    0  501    0  0.00000000000E+00  0.00000000000E+00  0.50849354209E+03  0.50849354212E+03  0.50400000000E-02 0. -1.
         -1   -1    0    0    0  501 -0.00000000000E+00 -0.00000000000E+00 -0.15072386642E+04  0.15072386642E+04  0.50400000000E-02 0.  1.
    8880023    1    1    2    0    0  0.16019002723E+03 -0.60234240392E+03 -0.10131663133E+03  0.91244313929E+03  0.65864270000E+03 0.  0.
    8880022    1    1    2    0    0 -0.16019002723E+03  0.60234240392E+03 -0.89742849080E+03  0.11032890671E+04  0.15294330000E+03 0.  0.
<mgrwt>
<rscale>  0 0.83172305E+03</rscale>
<asrwt>0</asrwt>
<pdfrwt beam="1">  1        1 0.78229777E-01 0.90680065E+03</pdfrwt>
<pdfrwt beam="2">  1       -1 0.23188287E+00 0.90680065E+03</pdfrwt>
<totfact> 0.40416591E+00</totfact>
</mgrwt>
</event>
<event>
 4    2  0.3396630E-007  0.8554416E+03  0.7818608E-02  0.9601724E-01
          1   -1    0    0  501    0  0.00000000000E+00  0.00000000000E+00  0.19063237116E+04  0.19063237116E+04  0.50400000000E-02 0. -1.
         -1   -1    0    0    0  501 -0.00000000000E+00 -0.00000000000E+00 -0.33506969764E+03  0.33506969768E+03  0.50400000000E-02 0.  1.
    8880023    1    1    2    0    0 -0.24742486118E+02  0.54530533623E+03  0.40884868640E+03  0.94812317500E+03  0.65864270000E+03 0. -1.
    8880022    1    1    2    0    0  0.24742486118E+02 -0.54530533623E+03  0.11624053276E+04  0.12932702343E+04  0.15294330000E+03 0.  0.
<mgrwt>
<rscale>  0 0.77182180E+03</rscale>
<asrwt>0</asrwt>
<pdfrwt beam="1">  1        1 0.29328057E+00 0.85544159E+03</pdfrwt>
<pdfrwt beam="2">  1       -1 0.51549184E-01 0.85544159E+03</pdfrwt>
<totfact> 0.13419169E+01</totfact>
</mgrwt>
</event>
<event>
 4    2  0.3396630E-007  0.7191907E+03  0.7818608E-02  0.9925334E-01
          1   -1    0    0  501    0  0.00000000000E+00  0.00000000000E+00  0.17724780645E+04  0.17724780645E+04  0.50400000000E-02 0. -1.
         -1   -1    0    0    0  501 -0.00000000000E+00 -0.00000000000E+00 -0.29999719929E+03  0.29999719933E+03  0.50400000000E-02 0.  1.
    8880023    1    1    2    0    0  0.18544710471E+03 -0.22143714238E+03  0.18284425386E+03  0.74206958171E+03  0.65864270000E+03 0.  1.
    8880022    1    1    2    0    0 -0.18544710471E+03  0.22143714238E+03  0.12896366114E+04  0.13304056821E+04  0.15294330000E+03 0.  0.
<mgrwt>
<rscale>  0 0.59049052E+03</rscale>
<asrwt>0</asrwt>
<pdfrwt beam="1">  1        1 0.27268893E+00 0.71919069E+03</pdfrwt>
<pdfrwt beam="2">  1       -1 0.46153416E-01 0.71919069E+03</pdfrwt>
<totfact> 0.20703558E+01</totfact>
</mgrwt>
</event>
<event>
 4    2  0.3396630E-007  0.7338489E+03  0.7818608E-02  0.9878241E-01
          1   -1    0    0  501    0  0.00000000000E+00  0.00000000000E+00  0.20056662048E+04  0.20056662048E+04  0.50400000000E-02 0. -1.
         -1   -1    0    0    0  501 -0.00000000000E+00 -0.00000000000E+00 -0.32493145384E+03  0.32493145388E+03  0.50400000000E-02 0.  1.
    8880023    1    1    2    0    0  0.17132490174E+03  0.27453911908E+03  0.13778043937E+03  0.74667101564E+03  0.65864270000E+03 0.  0.
    8880022    1    1    2    0    0 -0.17132490174E+03 -0.27453911908E+03  0.15429543116E+04  0.15839266430E+04  0.15294330000E+03 0.  0.
<mgrwt>
<rscale>  0 0.61327495E+03</rscale>
<asrwt>0</asrwt>
<pdfrwt beam="1">  1        1 0.30856403E+00 0.73384886E+03</pdfrwt>
<pdfrwt beam="2">  1       -1 0.49989455E-01 0.73384886E+03</pdfrwt>
<totfact> 0.12419280E+01</totfact>
</mgrwt>
</event>
<event>
 4    2  0.3396630E-007  0.7268231E+03  0.7818608E-02  0.9900141E-01
          1   -1    0    0  501    0  0.00000000000E+00  0.00000000000E+00  0.60451291258E+03  0.60451291261E+03  0.50400000000E-02 0. -1.
         -1   -1    0    0    0  501 -0.00000000000E+00 -0.00000000000E+00 -0.80638729154E+03  0.80638729156E+03  0.50400000000E-02 0.  1.
    8880023    1    1    2    0    0  0.17956713232E+03  0.24943399475E+03 -0.55795000878E+03  0.91628603138E+03  0.65864270000E+03 0.  0.
    8880022    1    1    2    0    0 -0.17956713232E+03 -0.24943399475E+03  0.35607562982E+03  0.49461417278E+03  0.15294330000E+03 0.  0.
<mgrwt>
<rscale>  0 0.60254473E+03</rscale>
<asrwt>0</asrwt>
<pdfrwt beam="1">  1        1 0.93001987E-01 0.72682314E+03</pdfrwt>
<pdfrwt beam="2">  1       -1 0.12405958E+00 0.72682314E+03</pdfrwt>
<totfact> 0.19881572E+01</totfact>
</mgrwt>
</event>
<event>
 4    2  0.3396630E-007  0.8627502E+03  0.7818608E-02  0.9588690E-01
          1   -1    0    0  501    0  0.00000000000E+00  0.00000000000E+00  0.37834819198E+03  0.37834819201E+03  0.50400000000E-02 0. -1.
         -1   -1    0    0    0  501 -0.00000000000E+00 -0.00000000000E+00 -0.16048501878E+04  0.16048501878E+04  0.50400000000E-02 0.  1.
    8880023    1    1    2    0    0  0.54098365721E+03  0.13365742382E+03 -0.10887630616E+04  0.13891518401E+04  0.65864270000E+03 0.  0.
    8880022    1    1    2    0    0 -0.54098365721E+03 -0.13365742382E+03 -0.13773893420E+03  0.59404653970E+03  0.15294330000E+03 0.  0.
<mgrwt>
<rscale>  0 0.78049293E+03</rscale>
<asrwt>0</asrwt>
<pdfrwt beam="1">  1        1 0.58207415E-01 0.86275016E+03</pdfrwt>
<pdfrwt beam="2">  1       -1 0.24690002E+00 0.86275016E+03</pdfrwt>
<totfact> 0.48339125E+00</totfact>
</mgrwt>
</event>
<event>
 4    2  0.3769297E-007  0.7451990E+03  0.7818608E-02  0.9845054E-01
         -1   -1    0    0    0  501 -0.00000000000E+00  0.00000000000E+00  0.95666250026E+03  0.95666250027E+03  0.50400000000E-02 0.  1.
          1   -1    0    0  501    0  0.00000000000E+00 -0.00000000000E+00 -0.10981026643E+04  0.10981026643E+04  0.50400000000E-02 0. -1.
    8880023    1    1    2    0    0  0.15956829761E+03  0.30991820981E+03  0.76724247822E+03  0.10695712061E+04  0.65864270000E+03 0.  0.
    8880022    1    1    2    0    0 -0.15956829761E+03 -0.30991820981E+03 -0.90868264229E+03  0.98519395846E+03  0.15294330000E+03 0.  0.
<mgrwt>
<rscale>  0 0.62999756E+03</rscale>
<asrwt>0</asrwt>
<pdfrwt beam="1">  1        1 0.16893887E+00 0.74519900E+03</pdfrwt>
<pdfrwt beam="2">  1       -1 0.14717885E+00 0.74519900E+03</pdfrwt>
<totfact> 0.48496058E+00</totfact>
</mgrwt>
</event>
<event>
 4    2  0.3396630E-007  0.8101746E+03  0.7818608E-02  0.9689213E-01
         -1   -1    0    0    0  501 -0.00000000000E+00  0.00000000000E+00  0.68209425957E+03  0.68209425959E+03  0.50400000000E-02 0.  1.
          1   -1    0    0  501    0  0.00000000000E+00 -0.00000000000E+00 -0.97395662681E+03  0.97395662682E+03  0.50400000000E-02 0. -1.
    8880023    1    1    2    0    0  0.14646619502E+03  0.44846446166E+03 -0.65462292967E+03  0.10415921015E+04  0.65864270000E+03 0. -1.
    8880022    1    1    2    0    0 -0.14646619502E+03 -0.44846446166E+03  0.36276056242E+03  0.61445878489E+03  0.15294330000E+03 0.  0.
<mgrwt>
<rscale>  0 0.71662673E+03</rscale>
<asrwt>0</asrwt>
<pdfrwt beam="1">  1        1 0.14983948E+00 0.81017463E+03</pdfrwt>
<pdfrwt beam="2">  1       -1 0.10493758E+00 0.81017463E+03</pdfrwt>
<totfact> 0.13835242E+01</totfact>
</mgrwt>
</event>
<event>
 4    2  0.3396630E-007  0.7909077E+03  0.7818608E-02  0.9730812E-01
         -1   -1    0    0    0  501 -0.00000000000E+00  0.00000000000E+00  0.70640655498E+03  0.70640655500E+03  0.50400000000E-02 0.  1.
          1   -1    0    0  501    0  0.00000000000E+00 -0.00000000000E+00 -0.62671979325E+03  0.62671979327E+03  0.50400000000E-02 0. -1.
    8880023    1    1    2    0    0  0.90395926926E+02  0.42843129858E+03  0.26434122956E+03  0.83391324076E+03  0.65864270000E+03 0. -1.
    8880022    1    1    2    0    0 -0.90395926926E+02 -0.42843129858E+03 -0.18465446782E+03  0.49921310751E+03  0.15294330000E+03 0.  0.
<mgrwt>
<rscale>  0 0.69211548E+03</rscale>
<asrwt>0</asrwt>
<pdfrwt beam="1">  1        1 0.96418430E-01 0.79090771E+03</pdfrwt>
<pdfrwt beam="2">  1       -1 0.10867793E+00 0.79090771E+03</pdfrwt>
<totfact> 0.25770575E+01</totfact>
</mgrwt>
</event>
<event>
 4    2  0.4039161E-007  0.9007295E+03  0.7818608E-02  0.9524862E-01
          1   -1    0    0  501    0  0.00000000000E+00  0.00000000000E+00  0.25145506688E+04  0.25145506688E+04  0.50400000000E-02 0. -1.
         -1   -1    0    0    0  501 -0.00000000000E+00 -0.00000000000E+00 -0.14553386746E+04  0.14553386746E+04  0.50400000000E-02 0.  1.
    8880023    1    1    2    0    0  0.49717203946E+03 -0.36100330181E+03 -0.12695306450E+04  0.15566058222E+04  0.65864270000E+03 0.  1.
    8880022    1    1    2    0    0 -0.49717203946E+03  0.36100330181E+03  0.23287426392E+04  0.24132835212E+04  0.15294330000E+03 0.  0.
<mgrwt>
<rscale>  0 0.82475438E+03</rscale>
<asrwt>0</asrwt>
<pdfrwt beam="1">  1        1 0.38685394E+00 0.90072950E+03</pdfrwt>
<pdfrwt beam="2">  1       -1 0.22389826E+00 0.90072950E+03</pdfrwt>
<totfact> 0.14315417E-01</totfact>
</mgrwt>
</event>
<event>
 4    2  0.3396630E-007  0.6650365E+03  0.7818608E-02  0.1019503E+00
         -1   -1    0    0    0  501 -0.00000000000E+00  0.00000000000E+00  0.18428148530E+04  0.18428148530E+04  0.50400000000E-02 0.  1.
          1   -1    0    0  501    0  0.00000000000E+00 -0.00000000000E+00 -0.21632268785E+03  0.21632268791E+03  0.50400000000E-02 0. -1.
    8880023    1    1    2    0    0  0.91952519090E+02  0.28358955118E+01  0.17295769898E+04  0.18530272739E+04  0.65864270000E+03 0.  1.
    8880022    1    1    2    0    0 -0.91952519090E+02 -0.28358955118E+01 -0.10308482464E+03  0.20611026698E+03  0.15294330000E+03 0.  0.
<mgrwt>
<rscale>  0 0.47866452E+03</rscale>
<asrwt>0</asrwt>
<pdfrwt beam="1">  1        1 0.33280415E-01 0.66503648E+03</pdfrwt>
<pdfrwt beam="2">  1       -1 0.28350997E+00 0.66503648E+03</pdfrwt>
<totfact> 0.59811550E+00</totfact>
</mgrwt>
</event>
<event>
 4    2  0.3396630E-007  0.8645037E+03  0.7818608E-02  0.9585602E-01
          1   -1    0    0  501    0  0.00000000000E+00  0.00000000000E+00  0.62766559425E+03  0.62766559427E+03  0.50400000000E-02 0. -1.
         -1   -1    0    0    0  501 -0.00000000000E+00 -0.00000000000E+00 -0.92388113712E+03  0.92388113713E+03  0.50400000000E-02 0.  1.
    8880023    1    1    2    0    0 -0.44819277858E+03 -0.33567798703E+03 -0.41514512587E+03  0.95901624571E+03  0.65864270000E+03 0.  1.
    8880022    1    1    2    0    0  0.44819277858E+03  0.33567798703E+03  0.11892958300E+03  0.59253048569E+03  0.15294330000E+03 0.  0.
<mgrwt>
<rscale>  0 0.78256520E+03</rscale>
<asrwt>0</asrwt>
<pdfrwt beam="1">  1        1 0.96563937E-01 0.86450372E+03</pdfrwt>
<pdfrwt beam="2">  1       -1 0.14213556E+00 0.86450372E+03</pdfrwt>
<totfact> 0.13120181E+01</totfact>
</mgrwt>
</event>
<event>
 4    2  0.3396630E-007  0.1107461E+04  0.7818608E-02  0.9252795E-01
         -1   -1    0    0    0  501 -0.00000000000E+00  0.00000000000E+00  0.10563771365E+04  0.10563771365E+04  0.50400000000E-02 0.  1.
          1   -1    0    0  501    0  0.00000000000E+00 -0.00000000000E+00 -0.15688390471E+04  0.15688390471E+04  0.50400000000E-02 0. -1.
    8880023    1    1    2    0    0 -0.79761167567E+03  0.39556840029E+03  0.54511204125E+03  0.12343484469E+04  0.65864270000E+03 0.  0.
    8880022    1    1    2    0    0  0.79761167567E+03 -0.39556840029E+03 -0.10575739519E+04  0.13908677368E+04  0.15294330000E+03 0.  0.
<mgrwt>
<rscale>  0 0.10524727E+04</rscale>
<asrwt>0</asrwt>
<pdfrwt beam="1">  1        1 0.24135985E+00 0.11074606E+04</pdfrwt>
<pdfrwt beam="2">  1       -1 0.16251956E+00 0.11074606E+04</pdfrwt>
<totfact> 0.16264609E+00</totfact>
</mgrwt>
</event>
<event>
 4    2  0.3396630E-007  0.7535428E+03  0.7818608E-02  0.9822121E-01
         -1   -1    0    0    0  501 -0.00000000000E+00  0.00000000000E+00  0.41791348437E+03  0.41791348440E+03  0.50400000000E-02 0.  1.
          1   -1    0    0  501    0  0.00000000000E+00 -0.00000000000E+00 -0.10698880978E+04  0.10698880978E+04  0.50400000000E-02 0. -1.
    8880023    1    1    2    0    0  0.26486412534E+03 -0.25271228099E+03 -0.35104809721E+02  0.75436003061E+03  0.65864270000E+03 0.  0.
    8880022    1    1    2    0    0 -0.26486412534E+03  0.25271228099E+03 -0.61686980367E+03  0.73344155155E+03  0.15294330000E+03 0.  0.
<mgrwt>
<rscale>  0 0.64188812E+03</rscale>
<asrwt>0</asrwt>
<pdfrwt beam="1">  1        1 0.16459817E+00 0.75354277E+03</pdfrwt>
<pdfrwt beam="2">  1       -1 0.64294383E-01 0.75354277E+03</pdfrwt>
<totfact> 0.33652820E+01</totfact>
</mgrwt>
</event>
<event>
 4    2  0.3396630E-007  0.7986658E+03  0.7818608E-02  0.9713688E-01
          1   -1    0    0  501    0  0.00000000000E+00  0.00000000000E+00  0.22514602232E+04  0.22514602232E+04  0.50400000000E-02 0. -1.
         -1   -1    0    0    0  501 -0.00000000000E+00 -0.00000000000E+00 -0.33248015315E+03  0.33248015319E+03  0.50400000000E-02 0.  1.
    8880023    1    1    2    0    0 -0.66303637773E+02  0.44683404662E+03  0.23322556784E+03  0.83202236109E+03  0.65864270000E+03 0.  0.
    8880022    1    1    2    0    0  0.66303637773E+02 -0.44683404662E+03  0.16857545022E+04  0.17519180153E+04  0.15294330000E+03 0.  0.
<mgrwt>
<rscale>  0 0.70207611E+03</rscale>
<asrwt>0</asrwt>
<pdfrwt beam="1">  1        1 0.34637848E+00 0.79866579E+03</pdfrwt>
<pdfrwt beam="2">  1       -1 0.51150795E-01 0.79866579E+03</pdfrwt>
<totfact> 0.80538393E+00</totfact>
</mgrwt>
</event>
<event>
 4    2  0.3396630E-007  0.6602760E+03  0.7818608E-02  0.1023875E+00
          1   -1    0    0  501    0  0.00000000000E+00  0.00000000000E+00  0.74349850937E+03  0.74349850939E+03  0.50400000000E-02 0. -1.
         -1   -1    0    0    0  501 -0.00000000000E+00 -0.00000000000E+00 -0.29619003732E+03  0.29619003736E+03  0.50400000000E-02 0.  1.
    8880023    1    1    2    0    0  0.36534761682E+02 -0.28625834213E+02  0.11400765241E+03  0.67004640008E+03  0.65864270000E+03 0.  1.
    8880022    1    1    2    0    0 -0.36534761682E+02  0.28625834213E+02  0.33330081965E+03  0.36964214666E+03  0.15294330000E+03 0.  0.
<mgrwt>
<rscale>  0 0.46313676E+03</rscale>
<asrwt>0</asrwt>
<pdfrwt beam="1">  1        1 0.11438439E+00 0.66027603E+03</pdfrwt>
<pdfrwt beam="2">  1       -1 0.45567698E-01 0.66027603E+03</pdfrwt>
<totfact> 0.12159675E+02</totfact>
</mgrwt>
</event>
<event>
 4    2  0.3396630E-007  0.1207683E+04  0.7818608E-02  0.9149690E-01
         -1   -1    0    0    0  501 -0.00000000000E+00  0.00000000000E+00  0.92706276482E+03  0.92706276484E+03  0.50400000000E-02 0.  1.
          1   -1    0    0  501    0  0.00000000000E+00 -0.00000000000E+00 -0.14724059953E+04  0.14724059953E+04  0.50400000000E-02 0. -1.
    8880023    1    1    2    0    0 -0.79268323337E+02  0.10091604622E+04 -0.64805010519E+03  0.13705719429E+04  0.65864270000E+03 0.  0.
    8880022    1    1    2    0    0  0.79268323337E+02 -0.10091604622E+04  0.10270687469E+03  0.10288968173E+04  0.15294330000E+03 0.  0.
<mgrwt>
<rscale>  0 0.11588148E+04</rscale>
<asrwt>0</asrwt>
<pdfrwt beam="1">  1        1 0.22652400E+00 0.12076831E+04</pdfrwt>
<pdfrwt beam="2">  1       -1 0.14262504E+00 0.12076831E+04</pdfrwt>
<totfact> 0.26761198E+00</totfact>
</mgrwt>
</event>
<event>
 4    2  0.3396630E-007  0.7774220E+03  0.7818608E-02  0.9761928E-01
          1   -1    0    0  501    0  0.00000000000E+00  0.00000000000E+00  0.12045640783E+04  0.12045640783E+04  0.50400000000E-02 0. -1.
         -1   -1    0    0    0  501 -0.00000000000E+00 -0.00000000000E+00 -0.74558149481E+03  0.74558149482E+03  0.50400000000E-02 0.  1.
    8880023    1    1    2    0    0  0.37924741864E+03  0.16354264985E+03 -0.47954009387E+03  0.91342416803E+03  0.65864270000E+03 0.  1.
    8880022    1    1    2    0    0 -0.37924741864E+03 -0.16354264985E+03  0.93852267735E+03  0.10367214051E+04  0.15294330000E+03 0.  0.
<mgrwt>
<rscale>  0 0.67446351E+03</rscale>
<asrwt>0</asrwt>
<pdfrwt beam="1">  1        1 0.18531755E+00 0.77742203E+03</pdfrwt>
<pdfrwt beam="2">  1       -1 0.11470484E+00 0.77742203E+03</pdfrwt>
<totfact> 0.75573443E+00</totfact>
</mgrwt>
</event>
<event>
 4    2  0.3396630E-007  0.1156458E+04  0.7818608E-02  0.9200656E-01
          1   -1    0    0  501    0  0.00000000000E+00  0.00000000000E+00  0.20498670472E+04  0.20498670472E+04  0.50400000000E-02 0. -1.
         -1   -1    0    0    0  501 -0.00000000000E+00 -0.00000000000E+00 -0.90133797175E+03  0.90133797177E+03  0.50400000000E-02 0.  1.
    8880023    1    1    2    0    0 -0.13926524858E+03 -0.94031371399E+03 -0.31571765794E+03  0.11987796028E+04  0.65864270000E+03 0.  1.
    8880022    1    1    2    0    0  0.13926524858E+03  0.94031371399E+03  0.14642467334E+04  0.17524254162E+04  0.15294330000E+03 0.  0.
<mgrwt>
<rscale>  0 0.11046659E+04</rscale>
<asrwt>0</asrwt>
<pdfrwt beam="1">  1        1 0.31536415E+00 0.11564579E+04</pdfrwt>
<pdfrwt beam="2">  1       -1 0.13866738E+00 0.11564579E+04</pdfrwt>
<totfact> 0.11720081E+00</totfact>
</mgrwt>
</event>
<event>
 4    2  0.3396630E-007  0.1281836E+04  0.7818608E-02  0.9081406E-01
          1   -1    0    0  501    0  0.00000000000E+00  0.00000000000E+00  0.28767501976E+04  0.28767501976E+04  0.50400000000E-02 0. -1.
         -1   -1    0    0    0  501 -0.00000000000E+00 -0.00000000000E+00 -0.87075667037E+03  0.87075667038E+03  0.50400000000E-02 0.  1.
    8880023    1    1    2    0    0  0.91957526174E+03 -0.60305531316E+03 -0.18126864927E+03  0.12945898587E+04  0.65864270000E+03 0.  1.
    8880022    1    1    2    0    0 -0.91957526174E+03  0.60305531316E+03  0.21872621765E+04  0.24529170093E+04  0.15294330000E+03 0.  0.
<mgrwt>
<rscale>  0 0.12366050E+04</rscale>
<asrwt>0</asrwt>
<pdfrwt beam="1">  1        1 0.44257696E+00 0.12818364E+04</pdfrwt>
<pdfrwt beam="2">  1       -1 0.13396256E+00 0.12818364E+04</pdfrwt>
<totfact> 0.33817975E-01</totfact>
</mgrwt>
</event>
<event>
 4    2  0.3396630E-007  0.8117869E+03  0.7818608E-02  0.9685867E-01
         -1   -1    0    0    0  501 -0.00000000000E+00  0.00000000000E+00  0.41382587311E+03  0.41382587314E+03  0.50400000000E-02 0.  1.
          1   -1    0    0  501    0  0.00000000000E+00 -0.00000000000E+00 -0.14568915252E+04  0.14568915252E+04  0.50400000000E-02 0. -1.
    8880023    1    1    2    0    0 -0.38189226444E+03 -0.28168423540E+03 -0.11863840773E+03  0.82041025601E+03  0.65864270000E+03 0.  1.
    8880022    1    1    2    0    0  0.38189226444E+03  0.28168423540E+03 -0.92442724434E+03  0.10503071423E+04  0.15294330000E+03 0.  0.
<mgrwt>
<rscale>  0 0.71864540E+03</rscale>
<asrwt>0</asrwt>
<pdfrwt beam="1">  1        1 0.22413716E+00 0.81178687E+03</pdfrwt>
<pdfrwt beam="2">  1       -1 0.63665520E-01 0.81178687E+03</pdfrwt>
<totfact> 0.18003104E+01</totfact>
</mgrwt>
</event>
<event>
 4    2  0.3396630E-007  0.1105833E+04  0.7818608E-02  0.9254589E-01
          1   -1    0    0  501    0  0.00000000000E+00  0.00000000000E+00  0.25760542842E+04  0.25760542842E+04  0.50400000000E-02 0. -1.
         -1   -1    0    0    0  501 -0.00000000000E+00 -0.00000000000E+00 -0.46714041665E+03  0.46714041667E+03  0.50400000000E-02 0.  1.
    8880023    1    1    2    0    0 -0.79935264042E+03 -0.38741787448E+03  0.53268417120E+03  0.12274444532E+04  0.65864270000E+03 0.  0.
    8880022    1    1    2    0    0  0.79935264042E+03  0.38741787448E+03  0.15762296964E+04  0.18157502477E+04  0.15294330000E+03 0.  0.
<mgrwt>
<rscale>  0 0.10507316E+04</rscale>
<asrwt>0</asrwt>
<pdfrwt beam="1">  1        1 0.39631603E+00 0.11058334E+04</pdfrwt>
<pdfrwt beam="2">  1       -1 0.71867758E-01 0.11058334E+04</pdfrwt>
<totfact> 0.23558545E+00</totfact>
</mgrwt>
</event>
<event>
 4    2  0.3396630E-007  0.7260253E+03  0.7818608E-02  0.9902702E-01
          1   -1    0    0  501    0  0.00000000000E+00  0.00000000000E+00  0.17775163076E+04  0.17775163076E+04  0.50400000000E-02 0. -1.
         -1   -1    0    0    0  501 -0.00000000000E+00 -0.00000000000E+00 -0.42802842337E+03  0.42802842340E+03  0.50400000000E-02 0.  1.
    8880023    1    1    2    0    0  0.30407745738E+03  0.28972246490E+02 -0.84962493037E+02  0.73097970057E+03  0.65864270000E+03 0.  1.
    8880022    1    1    2    0    0 -0.30407745738E+03 -0.28972246490E+02  0.14344503772E+04  0.14745650304E+04  0.15294330000E+03 0.  0.
<mgrwt>
<rscale>  0 0.60130517E+03</rscale>
<asrwt>0</asrwt>
<pdfrwt beam="1">  1        1 0.27346405E+00 0.72602527E+03</pdfrwt>
<pdfrwt beam="2">  1       -1 0.65850527E-01 0.72602527E+03</pdfrwt>
<totfact> 0.10319624E+01</totfact>
</mgrwt>
</event>
<event>
 4    2  0.3396630E-007  0.8195821E+03  0.7818608E-02  0.9669953E-01
         -1   -1    0    0    0  501 -0.00000000000E+00  0.00000000000E+00  0.19262181043E+04  0.19262181043E+04  0.50400000000E-02 0.  1.
          1   -1    0    0  501    0  0.00000000000E+00 -0.00000000000E+00 -0.59442893556E+03  0.59442893558E+03  0.50400000000E-02 0. -1.
    8880023    1    1    2    0    0 -0.25449105500E+03  0.41609967893E+03  0.17022978155E+04  0.18893206977E+04  0.65864270000E+03 0.  1.
    8880022    1    1    2    0    0  0.25449105500E+03 -0.41609967893E+03 -0.37050864682E+03  0.63132634213E+03  0.15294330000E+03 0.  0.
<mgrwt>
<rscale>  0 0.72834310E+03</rscale>
<asrwt>0</asrwt>
<pdfrwt beam="1">  1        1 0.91450608E-01 0.81958212E+03</pdfrwt>
<pdfrwt beam="2">  1       -1 0.29634124E+00 0.81958212E+03</pdfrwt>
<totfact> 0.12609851E+00</totfact>
</mgrwt>
</event>
<event>
 4    2  0.3396630E-007  0.7508357E+03  0.7818608E-02  0.9829438E-01
         -1   -1    0    0    0  501 -0.00000000000E+00  0.00000000000E+00  0.97192074102E+03  0.97192074104E+03  0.50400000000E-02 0.  1.
          1   -1    0    0  501    0  0.00000000000E+00 -0.00000000000E+00 -0.40833082804E+03  0.40833082807E+03  0.50400000000E-02 0. -1.
    8880023    1    1    2    0    0  0.83774669147E+02  0.35060778592E+03  0.63361678149E+03  0.98245836899E+03  0.65864270000E+03 0.  1.
    8880022    1    1    2    0    0 -0.83774669147E+02 -0.35060778592E+03 -0.70026868513E+02  0.39779320013E+03  0.15294330000E+03 0. -1.
<mgrwt>
<rscale>  0 0.63806376E+03</rscale>
<asrwt>0</asrwt>
<pdfrwt beam="1">  1        1 0.62820128E-01 0.75083568E+03</pdfrwt>
<pdfrwt beam="2">  1       -1 0.14952627E+00 0.75083568E+03</pdfrwt>
<totfact> 0.21061041E+01</totfact>
</mgrwt>
</event>
<event>
 4    2  0.3396630E-007  0.9585167E+03  0.7818608E-02  0.9437965E-01
          1   -1    0    0  501    0  0.00000000000E+00  0.00000000000E+00  0.29486494947E+04  0.29486494947E+04  0.50400000000E-02 0. -1.
         -1   -1    0    0    0  501 -0.00000000000E+00 -0.00000000000E+00 -0.39170308368E+03  0.39170308372E+03  0.50400000000E-02 0.  1.
    8880023    1    1    2    0    0  0.24278576641E+03  0.65268603084E+03  0.34888683802E+03  0.10200373597E+04  0.65864270000E+03 0.  0.
    8880022    1    1    2    0    0 -0.24278576641E+03 -0.65268603084E+03  0.22080595730E+04  0.23203152187E+04  0.15294330000E+03 0.  0.
<mgrwt>
<rscale>  0 0.89016101E+03</rscale>
<asrwt>0</asrwt>
<pdfrwt beam="1">  1        1 0.45363837E+00 0.95851666E+03</pdfrwt>
<pdfrwt beam="2">  1       -1 0.60262014E-01 0.95851666E+03</pdfrwt>
<totfact> 0.18806067E+00</totfact>
</mgrwt>
</event>
<event>
 4    2  0.3396630E-007  0.8158502E+03  0.7818608E-02  0.9677518E-01
          1   -1    0    0  501    0  0.00000000000E+00  0.00000000000E+00  0.19814479375E+04  0.19814479375E+04  0.50400000000E-02 0. -1.
         -1   -1    0    0    0  501 -0.00000000000E+00 -0.00000000000E+00 -0.44776548467E+03  0.44776548470E+03  0.50400000000E-02 0.  1.
    8880023    1    1    2    0    0  0.41179837914E+03  0.24944621089E+03  0.14475416206E+01  0.81585146861E+03  0.65864270000E+03 0.  1.
    8880022    1    1    2    0    0 -0.41179837914E+03 -0.24944621089E+03  0.15322349112E+04  0.16133619536E+04  0.15294330000E+03 0.  0.
<mgrwt>
<rscale>  0 0.72371304E+03</rscale>
<asrwt>0</asrwt>
<pdfrwt beam="1">  1        1 0.30483815E+00 0.81585018E+03</pdfrwt>
<pdfrwt beam="2">  1       -1 0.68886997E-01 0.81585018E+03</pdfrwt>
<totfact> 0.67826049E+00</totfact>
</mgrwt>
</event>
<event>
 4    2  0.3396630E-007  0.6620449E+03  0.7818608E-02  0.1022153E+00
          1   -1    0    0  501    0  0.00000000000E+00  0.00000000000E+00  0.12696345294E+04  0.12696345294E+04  0.50400000000E-02 0. -1.
         -1   -1    0    0    0  501 -0.00000000000E+00 -0.00000000000E+00 -0.37740904650E+03  0.37740904653E+03  0.50400000000E-02 0.  1.
    8880023    1    1    2    0    0  0.22903096163E+02 -0.62997134711E+02 -0.74297972454E+02  0.66620085993E+03  0.65864270000E+03 0.  1.
    8880022    1    1    2    0    0 -0.22903096163E+02  0.62997134711E+02  0.96652345538E+03  0.98084271604E+03  0.15294330000E+03 0.  0.
<mgrwt>
<rscale>  0 0.46917687E+03</rscale>
<asrwt>0</asrwt>
<pdfrwt beam="1">  1        1 0.19532839E+00 0.66204486E+03</pdfrwt>
<pdfrwt beam="2">  1       -1 0.58062930E-01 0.66204486E+03</pdfrwt>
<totfact> 0.29756705E+01</totfact>
</mgrwt>
</event>
<event>
 4    2  0.3396630E-007  0.7478075E+03  0.7818608E-02  0.9837761E-01
          1   -1    0    0  501    0  0.00000000000E+00  0.00000000000E+00  0.17003270876E+04  0.17003270877E+04  0.50400000000E-02 0. -1.
         -1   -1    0    0    0  501 -0.00000000000E+00 -0.00000000000E+00 -0.70598785498E+03  0.70598785500E+03  0.50400000000E-02 0.  1.
    8880023    1    1    2    0    0 -0.15143613032E+03  0.32011395424E+03 -0.47584629129E+03  0.88636659710E+03  0.65864270000E+03 0.  0.
    8880022    1    1    2    0    0  0.15143613032E+03 -0.32011395424E+03  0.14701855240E+04  0.15199483455E+04  0.15294330000E+03 0.  0.
<mgrwt>
<rscale>  0 0.63374831E+03</rscale>
<asrwt>0</asrwt>
<pdfrwt beam="1">  1        1 0.26158878E+00 0.74780750E+03</pdfrwt>
<pdfrwt beam="2">  1       -1 0.10861352E+00 0.74780750E+03</pdfrwt>
<totfact> 0.39204771E+00</totfact>
</mgrwt>
</event>
<event>
 4    2  0.3396630E-007  0.7588391E+03  0.7818608E-02  0.9808122E-01
          1   -1    0    0  501    0  0.00000000000E+00  0.00000000000E+00  0.18307635956E+04  0.18307635956E+04  0.50400000000E-02 0. -1.
         -1   -1    0    0    0  501 -0.00000000000E+00 -0.00000000000E+00 -0.76786283362E+03  0.76786283364E+03  0.50400000000E-02 0.  1.
    8880023    1    1    2    0    0  0.35561176638E+03  0.12476706712E+03 -0.54874037600E+03  0.93645755694E+03  0.65864270000E+03 0.  0.
    8880022    1    1    2    0    0 -0.35561176638E+03 -0.12476706712E+03  0.16116411380E+04  0.16621688723E+04  0.15294330000E+03 0.  0.
<mgrwt>
<rscale>  0 0.64928472E+03</rscale>
<asrwt>0</asrwt>
<pdfrwt beam="1">  1        1 0.28165593E+00 0.75883908E+03</pdfrwt>
<pdfrwt beam="2">  1       -1 0.11813275E+00 0.75883908E+03</pdfrwt>
<totfact> 0.26187886E+00</totfact>
</mgrwt>
</event>
<event>
 4    2  0.3396630E-007  0.6691692E+03  0.7818608E-02  0.1016266E+00
         -1   -1    0    0    0  501 -0.00000000000E+00  0.00000000000E+00  0.65791783679E+03  0.65791783681E+03  0.50400000000E-02 0.  1.
          1   -1    0    0  501    0  0.00000000000E+00 -0.00000000000E+00 -0.10885445240E+04  0.10885445240E+04  0.50400000000E-02 0. -1.
    8880023    1    1    2    0    0  0.89270866373E+02  0.77510677042E+02  0.47488238742E+03  0.82054901181E+03  0.65864270000E+03 0.  1.
    8880022    1    1    2    0    0 -0.89270866373E+02 -0.77510677042E+02 -0.90550907466E+03  0.92591334905E+03  0.15294330000E+03 0.  0.
<mgrwt>
<rscale>  0 0.49058658E+03</rscale>
<asrwt>0</asrwt>
<pdfrwt beam="1">  1        1 0.16746839E+00 0.66916919E+03</pdfrwt>
<pdfrwt beam="2">  1       -1 0.10121813E+00 0.66916919E+03</pdfrwt>
<totfact> 0.12521461E+01</totfact>
</mgrwt>
</event>
<event>
 4    2  0.3396630E-007  0.8367242E+03  0.7818608E-02  0.9636388E-01
         -1   -1    0    0    0  501 -0.00000000000E+00  0.00000000000E+00  0.55859184634E+03  0.55859184637E+03  0.50400000000E-02 0.  1.
          1   -1    0    0  501    0  0.00000000000E+00 -0.00000000000E+00 -0.20961806780E+04  0.20961806780E+04  0.50400000000E-02 0. -1.
    8880023    1    1    2    0    0 -0.27783254273E+02  0.51529148294E+03  0.17910787134E+03  0.85567929591E+03  0.65864270000E+03 0.  1.
    8880022    1    1    2    0    0  0.27783254273E+02 -0.51529148294E+03 -0.17166967030E+04  0.17990932285E+04  0.15294330000E+03 0.  0.
<mgrwt>
<rscale>  0 0.74933882E+03</rscale>
<asrwt>0</asrwt>
<pdfrwt beam="1">  1        1 0.32248933E+00 0.83672422E+03</pdfrwt>
<pdfrwt beam="2">  1       -1 0.85937209E-01 0.83672422E+03</pdfrwt>
<totfact> 0.35558022E+00</totfact>
</mgrwt>
</event>
<event>
 4    2  0.3396630E-007  0.6608161E+03  0.7818608E-02  0.1023335E+00
         -1   -1    0    0    0  501 -0.00000000000E+00  0.00000000000E+00  0.36205086837E+03  0.36205086840E+03  0.50400000000E-02 0.  1.
          1   -1    0    0  501    0  0.00000000000E+00 -0.00000000000E+00 -0.12777784572E+04  0.12777784572E+04  0.50400000000E-02 0. -1.
    8880023    1    1    2    0    0  0.49210256993E+02  0.21119210385E+02  0.48014916811E+02  0.66255815514E+03  0.65864270000E+03 0.  1.
    8880022    1    1    2    0    0 -0.49210256993E+02 -0.21119210385E+02 -0.96374250568E+03  0.97727117051E+03  0.15294330000E+03 0.  0.
<mgrwt>
<rscale>  0 0.46501920E+03</rscale>
<asrwt>0</asrwt>
<pdfrwt beam="1">  1        1 0.19658130E+00 0.66081607E+03</pdfrwt>
<pdfrwt beam="2">  1       -1 0.55700134E-01 0.66081607E+03</pdfrwt>
<totfact> 0.31835881E+01</totfact>
</mgrwt>
</event>
<event>
 4    2  0.3396630E-007  0.7044306E+03  0.7818608E-02  0.9979295E-01
          1   -1    0    0  501    0  0.00000000000E+00  0.00000000000E+00  0.12837374923E+04  0.12837374923E+04  0.50400000000E-02 0. -1.
         -1   -1    0    0    0  501 -0.00000000000E+00 -0.00000000000E+00 -0.40978799563E+03  0.40978799566E+03  0.50400000000E-02 0.  1.
    8880023    1    1    2    0    0 -0.51229132464E+02  0.24451564801E+03 -0.67405855469E+02  0.70764827545E+03  0.65864270000E+03 0.  1.
    8880022    1    1    2    0    0  0.51229132464E+02 -0.24451564801E+03  0.94135535212E+03  0.98587721249E+03  0.15294330000E+03 0.  0.
<mgrwt>
<rscale>  0 0.56567516E+03</rscale>
<asrwt>0</asrwt>
<pdfrwt beam="1">  1        1 0.19749807E+00 0.70443064E+03</pdfrwt>
<pdfrwt beam="2">  1       -1 0.63044307E-01 0.70443064E+03</pdfrwt>
<totfact> 0.24585128E+01</totfact>
</mgrwt>
</event>
<event>
 4    2  0.4077310E-007  0.6955994E+03  0.7818608E-02  0.1001597E+00
          1   -1    0    0  501    0  0.00000000000E+00  0.00000000000E+00  0.16505616136E+04  0.16505616136E+04  0.50400000000E-02 0. -1.
         -1   -1    0    0    0  501 -0.00000000000E+00 -0.00000000000E+00 -0.64129615576E+03  0.64129615578E+03  0.50400000000E-02 0.  1.
    8880023    1    1    2    0    0 -0.22116380967E+03  0.33688849369E+02 -0.43630204269E+03  0.82110781752E+03  0.65864270000E+03 0.  1.
    8880022    1    1    2    0    0  0.22116380967E+03 -0.33688849369E+02  0.14455675005E+04  0.14707499518E+04  0.15294330000E+03 0.  0.
<mgrwt>
<rscale>  0 0.54955481E+03</rscale>
<asrwt>0</asrwt>
<pdfrwt beam="1">  1        1 0.25393256E+00 0.69559944E+03</pdfrwt>
<pdfrwt beam="2">  1       -1 0.98660947E-01 0.69559944E+03</pdfrwt>
<totfact> 0.53363513E+00</totfact>
</mgrwt>
</event>
<event>
 4    2  0.3396630E-007  0.6753374E+03  0.7818608E-02  0.1012094E+00
         -1   -1    0    0    0  501 -0.00000000000E+00  0.00000000000E+00  0.29962964914E+03  0.29962964918E+03  0.50400000000E-02 0.  1.
          1   -1    0    0  501    0  0.00000000000E+00 -0.00000000000E+00 -0.68776964682E+03  0.68776964684E+03  0.50400000000E-02 0. -1.
    8880023    1    1    2    0    0  0.24437904135E+02 -0.14721836855E+03 -0.20443491751E+03  0.70560208401E+03  0.65864270000E+03 0.  0.
    8880022    1    1    2    0    0 -0.24437904135E+02  0.14721836855E+03 -0.18370508017E+03  0.28179721200E+03  0.15294330000E+03 0.  0.
<mgrwt>
<rscale>  0 0.50650662E+03</rscale>
<asrwt>0</asrwt>
<pdfrwt beam="1">  1        1 0.10581071E+00 0.67533745E+03</pdfrwt>
<pdfrwt beam="2">  1       -1 0.46096869E-01 0.67533745E+03</pdfrwt>
<totfact> 0.13381630E+02</totfact>
</mgrwt>
</event>
<event>
 4    2  0.3396630E-007  0.9359895E+03  0.7818608E-02  0.9470565E-01
         -1   -1    0    0    0  501 -0.00000000000E+00  0.00000000000E+00  0.16186407149E+04  0.16186407149E+04  0.50400000000E-02 0.  1.
          1   -1    0    0  501    0  0.00000000000E+00 -0.00000000000E+00 -0.49135032033E+03  0.49135032035E+03  0.50400000000E-02 0. -1.
    8880023    1    1    2    0    0 -0.43065630620E+03 -0.50675571871E+03  0.10753267863E+04  0.14256241146E+04  0.65864270000E+03 0.  1.
    8880022    1    1    2    0    0  0.43065630620E+03  0.50675571871E+03  0.51963608277E+02  0.68436692067E+03  0.15294330000E+03 0.  0.
<mgrwt>
<rscale>  0 0.86489147E+03</rscale>
<asrwt>0</asrwt>
<pdfrwt beam="1">  1        1 0.75592357E-01 0.93598954E+03</pdfrwt>
<pdfrwt beam="2">  1       -1 0.24902165E+00 0.93598954E+03</pdfrwt>
<totfact> 0.32642077E+00</totfact>
</mgrwt>
</event>
<event>
 4    2  0.3396630E-007  0.6642750E+03  0.7818608E-02  0.1020150E+00
         -1   -1    0    0    0  501 -0.00000000000E+00  0.00000000000E+00  0.32813585144E+04  0.32813585144E+04  0.50400000000E-02 0.  1.
          1   -1    0    0  501    0  0.00000000000E+00 -0.00000000000E+00 -0.13652001512E+03  0.13652001522E+03  0.50400000000E-02 0. -1.
    8880023    1    1    2    0    0 -0.79394188262E+02  0.33876945012E+02  0.31714338159E+04  0.32402551967E+04  0.65864270000E+03 0.  1.
    8880022    1    1    2    0    0  0.79394188262E+02 -0.33876945012E+02 -0.26595316626E+02  0.17762333297E+03  0.15294330000E+03 0.  0.
<mgrwt>
<rscale>  0 0.47632684E+03</rscale>
<asrwt>0</asrwt>
<pdfrwt beam="1">  1        1 0.21003079E-01 0.66427501E+03</pdfrwt>
<pdfrwt beam="2">  1       -1 0.50482440E+00 0.66427501E+03</pdfrwt>
<totfact> 0.36575335E-01</totfact>
</mgrwt>
</event>
<event>
 4    2  0.3396630E-007  0.6668759E+03  0.7818608E-02  0.1018009E+00
          1   -1    0    0  501    0  0.00000000000E+00  0.00000000000E+00  0.10583323424E+04  0.10583323424E+04  0.50400000000E-02 0. -1.
         -1   -1    0    0    0  501 -0.00000000000E+00 -0.00000000000E+00 -0.48070085031E+03  0.48070085034E+03  0.50400000000E-02 0.  1.
    8880023    1    1    2    0    0 -0.37654911418E+02 -0.97444250060E+02 -0.23384529066E+03  0.70668741354E+03  0.65864270000E+03 0.  1.
    8880022    1    1    2    0    0  0.37654911418E+02  0.97444250060E+02  0.81147678271E+03  0.83234577917E+03  0.15294330000E+03 0.  0.
<mgrwt>
<rscale>  0 0.48412035E+03</rscale>
<asrwt>0</asrwt>
<pdfrwt beam="1">  1        1 0.16282036E+00 0.66687591E+03</pdfrwt>
<pdfrwt beam="2">  1       -1 0.73953978E-01 0.66687591E+03</pdfrwt>
<totfact> 0.26086649E+01</totfact>
</mgrwt>
</event>
<event>
 4    2  0.3396630E-007  0.1249168E+04  0.7818608E-02  0.9110749E-01
          1   -1    0    0  501    0  0.00000000000E+00  0.00000000000E+00  0.48939268305E+04  0.48939268305E+04  0.50400000000E-02 0. -1.
         -1   -1    0    0    0  501 -0.00000000000E+00 -0.00000000000E+00 -0.75239633258E+03  0.75239633260E+03  0.50400000000E-02 0.  1.
    8880023    1    1    2    0    0 -0.44226934269E+03 -0.96488745994E+03 -0.11719712573E+03  0.12546534798E+04  0.65864270000E+03 0.  1.
    8880022    1    1    2    0    0  0.44226934269E+03  0.96488745994E+03  0.42587276237E+04  0.43916696833E+04  0.15294330000E+03 0.  0.
<mgrwt>
<rscale>  0 0.12024109E+04</rscale>
<asrwt>0</asrwt>
<pdfrwt beam="1">  1        1 0.75291182E+00 0.12491678E+04</pdfrwt>
<pdfrwt beam="2">  1       -1 0.11575328E+00 0.12491678E+04</pdfrwt>
<totfact> 0.81751361E-03</totfact>
</mgrwt>
</event>
<event>
 4    2  0.3396630E-007  0.8701012E+03  0.7818608E-02  0.9575842E-01
         -1   -1    0    0    0  501 -0.00000000000E+00  0.00000000000E+00  0.11461125722E+04  0.11461125722E+04  0.50400000000E-02 0.  1.
          1   -1    0    0  501    0  0.00000000000E+00 -0.00000000000E+00 -0.56196617417E+03  0.56196617419E+03  0.50400000000E-02 0. -1.
    8880023    1    1    2    0    0  0.55608988034E+03 -0.11844814239E+03  0.68921997449E+03  0.11100001338E+04  0.65864270000E+03 0.  1.
    8880022    1    1    2    0    0 -0.55608988034E+03  0.11844814239E+03 -0.10507357643E+03  0.59807861266E+03  0.15294330000E+03 0.  0.
<mgrwt>
<rscale>  0 0.78915973E+03</rscale>
<asrwt>0</asrwt>
<pdfrwt beam="1">  1        1 0.86456335E-01 0.87010121E+03</pdfrwt>
<pdfrwt beam="2">  1       -1 0.17632501E+00 0.87010121E+03</pdfrwt>
<totfact> 0.84640341E+00</totfact>
</mgrwt>
</event>
<event>
 4    2  0.3396630E-007  0.7509435E+03  0.7818608E-02  0.9829145E-01
         -1   -1    0    0    0  501 -0.00000000000E+00  0.00000000000E+00  0.13466133650E+04  0.13466133650E+04  0.50400000000E-02 0.  1.
          1   -1    0    0  501    0  0.00000000000E+00 -0.00000000000E+00 -0.35670263921E+03  0.35670263925E+03  0.50400000000E-02 0. -1.
    8880023    1    1    2    0    0 -0.30138433084E+03 -0.19817508816E+03  0.10662610696E+04  0.13041582554E+04  0.65864270000E+03 0.  1.
    8880022    1    1    2    0    0  0.30138433084E+03  0.19817508816E+03 -0.76350343784E+02  0.39915774883E+03  0.15294330000E+03 0.  0.
<mgrwt>
<rscale>  0 0.63821662E+03</rscale>
<asrwt>0</asrwt>
<pdfrwt beam="1">  1        1 0.54877329E-01 0.75094346E+03</pdfrwt>
<pdfrwt beam="2">  1       -1 0.20717129E+00 0.75094346E+03</pdfrwt>
<totfact> 0.96852055E+00</totfact>
</mgrwt>
</event>
<event>
 4    2  0.3396630E-007  0.8139753E+03  0.7818608E-02  0.9681355E-01
         -1   -1    0    0    0  501 -0.00000000000E+00  0.00000000000E+00  0.71637911683E+03  0.71637911685E+03  0.50400000000E-02 0.  1.
          1   -1    0    0  501    0  0.00000000000E+00 -0.00000000000E+00 -0.16694999069E+04  0.16694999069E+04  0.50400000000E-02 0. -1.
    8880023    1    1    2    0    0 -0.11121598977E+03  0.46516300650E+03  0.42562786638E+03  0.91853955053E+03  0.65864270000E+03 0.  0.
    8880022    1    1    2    0    0  0.11121598977E+03 -0.46516300650E+03 -0.13787486565E+04  0.14673394732E+04  0.15294330000E+03 0.  0.
<mgrwt>
<rscale>  0 0.72137828E+03</rscale>
<asrwt>0</asrwt>
<pdfrwt beam="1">  1        1 0.25684614E+00 0.81397532E+03</pdfrwt>
<pdfrwt beam="2">  1       -1 0.11021217E+00 0.81397532E+03</pdfrwt>
<totfact> 0.39296775E+00</totfact>
</mgrwt>
</event>
<event>
 4    2  0.3396630E-007  0.6777459E+03  0.7818608E-02  0.1010629E+00
          1   -1    0    0  501    0  0.00000000000E+00  0.00000000000E+00  0.26052150445E+03  0.26052150450E+03  0.50400000000E-02 0. -1.
         -1   -1    0    0    0  501 -0.00000000000E+00 -0.00000000000E+00 -0.15254454500E+04  0.15254454500E+04  0.50400000000E-02 0.  1.
    8880023    1    1    2    0    0 -0.79384948977E+02 -0.13866261709E+03 -0.13794074419E+04  0.15369139170E+04  0.65864270000E+03 0.  1.
    8880022    1    1    2    0    0  0.79384948977E+02  0.13866261709E+03  0.11448349634E+03  0.24905303742E+03  0.15294330000E+03 0.  0.
<mgrwt>
<rscale>  0 0.51225597E+03</rscale>
<asrwt>0</asrwt>
<pdfrwt beam="1">  1        1 0.40080232E-01 0.67774589E+03</pdfrwt>
<pdfrwt beam="2">  1       -1 0.23468391E+00 0.67774589E+03</pdfrwt>
<totfact> 0.96623101E+00</totfact>
</mgrwt>
</event>
<event>
 4    2  0.3396630E-007  0.7869139E+03  0.7818608E-02  0.9739840E-01
          1   -1    0    0  501    0  0.00000000000E+00  0.00000000000E+00  0.79514075715E+03  0.79514075716E+03  0.50400000000E-02 0. -1.
         -1   -1    0    0    0  501 -0.00000000000E+00 -0.00000000000E+00 -0.12129787971E+04  0.12129787971E+04  0.50400000000E-02 0.  1.
    8880023    1    1    2    0    0 -0.27235934635E+03  0.33353206212E+03 -0.99716313886E+03  0.12702628790E+04  0.65864270000E+03 0.  1.
    8880022    1    1    2    0    0  0.27235934635E+03 -0.33353206212E+03  0.57932509891E+03  0.73785667527E+03  0.15294330000E+03 0.  0.
<mgrwt>
<rscale>  0 0.68693492E+03</rscale>
<asrwt>0</asrwt>
<pdfrwt beam="1">  1        1 0.12232935E+00 0.78691388E+03</pdfrwt>
<pdfrwt beam="2">  1       -1 0.18661212E+00 0.78691388E+03</pdfrwt>
<totfact> 0.42988801E+00</totfact>
</mgrwt>
</event>
<event>
 4    2  0.3396630E-007  0.8393280E+03  0.7818608E-02  0.9631449E-01
         -1   -1    0    0    0  501 -0.00000000000E+00  0.00000000000E+00  0.45981228637E+03  0.45981228639E+03  0.50400000000E-02 0.  1.
          1   -1    0    0  501    0  0.00000000000E+00 -0.00000000000E+00 -0.18988275627E+04  0.18988275627E+04  0.50400000000E-02 0. -1.
    8880023    1    1    2    0    0 -0.29004570793E+03 -0.43189678357E+03 -0.20026347207E+02  0.83956691526E+03  0.65864270000E+03 0.  1.
    8880022    1    1    2    0    0  0.29004570793E+03  0.43189678357E+03 -0.14189889291E+04  0.15190729338E+04  0.15294330000E+03 0.  0.
<mgrwt>
<rscale>  0 0.75249219E+03</rscale>
<asrwt>0</asrwt>
<pdfrwt beam="1">  1        1 0.29212731E+00 0.83932804E+03</pdfrwt>
<pdfrwt beam="2">  1       -1 0.70740353E-01 0.83932804E+03</pdfrwt>
<totfact> 0.72712701E+00</totfact>
</mgrwt>
</event>
<event>
 4    2  0.3806989E-007  0.7196217E+03  0.7818608E-02  0.9923868E-01
         -1   -1    0    0    0  501 -0.00000000000E+00  0.00000000000E+00  0.38141813618E+03  0.38141813621E+03  0.50400000000E-02 0.  1.
          1   -1    0    0  501    0  0.00000000000E+00 -0.00000000000E+00 -0.25962731571E+04  0.25962731571E+04  0.50400000000E-02 0. -1.
    8880023    1    1    2    0    0  0.20306443499E+03 -0.20690583324E+03  0.19043747814E+02  0.71987364112E+03  0.65864270000E+03 0.  1.
    8880022    1    1    2    0    0 -0.20306443499E+03  0.20690583324E+03 -0.22338987687E+04  0.22578176522E+04  0.15294330000E+03 0.  0.
<mgrwt>
<rscale>  0 0.59118355E+03</rscale>
<asrwt>0</asrwt>
<pdfrwt beam="1">  1        1 0.39942663E+00 0.71962170E+03</pdfrwt>
<pdfrwt beam="2">  1       -1 0.58679715E-01 0.71962170E+03</pdfrwt>
<totfact> 0.36514834E+00</totfact>
</mgrwt>
</event>
<event>
 4    2  0.3396630E-007  0.7092544E+03  0.7818608E-02  0.9960780E-01
          1   -1    0    0  501    0  0.00000000000E+00  0.00000000000E+00  0.17787410810E+04  0.17787410810E+04  0.50400000000E-02 0. -1.
         -1   -1    0    0    0  501 -0.00000000000E+00 -0.00000000000E+00 -0.31260653241E+03  0.31260653245E+03  0.50400000000E-02 0.  1.
    8880023    1    1    2    0    0 -0.23933450723E+03  0.10931857035E+03  0.16065737075E+04  0.17561665183E+04  0.65864270000E+03 0. -1.
    8880022    1    1    2    0    0  0.23933450723E+03 -0.10931857035E+03 -0.14043915891E+03  0.33518109514E+03  0.15294330000E+03 0.  0.
<mgrwt>
<rscale>  0 0.57403912E+03</rscale>
<asrwt>0</asrwt>
<pdfrwt beam="1">  1        1 0.27365248E+00 0.70925437E+03</pdfrwt>
<pdfrwt beam="2">  1       -1 0.48093312E-01 0.70925437E+03</pdfrwt>
<totfact> 0.19011789E+01</totfact>
</mgrwt>
</event>
<event>
 4    2  0.3396630E-007  0.9161989E+03  0.7818608E-02  0.9500512E-01
          1   -1    0    0  501    0  0.00000000000E+00  0.00000000000E+00  0.14012730814E+04  0.14012730815E+04  0.50400000000E-02 0. -1.
         -1   -1    0    0    0  501 -0.00000000000E+00 -0.00000000000E+00 -0.75767955623E+03  0.75767955625E+03  0.50400000000E-02 0.  1.
    8880023    1    1    2    0    0  0.43823353918E+03  0.46212730841E+03 -0.33998545351E+03  0.97724643714E+03  0.65864270000E+03 0.  1.
    8880022    1    1    2    0    0 -0.43823353918E+03 -0.46212730841E+03  0.98357897872E+03  0.11817062006E+04  0.15294330000E+03 0.  0.
<mgrwt>
<rscale>  0 0.84246088E+03</rscale>
<asrwt>0</asrwt>
<pdfrwt beam="1">  1        1 0.21558047E+00 0.91619894E+03</pdfrwt>
<pdfrwt beam="2">  1       -1 0.11656609E+00 0.91619894E+03</pdfrwt>
<totfact> 0.51719765E+00</totfact>
</mgrwt>
</event>
<event>
 4    2  0.3396630E-007  0.6959384E+03  0.7818608E-02  0.1001449E+00
         -1   -1    0    0    0  501 -0.00000000000E+00  0.00000000000E+00  0.25582313579E+03  0.25582313584E+03  0.50400000000E-02 0.  1.
          1   -1    0    0  501    0  0.00000000000E+00 -0.00000000000E+00 -0.17158658006E+04  0.17158658006E+04  0.50400000000E-02 0. -1.
    8880023    1    1    2    0    0  0.20375149465E+03  0.94896935946E+02 -0.26270016414E+03  0.74386939884E+03  0.65864270000E+03 0.  1.
    8880022    1    1    2    0    0 -0.20375149465E+03 -0.94896935946E+02 -0.11973425007E+04  0.12278195376E+04  0.15294330000E+03 0.  0.
<mgrwt>
<rscale>  0 0.55019584E+03</rscale>
<asrwt>0</asrwt>
<pdfrwt beam="1">  1        1 0.26397935E+00 0.69593844E+03</pdfrwt>
<pdfrwt beam="2">  1       -1 0.39357407E-01 0.69593844E+03</pdfrwt>
<totfact> 0.30376716E+01</totfact>
</mgrwt>
</event>
<event>
 4    2  0.4610618E-007  0.7043430E+03  0.7818608E-02  0.9979640E-01
          1   -1    0    0  501    0  0.00000000000E+00  0.00000000000E+00  0.19355702865E+04  0.19355702865E+04  0.50400000000E-02 0. -1.
         -1   -1    0    0    0  501 -0.00000000000E+00 -0.00000000000E+00 -0.50814575873E+03  0.50814575875E+03  0.50400000000E-02 0.  1.
    8880023    1    1    2    0    0 -0.18760856619E+03  0.16459591591E+03 -0.24510039825E+03  0.74577020665E+03  0.65864270000E+03 0.  1.
    8880022    1    1    2    0    0  0.18760856619E+03 -0.16459591591E+03  0.16725249260E+04  0.16979458386E+04  0.15294330000E+03 0.  0.
<mgrwt>
<rscale>  0 0.56552049E+03</rscale>
<asrwt>0</asrwt>
<pdfrwt beam="1">  1        1 0.29778005E+00 0.70434295E+03</pdfrwt>
<pdfrwt beam="2">  1       -1 0.78176270E-01 0.70434295E+03</pdfrwt>
<totfact> 0.57048063E+00</totfact>
</mgrwt>
</event>
<event>
 4    2  0.3396630E-007  0.9558700E+03  0.7818608E-02  0.9441718E-01
         -1   -1    0    0    0  501 -0.00000000000E+00  0.00000000000E+00  0.45471398472E+03  0.45471398475E+03  0.50400000000E-02 0.  1.
          1   -1    0    0  501    0  0.00000000000E+00 -0.00000000000E+00 -0.24756840655E+04  0.24756840655E+04  0.50400000000E-02 0. -1.
    8880023    1    1    2    0    0  0.68916408098E+03  0.70214194171E+02 -0.20061749405E+03  0.97669583226E+03  0.65864270000E+03 0.  0.
    8880022    1    1    2    0    0 -0.68916408098E+03 -0.70214194171E+02 -0.18203525867E+04  0.19537022180E+04  0.15294330000E+03 0. -1.
<mgrwt>
<rscale>  0 0.88720527E+03</rscale>
<asrwt>0</asrwt>
<pdfrwt beam="1">  1        1 0.38087446E+00 0.95586995E+03</pdfrwt>
<pdfrwt beam="2">  1       -1 0.69955999E-01 0.95586995E+03</pdfrwt>
<totfact> 0.29824470E+00</totfact>
</mgrwt>
</event>
<event>
 4    2  0.3396630E-007  0.8723042E+03  0.7818608E-02  0.9572041E-01
         -1   -1    0    0    0  501 -0.00000000000E+00  0.00000000000E+00  0.42496232843E+03  0.42496232846E+03  0.50400000000E-02 0.  1.
          1   -1    0    0  501    0  0.00000000000E+00 -0.00000000000E+00 -0.13849609807E+04  0.13849609807E+04  0.50400000000E-02 0. -1.
    8880023    1    1    2    0    0  0.56966885994E+03  0.50811750440E+02 -0.82938643228E+03  0.12036596297E+04  0.65864270000E+03 0.  0.
    8880022    1    1    2    0    0 -0.56966885994E+03 -0.50811750440E+02 -0.13061221999E+03  0.60626367943E+03  0.15294330000E+03 0.  0.
<mgrwt>
<rscale>  0 0.79174691E+03</rscale>
<asrwt>0</asrwt>
<pdfrwt beam="1">  1        1 0.21307092E+00 0.87230422E+03</pdfrwt>
<pdfrwt beam="2">  1       -1 0.65378821E-01 0.87230422E+03</pdfrwt>
<totfact> 0.19012111E+01</totfact>
</mgrwt>
</event>
<event>
 4    2  0.3396630E-007  0.1284023E+04  0.7818608E-02  0.9079481E-01
         -1   -1    0    0    0  501 -0.00000000000E+00  0.00000000000E+00  0.12882527014E+04  0.12882527014E+04  0.50400000000E-02 0.  1.
          1   -1    0    0  501    0  0.00000000000E+00 -0.00000000000E+00 -0.20224489648E+04  0.20224489648E+04  0.50400000000E-02 0. -1.
    8880023    1    1    2    0    0 -0.52060720705E+03 -0.97153147499E+03  0.72581455056E+03  0.14749651654E+04  0.65864270000E+03 0. -1.
    8880022    1    1    2    0    0  0.52060720705E+03  0.97153147499E+03 -0.14600108140E+04  0.18357365009E+04  0.15294330000E+03 0.  0.
<mgrwt>
<rscale>  0 0.12388900E+04</rscale>
<asrwt>0</asrwt>
<pdfrwt beam="1">  1        1 0.31114600E+00 0.12840232E+04</pdfrwt>
<pdfrwt beam="2">  1       -1 0.19819272E+00 0.12840232E+04</pdfrwt>
<totfact> 0.43256080E-01</totfact>
</mgrwt>
</event>
<event>
 4    2  0.3396630E-007  0.8045649E+03  0.7818608E-02  0.9701011E-01
          1   -1    0    0  501    0  0.00000000000E+00  0.00000000000E+00  0.70359412936E+03  0.70359412938E+03  0.50400000000E-02 0. -1.
         -1   -1    0    0    0  501 -0.00000000000E+00 -0.00000000000E+00 -0.63926085037E+03  0.63926085039E+03  0.50400000000E-02 0.  1.
    8880023    1    1    2    0    0  0.17897423108E+03  0.42600776952E+03 -0.13696834663E+03  0.81614026327E+03  0.65864270000E+03 0.  0.
    8880022    1    1    2    0    0 -0.17897423108E+03 -0.42600776952E+03  0.20130162562E+03  0.52671471650E+03  0.15294330000E+03 0.  0.
<mgrwt>
<rscale>  0 0.70956602E+03</rscale>
<asrwt>0</asrwt>
<pdfrwt beam="1">  1        1 0.10824525E+00 0.80456485E+03</pdfrwt>
<pdfrwt beam="2">  1       -1 0.98347823E-01 0.80456485E+03</pdfrwt>
<totfact> 0.27291533E+01</totfact>
</mgrwt>
</event>
<event>
 4    2  0.3396630E-007  0.1213280E+04  0.7818608E-02  0.9144320E-01
         -1   -1    0    0    0  501 -0.00000000000E+00  0.00000000000E+00  0.23945010587E+04  0.23945010587E+04  0.50400000000E-02 0.  1.
          1   -1    0    0  501    0  0.00000000000E+00 -0.00000000000E+00 -0.86839069236E+03  0.86839069237E+03  0.50400000000E-02 0. -1.
    8880023    1    1    2    0    0 -0.94192776543E+03 -0.38860177444E+03  0.18237039407E+04  0.21904213120E+04  0.65864270000E+03 0.  0.
    8880022    1    1    2    0    0  0.94192776543E+03  0.38860177444E+03 -0.29759357430E+03  0.10724704392E+04  0.15294330000E+03 0.  0.
<mgrwt>
<rscale>  0 0.11647094E+04</rscale>
<asrwt>0</asrwt>
<pdfrwt beam="1">  1        1 0.13359857E+00 0.12132805E+04</pdfrwt>
<pdfrwt beam="2">  1       -1 0.36838478E+00 0.12132805E+04</pdfrwt>
<totfact> 0.22405785E-01</totfact>
</mgrwt>
</event>
<event>
 4    2  0.3396630E-007  0.6706052E+03  0.7818608E-02  0.1015233E+00
         -1   -1    0    0    0  501 -0.00000000000E+00  0.00000000000E+00  0.24967183276E+03  0.24967183281E+03  0.50400000000E-02 0.  1.
          1   -1    0    0  501    0  0.00000000000E+00 -0.00000000000E+00 -0.18752719731E+04  0.18752719731E+04  0.50400000000E-02 0. -1.
    8880023    1    1    2    0    0  0.89356726866E+02  0.88975093051E+02 -0.22049375086E+03  0.70592414058E+03  0.65864270000E+03 0.  1.
    8880022    1    1    2    0    0 -0.89356726866E+02 -0.88975093051E+02 -0.14051063895E+04  0.14190196653E+04  0.15294330000E+03 0.  0.
<mgrwt>
<rscale>  0 0.49446937E+03</rscale>
<asrwt>0</asrwt>
<pdfrwt beam="1">  1        1 0.28850337E+00 0.67060525E+03</pdfrwt>
<pdfrwt beam="2">  1       -1 0.38411052E-01 0.67060525E+03</pdfrwt>
<totfact> 0.24924647E+01</totfact>
</mgrwt>
</event>
<event>
 4    2  0.3396630E-007  0.1832579E+04  0.7818608E-02  0.8704726E-01
         -1   -1    0    0    0  501 -0.00000000000E+00  0.00000000000E+00  0.28855461875E+04  0.28855461875E+04  0.50400000000E-02 0.  1.
          1   -1    0    0  501    0  0.00000000000E+00 -0.00000000000E+00 -0.16667667267E+04  0.16667667267E+04  0.50400000000E-02 0. -1.
    8880023    1    1    2    0    0 -0.17083908022E+04 -0.77056404390E+02  0.19590453119E+04  0.26825744282E+04  0.65864270000E+03 0.  0.
    8880022    1    1    2    0    0  0.17083908022E+04  0.77056404390E+02 -0.74026585111E+03  0.18697384860E+04  0.15294330000E+03 0.  0.
<mgrwt>
<rscale>  0 0.18029626E+04</rscale>
<asrwt>0</asrwt>
<pdfrwt beam="1">  1        1 0.25642565E+00 0.18325793E+04</pdfrwt>
<pdfrwt beam="2">  1       -1 0.44393018E+00 0.18325793E+04</pdfrwt>
<totfact> 0.16198069E-02</totfact>
</mgrwt>
</event>
<event>
 4    2  0.3396630E-007  0.6601150E+03  0.7818608E-02  0.1024039E+00
         -1   -1    0    0    0  501 -0.00000000000E+00  0.00000000000E+00  0.17913826061E+03  0.17913826068E+03  0.50400000000E-02 0.  1.
          1   -1    0    0  501    0  0.00000000000E+00 -0.00000000000E+00 -0.18572399860E+04  0.18572399860E+04  0.50400000000E-02 0. -1.
    8880023    1    1    2    0    0 -0.14846989268E+02 -0.41487088118E+02 -0.45210786496E+03  0.80009583138E+03  0.65864270000E+03 0.  1.
    8880022    1    1    2    0    0  0.14846989268E+02  0.41487088118E+02 -0.12259938605E+04  0.12362824153E+04  0.15294330000E+03 0.  0.
<mgrwt>
<rscale>  0 0.46256855E+03</rscale>
<asrwt>0</asrwt>
<pdfrwt beam="1">  1        1 0.28572921E+00 0.66011500E+03</pdfrwt>
<pdfrwt beam="2">  1       -1 0.27559734E-01 0.66011500E+03</pdfrwt>
<totfact> 0.46028847E+01</totfact>
</mgrwt>
</event>
<event>
 4    2  0.3396630E-007  0.9447911E+03  0.7818608E-02  0.9457649E-01
         -1   -1    0    0    0  501 -0.00000000000E+00  0.00000000000E+00  0.63063984586E+03  0.63063984588E+03  0.50400000000E-02 0.  1.
          1   -1    0    0  501    0  0.00000000000E+00 -0.00000000000E+00 -0.18393448286E+04  0.18393448286E+04  0.50400000000E-02 0. -1.
    8880023    1    1    2    0    0  0.20641828416E+03 -0.64514453479E+03  0.13797101267E+03  0.95481212047E+03  0.65864270000E+03 0.  1.
    8880022    1    1    2    0    0 -0.20641828416E+03  0.64514453479E+03 -0.13466759954E+04  0.15151725540E+04  0.15294330000E+03 0.  0.
<mgrwt>
<rscale>  0 0.87479552E+03</rscale>
<asrwt>0</asrwt>
<pdfrwt beam="1">  1        1 0.28297612E+00 0.94479108E+03</pdfrwt>
<pdfrwt beam="2">  1       -1 0.97021516E-01 0.94479108E+03</pdfrwt>
<totfact> 0.39767708E+00</totfact>
</mgrwt>
</event>
<event>
 4    2  0.3396630E-007  0.6934265E+03  0.7818608E-02  0.1002565E+00
          1   -1    0    0  501    0  0.00000000000E+00  0.00000000000E+00  0.98761678191E+03  0.98761678192E+03  0.50400000000E-02 0. -1.
         -1   -1    0    0    0  501 -0.00000000000E+00 -0.00000000000E+00 -0.43421560678E+03  0.43421560681E+03  0.50400000000E-02 0.  1.
    8880023    1    1    2    0    0 -0.72405808982E+02 -0.20441981314E+03 -0.11479966901E+03  0.70286501652E+03  0.65864270000E+03 0.  1.
    8880022    1    1    2    0    0  0.72405808982E+02  0.20441981314E+03  0.66820084414E+03  0.71896737221E+03  0.15294330000E+03 0.  0.
<mgrwt>
<rscale>  0 0.54539812E+03</rscale>
<asrwt>0</asrwt>
<pdfrwt beam="1">  1        1 0.15194104E+00 0.69342647E+03</pdfrwt>
<pdfrwt beam="2">  1       -1 0.66802401E-01 0.69342647E+03</pdfrwt>
<totfact> 0.36265593E+01</totfact>
</mgrwt>
</event>
<event>
 4    2  0.3396630E-007  0.7067009E+03  0.7818608E-02  0.9970462E-01
          1   -1    0    0  501    0  0.00000000000E+00  0.00000000000E+00  0.18536011921E+04  0.18536011921E+04  0.50400000000E-02 0. -1.
         -1   -1    0    0    0  501 -0.00000000000E+00 -0.00000000000E+00 -0.26278157921E+03  0.26278157925E+03  0.50400000000E-02 0.  1.
    8880023    1    1    2    0    0 -0.10350817561E+03 -0.23431179779E+03  0.26076062567E+03  0.75327436646E+03  0.65864270000E+03 0.  1.
    8880022    1    1    2    0    0  0.10350817561E+03  0.23431179779E+03  0.13300589872E+04  0.13631084049E+04  0.15294330000E+03 0.  0.
<mgrwt>
<rscale>  0 0.56964610E+03</rscale>
<asrwt>0</asrwt>
<pdfrwt beam="1">  1        1 0.28516940E+00 0.70670090E+03</pdfrwt>
<pdfrwt beam="2">  1       -1 0.40427937E-01 0.70670090E+03</pdfrwt>
<totfact> 0.23362574E+01</totfact>
</mgrwt>
</event>
<event>
 4    2  0.3396630E-007  0.9165068E+03  0.7818608E-02  0.9500036E-01
         -1   -1    0    0    0  501 -0.00000000000E+00  0.00000000000E+00  0.46850406272E+03  0.46850406275E+03  0.50400000000E-02 0.  1.
          1   -1    0    0  501    0  0.00000000000E+00 -0.00000000000E+00 -0.25757363281E+04  0.25757363281E+04  0.50400000000E-02 0. -1.
    8880023    1    1    2    0    0 -0.17369921596E+03  0.61319086154E+03 -0.87321522938E+02  0.92065721359E+03  0.65864270000E+03 0.  1.
    8880022    1    1    2    0    0  0.17369921596E+03 -0.61319086154E+03 -0.20199107424E+04  0.21235831772E+04  0.15294330000E+03 0.  0.
<mgrwt>
<rscale>  0 0.84281161E+03</rscale>
<asrwt>0</asrwt>
<pdfrwt beam="1">  1        1 0.39626712E+00 0.91650677E+03</pdfrwt>
<pdfrwt beam="2">  1       -1 0.72077550E-01 0.91650677E+03</pdfrwt>
<totfact> 0.24080039E+00</totfact>
</mgrwt>
</event>
<event>
 4    2  0.3396630E-007  0.1304248E+04  0.7818608E-02  0.9061900E-01
         -1   -1    0    0    0  501 -0.00000000000E+00  0.00000000000E+00  0.20515576090E+04  0.20515576090E+04  0.50400000000E-02 0.  1.
          1   -1    0    0  501    0  0.00000000000E+00 -0.00000000000E+00 -0.17261738697E+04  0.17261738697E+04  0.50400000000E-02 0. -1.
    8880023    1    1    2    0    0  0.33313464662E+03 -0.10753014763E+04  0.16039903132E+04  0.20673284907E+04  0.65864270000E+03 0.  0.
    8880022    1    1    2    0    0 -0.33313464662E+03  0.10753014763E+04 -0.12786065738E+04  0.17104029880E+04  0.15294330000E+03 0.  0.
<mgrwt>
<rscale>  0 0.12600009E+04</rscale>
<asrwt>0</asrwt>
<pdfrwt beam="1">  1        1 0.26556521E+00 0.13042477E+04</pdfrwt>
<pdfrwt beam="2">  1       -1 0.31562424E+00 0.13042477E+04</pdfrwt>
<totfact> 0.11597133E-01</totfact>
</mgrwt>
</event>
<event>
 4    2  0.3396630E-007  0.1305336E+04  0.7818608E-02  0.9060965E-01
         -1   -1    0    0    0  501 -0.00000000000E+00  0.00000000000E+00  0.11757855646E+04  0.11757855646E+04  0.50400000000E-02 0.  1.
          1   -1    0    0  501    0  0.00000000000E+00 -0.00000000000E+00 -0.15811458806E+04  0.15811458806E+04  0.50400000000E-02 0. -1.
    8880023    1    1    2    0    0 -0.39137599822E+03  0.10568430817E+04 -0.82554141550E+03  0.15444809181E+04  0.65864270000E+03 0. -1.
    8880022    1    1    2    0    0  0.39137599822E+03 -0.10568430817E+04  0.42018109943E+03  0.12124505271E+04  0.15294330000E+03 0.  0.
<mgrwt>
<rscale>  0 0.12611360E+04</rscale>
<asrwt>0</asrwt>
<pdfrwt beam="1">  1        1 0.24325321E+00 0.13053362E+04</pdfrwt>
<pdfrwt beam="2">  1       -1 0.18089009E+00 0.13053362E+04</pdfrwt>
<totfact> 0.11413662E+00</totfact>
</mgrwt>
</event>
<event>
 4    2  0.3396630E-007  0.7526703E+03  0.7818608E-02  0.9824467E-01
          1   -1    0    0  501    0  0.00000000000E+00  0.00000000000E+00  0.33504682907E+04  0.33504682907E+04  0.50400000000E-02 0. -1.
         -1   -1    0    0    0  501 -0.00000000000E+00 -0.00000000000E+00 -0.13922188025E+03  0.13922188034E+03  0.50400000000E-02 0.  1.
    8880023    1    1    2    0    0 -0.34998640574E+03 -0.10105423007E+03  0.10457690697E+04  0.12884663732E+04  0.65864270000E+03 0.  1.
    8880022    1    1    2    0    0  0.34998640574E+03  0.10105423007E+03  0.21654773408E+04  0.22012237978E+04  0.15294330000E+03 0.  0.
<mgrwt>
<rscale>  0 0.64065897E+03</rscale>
<asrwt>0</asrwt>
<pdfrwt beam="1">  1        1 0.51545660E+00 0.75267034E+03</pdfrwt>
<pdfrwt beam="2">  1       -1 0.21418753E-01 0.75267034E+03</pdfrwt>
<totfact> 0.63859543E+00</totfact>
</mgrwt>
</event>
<event>
 4    2  0.3396630E-007  0.7629352E+03  0.7818608E-02  0.9797567E-01
         -1   -1    0    0    0  501 -0.00000000000E+00  0.00000000000E+00  0.39129568556E+03  0.39129568559E+03  0.50400000000E-02 0.  1.
          1   -1    0    0  501    0  0.00000000000E+00 -0.00000000000E+00 -0.24249384686E+04  0.24249384686E+04  0.50400000000E-02 0. -1.
    8880023    1    1    2    0    0 -0.17484421517E+03 -0.34305894860E+03 -0.22928867945E+02  0.76327968730E+03  0.65864270000E+03 0.  0.
    8880022    1    1    2    0    0  0.17484421517E+03  0.34305894860E+03 -0.20107139151E+04  0.20529544669E+04  0.15294330000E+03 0.  0.
<mgrwt>
<rscale>  0 0.65493278E+03</rscale>
<asrwt>0</asrwt>
<pdfrwt beam="1">  1        1 0.37306745E+00 0.76293522E+03</pdfrwt>
<pdfrwt beam="2">  1       -1 0.60199338E-01 0.76293522E+03</pdfrwt>
<totfact> 0.45099401E+00</totfact>
</mgrwt>
</event>
<event>
 4    2  0.3396630E-007  0.7734618E+03  0.7818608E-02  0.9771426E-01
          1   -1    0    0  501    0  0.00000000000E+00  0.00000000000E+00  0.28672128881E+04  0.28672128881E+04  0.50400000000E-02 0. -1.
         -1   -1    0    0    0  501 -0.00000000000E+00 -0.00000000000E+00 -0.28284585619E+03  0.28284585624E+03  0.50400000000E-02 0.  1.
    8880023    1    1    2    0    0  0.27491336420E+03  0.29808652430E+03  0.30755434023E+03  0.83236579233E+03  0.65864270000E+03 0.  1.
    8880022    1    1    2    0    0 -0.27491336420E+03 -0.29808652430E+03  0.22768126917E+04  0.23176929520E+04  0.15294330000E+03 0.  0.
<mgrwt>
<rscale>  0 0.66918809E+03</rscale>
<asrwt>0</asrwt>
<pdfrwt beam="1">  1        1 0.44110971E+00 0.77346179E+03</pdfrwt>
<pdfrwt beam="2">  1       -1 0.43514744E-01 0.77346179E+03</pdfrwt>
<totfact> 0.41310670E+00</totfact>
</mgrwt>
</event>
<event>
 4    2  0.3396630E-007  0.7586363E+03  0.7818608E-02  0.9808651E-01
          1   -1    0    0  501    0  0.00000000000E+00  0.00000000000E+00  0.81916559021E+03  0.81916559023E+03  0.50400000000E-02 0. -1.
         -1   -1    0    0    0  501 -0.00000000000E+00 -0.00000000000E+00 -0.48813245066E+03  0.48813245068E+03  0.50400000000E-02 0.  1.
    8880023    1    1    2    0    0  0.27755529552E+03  0.25432619689E+03 -0.36343235311E+02  0.75950628274E+03  0.65864270000E+03 0.  1.
    8880022    1    1    2    0    0 -0.27755529552E+03 -0.25432619689E+03  0.36737637487E+03  0.54779175817E+03  0.15294330000E+03 0.  0.
<mgrwt>
<rscale>  0 0.64900344E+03</rscale>
<asrwt>0</asrwt>
<pdfrwt beam="1">  1        1 0.12602548E+00 0.75863625E+03</pdfrwt>
<pdfrwt beam="2">  1       -1 0.75097300E-01 0.75863625E+03</pdfrwt>
<totfact> 0.38831706E+01</totfact>
</mgrwt>
</event>
<event>
 4    2  0.3396630E-007  0.6970452E+03  0.7818608E-02  0.1000969E+00
          1   -1    0    0  501    0  0.00000000000E+00  0.00000000000E+00  0.77254853282E+03  0.77254853284E+03  0.50400000000E-02 0. -1.
         -1   -1    0    0    0  501 -0.00000000000E+00 -0.00000000000E+00 -0.97711327430E+03  0.97711327431E+03  0.50400000000E-02 0.  1.
    8880023    1    1    2    0    0  0.17334283000E+03  0.14837123399E+03 -0.81968798749E+03  0.10759927337E+04  0.65864270000E+03 0.  1.
    8880022    1    1    2    0    0 -0.17334283000E+03 -0.14837123399E+03  0.61512324601E+03  0.67366907350E+03  0.15294330000E+03 0.  0.
<mgrwt>
<rscale>  0 0.55227521E+03</rscale>
<asrwt>0</asrwt>
<pdfrwt beam="1">  1        1 0.11885362E+00 0.69704517E+03</pdfrwt>
<pdfrwt beam="2">  1       -1 0.15032512E+00 0.69704517E+03</pdfrwt>
<totfact> 0.84322536E+00</totfact>
</mgrwt>
</event>
<event>
 4    2  0.3396630E-007  0.7346301E+03  0.7818608E-02  0.9875874E-01
         -1   -1    0    0    0  501 -0.00000000000E+00  0.00000000000E+00  0.79707940827E+03  0.79707940829E+03  0.50400000000E-02 0.  1.
          1   -1    0    0  501    0  0.00000000000E+00 -0.00000000000E+00 -0.43730296594E+03  0.43730296597E+03  0.50400000000E-02 0. -1.
    8880023    1    1    2    0    0 -0.13247201434E+03 -0.29719084099E+03  0.12821686759E+02  0.73474201763E+03  0.65864270000E+03 0. -1.
    8880022    1    1    2    0    0  0.13247201434E+03  0.29719084099E+03  0.34695475557E+03  0.49964035663E+03  0.15294330000E+03 0.  0.
<mgrwt>
<rscale>  0 0.61444892E+03</rscale>
<asrwt>0</asrwt>
<pdfrwt beam="1">  1        1 0.67277379E-01 0.73463014E+03</pdfrwt>
<pdfrwt beam="2">  1       -1 0.12262760E+00 0.73463014E+03</pdfrwt>
<totfact> 0.32011829E+01</totfact>
</mgrwt>
</event>
<event>
 4    2  0.3396630E-007  0.6835913E+03  0.7818608E-02  0.1007361E+00
          1   -1    0    0  501    0  0.00000000000E+00  0.00000000000E+00  0.23663838931E+04  0.23663838931E+04  0.50400000000E-02 0. -1.
         -1   -1    0    0    0  501 -0.00000000000E+00 -0.00000000000E+00 -0.29999801855E+03  0.29999801860E+03  0.50400000000E-02 0.  1.
    8880023    1    1    2    0    0  0.78429699593E+02  0.16533480696E+03  0.10626028849E+03  0.69180074541E+03  0.65864270000E+03 0.  1.
    8880022    1    1    2    0    0 -0.78429699593E+02 -0.16533480696E+03  0.19601255861E+04  0.19745811663E+04  0.15294330000E+03 0.  0.
<mgrwt>
<rscale>  0 0.52537072E+03</rscale>
<asrwt>0</asrwt>
<pdfrwt beam="1">  1        1 0.36405907E+00 0.68359127E+03</pdfrwt>
<pdfrwt beam="2">  1       -1 0.46153541E-01 0.68359127E+03</pdfrwt>
<totfact> 0.83371585E+00</totfact>
</mgrwt>
</event>
<event>
 4    2  0.3396630E-007  0.9605553E+03  0.7818608E-02  0.9435087E-01
         -1   -1    0    0    0  501 -0.00000000000E+00  0.00000000000E+00  0.27986457614E+03  0.27986457618E+03  0.50400000000E-02 0.  1.
          1   -1    0    0  501    0  0.00000000000E+00 -0.00000000000E+00 -0.26788700894E+04  0.26788700894E+04  0.50400000000E-02 0. -1.
    8880023    1    1    2    0    0 -0.61357572050E+02  0.69648508700E+03 -0.17313214151E+04  0.19799344122E+04  0.65864270000E+03 0.  1.
    8880022    1    1    2    0    0  0.61357572050E+02 -0.69648508700E+03 -0.66768409823E+03  0.97880025343E+03  0.15294330000E+03 0.  0.
<mgrwt>
<rscale>  0 0.89243541E+03</rscale>
<asrwt>0</asrwt>
<pdfrwt beam="1">  1        1 0.41213384E+00 0.96055527E+03</pdfrwt>
<pdfrwt beam="2">  1       -1 0.43056090E-01 0.96055527E+03</pdfrwt>
<totfact> 0.55440191E+00</totfact>
</mgrwt>
</event>
<event>
 4    2  0.3396630E-007  0.9363061E+03  0.7818608E-02  0.9470097E-01
          1   -1    0    0  501    0  0.00000000000E+00  0.00000000000E+00  0.11855525911E+04  0.11855525911E+04  0.50400000000E-02 0. -1.
         -1   -1    0    0    0  501 -0.00000000000E+00 -0.00000000000E+00 -0.14434150177E+04  0.14434150177E+04  0.50400000000E-02 0.  1.
    8880023    1    1    2    0    0 -0.12955032099E+03  0.65274463536E+03 -0.11643276551E+04  0.14940977008E+04  0.65864270000E+03 0.  0.
    8880022    1    1    2    0    0  0.12955032099E+03 -0.65274463536E+03  0.90646522853E+03  0.11348699081E+04  0.15294330000E+03 0.  0.
<mgrwt>
<rscale>  0 0.86524837E+03</rscale>
<asrwt>0</asrwt>
<pdfrwt beam="1">  1        1 0.18239271E+00 0.93630607E+03</pdfrwt>
<pdfrwt beam="2">  1       -1 0.22206385E+00 0.93630607E+03</pdfrwt>
<totfact> 0.11861580E+00</totfact>
</mgrwt>
</event>
<event>
 4    2  0.3396630E-007  0.6805678E+03  0.7818608E-02  0.1009004E+00
         -1   -1    0    0    0  501 -0.00000000000E+00  0.00000000000E+00  0.26918012357E+03  0.26918012362E+03  0.50400000000E-02 0.  1.
          1   -1    0    0  501    0  0.00000000000E+00 -0.00000000000E+00 -0.11335369624E+04  0.11335369624E+04  0.50400000000E-02 0. -1.
    8880023    1    1    2    0    0  0.12396716459E+03  0.11829839543E+03 -0.21466368959E+03  0.71361969854E+03  0.65864270000E+03 0.  1.
    8880022    1    1    2    0    0 -0.12396716459E+03 -0.11829839543E+03 -0.64969314925E+03  0.68909738750E+03  0.15294330000E+03 0.  0.
<mgrwt>
<rscale>  0 0.51872301E+03</rscale>
<asrwt>0</asrwt>
<pdfrwt beam="1">  1        1 0.17439030E+00 0.68056783E+03</pdfrwt>
<pdfrwt beam="2">  1       -1 0.41412327E-01 0.68056783E+03</pdfrwt>
<totfact> 0.70392718E+01</totfact>
</mgrwt>
</event>
<event>
 4    2  0.3396630E-007  0.6637238E+03  0.7818608E-02  0.1020629E+00
         -1   -1    0    0    0  501 -0.00000000000E+00  0.00000000000E+00  0.15070032595E+04  0.15070032595E+04  0.50400000000E-02 0.  1.
          1   -1    0    0  501    0  0.00000000000E+00 -0.00000000000E+00 -0.11075186789E+04  0.11075186789E+04  0.50400000000E-02 0. -1.
    8880023    1    1    2    0    0 -0.45727029576E+02 -0.68030518219E+02  0.14262886016E+04  0.15731587631E+04  0.65864270000E+03 0.  1.
    8880022    1    1    2    0    0  0.45727029576E+02  0.68030518219E+02 -0.10268040209E+04  0.10413631753E+04  0.15294330000E+03 0.  0.
<mgrwt>
<rscale>  0 0.47460333E+03</rscale>
<asrwt>0</asrwt>
<pdfrwt beam="1">  1        1 0.17038749E+00 0.66372383E+03</pdfrwt>
<pdfrwt beam="2">  1       -1 0.23184666E+00 0.66372383E+03</pdfrwt>
<totfact> 0.12277564E+00</totfact>
</mgrwt>
</event>
<event>
 4    2  0.4000657E-007  0.8047793E+03  0.7818608E-02  0.9700556E-01
          1   -1    0    0  501    0  0.00000000000E+00  0.00000000000E+00  0.15797985548E+04  0.15797985548E+04  0.50400000000E-02 0. -1.
         -1   -1    0    0    0  501 -0.00000000000E+00 -0.00000000000E+00 -0.16882833882E+04  0.16882833882E+04  0.50400000000E-02 0.  1.
    8880023    1    1    2    0    0 -0.29118301780E+03 -0.35926579872E+03 -0.15500134628E+04  0.17464854437E+04  0.65864270000E+03 0.  1.
    8880022    1    1    2    0    0  0.29118301780E+03  0.35926579872E+03  0.14415286294E+04  0.15215964992E+04  0.15294330000E+03 0.  0.
<mgrwt>
<rscale>  0 0.70983698E+03</rscale>
<asrwt>0</asrwt>
<pdfrwt beam="1">  1        1 0.24304593E+00 0.80477927E+03</pdfrwt>
<pdfrwt beam="2">  1       -1 0.25973591E+00 0.80477927E+03</pdfrwt>
<totfact> 0.36520432E-01</totfact>
</mgrwt>
</event>
<event>
 4    2  0.4911832E-007  0.7315370E+03  0.7818608E-02  0.9885322E-01
         -1   -1    0    0    0  501 -0.00000000000E+00  0.00000000000E+00  0.12101499153E+04  0.12101499153E+04  0.50400000000E-02 0.  1.
          1   -1    0    0  501    0  0.00000000000E+00 -0.00000000000E+00 -0.18457002267E+04  0.18457002267E+04  0.50400000000E-02 0. -1.
    8880023    1    1    2    0    0 -0.29570552881E+03  0.11787462566E+03  0.10799399845E+04  0.13043836719E+04  0.65864270000E+03 0.  1.
    8880022    1    1    2    0    0  0.29570552881E+03 -0.11787462566E+03 -0.17154902960E+04  0.17514664700E+04  0.15294330000E+03 0.  0.
<mgrwt>
<rscale>  0 0.60977926E+03</rscale>
<asrwt>0</asrwt>
<pdfrwt beam="1">  1        1 0.28395388E+00 0.73153701E+03</pdfrwt>
<pdfrwt beam="2">  1       -1 0.18617691E+00 0.73153701E+03</pdfrwt>
<totfact> 0.75815427E-01</totfact>
</mgrwt>
</event>
<event>
 4    2  0.3396630E-007  0.6649948E+03  0.7818608E-02  0.1019538E+00
         -1   -1    0    0    0  501 -0.00000000000E+00  0.00000000000E+00  0.47048626834E+03  0.47048626837E+03  0.50400000000E-02 0.  1.
          1   -1    0    0  501    0  0.00000000000E+00 -0.00000000000E+00 -0.75912190784E+03  0.75912190785E+03  0.50400000000E-02 0. -1.
    8880023    1    1    2    0    0 -0.75675030031E+02 -0.51779514066E+02  0.21215379034E+03  0.69801666547E+03  0.65864270000E+03 0.  1.
    8880022    1    1    2    0    0  0.75675030031E+02  0.51779514066E+02 -0.50078942984E+03  0.53159151075E+03  0.15294330000E+03 0.  0.
<mgrwt>
<rscale>  0 0.47853772E+03</rscale>
<asrwt>0</asrwt>
<pdfrwt beam="1">  1        1 0.11678799E+00 0.66499476E+03</pdfrwt>
<pdfrwt beam="2">  1       -1 0.72382503E-01 0.66499476E+03</pdfrwt>
<totfact> 0.47731763E+01</totfact>
</mgrwt>
</event>
<event>
 4    2  0.3396630E-007  0.7047862E+03  0.7818608E-02  0.9977897E-01
         -1   -1    0    0    0  501 -0.00000000000E+00  0.00000000000E+00  0.92433024841E+02  0.92433024979E+02  0.50400000000E-02 0.  1.
          1   -1    0    0  501    0  0.00000000000E+00 -0.00000000000E+00 -0.26982261770E+04  0.26982261770E+04  0.50400000000E-02 0. -1.
    8880023    1    1    2    0    0  0.81824107390E+00 -0.25082394030E+03 -0.18106545076E+04  0.19429856589E+04  0.65864270000E+03 0. -1.
    8880022    1    1    2    0    0 -0.81824107390E+00  0.25082394030E+03 -0.79513864454E+03  0.84767354306E+03  0.15294330000E+03 0.  1.
<mgrwt>
<rscale>  0 0.56630122E+03</rscale>
<asrwt>0</asrwt>
<pdfrwt beam="1">  1        1 0.41511166E+00 0.70478616E+03</pdfrwt>
<pdfrwt beam="2">  1       -1 0.14220467E-01 0.70478616E+03</pdfrwt>
<totfact> 0.37267004E+01</totfact>
</mgrwt>
</event>
<event>
 4    2  0.3396630E-007  0.1098862E+04  0.7818608E-02  0.9262324E-01
          1   -1    0    0  501    0  0.00000000000E+00  0.00000000000E+00  0.95842342393E+03  0.95842342394E+03  0.50400000000E-02 0. -1.
         -1   -1    0    0    0  501 -0.00000000000E+00 -0.00000000000E+00 -0.14444190149E+04  0.14444190149E+04  0.50400000000E-02 0.  1.
    8880023    1    1    2    0    0 -0.61838748781E+03 -0.62552764653E+03 -0.89842632616E+03  0.14193900068E+04  0.65864270000E+03 0.  1.
    8880022    1    1    2    0    0  0.61838748781E+03  0.62552764653E+03  0.41243073521E+03  0.98345243200E+03  0.15294330000E+03 0.  0.
<mgrwt>
<rscale>  0 0.10432662E+04</rscale>
<asrwt>0</asrwt>
<pdfrwt beam="1">  1        1 0.14744976E+00 0.10988622E+04</pdfrwt>
<pdfrwt beam="2">  1       -1 0.22221831E+00 0.10988622E+04</pdfrwt>
<totfact> 0.17236730E+00</totfact>
</mgrwt>
</event>
<event>
 4    2  0.3396630E-007  0.1720382E+04  0.7818608E-02  0.8767906E-01
         -1   -1    0    0    0  501 -0.00000000000E+00  0.00000000000E+00  0.15469823584E+04  0.15469823584E+04  0.50400000000E-02 0.  1.
          1   -1    0    0  501    0  0.00000000000E+00 -0.00000000000E+00 -0.20778323174E+04  0.20778323174E+04  0.50400000000E-02 0. -1.
    8880023    1    1    2    0    0 -0.15279954214E+04  0.43718758523E+03  0.41406473144E+03  0.17695091976E+04  0.65864270000E+03 0.  0.
    8880022    1    1    2    0    0  0.15279954214E+04 -0.43718758523E+03 -0.94491469040E+03  0.18553054782E+04  0.15294330000E+03 0.  0.
<mgrwt>
<rscale>  0 0.16885780E+04</rscale>
<asrwt>0</asrwt>
<pdfrwt beam="1">  1        1 0.31966651E+00 0.17203817E+04</pdfrwt>
<pdfrwt beam="2">  1       -1 0.23799729E+00 0.17203817E+04</pdfrwt>
<totfact> 0.20300793E-01</totfact>
</mgrwt>
</event>
<event>
 4    2  0.3396630E-007  0.6704216E+03  0.7818608E-02  0.1015362E+00
         -1   -1    0    0    0  501 -0.00000000000E+00  0.00000000000E+00  0.70979174730E+03  0.70979174731E+03  0.50400000000E-02 0.  1.
          1   -1    0    0  501    0  0.00000000000E+00 -0.00000000000E+00 -0.37323607435E+03  0.37323607438E+03  0.50400000000E-02 0. -1.
    8880023    1    1    2    0    0 -0.42709232577E+02  0.11760466360E+03  0.49202517421E+03  0.83159720645E+03  0.65864270000E+03 0.  1.
    8880022    1    1    2    0    0  0.42709232577E+02 -0.11760466360E+03 -0.15546950126E+03  0.25143061525E+03  0.15294330000E+03 0.  0.
<mgrwt>
<rscale>  0 0.49397946E+03</rscale>
<asrwt>0</asrwt>
<pdfrwt beam="1">  1        1 0.57420935E-01 0.67042161E+03</pdfrwt>
<pdfrwt beam="2">  1       -1 0.10919873E+00 0.67042161E+03</pdfrwt>
<totfact> 0.52472179E+01</totfact>
</mgrwt>
</event>
<event>
 4    2  0.3396630E-007  0.6751556E+03  0.7818608E-02  0.1012208E+00
         -1   -1    0    0    0  501 -0.00000000000E+00  0.00000000000E+00  0.12633838989E+04  0.12633838989E+04  0.50400000000E-02 0.  1.
          1   -1    0    0  501    0  0.00000000000E+00 -0.00000000000E+00 -0.42338930491E+03  0.42338930494E+03  0.50400000000E-02 0. -1.
    8880023    1    1    2    0    0  0.13075363879E+03  0.70202111404E+02  0.11363257252E+04  0.13217682137E+04  0.65864270000E+03 0.  1.
    8880022    1    1    2    0    0 -0.13075363879E+03 -0.70202111404E+02 -0.29633113126E+03  0.36500499020E+03  0.15294330000E+03 0.  0.
<mgrwt>
<rscale>  0 0.50606303E+03</rscale>
<asrwt>0</asrwt>
<pdfrwt beam="1">  1        1 0.65136816E-01 0.67515558E+03</pdfrwt>
<pdfrwt beam="2">  1       -1 0.19436675E+00 0.67515558E+03</pdfrwt>
<totfact> 0.95385866E+00</totfact>
</mgrwt>
</event>
<event>
 4    2  0.3396630E-007  0.6630723E+03  0.7818608E-02  0.1021209E+00
          1   -1    0    0  501    0  0.00000000000E+00  0.00000000000E+00  0.30936699775E+03  0.30936699779E+03  0.50400000000E-02 0. -1.
         -1   -1    0    0    0  501 -0.00000000000E+00 -0.00000000000E+00 -0.58011587228E+03  0.58011587230E+03  0.50400000000E-02 0.  1.
    8880023    1    1    2    0    0  0.36561011363E+02  0.67215409208E+02 -0.27639930038E+03  0.71837413532E+03  0.65864270000E+03 0.  0.
    8880022    1    1    2    0    0 -0.36561011363E+02 -0.67215409208E+02  0.56504258494E+01  0.17110873477E+03  0.15294330000E+03 0.  1.
<mgrwt>
<rscale>  0 0.47253008E+03</rscale>
<asrwt>0</asrwt>
<pdfrwt beam="1">  1        1 0.47594923E-01 0.66307226E+03</pdfrwt>
<pdfrwt beam="2">  1       -1 0.89248596E-01 0.66307226E+03</pdfrwt>
<totfact> 0.10591419E+02</totfact>
</mgrwt>
</event>
<event>
 4    2  0.3938980E-007  0.6692143E+03  0.7818608E-02  0.1016233E+00
         -1   -1    0    0    0  501 -0.00000000000E+00  0.00000000000E+00  0.12241251193E+04  0.12241251193E+04  0.50400000000E-02 0.  1.
          1   -1    0    0  501    0  0.00000000000E+00 -0.00000000000E+00 -0.16059132592E+04  0.16059132592E+04  0.50400000000E-02 0. -1.
    8880023    1    1    2    0    0  0.91883136737E+02  0.74799804753E+02  0.11260175991E+04  0.13098715057E+04  0.65864270000E+03 0.  1.
    8880022    1    1    2    0    0 -0.91883136737E+02 -0.74799804753E+02 -0.15078057390E+04  0.15201668728E+04  0.15294330000E+03 0.  0.
<mgrwt>
<rscale>  0 0.49071030E+03</rscale>
<asrwt>0</asrwt>
<pdfrwt beam="1">  1        1 0.24706358E+00 0.66921426E+03</pdfrwt>
<pdfrwt beam="2">  1       -1 0.18832694E+00 0.66921426E+03</pdfrwt>
<totfact> 0.10763328E+00</totfact>
</mgrwt>
</event>
<event>
 4    2  0.3396630E-007  0.6813000E+03  0.7818608E-02  0.1008598E+00
         -1   -1    0    0    0  501 -0.00000000000E+00  0.00000000000E+00  0.74859114474E+03  0.74859114476E+03  0.50400000000E-02 0.  1.
          1   -1    0    0  501    0  0.00000000000E+00 -0.00000000000E+00 -0.72762356618E+03  0.72762356620E+03  0.50400000000E-02 0. -1.
    8880023    1    1    2    0    0 -0.13180389902E+03  0.11396141988E+03  0.56483669439E+03  0.88499162177E+03  0.65864270000E+03 0.  1.
    8880022    1    1    2    0    0  0.13180389902E+03 -0.11396141988E+03 -0.54386911583E+03  0.59122308918E+03  0.15294330000E+03 0.  0.
<mgrwt>
<rscale>  0 0.52035800E+03</rscale>
<asrwt>0</asrwt>
<pdfrwt beam="1">  1        1 0.11194209E+00 0.68129999E+03</pdfrwt>
<pdfrwt beam="2">  1       -1 0.11516787E+00 0.68129999E+03</pdfrwt>
<totfact> 0.18196892E+01</totfact>
</mgrwt>
</event>
<event>
 4    2  0.3396630E-007  0.1053180E+04  0.7818608E-02  0.9315069E-01
         -1   -1    0    0    0  501 -0.00000000000E+00  0.00000000000E+00  0.75525616379E+03  0.75525616380E+03  0.50400000000E-02 0.  1.
          1   -1    0    0  501    0  0.00000000000E+00 -0.00000000000E+00 -0.18246182372E+04  0.18246182372E+04  0.50400000000E-02 0. -1.
    8880023    1    1    2    0    0 -0.82059972513E+03 -0.44648553325E+02 -0.13371508360E+04  0.17021045698E+04  0.65864270000E+03 0.  0.
    8880022    1    1    2    0    0  0.82059972513E+03  0.44648553325E+02  0.26778876256E+03  0.87776983120E+03  0.15294330000E+03 0.  0.
<mgrwt>
<rscale>  0 0.99407371E+03</rscale>
<asrwt>0</asrwt>
<pdfrwt beam="1">  1        1 0.28071050E+00 0.10531798E+04</pdfrwt>
<pdfrwt beam="2">  1       -1 0.11619326E+00 0.10531798E+04</pdfrwt>
<totfact> 0.26288849E+00</totfact>
</mgrwt>
</event>
<event>
 4    2  0.3396630E-007  0.6912208E+03  0.7818608E-02  0.1003578E+00
         -1   -1    0    0    0  501 -0.00000000000E+00  0.00000000000E+00  0.66346786573E+03  0.66346786575E+03  0.50400000000E-02 0.  1.
          1   -1    0    0  501    0  0.00000000000E+00 -0.00000000000E+00 -0.20539762400E+04  0.20539762400E+04  0.50400000000E-02 0. -1.
    8880023    1    1    2    0    0  0.10835167923E+03  0.17954358737E+03  0.47195933335E+03  0.83697778033E+03  0.65864270000E+03 0.  1.
    8880022    1    1    2    0    0 -0.10835167923E+03 -0.17954358737E+03 -0.18624677076E+04  0.18804663254E+04  0.15294330000E+03 0.  0.
<mgrwt>
<rscale>  0 0.54108939E+03</rscale>
<asrwt>0</asrwt>
<pdfrwt beam="1">  1        1 0.31599634E+00 0.69122080E+03</pdfrwt>
<pdfrwt beam="2">  1       -1 0.10207198E+00 0.69122080E+03</pdfrwt>
<totfact> 0.26557894E+00</totfact>
</mgrwt>
</event>
<event>
 4    2  0.3396630E-007  0.7076579E+03  0.7818608E-02  0.9966803E-01
         -1   -1    0    0    0  501 -0.00000000000E+00  0.00000000000E+00  0.12676224631E+04  0.12676224632E+04  0.50400000000E-02 0.  1.
          1   -1    0    0  501    0  0.00000000000E+00 -0.00000000000E+00 -0.41146815713E+03  0.41146815716E+03  0.50400000000E-02 0. -1.
    8880023    1    1    2    0    0  0.18134324908E+03  0.18461871781E+03  0.10890867003E+04  0.12988030998E+04  0.65864270000E+03 0.  1.
    8880022    1    1    2    0    0 -0.18134324908E+03 -0.18461871781E+03 -0.23293239429E+03  0.38028752054E+03  0.15294330000E+03 0.  0.
<mgrwt>
<rscale>  0 0.57130127E+03</rscale>
<asrwt>0</asrwt>
<pdfrwt beam="1">  1        1 0.63302793E-01 0.70765786E+03</pdfrwt>
<pdfrwt beam="2">  1       -1 0.19501884E+00 0.70765786E+03</pdfrwt>
<totfact> 0.97628061E+00</totfact>
</mgrwt>
</event>
<event>
 4    2  0.3396630E-007  0.6618903E+03  0.7818608E-02  0.1022298E+00
         -1   -1    0    0    0  501 -0.00000000000E+00  0.00000000000E+00  0.33078515697E+03  0.33078515701E+03  0.50400000000E-02 0.  1.
          1   -1    0    0  501    0  0.00000000000E+00 -0.00000000000E+00 -0.67588083699E+03  0.67588083701E+03  0.50400000000E-02 0. -1.
    8880023    1    1    2    0    0 -0.12499951744E+02 -0.64283024818E+02 -0.44853039501E+02  0.66340828868E+03  0.65864270000E+03 0.  1.
    8880022    1    1    2    0    0  0.12499951744E+02  0.64283024818E+02 -0.30024264051E+03  0.34325770533E+03  0.15294330000E+03 0.  0.
<mgrwt>
<rscale>  0 0.46866301E+03</rscale>
<asrwt>0</asrwt>
<pdfrwt beam="1">  1        1 0.10398167E+00 0.66189029E+03</pdfrwt>
<pdfrwt beam="2">  1       -1 0.50890024E-01 0.66189029E+03</pdfrwt>
<totfact> 0.11416832E+02</totfact>
</mgrwt>
</event>
<event>
 4    2  0.3396630E-007  0.9341100E+03  0.7818608E-02  0.9473355E-01
          1   -1    0    0  501    0  0.00000000000E+00  0.00000000000E+00  0.18344872252E+04  0.18344872252E+04  0.50400000000E-02 0. -1.
         -1   -1    0    0    0  501 -0.00000000000E+00 -0.00000000000E+00 -0.38987336484E+03  0.38987336488E+03  0.50400000000E-02 0.  1.
    8880023    1    1    2    0    0 -0.62092523995E+03 -0.23065787614E+03  0.49693172859E+03  0.10580654793E+04  0.65864270000E+03 0.  0.
    8880022    1    1    2    0    0  0.62092523995E+03  0.23065787614E+03  0.94768213173E+03  0.11662951107E+04  0.15294330000E+03 0.  0.
<mgrwt>
<rscale>  0 0.86277099E+03</rscale>
<asrwt>0</asrwt>
<pdfrwt beam="1">  1        1 0.28222880E+00 0.93410996E+03</pdfrwt>
<pdfrwt beam="2">  1       -1 0.59980518E-01 0.93410996E+03</pdfrwt>
<totfact> 0.11063707E+01</totfact>
</mgrwt>
</event>
<event>
 4    2  0.3396630E-007  0.7553285E+03  0.7818608E-02  0.9817355E-01
          1   -1    0    0  501    0  0.00000000000E+00  0.00000000000E+00  0.71569724951E+03  0.71569724953E+03  0.50400000000E-02 0. -1.
         -1   -1    0    0    0  501 -0.00000000000E+00 -0.00000000000E+00 -0.48670286476E+03  0.48670286478E+03  0.50400000000E-02 0.  1.
    8880023    1    1    2    0    0 -0.33977479279E+03 -0.14582213190E+03  0.30998908427E+02  0.75596437916E+03  0.65864270000E+03 0.  0.
    8880022    1    1    2    0    0  0.33977479279E+03  0.14582213190E+03  0.19799547633E+03  0.44643573516E+03  0.15294330000E+03 0.  0.
<mgrwt>
<rscale>  0 0.64439437E+03</rscale>
<asrwt>0</asrwt>
<pdfrwt beam="1">  1        1 0.11010727E+00 0.75532854E+03</pdfrwt>
<pdfrwt beam="2">  1       -1 0.74877364E-01 0.75532854E+03</pdfrwt>
<totfact> 0.48291103E+01</totfact>
</mgrwt>
</event>
<event>
 4    2  0.3396630E-007  0.7713785E+03  0.7818608E-02  0.9776493E-01
         -1   -1    0    0    0  501 -0.00000000000E+00  0.00000000000E+00  0.24615506199E+04  0.24615506199E+04  0.50400000000E-02 0.  1.
          1   -1    0    0  501    0  0.00000000000E+00 -0.00000000000E+00 -0.70469710740E+03  0.70469710742E+03  0.50400000000E-02 0. -1.
    8880023    1    1    2    0    0  0.16094856561E+03 -0.36784524310E+03  0.23274651136E+04  0.24519621990E+04  0.65864270000E+03 0.  1.
    8880022    1    1    2    0    0 -0.16094856561E+03  0.36784524310E+03 -0.57061160114E+03  0.71428552836E+03  0.15294330000E+03 0.  0.
<mgrwt>
<rscale>  0 0.66639454E+03</rscale>
<asrwt>0</asrwt>
<pdfrwt beam="1">  1        1 0.10841494E+00 0.77137849E+03</pdfrwt>
<pdfrwt beam="2">  1       -1 0.37870010E+00 0.77137849E+03</pdfrwt>
<totfact> 0.28776064E-01</totfact>
</mgrwt>
</event>
<event>
 4    2  0.3396630E-007  0.1045827E+04  0.7818608E-02  0.9323914E-01
          1   -1    0    0  501    0  0.00000000000E+00  0.00000000000E+00  0.11188569543E+04  0.11188569543E+04  0.50400000000E-02 0. -1.
         -1   -1    0    0    0  501 -0.00000000000E+00 -0.00000000000E+00 -0.11243333955E+04  0.11243333956E+04  0.50400000000E-02 0.  1.
    8880023    1    1    2    0    0  0.75157491206E+03 -0.30834974947E+03 -0.61761102608E+03  0.12145772936E+04  0.65864270000E+03 0.  0.
    8880022    1    1    2    0    0 -0.75157491206E+03  0.30834974947E+03  0.61213458482E+03  0.10286130562E+04  0.15294330000E+03 0.  0.
<mgrwt>
<rscale>  0 0.98610749E+03</rscale>
<asrwt>0</asrwt>
<pdfrwt beam="1">  1        1 0.17213184E+00 0.10458272E+04</pdfrwt>
<pdfrwt beam="2">  1       -1 0.17297437E+00 0.10458272E+04</pdfrwt>
<totfact> 0.28654874E+00</totfact>
</mgrwt>
</event>
<event>
 4    2  0.3396630E-007  0.6774441E+03  0.7818608E-02  0.1010808E+00
         -1   -1    0    0    0  501 -0.00000000000E+00  0.00000000000E+00  0.38847620029E+03  0.38847620033E+03  0.50400000000E-02 0.  1.
          1   -1    0    0  501    0  0.00000000000E+00 -0.00000000000E+00 -0.10828353405E+04  0.10828353405E+04  0.50400000000E-02 0. -1.
    8880023    1    1    2    0    0 -0.13907515779E+03 -0.76015997154E+02  0.65094085241E+02  0.68056430815E+03  0.65864270000E+03 0.  1.
    8880022    1    1    2    0    0  0.13907515779E+03  0.76015997154E+02 -0.75945322545E+03  0.79074723268E+03  0.15294330000E+03 0.  0.
<mgrwt>
<rscale>  0 0.51154782E+03</rscale>
<asrwt>0</asrwt>
<pdfrwt beam="1">  1        1 0.16659005E+00 0.67744412E+03</pdfrwt>
<pdfrwt beam="2">  1       -1 0.59765570E-01 0.67744412E+03</pdfrwt>
<totfact> 0.38370398E+01</totfact>
</mgrwt>
</event>
<event>
 4    2  0.3396630E-007  0.7375078E+03  0.7818608E-02  0.9867267E-01
         -1   -1    0    0    0  501 -0.00000000000E+00  0.00000000000E+00  0.22336055500E+03  0.22336055506E+03  0.50400000000E-02 0.  1.
          1   -1    0    0  501    0  0.00000000000E+00 -0.00000000000E+00 -0.26083601877E+04  0.26083601877E+04  0.50400000000E-02 0. -1.
    8880023    1    1    2    0    0  0.32831845689E+03 -0.48109416054E+02 -0.45310003587E+03  0.86557343641E+03  0.65864270000E+03 0.  1.
    8880022    1    1    2    0    0 -0.32831845689E+03  0.48109416054E+02 -0.19318995968E+04  0.19661473064E+04  0.15294330000E+03 0.  0.
<mgrwt>
<rscale>  0 0.61874226E+03</rscale>
<asrwt>0</asrwt>
<pdfrwt beam="1">  1        1 0.40128616E+00 0.73750778E+03</pdfrwt>
<pdfrwt beam="2">  1       -1 0.34363164E-01 0.73750778E+03</pdfrwt>
<totfact> 0.96558134E+00</totfact>
</mgrwt>
</event>
<event>
 4    2  0.3396630E-007  0.1254396E+04  0.7818608E-02  0.9105978E-01
          1   -1    0    0  501    0  0.00000000000E+00  0.00000000000E+00  0.19247679332E+04  0.19247679332E+04  0.50400000000E-02 0. -1.
         -1   -1    0    0    0  501 -0.00000000000E+00 -0.00000000000E+00 -0.95217459513E+03  0.95217459514E+03  0.50400000000E-02 0.  1.
    8880023    1    1    2    0    0  0.77571731292E+03 -0.73345808469E+03 -0.21505713769E+03  0.12726970929E+04  0.65864270000E+03 0.  0.
    8880022    1    1    2    0    0 -0.77571731292E+03  0.73345808469E+03  0.11876504758E+04  0.16042454355E+04  0.15294330000E+03 0.  0.
<mgrwt>
<rscale>  0 0.12078904E+04</rscale>
<asrwt>0</asrwt>
<pdfrwt beam="1">  1        1 0.29611814E+00 0.12543956E+04</pdfrwt>
<pdfrwt beam="2">  1       -1 0.14648840E+00 0.12543956E+04</pdfrwt>
<totfact> 0.12164074E+00</totfact>
</mgrwt>
</event>
<event>
 4    2  0.3396630E-007  0.7355219E+03  0.7818608E-02  0.9873189E-01
          1   -1    0    0  501    0  0.00000000000E+00  0.00000000000E+00  0.37685851431E+04  0.37685851432E+04  0.50400000000E-02 0. -1.
         -1   -1    0    0    0  501 -0.00000000000E+00 -0.00000000000E+00 -0.19848599834E+03  0.19848599841E+03  0.50400000000E-02 0.  1.
    8880023    1    1    2    0    0 -0.28046291065E+03 -0.16888719874E+03  0.53248067778E+03  0.90803535648E+03  0.65864270000E+03 0.  1.
    8880022    1    1    2    0    0  0.28046291065E+03  0.16888719874E+03  0.30376184670E+04  0.30590357851E+04  0.15294330000E+03 0.  0.
<mgrwt>
<rscale>  0 0.61578458E+03</rscale>
<asrwt>0</asrwt>
<pdfrwt beam="1">  1        1 0.57978233E+00 0.73552195E+03</pdfrwt>
<pdfrwt beam="2">  1       -1 0.30536307E-01 0.73552195E+03</pdfrwt>
<totfact> 0.16439408E+00</totfact>
</mgrwt>
</event>
<event>
 4    2  0.3396630E-007  0.6645781E+03  0.7818608E-02  0.1019890E+00
          1   -1    0    0  501    0  0.00000000000E+00  0.00000000000E+00  0.42170360090E+03  0.42170360093E+03  0.50400000000E-02 0. -1.
         -1   -1    0    0    0  501 -0.00000000000E+00 -0.00000000000E+00 -0.53264410407E+03  0.53264410409E+03  0.50400000000E-02 0.  1.
    8880023    1    1    2    0    0  0.87199711044E+02 -0.15813970910E+02 -0.26925632801E+03  0.71705163532E+03  0.65864270000E+03 0.  1.
    8880022    1    1    2    0    0 -0.87199711044E+02  0.15813970910E+02  0.15831582484E+03  0.23729606970E+03  0.15294330000E+03 0.  0.
<mgrwt>
<rscale>  0 0.47726326E+03</rscale>
<asrwt>0</asrwt>
<pdfrwt beam="1">  1        1 0.64877477E-01 0.66457812E+03</pdfrwt>
<pdfrwt beam="2">  1       -1 0.81945247E-01 0.66457812E+03</pdfrwt>
<totfact> 0.84869115E+01</totfact>
</mgrwt>
</event>
<event>
 4    2  0.3396630E-007  0.6612466E+03  0.7818608E-02  0.1022914E+00
         -1   -1    0    0    0  501 -0.00000000000E+00  0.00000000000E+00  0.29664977825E+03  0.29664977829E+03  0.50400000000E-02 0.  1.
          1   -1    0    0  501    0  0.00000000000E+00 -0.00000000000E+00 -0.57839809129E+03  0.57839809131E+03  0.50400000000E-02 0. -1.
    8880023    1    1    2    0    0 -0.13141425343E+01  0.58610486240E+02 -0.19341652217E+03  0.68895360757E+03  0.65864270000E+03 0.  1.
    8880022    1    1    2    0    0  0.13141425343E+01 -0.58610486240E+02 -0.88331790868E+02  0.18609426203E+03  0.15294330000E+03 0. -1.
<mgrwt>
<rscale>  0 0.46649533E+03</rscale>
<asrwt>0</asrwt>
<pdfrwt beam="1">  1        1 0.88984322E-01 0.66124664E+03</pdfrwt>
<pdfrwt beam="2">  1       -1 0.45638427E-01 0.66124664E+03</pdfrwt>
<totfact> 0.17560574E+02</totfact>
</mgrwt>
</event>
<event>
 4    2  0.3396630E-007  0.6991219E+03  0.7818608E-02  0.1000086E+00
          1   -1    0    0  501    0  0.00000000000E+00  0.00000000000E+00  0.11045120998E+04  0.11045120998E+04  0.50400000000E-02 0. -1.
         -1   -1    0    0    0  501 -0.00000000000E+00 -0.00000000000E+00 -0.22061675376E+03  0.22061675382E+03  0.50400000000E-02 0.  1.
    8880023    1    1    2    0    0 -0.22718519432E+03  0.57862309002E+02  0.70533025208E+03  0.99310731046E+03  0.65864270000E+03 0. -1.
    8880022    1    1    2    0    0  0.22718519432E+03 -0.57862309002E+02  0.17856509393E+03  0.33202154314E+03  0.15294330000E+03 0.  1.
<mgrwt>
<rscale>  0 0.55612380E+03</rscale>
<asrwt>0</asrwt>
<pdfrwt beam="1">  1        1 0.16992494E+00 0.69912185E+03</pdfrwt>
<pdfrwt beam="2">  1       -1 0.33941039E-01 0.69912185E+03</pdfrwt>
<totfact> 0.10557297E+02</totfact>
</mgrwt>
</event>
<event>
 4    2  0.3396630E-007  0.7143172E+03  0.7818608E-02  0.9942306E-01
          1   -1    0    0  501    0  0.00000000000E+00  0.00000000000E+00  0.35289956036E+03  0.35289956040E+03  0.50400000000E-02 0. -1.
         -1   -1    0    0    0  501 -0.00000000000E+00 -0.00000000000E+00 -0.17738500813E+04  0.17738500813E+04  0.50400000000E-02 0.  1.
    8880023    1    1    2    0    0  0.15653687669E+03  0.22789274625E+03 -0.16080373431E+04  0.17595548302E+04  0.65864270000E+03 0. -1.
    8880022    1    1    2    0    0 -0.15653687669E+03 -0.22789274625E+03  0.18708682213E+03  0.36719481150E+03  0.15294330000E+03 0.  0.
<mgrwt>
<rscale>  0 0.58254071E+03</rscale>
<asrwt>0</asrwt>
<pdfrwt beam="1">  1        1 0.54292241E-01 0.71431723E+03</pdfrwt>
<pdfrwt beam="2">  1       -1 0.27290001E+00 0.71431723E+03</pdfrwt>
<totfact> 0.36798109E+00</totfact>
</mgrwt>
</event>
<event>
 4    2  0.3396630E-007  0.7477255E+03  0.7818608E-02  0.9837989E-01
          1   -1    0    0  501    0  0.00000000000E+00  0.00000000000E+00  0.21843782542E+03  0.21843782548E+03  0.50400000000E-02 0. -1.
         -1   -1    0    0    0  501 -0.00000000000E+00 -0.00000000000E+00 -0.25253884894E+04  0.25253884894E+04  0.50400000000E-02 0.  1.
    8880023    1    1    2    0    0 -0.34997407346E+03 -0.52928254792E+02 -0.22281602045E+04  0.23502747404E+04  0.65864270000E+03 0.  0.
    8880022    1    1    2    0    0  0.34997407346E+03  0.52928254792E+02 -0.78790459480E+02  0.39355157447E+03  0.15294330000E+03 0.  0.
<mgrwt>
<rscale>  0 0.63363092E+03</rscale>
<asrwt>0</asrwt>
<pdfrwt beam="1">  1        1 0.33605821E-01 0.74772552E+03</pdfrwt>
<pdfrwt beam="2">  1       -1 0.38852128E+00 0.74772552E+03</pdfrwt>
<totfact> 0.12087716E+00</totfact>
</mgrwt>
</event>
<event>
 4    2  0.3396630E-007  0.1122443E+04  0.7818608E-02  0.9236471E-01
          1   -1    0    0  501    0  0.00000000000E+00  0.00000000000E+00  0.42226403684E+04  0.42226403684E+04  0.50400000000E-02 0. -1.
         -1   -1    0    0    0  501 -0.00000000000E+00 -0.00000000000E+00 -0.47392044050E+03  0.47392044053E+03  0.50400000000E-02 0.  1.
    8880023    1    1    2    0    0  0.88961068418E+03 -0.18617266218E+03  0.35899403909E+04  0.37613228585E+04  0.65864270000E+03 0.  0.
    8880022    1    1    2    0    0 -0.88961068418E+03  0.18617266218E+03  0.15877953702E+03  0.93523795043E+03  0.15294330000E+03 0.  0.
<mgrwt>
<rscale>  0 0.10684789E+04</rscale>
<asrwt>0</asrwt>
<pdfrwt beam="1">  1        1 0.64963699E+00 0.11224427E+04</pdfrwt>
<pdfrwt beam="2">  1       -1 0.72910836E-01 0.11224427E+04</pdfrwt>
<totfact> 0.11853184E-01</totfact>
</mgrwt>
</event>
<event>
 4    2  0.3396630E-007  0.1107759E+04  0.7818608E-02  0.9252467E-01
         -1   -1    0    0    0  501 -0.00000000000E+00  0.00000000000E+00  0.17621350783E+04  0.17621350783E+04  0.50400000000E-02 0.  1.
          1   -1    0    0  501    0  0.00000000000E+00 -0.00000000000E+00 -0.89391383543E+03  0.89391383545E+03  0.50400000000E-02 0. -1.
    8880023    1    1    2    0    0  0.78707280504E+03  0.41693601909E+03  0.12541907051E+04  0.16733570376E+04  0.65864270000E+03 0.  1.
    8880022    1    1    2    0    0 -0.78707280504E+03 -0.41693601909E+03 -0.38596946227E+03  0.98269187606E+03  0.15294330000E+03 0.  0.
<mgrwt>
<rscale>  0 0.10527917E+04</rscale>
<asrwt>0</asrwt>
<pdfrwt beam="1">  1        1 0.13752521E+00 0.11077588E+04</pdfrwt>
<pdfrwt beam="2">  1       -1 0.27109770E+00 0.11077588E+04</pdfrwt>
<totfact> 0.93142793E-01</totfact>
</mgrwt>
</event>
<event>
 4    2  0.3396630E-007  0.8471642E+03  0.7818608E-02  0.9616817E-01
         -1   -1    0    0    0  501 -0.00000000000E+00  0.00000000000E+00  0.11200576538E+04  0.11200576538E+04  0.50400000000E-02 0.  1.
          1   -1    0    0  501    0  0.00000000000E+00 -0.00000000000E+00 -0.14539760845E+04  0.14539760846E+04  0.50400000000E-02 0. -1.
    8880023    1    1    2    0    0  0.27407827472E+03  0.45690049345E+03  0.89104292914E+03  0.12294895971E+04  0.65864270000E+03 0.  1.
    8880022    1    1    2    0    0 -0.27407827472E+03 -0.45690049345E+03 -0.12249613599E+04  0.13445441413E+04  0.15294330000E+03 0.  0.
<mgrwt>
<rscale>  0 0.76193069E+03</rscale>
<asrwt>0</asrwt>
<pdfrwt beam="1">  1        1 0.22368863E+00 0.84716419E+03</pdfrwt>
<pdfrwt beam="2">  1       -1 0.17231656E+00 0.84716419E+03</pdfrwt>
<totfact> 0.17156950E+00</totfact>
</mgrwt>
</event>
<event>
 4    2  0.3396630E-007  0.9901040E+03  0.7818608E-02  0.9394621E-01
          1   -1    0    0  501    0  0.00000000000E+00  0.00000000000E+00  0.20897902418E+04  0.20897902418E+04  0.50400000000E-02 0. -1.
         -1   -1    0    0    0  501 -0.00000000000E+00 -0.00000000000E+00 -0.36569304981E+03  0.36569304984E+03  0.50400000000E-02 0.  1.
    8880023    1    1    2    0    0 -0.41282393500E+03  0.61324711803E+03  0.10534300923E+04  0.14456904215E+04  0.65864270000E+03 0.  0.
    8880022    1    1    2    0    0  0.41282393500E+03 -0.61324711803E+03  0.67066709972E+03  0.10097928702E+04  0.15294330000E+03 0. -1.
<mgrwt>
<rscale>  0 0.92519700E+03</rscale>
<asrwt>0</asrwt>
<pdfrwt beam="1">  1        1 0.32150619E+00 0.99010395E+03</pdfrwt>
<pdfrwt beam="2">  1       -1 0.56260469E-01 0.99010395E+03</pdfrwt>
<totfact> 0.83911335E+00</totfact>
</mgrwt>
</event>
<event>
 4    2  0.3396630E-007  0.6801692E+03  0.7818608E-02  0.1009228E+00
          1   -1    0    0  501    0  0.00000000000E+00  0.00000000000E+00  0.13359548390E+04  0.13359548390E+04  0.50400000000E-02 0. -1.
         -1   -1    0    0    0  501 -0.00000000000E+00 -0.00000000000E+00 -0.29518805450E+03  0.29518805454E+03  0.50400000000E-02 0.  1.
    8880023    1    1    2    0    0  0.14683115535E+03  0.85209226663E+02  0.13042367002E+03  0.69256085686E+03  0.65864270000E+03 0.  1.
    8880022    1    1    2    0    0 -0.14683115535E+03 -0.85209226663E+02  0.91034311450E+03  0.93858203670E+03  0.15294330000E+03 0.  0.
<mgrwt>
<rscale>  0 0.51782579E+03</rscale>
<asrwt>0</asrwt>
<pdfrwt beam="1">  1        1 0.20553151E+00 0.68016925E+03</pdfrwt>
<pdfrwt beam="2">  1       -1 0.45413547E-01 0.68016925E+03</pdfrwt>
<totfact> 0.42536222E+01</totfact>
</mgrwt>
</event>
<event>
 4    2  0.3396630E-007  0.8040993E+03  0.7818608E-02  0.9702002E-01
          1   -1    0    0  501    0  0.00000000000E+00  0.00000000000E+00  0.15780012108E+04  0.15780012108E+04  0.50400000000E-02 0. -1.
         -1   -1    0    0    0  501 -0.00000000000E+00 -0.00000000000E+00 -0.65600574981E+03  0.65600574983E+03  0.50400000000E-02 0.  1.
    8880023    1    1    2    0    0 -0.27879270850E+03 -0.36747809725E+03 -0.34652478968E+03  0.87558846635E+03  0.65864270000E+03 0.  1.
    8880022    1    1    2    0    0  0.27879270850E+03  0.36747809725E+03  0.12685202507E+04  0.13584184943E+04  0.15294330000E+03 0.  0.
<mgrwt>
<rscale>  0 0.70897745E+03</rscale>
<asrwt>0</asrwt>
<pdfrwt beam="1">  1        1 0.24276942E+00 0.80409933E+03</pdfrwt>
<pdfrwt beam="2">  1       -1 0.10092396E+00 0.80409933E+03</pdfrwt>
<totfact> 0.55729027E+00</totfact>
</mgrwt>
</event>
<event>
 4    2  0.3396630E-007  0.8021218E+03  0.7818608E-02  0.9706227E-01
         -1   -1    0    0    0  501 -0.00000000000E+00  0.00000000000E+00  0.15677243265E+04  0.15677243265E+04  0.50400000000E-02 0.  1.
          1   -1    0    0  501    0  0.00000000000E+00 -0.00000000000E+00 -0.53049905435E+03  0.53049905437E+03  0.50400000000E-02 0. -1.
    8880023    1    1    2    0    0  0.38617577697E+03 -0.24588092752E+03  0.13157309616E+04  0.15409566285E+04  0.65864270000E+03 0.  1.
    8880022    1    1    2    0    0 -0.38617577697E+03  0.24588092752E+03 -0.27850568947E+03  0.55726675239E+03  0.15294330000E+03 0.  0.
<mgrwt>
<rscale>  0 0.70647249E+03</rscale>
<asrwt>0</asrwt>
<pdfrwt beam="1">  1        1 0.81615239E-01 0.80212179E+03</pdfrwt>
<pdfrwt beam="2">  1       -1 0.24118836E+00 0.80212179E+03</pdfrwt>
<totfact> 0.33587825E+00</totfact>
</mgrwt>
</event>
<event>
 4    2  0.3396630E-007  0.6805307E+03  0.7818608E-02  0.1009025E+00
          1   -1    0    0  501    0  0.00000000000E+00  0.00000000000E+00  0.11197398953E+04  0.11197398953E+04  0.50400000000E-02 0. -1.
         -1   -1    0    0    0  501 -0.00000000000E+00 -0.00000000000E+00 -0.25907571272E+03  0.25907571277E+03  0.50400000000E-02 0.  1.
    8880023    1    1    2    0    0 -0.11004369611E+03 -0.13115716611E+03  0.24759402373E+03  0.72417181948E+03  0.65864270000E+03 0.  1.
    8880022    1    1    2    0    0  0.11004369611E+03  0.13115716611E+03  0.61307015882E+03  0.65464378858E+03  0.15294330000E+03 0.  0.
<mgrwt>
<rscale>  0 0.51863962E+03</rscale>
<asrwt>0</asrwt>
<pdfrwt beam="1">  1        1 0.17226768E+00 0.68053069E+03</pdfrwt>
<pdfrwt beam="2">  1       -1 0.39857802E-01 0.68053069E+03</pdfrwt>
<totfact> 0.77261968E+01</totfact>
</mgrwt>
</event>
<event>
 4    2  0.3396630E-007  0.1086628E+04  0.7818608E-02  0.9276092E-01
         -1   -1    0    0    0  501 -0.00000000000E+00  0.00000000000E+00  0.95940385689E+03  0.95940385690E+03  0.50400000000E-02 0.  1.
          1   -1    0    0  501    0  0.00000000000E+00 -0.00000000000E+00 -0.15507660146E+04  0.15507660146E+04  0.50400000000E-02 0. -1.
    8880023    1    1    2    0    0 -0.23612025758E+03  0.83138284539E+03  0.42544854244E+03  0.11669476767E+04  0.65864270000E+03 0.  0.
    8880022    1    1    2    0    0  0.23612025758E+03 -0.83138284539E+03 -0.10168107002E+04  0.13432221948E+04  0.15294330000E+03 0.  0.
<mgrwt>
<rscale>  0 0.10301397E+04</rscale>
<asrwt>0</asrwt>
<pdfrwt beam="1">  1        1 0.23857939E+00 0.10866280E+04</pdfrwt>
<pdfrwt beam="2">  1       -1 0.14760059E+00 0.10866280E+04</pdfrwt>
<totfact> 0.21864059E+00</totfact>
</mgrwt>
</event>
<event>
 4    2  0.3396630E-007  0.1159744E+04  0.7818608E-02  0.9197283E-01
          1   -1    0    0  501    0  0.00000000000E+00  0.00000000000E+00  0.17253237801E+04  0.17253237801E+04  0.50400000000E-02 0. -1.
         -1   -1    0    0    0  501 -0.00000000000E+00 -0.00000000000E+00 -0.11106849335E+04  0.11106849335E+04  0.50400000000E-02 0.  1.
    8880023    1    1    2    0    0  0.73521252253E+03 -0.60881679981E+03 -0.58205638467E+03  0.12976113402E+04  0.65864270000E+03 0.  0.
    8880022    1    1    2    0    0 -0.73521252253E+03  0.60881679981E+03  0.11966952312E+04  0.15383973734E+04  0.15294330000E+03 0.  0.
<mgrwt>
<rscale>  0 0.11081511E+04</rscale>
<asrwt>0</asrwt>
<pdfrwt beam="1">  1        1 0.26543443E+00 0.11597437E+04</pdfrwt>
<pdfrwt beam="2">  1       -1 0.17087461E+00 0.11597437E+04</pdfrwt>
<totfact> 0.10947184E+00</totfact>
</mgrwt>
</event>
<event>
 4    2  0.3396630E-007  0.7531395E+03  0.7818608E-02  0.9823204E-01
         -1   -1    0    0    0  501 -0.00000000000E+00  0.00000000000E+00  0.12255773384E+04  0.12255773384E+04  0.50400000000E-02 0.  1.
          1   -1    0    0  501    0  0.00000000000E+00 -0.00000000000E+00 -0.32097468548E+03  0.32097468552E+03  0.50400000000E-02 0. -1.
    8880023    1    1    2    0    0 -0.36339693819E+03  0.36764549696E+02  0.86753358061E+03  0.11488401484E+04  0.65864270000E+03 0.  0.
    8880022    1    1    2    0    0  0.36339693819E+03 -0.36764549696E+02  0.37069072299E+02  0.39771187553E+03  0.15294330000E+03 0.  0.
<mgrwt>
<rscale>  0 0.64132041E+03</rscale>
<asrwt>0</asrwt>
<pdfrwt beam="1">  1        1 0.49380721E-01 0.75313954E+03</pdfrwt>
<pdfrwt beam="2">  1       -1 0.18855036E+00 0.75313954E+03</pdfrwt>
<totfact> 0.14921404E+01</totfact>
</mgrwt>
</event>
<event>
 4    2  0.3720214E-007  0.8563175E+03  0.7818608E-02  0.9600148E-01
          1   -1    0    0  501    0  0.00000000000E+00  0.00000000000E+00  0.23545617852E+04  0.23545617852E+04  0.50400000000E-02 0. -1.
         -1   -1    0    0    0  501 -0.00000000000E+00 -0.00000000000E+00 -0.89338350252E+03  0.89338350253E+03  0.50400000000E-02 0.  1.
    8880023    1    1    2    0    0 -0.43947991973E+03 -0.32607798630E+03 -0.64143080073E+03  0.10699126747E+04  0.65864270000E+03 0.  1.
    8880022    1    1    2    0    0  0.43947991973E+03  0.32607798630E+03  0.21026090834E+04  0.21780326131E+04  0.15294330000E+03 0.  0.
<mgrwt>
<rscale>  0 0.77286400E+03</rscale>
<asrwt>0</asrwt>
<pdfrwt beam="1">  1        1 0.36224028E+00 0.85631750E+03</pdfrwt>
<pdfrwt beam="2">  1       -1 0.13744362E+00 0.85631750E+03</pdfrwt>
<totfact> 0.78282098E-01</totfact>
</mgrwt>
</event>
<event>
 4    2  0.3396630E-007  0.9483615E+03  0.7818608E-02  0.9452476E-01
         -1   -1    0    0    0  501 -0.00000000000E+00  0.00000000000E+00  0.67545816087E+03  0.67545816089E+03  0.50400000000E-02 0.  1.
          1   -1    0    0  501    0  0.00000000000E+00 -0.00000000000E+00 -0.26837159142E+04  0.26837159142E+04  0.50400000000E-02 0. -1.
    8880023    1    1    2    0    0  0.28953165879E+03 -0.61785974287E+03  0.26181876904E+03  0.98383866431E+03  0.65864270000E+03 0.  0.
    8880022    1    1    2    0    0 -0.28953165879E+03  0.61785974287E+03 -0.22700765224E+04  0.23753354108E+04  0.15294330000E+03 0.  0.
<mgrwt>
<rscale>  0 0.87880152E+03</rscale>
<asrwt>0</asrwt>
<pdfrwt beam="1">  1        1 0.41287937E+00 0.94836146E+03</pdfrwt>
<pdfrwt beam="2">  1       -1 0.10391664E+00 0.94836146E+03</pdfrwt>
<totfact> 0.90594985E-01</totfact>
</mgrwt>
</event>
<event>
 4    2  0.3396630E-007  0.8407541E+03  0.7818608E-02  0.9628760E-01
          1   -1    0    0  501    0  0.00000000000E+00  0.00000000000E+00  0.18714678671E+04  0.18714678671E+04  0.50400000000E-02 0. -1.
         -1   -1    0    0    0  501 -0.00000000000E+00 -0.00000000000E+00 -0.10657607940E+04  0.10657607940E+04  0.50400000000E-02 0.  1.
    8880023    1    1    2    0    0  0.46066792916E+03  0.24666224350E+03 -0.84923787453E+03  0.11950198229E+04  0.65864270000E+03 0.  1.
    8880022    1    1    2    0    0 -0.46066792916E+03 -0.24666224350E+03  0.16549449476E+04  0.17422088382E+04  0.15294330000E+03 0.  0.
<mgrwt>
<rscale>  0 0.75421551E+03</rscale>
<asrwt>0</asrwt>
<pdfrwt beam="1">  1        1 0.28791813E+00 0.84075407E+03</pdfrwt>
<pdfrwt beam="2">  1       -1 0.16396320E+00 0.84075407E+03</pdfrwt>
<totfact> 0.10311625E+00</totfact>
</mgrwt>
</event>
<event>
 4    2  0.3396630E-007  0.8399382E+03  0.7818608E-02  0.9630297E-01
          1   -1    0    0  501    0  0.00000000000E+00  0.00000000000E+00  0.33522941841E+04  0.33522941841E+04  0.50400000000E-02 0. -1.
         -1   -1    0    0    0  501 -0.00000000000E+00 -0.00000000000E+00 -0.19680367231E+03  0.19680367238E+03  0.50400000000E-02 0.  1.
    8880023    1    1    2    0    0 -0.16190004342E+03  0.49545367178E+03  0.27381436555E+04  0.28640752172E+04  0.65864270000E+03 0. -1.
    8880022    1    1    2    0    0  0.16190004342E+03 -0.49545367178E+03  0.41734685627E+03  0.68502263933E+03  0.15294330000E+03 0.  0.
<mgrwt>
<rscale>  0 0.75322987E+03</rscale>
<asrwt>0</asrwt>
<pdfrwt beam="1">  1        1 0.51573755E+00 0.83993819E+03</pdfrwt>
<pdfrwt beam="2">  1       -1 0.30277489E-01 0.83993819E+03</pdfrwt>
<totfact> 0.34659870E+00</totfact>
</mgrwt>
</event>
<event>
 4    2  0.3396630E-007  0.7146640E+03  0.7818608E-02  0.9941073E-01
         -1   -1    0    0    0  501 -0.00000000000E+00  0.00000000000E+00  0.36266544523E+03  0.36266544527E+03  0.50400000000E-02 0.  1.
          1   -1    0    0  501    0  0.00000000000E+00 -0.00000000000E+00 -0.15760554269E+04  0.15760554269E+04  0.50400000000E-02 0. -1.
    8880023    1    1    2    0    0  0.10358707275E+03 -0.25730177055E+03 -0.31754118323E+02  0.71536914461E+03  0.65864270000E+03 0.  1.
    8880022    1    1    2    0    0 -0.10358707275E+03  0.25730177055E+03 -0.11816358633E+04  0.12233517275E+04  0.15294330000E+03 0.  0.
<mgrwt>
<rscale>  0 0.58311365E+03</rscale>
<asrwt>0</asrwt>
<pdfrwt beam="1">  1        1 0.24247006E+00 0.71466404E+03</pdfrwt>
<pdfrwt beam="2">  1       -1 0.55794685E-01 0.71466404E+03</pdfrwt>
<totfact> 0.19597322E+01</totfact>
</mgrwt>
</event>
<event>
 4    2  0.3396630E-007  0.1112748E+04  0.7818608E-02  0.9246994E-01
          1   -1    0    0  501    0  0.00000000000E+00  0.00000000000E+00  0.16316897174E+04  0.16316897175E+04  0.50400000000E-02 0. -1.
         -1   -1    0    0    0  501 -0.00000000000E+00 -0.00000000000E+00 -0.67624930592E+03  0.67624930594E+03  0.50400000000E-02 0.  1.
    8880023    1    1    2    0    0 -0.60673106029E+03 -0.66051096612E+03  0.21147846754E+03  0.11326652923E+04  0.65864270000E+03 0.  0.
    8880022    1    1    2    0    0  0.60673106029E+03  0.66051096612E+03  0.74396194398E+03  0.11752737311E+04  0.15294330000E+03 0.  0.
<mgrwt>
<rscale>  0 0.10581263E+04</rscale>
<asrwt>0</asrwt>
<pdfrwt beam="1">  1        1 0.25102919E+00 0.11127477E+04</pdfrwt>
<pdfrwt beam="2">  1       -1 0.10403836E+00 0.11127477E+04</pdfrwt>
<totfact> 0.45865614E+00</totfact>
</mgrwt>
</event>
<event>
 4    2  0.3396630E-007  0.8329006E+03  0.7818608E-02  0.9643715E-01
         -1   -1    0    0    0  501 -0.00000000000E+00  0.00000000000E+00  0.11390141128E+04  0.11390141128E+04  0.50400000000E-02 0.  1.
          1   -1    0    0  501    0  0.00000000000E+00 -0.00000000000E+00 -0.76493367624E+03  0.76493367626E+03  0.50400000000E-02 0. -1.
    8880023    1    1    2    0    0  0.34272835803E+03 -0.37742616247E+03  0.84992040449E+03  0.11899950150E+04  0.65864270000E+03 0.  1.
    8880022    1    1    2    0    0 -0.34272835803E+03  0.37742616247E+03 -0.47583996792E+03  0.71395277407E+03  0.15294330000E+03 0.  0.
<mgrwt>
<rscale>  0 0.74469193E+03</rscale>
<asrwt>0</asrwt>
<pdfrwt beam="1">  1        1 0.11768210E+00 0.83290062E+03</pdfrwt>
<pdfrwt beam="2">  1       -1 0.17523294E+00 0.83290062E+03</pdfrwt>
<totfact> 0.54739802E+00</totfact>
</mgrwt>
</event>
<event>
 4    2  0.3396630E-007  0.1042735E+04  0.7818608E-02  0.9327666E-01
         -1   -1    0    0    0  501 -0.00000000000E+00  0.00000000000E+00  0.99919618267E+03  0.99919618269E+03  0.50400000000E-02 0.  1.
          1   -1    0    0  501    0  0.00000000000E+00 -0.00000000000E+00 -0.24334019221E+04  0.24334019221E+04  0.50400000000E-02 0. -1.
    8880023    1    1    2    0    0 -0.71957645106E+03 -0.36836909503E+03  0.62459993093E+03  0.12154922209E+04  0.65864270000E+03 0.  1.
    8880022    1    1    2    0    0  0.71957645106E+03  0.36836909503E+03 -0.20588056703E+04  0.22171058839E+04  0.15294330000E+03 0.  0.
<mgrwt>
<rscale>  0 0.98275268E+03</rscale>
<asrwt>0</asrwt>
<pdfrwt beam="1">  1        1 0.37436952E+00 0.10427350E+04</pdfrwt>
<pdfrwt beam="2">  1       -1 0.15372249E+00 0.10427350E+04</pdfrwt>
<totfact> 0.49673754E-01</totfact>
</mgrwt>
</event>
<event>
 4    2  0.3396630E-007  0.1228385E+04  0.7818608E-02  0.9130012E-01
         -1   -1    0    0    0  501 -0.00000000000E+00  0.00000000000E+00  0.11538138806E+04  0.11538138806E+04  0.50400000000E-02 0.  1.
          1   -1    0    0  501    0  0.00000000000E+00 -0.00000000000E+00 -0.15907589859E+04  0.15907589859E+04  0.50400000000E-02 0. -1.
    8880023    1    1    2    0    0 -0.10358899619E+04 -0.45295701291E+02 -0.97326983915E+03  0.15672217775E+04  0.65864270000E+03 0. -1.
    8880022    1    1    2    0    0  0.10358899619E+04  0.45295701291E+02  0.53632473394E+03  0.11773510891E+04  0.15294330000E+03 0.  0.
<mgrwt>
<rscale>  0 0.11805964E+04</rscale>
<asrwt>0</asrwt>
<pdfrwt beam="1">  1        1 0.24473215E+00 0.12283851E+04</pdfrwt>
<pdfrwt beam="2">  1       -1 0.17750983E+00 0.12283851E+04</pdfrwt>
<totfact> 0.11997389E+00</totfact>
</mgrwt>
</event>
<event>
 4    2  0.3396630E-007  0.7695076E+03  0.7818608E-02  0.9781087E-01
          1   -1    0    0  501    0  0.00000000000E+00  0.00000000000E+00  0.19485811719E+04  0.19485811719E+04  0.50400000000E-02 0. -1.
         -1   -1    0    0    0  501 -0.00000000000E+00 -0.00000000000E+00 -0.18802769359E+03  0.18802769366E+03  0.50400000000E-02 0.  1.
    8880023    1    1    2    0    0 -0.39789630847E+03  0.31967993758E+01  0.12865007581E+04  0.14990750811E+04  0.65864270000E+03 0.  0.
    8880022    1    1    2    0    0  0.39789630847E+03 -0.31967993758E+01  0.47405272014E+03  0.63753378444E+03  0.15294330000E+03 0.  0.
<mgrwt>
<rscale>  0 0.66387454E+03</rscale>
<asrwt>0</asrwt>
<pdfrwt beam="1">  1        1 0.29978171E+00 0.76950757E+03</pdfrwt>
<pdfrwt beam="2">  1       -1 0.28927338E-01 0.76950757E+03</pdfrwt>
<totfact> 0.36276714E+01</totfact>
</mgrwt>
</event>
<event>
 4    2  0.3396630E-007  0.8809784E+03  0.7818608E-02  0.9557284E-01
          1   -1    0    0  501    0  0.00000000000E+00  0.00000000000E+00  0.21740618769E+04  0.21740618769E+04  0.50400000000E-02 0. -1.
         -1   -1    0    0    0  501 -0.00000000000E+00 -0.00000000000E+00 -0.54382106163E+03  0.54382106165E+03  0.50400000000E-02 0.  1.
    8880023    1    1    2    0    0 -0.71221413045E+02 -0.58072394043E+03 -0.98456525465E+02  0.88646301578E+03  0.65864270000E+03 0.  1.
    8880022    1    1    2    0    0  0.71221413045E+02  0.58072394043E+03  0.17286973407E+04  0.18314199228E+04  0.15294330000E+03 0.  0.
<mgrwt>
<rscale>  0 0.80189081E+03</rscale>
<asrwt>0</asrwt>
<pdfrwt beam="1">  1        1 0.33447106E+00 0.88097843E+03</pdfrwt>
<pdfrwt beam="2">  1       -1 0.83664779E-01 0.88097843E+03</pdfrwt>
<totfact> 0.33165045E+00</totfact>
</mgrwt>
</event>
<event>
 4    2  0.3396630E-007  0.7147898E+03  0.7818608E-02  0.9940627E-01
         -1   -1    0    0    0  501 -0.00000000000E+00  0.00000000000E+00  0.86331726023E+03  0.86331726024E+03  0.50400000000E-02 0.  1.
          1   -1    0    0  501    0  0.00000000000E+00 -0.00000000000E+00 -0.49979865869E+03  0.49979865872E+03  0.50400000000E-02 0. -1.
    8880023    1    1    2    0    0  0.27768982030E+03  0.16177930862E+01  0.62705774427E+03  0.95085533835E+03  0.65864270000E+03 0.  1.
    8880022    1    1    2    0    0 -0.27768982030E+03 -0.16177930862E+01 -0.26353914273E+03  0.41226058061E+03  0.15294330000E+03 0.  0.
<mgrwt>
<rscale>  0 0.58332113E+03</rscale>
<asrwt>0</asrwt>
<pdfrwt beam="1">  1        1 0.76892102E-01 0.71478980E+03</pdfrwt>
<pdfrwt beam="2">  1       -1 0.13281804E+00 0.71478980E+03</pdfrwt>
<totfact> 0.21924284E+01</totfact>
</mgrwt>
</event>
<event>
 4    2  0.3396630E-007  0.6597537E+03  0.7818608E-02  0.1024410E+00
         -1   -1    0    0    0  501 -0.00000000000E+00  0.00000000000E+00  0.49281587735E+03  0.49281587738E+03  0.50400000000E-02 0.  1.
          1   -1    0    0  501    0  0.00000000000E+00 -0.00000000000E+00 -0.38397872405E+03  0.38397872408E+03  0.50400000000E-02 0. -1.
    8880023    1    1    2    0    0  0.31498185320E+02  0.21739145073E+02  0.20652635762E+03  0.69132341835E+03  0.65864270000E+03 0.  0.
    8880022    1    1    2    0    0 -0.31498185320E+02 -0.21739145073E+02 -0.97689204322E+02  0.18547118311E+03  0.15294330000E+03 0. -1.
<mgrwt>
<rscale>  0 0.46128157E+03</rscale>
<asrwt>0</asrwt>
<pdfrwt beam="1">  1        1 0.59073650E-01 0.65975369E+03</pdfrwt>
<pdfrwt beam="2">  1       -1 0.75817827E-01 0.65975369E+03</pdfrwt>
<totfact> 0.11321816E+02</totfact>
</mgrwt>
</event>
<event>
 4    2  0.3396630E-007  0.1078550E+04  0.7818608E-02  0.9285322E-01
          1   -1    0    0  501    0  0.00000000000E+00  0.00000000000E+00  0.25675005429E+04  0.25675005429E+04  0.50400000000E-02 0. -1.
         -1   -1    0    0    0  501 -0.00000000000E+00 -0.00000000000E+00 -0.47553655737E+03  0.47553655740E+03  0.50400000000E-02 0.  1.
    8880023    1    1    2    0    0  0.84311447678E+03 -0.13644635568E+03  0.18513753010E+04  0.21426293054E+04  0.65864270000E+03 0.  0.
    8880022    1    1    2    0    0 -0.84311447678E+03  0.13644635568E+03  0.24058868449E+03  0.90040779487E+03  0.15294330000E+03 0.  0.
<mgrwt>
<rscale>  0 0.10214540E+04</rscale>
<asrwt>0</asrwt>
<pdfrwt beam="1">  1        1 0.39500007E+00 0.10785499E+04</pdfrwt>
<pdfrwt beam="2">  1       -1 0.73159473E-01 0.10785499E+04</pdfrwt>
<totfact> 0.23096355E+00</totfact>
</mgrwt>
</event>
<event>
 4    2  0.3396630E-007  0.1130143E+04  0.7818608E-02  0.9228215E-01
          1   -1    0    0  501    0  0.00000000000E+00  0.00000000000E+00  0.95328405144E+03  0.95328405145E+03  0.50400000000E-02 0. -1.
         -1   -1    0    0    0  501 -0.00000000000E+00 -0.00000000000E+00 -0.15437318841E+04  0.15437318841E+04  0.50400000000E-02 0.  1.
    8880023    1    1    2    0    0 -0.86157168229E+03 -0.31797363841E+03  0.34058031865E+03  0.11803466263E+04  0.65864270000E+03 0. -1.
    8880022    1    1    2    0    0  0.86157168229E+03  0.31797363841E+03 -0.93102815128E+03  0.13166693093E+04  0.15294330000E+03 0.  0.
<mgrwt>
<rscale>  0 0.10766888E+04</rscale>
<asrwt>0</asrwt>
<pdfrwt beam="1">  1        1 0.14665908E+00 0.11301430E+04</pdfrwt>
<pdfrwt beam="2">  1       -1 0.23749721E+00 0.11301430E+04</pdfrwt>
<totfact> 0.13736697E+00</totfact>
</mgrwt>
</event>
<event>
 4    2  0.3396630E-007  0.6854880E+03  0.7818608E-02  0.1006375E+00
          1   -1    0    0  501    0  0.00000000000E+00  0.00000000000E+00  0.15370422487E+04  0.15370422487E+04  0.50400000000E-02 0. -1.
         -1   -1    0    0    0  501 -0.00000000000E+00 -0.00000000000E+00 -0.21774131776E+03  0.21774131782E+03  0.50400000000E-02 0.  1.
    8880023    1    1    2    0    0  0.16919778449E+03  0.86346552490E+02  0.37882029901E+03  0.78319770340E+03  0.65864270000E+03 0. -1.
    8880022    1    1    2    0    0 -0.16919778449E+03 -0.86346552490E+02  0.94048063190E+03  0.97158586311E+03  0.15294330000E+03 0.  0.
<mgrwt>
<rscale>  0 0.52940977E+03</rscale>
<asrwt>0</asrwt>
<pdfrwt beam="1">  1        1 0.23646804E+00 0.68548802E+03</pdfrwt>
<pdfrwt beam="2">  1       -1 0.33498665E-01 0.68548802E+03</pdfrwt>
<totfact> 0.53584059E+01</totfact>
</mgrwt>
</event>
<event>
 4    2  0.3396630E-007  0.8669736E+03  0.7818608E-02  0.9581277E-01
          1   -1    0    0  501    0  0.00000000000E+00  0.00000000000E+00  0.11959597925E+04  0.11959597925E+04  0.50400000000E-02 0. -1.
         -1   -1    0    0    0  501 -0.00000000000E+00 -0.00000000000E+00 -0.51846293796E+03  0.51846293799E+03  0.50400000000E-02 0.  1.
    8880023    1    1    2    0    0 -0.41778318747E+03  0.37853700626E+03  0.67124543542E+02  0.86956826498E+03  0.65864270000E+03 0.  0.
    8880022    1    1    2    0    0  0.41778318747E+03 -0.37853700626E+03  0.61037231096E+03  0.84485446548E+03  0.15294330000E+03 0.  0.
<mgrwt>
<rscale>  0 0.78547881E+03</rscale>
<asrwt>0</asrwt>
<pdfrwt beam="1">  1        1 0.18399381E+00 0.86697362E+03</pdfrwt>
<pdfrwt beam="2">  1       -1 0.79763530E-01 0.86697362E+03</pdfrwt>
<totfact> 0.17183926E+01</totfact>
</mgrwt>
</event>
<event>
 4    2  0.3396630E-007  0.7649503E+03  0.7818608E-02  0.9792456E-01
          1   -1    0    0  501    0  0.00000000000E+00  0.00000000000E+00  0.67588893329E+03  0.67588893331E+03  0.50400000000E-02 0. -1.
         -1   -1    0    0    0  501 -0.00000000000E+00 -0.00000000000E+00 -0.73537438606E+03  0.73537438608E+03  0.50400000000E-02 0.  1.
    8880023    1    1    2    0    0  0.38076936364E+03  0.79708140298E+02 -0.40806415953E+03  0.86698630928E+03  0.65864270000E+03 0.  0.
    8880022    1    1    2    0    0 -0.38076936364E+03 -0.79708140298E+02  0.34857870675E+03  0.54427701011E+03  0.15294330000E+03 0.  0.
<mgrwt>
<rscale>  0 0.65768955E+03</rscale>
<asrwt>0</asrwt>
<pdfrwt beam="1">  1        1 0.10398291E+00 0.76495026E+03</pdfrwt>
<pdfrwt beam="2">  1       -1 0.11313452E+00 0.76495026E+03</pdfrwt>
<totfact> 0.21017570E+01</totfact>
</mgrwt>
</event>
<event>
 4    2  0.3396630E-007  0.7291157E+03  0.7818608E-02  0.9892868E-01
          1   -1    0    0  501    0  0.00000000000E+00  0.00000000000E+00  0.80375026702E+03  0.80375026704E+03  0.50400000000E-02 0. -1.
         -1   -1    0    0    0  501 -0.00000000000E+00 -0.00000000000E+00 -0.77595965550E+03  0.77595965551E+03  0.50400000000E-02 0.  1.
    8880023    1    1    2    0    0  0.26976806205E+03 -0.15819207932E+03 -0.54440287586E+03  0.90993639270E+03  0.65864270000E+03 0.  1.
    8880022    1    1    2    0    0 -0.26976806205E+03  0.15819207932E+03  0.57219348739E+03  0.66977352985E+03  0.15294330000E+03 0.  0.
<mgrwt>
<rscale>  0 0.60608179E+03</rscale>
<asrwt>0</asrwt>
<pdfrwt beam="1">  1        1 0.12365389E+00 0.72911573E+03</pdfrwt>
<pdfrwt beam="2">  1       -1 0.11937841E+00 0.72911573E+03</pdfrwt>
<totfact> 0.14198892E+01</totfact>
</mgrwt>
</event>
<event>
 4    2  0.3396630E-007  0.8913386E+03  0.7818608E-02  0.9540081E-01
          1   -1    0    0  501    0  0.00000000000E+00  0.00000000000E+00  0.14265026321E+04  0.14265026321E+04  0.50400000000E-02 0. -1.
         -1   -1    0    0    0  501 -0.00000000000E+00 -0.00000000000E+00 -0.95447346136E+03  0.95447346138E+03  0.50400000000E-02 0.  1.
    8880023    1    1    2    0    0 -0.59853200841E+03 -0.49333548470E+02 -0.64726970954E+03  0.11015637282E+04  0.65864270000E+03 0.  0.
    8880022    1    1    2    0    0  0.59853200841E+03  0.49333548470E+02  0.11192988803E+04  0.12794123653E+04  0.15294330000E+03 0.  0.
<mgrwt>
<rscale>  0 0.81392200E+03</rscale>
<asrwt>0</asrwt>
<pdfrwt beam="1">  1        1 0.21946194E+00 0.89133864E+03</pdfrwt>
<pdfrwt beam="2">  1       -1 0.14684207E+00 0.89133864E+03</pdfrwt>
<totfact> 0.27744762E+00</totfact>
</mgrwt>
</event>
<event>
 4    2  0.3396630E-007  0.6650278E+03  0.7818608E-02  0.1019510E+00
         -1   -1    0    0    0  501 -0.00000000000E+00  0.00000000000E+00  0.16854815234E+04  0.16854815234E+04  0.50400000000E-02 0.  1.
          1   -1    0    0  501    0  0.00000000000E+00 -0.00000000000E+00 -0.46479434197E+03  0.46479434199E+03  0.50400000000E-02 0. -1.
    8880023    1    1    2    0    0  0.24042238863E+02 -0.88733900328E+02  0.15991141436E+04  0.17318856731E+04  0.65864270000E+03 0.  1.
    8880022    1    1    2    0    0 -0.24042238863E+02  0.88733900328E+02 -0.37842696213E+03  0.41839019229E+03  0.15294330000E+03 0.  0.
<mgrwt>
<rscale>  0 0.47863808E+03</rscale>
<asrwt>0</asrwt>
<pdfrwt beam="1">  1        1 0.71506821E-01 0.66502777E+03</pdfrwt>
<pdfrwt beam="2">  1       -1 0.25930485E+00 0.66502777E+03</pdfrwt>
<totfact> 0.31451680E+00</totfact>
</mgrwt>
</event>
<event>
 4    2  0.3396630E-007  0.9533411E+03  0.7818608E-02  0.9445323E-01
         -1   -1    0    0    0  501 -0.00000000000E+00  0.00000000000E+00  0.33512969314E+03  0.33512969317E+03  0.50400000000E-02 0.  1.
          1   -1    0    0  501    0  0.00000000000E+00 -0.00000000000E+00 -0.25657161990E+04  0.25657161990E+04  0.50400000000E-02 0. -1.
    8880023    1    1    2    0    0  0.67343545361E+03  0.14674385829E+03 -0.18903403942E+04  0.21171315694E+04  0.65864270000E+03 0.  0.
    8880022    1    1    2    0    0 -0.67343545361E+03 -0.14674385829E+03 -0.34024611164E+03  0.78371432271E+03  0.15294330000E+03 0.  0.
<mgrwt>
<rscale>  0 0.88437800E+03</rscale>
<asrwt>0</asrwt>
<pdfrwt beam="1">  1        1 0.39472556E+00 0.95334111E+03</pdfrwt>
<pdfrwt beam="2">  1       -1 0.51558416E-01 0.95334111E+03</pdfrwt>
<totfact> 0.47360856E+00</totfact>
</mgrwt>
</event>
<event>
 4    2  0.3396630E-007  0.9717396E+03  0.7818608E-02  0.9419502E-01
         -1   -1    0    0    0  501 -0.00000000000E+00  0.00000000000E+00  0.67195487439E+03  0.67195487441E+03  0.50400000000E-02 0.  1.
          1   -1    0    0  501    0  0.00000000000E+00 -0.00000000000E+00 -0.12612792761E+04  0.12612792761E+04  0.50400000000E-02 0. -1.
    8880023    1    1    2    0    0  0.57799871929E+03  0.41998238882E+03  0.34711562422E+02  0.97235941156E+03  0.65864270000E+03 0.  1.
    8880022    1    1    2    0    0 -0.57799871929E+03 -0.41998238882E+03 -0.62403596411E+03  0.96087473894E+03  0.15294330000E+03 0.  0.
<mgrwt>
<rscale>  0 0.90487961E+03</rscale>
<asrwt>0</asrwt>
<pdfrwt beam="1">  1        1 0.19404296E+00 0.97173964E+03</pdfrwt>
<pdfrwt beam="2">  1       -1 0.10337767E+00 0.97173964E+03</pdfrwt>
<totfact> 0.85729559E+00</totfact>
</mgrwt>
</event>
<event>
 4    2  0.5026626E-007  0.7201614E+03  0.7818608E-02  0.9922040E-01
          1   -1    0    0  501    0  0.00000000000E+00  0.00000000000E+00  0.16493677939E+04  0.16493677939E+04  0.50400000000E-02 0. -1.
         -1   -1    0    0    0  501 -0.00000000000E+00 -0.00000000000E+00 -0.58963481742E+03  0.58963481744E+03  0.50400000000E-02 0.  1.
    8880023    1    1    2    0    0  0.28893834609E+03  0.36562672387E+02 -0.34338529486E+03  0.79783824416E+03  0.65864270000E+03 0.  1.
    8880022    1    1    2    0    0 -0.28893834609E+03 -0.36562672387E+02  0.14031182713E+04  0.14411643672E+04  0.15294330000E+03 0.  0.
<mgrwt>
<rscale>  0 0.59204910E+03</rscale>
<asrwt>0</asrwt>
<pdfrwt beam="1">  1        1 0.25374889E+00 0.72016137E+03</pdfrwt>
<pdfrwt beam="2">  1       -1 0.90713050E-01 0.72016137E+03</pdfrwt>
<totfact> 0.64212040E+00</totfact>
</mgrwt>
</event>
<event>
 4    2  0.3396630E-007  0.1083478E+04  0.7818608E-02  0.9279678E-01
          1   -1    0    0  501    0  0.00000000000E+00  0.00000000000E+00  0.29328951894E+04  0.29328951894E+04  0.50400000000E-02 0. -1.
         -1   -1    0    0    0  501 -0.00000000000E+00 -0.00000000000E+00 -0.60793483275E+03  0.60793483277E+03  0.50400000000E-02 0.  1.
    8880023    1    1    2    0    0 -0.13216230004E+03  0.85008657686E+03  0.24301404279E+04  0.26607342534E+04  0.65864270000E+03 0. -1.
    8880022    1    1    2    0    0  0.13216230004E+03 -0.85008657686E+03 -0.10518007129E+03  0.88009576872E+03  0.15294330000E+03 0.  0.
<mgrwt>
<rscale>  0 0.10267544E+04</rscale>
<asrwt>0</asrwt>
<pdfrwt beam="1">  1        1 0.45121464E+00 0.10834779E+04</pdfrwt>
<pdfrwt beam="2">  1       -1 0.93528436E-01 0.10834779E+04</pdfrwt>
<totfact> 0.75126285E-01</totfact>
</mgrwt>
</event>
<event>
 4    2  0.3396630E-007  0.7014660E+03  0.7818608E-02  0.9991173E-01
         -1   -1    0    0    0  501 -0.00000000000E+00  0.00000000000E+00  0.17722965386E+03  0.17722965393E+03  0.50400000000E-02 0.  1.
          1   -1    0    0  501    0  0.00000000000E+00 -0.00000000000E+00 -0.23135681588E+04  0.23135681588E+04  0.50400000000E-02 0. -1.
    8880023    1    1    2    0    0 -0.20688147291E+03 -0.12427566567E+03 -0.58506363172E+03  0.91342982453E+03  0.65864270000E+03 0.  1.
    8880022    1    1    2    0    0  0.20688147291E+03  0.12427566567E+03 -0.15512748732E+04  0.15773679882E+04  0.15294330000E+03 0.  0.
<mgrwt>
<rscale>  0 0.56038980E+03</rscale>
<asrwt>0</asrwt>
<pdfrwt beam="1">  1        1 0.35593354E+00 0.70146603E+03</pdfrwt>
<pdfrwt beam="2">  1       -1 0.27266102E-01 0.70146603E+03</pdfrwt>
<totfact> 0.23090665E+01</totfact>
</mgrwt>
</event>
<event>
 4    2  0.3396630E-007  0.9204843E+03  0.7818608E-02  0.9493917E-01
          1   -1    0    0  501    0  0.00000000000E+00  0.00000000000E+00  0.18865138051E+04  0.18865138051E+04  0.50400000000E-02 0. -1.
         -1   -1    0    0    0  501 -0.00000000000E+00 -0.00000000000E+00 -0.52299278438E+03  0.52299278440E+03  0.50400000000E-02 0.  1.
    8880023    1    1    2    0    0 -0.48084813415E+03  0.42692649683E+03  0.29774004946E+02  0.92096572110E+03  0.65864270000E+03 0.  0.
    8880022    1    1    2    0    0  0.48084813415E+03 -0.42692649683E+03  0.13337470158E+04  0.14885408684E+04  0.15294330000E+03 0.  0.
<mgrwt>
<rscale>  0 0.84733798E+03</rscale>
<asrwt>0</asrwt>
<pdfrwt beam="1">  1        1 0.29023289E+00 0.92048431E+03</pdfrwt>
<pdfrwt beam="2">  1       -1 0.80460430E-01 0.92048431E+03</pdfrwt>
<totfact> 0.55952804E+00</totfact>
</mgrwt>
</event>
<event>
 4    2  0.3396630E-007  0.1093726E+04  0.7818608E-02  0.9268073E-01
          1   -1    0    0  501    0  0.00000000000E+00  0.00000000000E+00  0.11340654829E+04  0.11340654829E+04  0.50400000000E-02 0. -1.
         -1   -1    0    0    0  501 -0.00000000000E+00 -0.00000000000E+00 -0.11832008670E+04  0.11832008670E+04  0.50400000000E-02 0.  1.
    8880023    1    1    2    0    0  0.85983538723E+03  0.15202109122E+03  0.57255800777E+03  0.12345283244E+04  0.65864270000E+03 0.  0.
    8880022    1    1    2    0    0 -0.85983538723E+03 -0.15202109122E+03 -0.62169339189E+03  0.10827380255E+04  0.15294330000E+03 0.  0.
<mgrwt>
<rscale>  0 0.10377598E+04</rscale>
<asrwt>0</asrwt>
<pdfrwt beam="1">  1        1 0.17447161E+00 0.10937264E+04</pdfrwt>
<pdfrwt beam="2">  1       -1 0.18203090E+00 0.10937264E+04</pdfrwt>
<totfact> 0.23873136E+00</totfact>
</mgrwt>
</event>
<event>
 4    2  0.3396630E-007  0.7589313E+03  0.7818608E-02  0.9807882E-01
         -1   -1    0    0    0  501 -0.00000000000E+00  0.00000000000E+00  0.19690026827E+03  0.19690026833E+03  0.50400000000E-02 0.  1.
          1   -1    0    0  501    0  0.00000000000E+00 -0.00000000000E+00 -0.25540193288E+04  0.25540193288E+04  0.50400000000E-02 0. -1.
    8880023    1    1    2    0    0  0.10999237525E+03  0.36064973184E+03 -0.66020860759E+03  0.10059086258E+04  0.65864270000E+03 0.  1.
    8880022    1    1    2    0    0 -0.10999237525E+03 -0.36064973184E+03 -0.16969104529E+04  0.17450109713E+04  0.15294330000E+03 0. -1.
<mgrwt>
<rscale>  0 0.64941258E+03</rscale>
<asrwt>0</asrwt>
<pdfrwt beam="1">  1        1 0.39292603E+00 0.75893133E+03</pdfrwt>
<pdfrwt beam="2">  1       -1 0.30292351E-01 0.75893133E+03</pdfrwt>
<totfact> 0.13093347E+01</totfact>
</mgrwt>
</event>
<event>
 4    2  0.3396630E-007  0.7123218E+03  0.7818608E-02  0.9949478E-01
          1   -1    0    0  501    0  0.00000000000E+00  0.00000000000E+00  0.78404065317E+03  0.78404065318E+03  0.50400000000E-02 0. -1.
         -1   -1    0    0    0  501 -0.00000000000E+00 -0.00000000000E+00 -0.41787210149E+03  0.41787210152E+03  0.50400000000E-02 0.  1.
    8880023    1    1    2    0    0 -0.22605307464E+03  0.14997392441E+03 -0.11488381354E+02  0.71241445783E+03  0.65864270000E+03 0.  1.
    8880022    1    1    2    0    0  0.22605307464E+03 -0.14997392441E+03  0.37765693303E+03  0.48949829687E+03  0.15294330000E+03 0.  1.
<mgrwt>
<rscale>  0 0.57922140E+03</rscale>
<asrwt>0</asrwt>
<pdfrwt beam="1">  1        1 0.12062164E+00 0.71232182E+03</pdfrwt>
<pdfrwt beam="2">  1       -1 0.64288016E-01 0.71232182E+03</pdfrwt>
<totfact> 0.57456986E+01</totfact>
</mgrwt>
</event>
<event>
 4    2  0.3396630E-007  0.8870231E+03  0.7818608E-02  0.9547193E-01
          1   -1    0    0  501    0  0.00000000000E+00  0.00000000000E+00  0.13137458600E+04  0.13137458600E+04  0.50400000000E-02 0. -1.
         -1   -1    0    0    0  501 -0.00000000000E+00 -0.00000000000E+00 -0.66590226841E+03  0.66590226843E+03  0.50400000000E-02 0.  1.
    8880023    1    1    2    0    0  0.37719871616E+03  0.45904340064E+03 -0.22278514407E+03  0.91457265530E+03  0.65864270000E+03 0.  0.
    8880022    1    1    2    0    0 -0.37719871616E+03 -0.45904340064E+03  0.87062873569E+03  0.10650754732E+04  0.15294330000E+03 0.  0.
<mgrwt>
<rscale>  0 0.80892106E+03</rscale>
<asrwt>0</asrwt>
<pdfrwt beam="1">  1        1 0.20211475E+00 0.88702307E+03</pdfrwt>
<pdfrwt beam="2">  1       -1 0.10244650E+00 0.88702307E+03</pdfrwt>
<totfact> 0.81124778E+00</totfact>
</mgrwt>
</event>
<event>
 4    2  0.3396630E-007  0.7556163E+03  0.7818608E-02  0.9816591E-01
         -1   -1    0    0    0  501 -0.00000000000E+00  0.00000000000E+00  0.14676400602E+04  0.14676400602E+04  0.50400000000E-02 0.  1.
          1   -1    0    0  501    0  0.00000000000E+00 -0.00000000000E+00 -0.88323116065E+03  0.88323116066E+03  0.50400000000E-02 0. -1.
    8880023    1    1    2    0    0  0.32739822590E+03 -0.17307855381E+03  0.13155672809E+04  0.15171266463E+04  0.65864270000E+03 0.  0.
    8880022    1    1    2    0    0 -0.32739822590E+03  0.17307855381E+03 -0.73115838130E+03  0.83374457460E+03  0.15294330000E+03 0.  0.
<mgrwt>
<rscale>  0 0.64479703E+03</rscale>
<asrwt>0</asrwt>
<pdfrwt beam="1">  1        1 0.13588172E+00 0.75561630E+03</pdfrwt>
<pdfrwt beam="2">  1       -1 0.22579078E+00 0.75561630E+03</pdfrwt>
<totfact> 0.19738709E+00</totfact>
</mgrwt>
</event>
<event>
 4    2  0.3396630E-007  0.6698021E+03  0.7818608E-02  0.1015805E+00
          1   -1    0    0  501    0  0.00000000000E+00  0.00000000000E+00  0.24058598306E+04  0.24058598306E+04  0.50400000000E-02 0. -1.
         -1   -1    0    0    0  501 -0.00000000000E+00 -0.00000000000E+00 -0.10242191864E+03  0.10242191876E+03  0.50400000000E-02 0.  1.
    8880023    1    1    2    0    0  0.19456954453E+02  0.12019203915E+03  0.10911235288E+04  0.12803067838E+04  0.65864270000E+03 0.  1.
    8880022    1    1    2    0    0 -0.19456954453E+02 -0.12019203915E+03  0.12123143832E+04  0.12279749656E+04  0.15294330000E+03 0.  0.
<mgrwt>
<rscale>  0 0.49231271E+03</rscale>
<asrwt>0</asrwt>
<pdfrwt beam="1">  1        1 0.37013225E+00 0.66980214E+03</pdfrwt>
<pdfrwt beam="2">  1       -1 0.15757219E-01 0.66980214E+03</pdfrwt>
<totfact> 0.50249910E+01</totfact>
</mgrwt>
</event>
<event>
 4    2  0.3396630E-007  0.8655334E+03  0.7818608E-02  0.9583795E-01
          1   -1    0    0  501    0  0.00000000000E+00  0.00000000000E+00  0.61186149048E+03  0.61186149050E+03  0.50400000000E-02 0. -1.
         -1   -1    0    0    0  501 -0.00000000000E+00 -0.00000000000E+00 -0.16715973036E+04  0.16715973036E+04  0.50400000000E-02 0.  1.
    8880023    1    1    2    0    0  0.45018635112E+02 -0.55974203649E+03 -0.13725880342E+04  0.16226971198E+04  0.65864270000E+03 0.  1.
    8880022    1    1    2    0    0 -0.45018635112E+02  0.55974203649E+03  0.31285222107E+03  0.66076167425E+03  0.15294330000E+03 0.  0.
<mgrwt>
<rscale>  0 0.78378056E+03</rscale>
<asrwt>0</asrwt>
<pdfrwt beam="1">  1        1 0.94132538E-01 0.86553338E+03</pdfrwt>
<pdfrwt beam="2">  1       -1 0.25716881E+00 0.86553338E+03</pdfrwt>
<totfact> 0.21408180E+00</totfact>
</mgrwt>
</event>
<event>
 4    2  0.3396630E-007  0.9120615E+03  0.7818608E-02  0.9506940E-01
         -1   -1    0    0    0  501 -0.00000000000E+00  0.00000000000E+00  0.11107370867E+04  0.11107370868E+04  0.50400000000E-02 0.  1.
          1   -1    0    0  501    0  0.00000000000E+00 -0.00000000000E+00 -0.73649124482E+03  0.73649124484E+03  0.50400000000E-02 0. -1.
    8880023    1    1    2    0    0  0.19097478062E+03  0.60131066715E+03  0.67212747669E+03  0.11329657702E+04  0.65864270000E+03 0.  1.
    8880022    1    1    2    0    0 -0.19097478062E+03 -0.60131066715E+03 -0.29788163477E+03  0.71426256139E+03  0.15294330000E+03 0.  0.
<mgrwt>
<rscale>  0 0.83774092E+03</rscale>
<asrwt>0</asrwt>
<pdfrwt beam="1">  1        1 0.11330635E+00 0.91206145E+03</pdfrwt>
<pdfrwt beam="2">  1       -1 0.17088263E+00 0.91206145E+03</pdfrwt>
<totfact> 0.61851421E+00</totfact>
</mgrwt>
</event>
<event>
 4    2  0.3396630E-007  0.7692038E+03  0.7818608E-02  0.9781837E-01
         -1   -1    0    0    0  501 -0.00000000000E+00  0.00000000000E+00  0.88432693073E+03  0.88432693075E+03  0.50400000000E-02 0.  1.
          1   -1    0    0  501    0  0.00000000000E+00 -0.00000000000E+00 -0.45292184877E+03  0.45292184880E+03  0.50400000000E-02 0. -1.
    8880023    1    1    2    0    0  0.38152852900E+03  0.11090633330E+03  0.48317976380E+03  0.90837058716E+03  0.65864270000E+03 0.  1.
    8880022    1    1    2    0    0 -0.38152852900E+03 -0.11090633330E+03 -0.51774681838E+02  0.42887819238E+03  0.15294330000E+03 0.  0.
<mgrwt>
<rscale>  0 0.66346431E+03</rscale>
<asrwt>0</asrwt>
<pdfrwt beam="1">  1        1 0.69680285E-01 0.76920377E+03</pdfrwt>
<pdfrwt beam="2">  1       -1 0.13605030E+00 0.76920377E+03</pdfrwt>
<totfact> 0.23446442E+01</totfact>
</mgrwt>
</event>
<event>
 4    2  0.3396630E-007  0.7207735E+03  0.7818608E-02  0.9919978E-01
          1   -1    0    0  501    0  0.00000000000E+00  0.00000000000E+00  0.13490104993E+04  0.13490104993E+04  0.50400000000E-02 0. -1.
         -1   -1    0    0    0  501 -0.00000000000E+00 -0.00000000000E+00 -0.29675939775E+03  0.29675939779E+03  0.50400000000E-02 0.  1.
    8880023    1    1    2    0    0  0.22699484228E+03 -0.18487159064E+03  0.10968495035E+04  0.13124759819E+04  0.65864270000E+03 0. -1.
    8880022    1    1    2    0    0 -0.22699484228E+03  0.18487159064E+03 -0.44598401949E+02  0.33329391521E+03  0.15294330000E+03 0.  0.
<mgrwt>
<rscale>  0 0.59302786E+03</rscale>
<asrwt>0</asrwt>
<pdfrwt beam="1">  1        1 0.20754007E+00 0.72077345E+03</pdfrwt>
<pdfrwt beam="2">  1       -1 0.45655293E-01 0.72077345E+03</pdfrwt>
<totfact> 0.41042523E+01</totfact>
</mgrwt>
</event>
<event>
 4    2  0.3396630E-007  0.7949976E+03  0.7818608E-02  0.9721719E-01
         -1   -1    0    0    0  501 -0.00000000000E+00  0.00000000000E+00  0.67135006980E+03  0.67135006982E+03  0.50400000000E-02 0.  1.
          1   -1    0    0  501    0  0.00000000000E+00 -0.00000000000E+00 -0.11130082506E+04  0.11130082506E+04  0.50400000000E-02 0. -1.
    8880023    1    1    2    0    0 -0.22236423029E+03  0.38570072679E+03  0.34577782445E+03  0.86693910496E+03  0.65864270000E+03 0.  0.
    8880022    1    1    2    0    0  0.22236423029E+03 -0.38570072679E+03 -0.78743600527E+03  0.91741921550E+03  0.15294330000E+03 0.  0.
<mgrwt>
<rscale>  0 0.69738273E+03</rscale>
<asrwt>0</asrwt>
<pdfrwt beam="1">  1        1 0.17123204E+00 0.79499755E+03</pdfrwt>
<pdfrwt beam="2">  1       -1 0.10328463E+00 0.79499755E+03</pdfrwt>
<totfact> 0.11260883E+01</totfact>
</mgrwt>
</event>
<event>
 4    2  0.3396630E-007  0.6715480E+03  0.7818608E-02  0.1014577E+00
         -1   -1    0    0    0  501 -0.00000000000E+00  0.00000000000E+00  0.31266168610E+03  0.31266168614E+03  0.50400000000E-02 0.  1.
          1   -1    0    0  501    0  0.00000000000E+00 -0.00000000000E+00 -0.11535526105E+04  0.11535526105E+04  0.50400000000E-02 0. -1.
    8880023    1    1    2    0    0  0.53490704773E+02 -0.11960458230E+03 -0.76678670856E+02  0.67591148565E+03  0.65864270000E+03 0.  1.
    8880022    1    1    2    0    0 -0.53490704773E+02  0.11960458230E+03 -0.76421225356E+03  0.79030281103E+03  0.15294330000E+03 0.  0.
<mgrwt>
<rscale>  0 0.49695559E+03</rscale>
<asrwt>0</asrwt>
<pdfrwt beam="1">  1        1 0.17746963E+00 0.67154800E+03</pdfrwt>
<pdfrwt beam="2">  1       -1 0.48101798E-01 0.67154800E+03</pdfrwt>
<totfact> 0.51629097E+01</totfact>
</mgrwt>
</event>
<event>
 4    2  0.3396630E-007  0.8238786E+03  0.7818608E-02  0.9661362E-01
         -1   -1    0    0    0  501 -0.00000000000E+00  0.00000000000E+00  0.61101468150E+03  0.61101468152E+03  0.50400000000E-02 0.  1.
          1   -1    0    0  501    0  0.00000000000E+00 -0.00000000000E+00 -0.99561516879E+03  0.99561516880E+03  0.50400000000E-02 0. -1.
    8880023    1    1    2    0    0  0.40923935334E+02 -0.49324529764E+03  0.17691077894E+03  0.84265848485E+03  0.65864270000E+03 0.  0.
    8880022    1    1    2    0    0 -0.40923935334E+02  0.49324529764E+03 -0.56151126623E+03  0.76397136546E+03  0.15294330000E+03 0.  0.
<mgrwt>
<rscale>  0 0.73364606E+03</rscale>
<asrwt>0</asrwt>
<pdfrwt beam="1">  1        1 0.15317156E+00 0.82387857E+03</pdfrwt>
<pdfrwt beam="2">  1       -1 0.94002259E-01 0.82387857E+03</pdfrwt>
<totfact> 0.17071266E+01</totfact>
</mgrwt>
</event>
<event>
 4    2  0.3396630E-007  0.7487911E+03  0.7818608E-02  0.9835042E-01
         -1   -1    0    0    0  501 -0.00000000000E+00  0.00000000000E+00  0.80241087603E+03  0.80241087605E+03  0.50400000000E-02 0.  1.
          1   -1    0    0  501    0  0.00000000000E+00 -0.00000000000E+00 -0.54492225958E+03  0.54492225960E+03  0.50400000000E-02 0. -1.
    8880023    1    1    2    0    0 -0.25913170108E+03  0.24439437723E+03 -0.17249958271E+03  0.76840364550E+03  0.65864270000E+03 0. -1.
    8880022    1    1    2    0    0  0.25913170108E+03 -0.24439437723E+03  0.42998819916E+03  0.57892949014E+03  0.15294330000E+03 0.  0.
<mgrwt>
<rscale>  0 0.63515445E+03</rscale>
<asrwt>0</asrwt>
<pdfrwt beam="1">  1        1 0.83834194E-01 0.74879106E+03</pdfrwt>
<pdfrwt beam="2">  1       -1 0.12344783E+00 0.74879106E+03</pdfrwt>
<totfact> 0.23267538E+01</totfact>
</mgrwt>
</event>
<event>
 4    2  0.3396630E-007  0.8711430E+03  0.7818608E-02  0.9574041E-01
          1   -1    0    0  501    0  0.00000000000E+00  0.00000000000E+00  0.61002279602E+03  0.61002279604E+03  0.50400000000E-02 0. -1.
         -1   -1    0    0    0  501 -0.00000000000E+00 -0.00000000000E+00 -0.47483337885E+04  0.47483337885E+04  0.50400000000E-02 0.  1.
    8880023    1    1    2    0    0 -0.56828002467E+03 -0.46235874899E+02 -0.45538679855E+04  0.46364430093E+04  0.65864270000E+03 0.  1.
    8880022    1    1    2    0    0  0.56828002467E+03  0.46235874899E+02  0.41555699308E+03  0.72191357521E+03  0.15294330000E+03 0.  0.
<mgrwt>
<rscale>  0 0.79038377E+03</rscale>
<asrwt>0</asrwt>
<pdfrwt beam="1">  1        1 0.93849664E-01 0.87114301E+03</pdfrwt>
<pdfrwt beam="2">  1       -1 0.73051287E+00 0.87114301E+03</pdfrwt>
<totfact> 0.54440228E-03</totfact>
</mgrwt>
</event>
<event>
 4    2  0.3396630E-007  0.9021268E+03  0.7818608E-02  0.9522626E-01
         -1   -1    0    0    0  501 -0.00000000000E+00  0.00000000000E+00  0.55911817600E+03  0.55911817602E+03  0.50400000000E-02 0.  1.
          1   -1    0    0  501    0  0.00000000000E+00 -0.00000000000E+00 -0.28137671792E+04  0.28137671792E+04  0.50400000000E-02 0. -1.
    8880023    1    1    2    0    0  0.59491798906E+03  0.16153975651E+03  0.12426151308E+03  0.91064462692E+03  0.65864270000E+03 0.  1.
    8880022    1    1    2    0    0 -0.59491798906E+03 -0.16153975651E+03 -0.23789105162E+04  0.24622407283E+04  0.15294330000E+03 0.  0.
<mgrwt>
<rscale>  0 0.82636054E+03</rscale>
<asrwt>0</asrwt>
<pdfrwt beam="1">  1        1 0.43288725E+00 0.90212677E+03</pdfrwt>
<pdfrwt beam="2">  1       -1 0.86018183E-01 0.90212677E+03</pdfrwt>
<totfact> 0.11321758E+00</totfact>
</mgrwt>
</event>
<event>
 4    2  0.3396630E-007  0.7234902E+03  0.7818608E-02  0.9910948E-01
          1   -1    0    0  501    0  0.00000000000E+00  0.00000000000E+00  0.19947608476E+04  0.19947608476E+04  0.50400000000E-02 0. -1.
         -1   -1    0    0    0  501 -0.00000000000E+00 -0.00000000000E+00 -0.27484658636E+03  0.27484658641E+03  0.50400000000E-02 0.  1.
    8880023    1    1    2    0    0  0.29595533162E+03  0.45147816133E+02  0.17860128599E+04  0.19269872925E+04  0.65864270000E+03 0. -1.
    8880022    1    1    2    0    0 -0.29595533162E+03 -0.45147816133E+02 -0.66098598623E+02  0.34262014151E+03  0.15294330000E+03 0.  0.
<mgrwt>
<rscale>  0 0.59733600E+03</rscale>
<asrwt>0</asrwt>
<pdfrwt beam="1">  1        1 0.30688627E+00 0.72349021E+03</pdfrwt>
<pdfrwt beam="2">  1       -1 0.42284092E-01 0.72349021E+03</pdfrwt>
<totfact> 0.17280395E+01</totfact>
</mgrwt>
</event>
<event>
 4    2  0.3396630E-007  0.1164022E+04  0.7818608E-02  0.9192914E-01
         -1   -1    0    0    0  501 -0.00000000000E+00  0.00000000000E+00  0.15467987938E+04  0.15467987938E+04  0.50400000000E-02 0.  1.
          1   -1    0    0  501    0  0.00000000000E+00 -0.00000000000E+00 -0.16882927734E+04  0.16882927735E+04  0.50400000000E-02 0. -1.
    8880023    1    1    2    0    0  0.20227630401E+03  0.93820140097E+03  0.11383113447E+04  0.16280972009E+04  0.65864270000E+03 0.  0.
    8880022    1    1    2    0    0 -0.20227630401E+03 -0.93820140097E+03 -0.12798053244E+04  0.16069943663E+04  0.15294330000E+03 0.  0.
<mgrwt>
<rscale>  0 0.11126867E+04</rscale>
<asrwt>0</asrwt>
<pdfrwt beam="1">  1        1 0.25973735E+00 0.11640222E+04</pdfrwt>
<pdfrwt beam="2">  1       -1 0.23796904E+00 0.11640222E+04</pdfrwt>
<totfact> 0.40021072E-01</totfact>
</mgrwt>
</event>
<event>
 4    2  0.3396630E-007  0.6794845E+03  0.7818608E-02  0.1009617E+00
         -1   -1    0    0    0  501 -0.00000000000E+00  0.00000000000E+00  0.76577152461E+03  0.76577152463E+03  0.50400000000E-02 0.  1.
          1   -1    0    0  501    0  0.00000000000E+00 -0.00000000000E+00 -0.79759007771E+03  0.79759007773E+03  0.50400000000E-02 0. -1.
    8880023    1    1    2    0    0  0.16587658205E+03  0.19338543090E+02  0.59106759718E+03  0.90058876876E+03  0.65864270000E+03 0.  1.
    8880022    1    1    2    0    0 -0.16587658205E+03 -0.19338543090E+02 -0.62288615028E+03  0.66277283359E+03  0.15294330000E+03 0.  0.
<mgrwt>
<rscale>  0 0.51627238E+03</rscale>
<asrwt>0</asrwt>
<pdfrwt beam="1">  1        1 0.12270617E+00 0.67948453E+03</pdfrwt>
<pdfrwt beam="2">  1       -1 0.11781100E+00 0.67948453E+03</pdfrwt>
<totfact> 0.14939646E+01</totfact>
</mgrwt>
</event>
<event>
 4    2  0.3396630E-007  0.6894060E+03  0.7818608E-02  0.1004436E+00
          1   -1    0    0  501    0  0.00000000000E+00  0.00000000000E+00  0.15864768746E+04  0.15864768746E+04  0.50400000000E-02 0. -1.
         -1   -1    0    0    0  501 -0.00000000000E+00 -0.00000000000E+00 -0.34451244917E+03  0.34451244920E+03  0.50400000000E-02 0.  1.
    8880023    1    1    2    0    0 -0.14755850612E+03 -0.14034570015E+03  0.27336040293E+02  0.68994774704E+03  0.65864270000E+03 0.  0.
    8880022    1    1    2    0    0  0.14755850612E+03  0.14034570015E+03  0.12146283851E+04  0.12410415767E+04  0.15294330000E+03 0.  0.
<mgrwt>
<rscale>  0 0.53747115E+03</rscale>
<asrwt>0</asrwt>
<pdfrwt beam="1">  1        1 0.24407337E+00 0.68940600E+03</pdfrwt>
<pdfrwt beam="2">  1       -1 0.53001915E-01 0.68940600E+03</pdfrwt>
<totfact> 0.21361426E+01</totfact>
</mgrwt>
</event>
<event>
 4    2  0.3396630E-007  0.7290587E+03  0.7818608E-02  0.9893047E-01
         -1   -1    0    0    0  501 -0.00000000000E+00  0.00000000000E+00  0.24336154554E+03  0.24336154560E+03  0.50400000000E-02 0.  1.
          1   -1    0    0  501    0  0.00000000000E+00 -0.00000000000E+00 -0.20978768243E+04  0.20978768243E+04  0.50400000000E-02 0. -1.
    8880023    1    1    2    0    0 -0.95374067704E+02  0.29769131151E+03 -0.37210653517E+03  0.81852905234E+03  0.65864270000E+03 0.  1.
    8880022    1    1    2    0    0  0.95374067704E+02 -0.29769131151E+03 -0.14824087436E+04  0.15227093176E+04  0.15294330000E+03 0.  0.
<mgrwt>
<rscale>  0 0.60599418E+03</rscale>
<asrwt>0</asrwt>
<pdfrwt beam="1">  1        1 0.32275027E+00 0.72905866E+03</pdfrwt>
<pdfrwt beam="2">  1       -1 0.37440239E-01 0.72905866E+03</pdfrwt>
<totfact> 0.18377322E+01</totfact>
</mgrwt>
</event>
<event>
 4    2  0.3396630E-007  0.7611247E+03  0.7818608E-02  0.9802204E-01
         -1   -1    0    0    0  501 -0.00000000000E+00  0.00000000000E+00  0.59215299893E+03  0.59215299895E+03  0.50400000000E-02 0.  1.
          1   -1    0    0  501    0  0.00000000000E+00 -0.00000000000E+00 -0.84922977980E+03  0.84922977982E+03  0.50400000000E-02 0. -1.
    8880023    1    1    2    0    0  0.32690586200E+03 -0.19655330911E+03  0.23846043315E+03  0.79760530990E+03  0.65864270000E+03 0.  1.
    8880022    1    1    2    0    0 -0.32690586200E+03  0.19655330911E+03 -0.49553721402E+03  0.64377746887E+03  0.15294330000E+03 0.  0.
<mgrwt>
<rscale>  0 0.65244379E+03</rscale>
<asrwt>0</asrwt>
<pdfrwt beam="1">  1        1 0.13065074E+00 0.76112473E+03</pdfrwt>
<pdfrwt beam="2">  1       -1 0.91100461E-01 0.76112473E+03</pdfrwt>
<totfact> 0.24190919E+01</totfact>
</mgrwt>
</event>
<event>
 4    2  0.3396630E-007  0.7432399E+03  0.7818608E-02  0.9850608E-01
          1   -1    0    0  501    0  0.00000000000E+00  0.00000000000E+00  0.74523361553E+03  0.74523361555E+03  0.50400000000E-02 0. -1.
         -1   -1    0    0    0  501 -0.00000000000E+00 -0.00000000000E+00 -0.48155590753E+03  0.48155590756E+03  0.50400000000E-02 0.  1.
    8880023    1    1    2    0    0  0.29973639303E+03 -0.16956855130E+03 -0.37824946089E+02  0.74420180845E+03  0.65864270000E+03 0.  1.
    8880022    1    1    2    0    0 -0.29973639303E+03  0.16956855130E+03  0.30150265409E+03  0.48258771465E+03  0.15294330000E+03 0.  0.
<mgrwt>
<rscale>  0 0.62715931E+03</rscale>
<asrwt>0</asrwt>
<pdfrwt beam="1">  1        1 0.11465132E+00 0.74323994E+03</pdfrwt>
<pdfrwt beam="2">  1       -1 0.74085525E-01 0.74323994E+03</pdfrwt>
<totfact> 0.46449291E+01</totfact>
</mgrwt>
</event>
<event>
 4    2  0.3396630E-007  0.6638238E+03  0.7818608E-02  0.1020541E+00
          1   -1    0    0  501    0  0.00000000000E+00  0.00000000000E+00  0.20481357685E+04  0.20481357685E+04  0.50400000000E-02 0. -1.
         -1   -1    0    0    0  501 -0.00000000000E+00 -0.00000000000E+00 -0.86902739778E+02  0.86902739924E+02  0.50400000000E-02 0.  1.
    8880023    1    1    2    0    0  0.81823393077E+02  0.12520954166E+02  0.16497488570E+04  0.17782950653E+04  0.65864270000E+03 0.  0.
    8880022    1    1    2    0    0 -0.81823393077E+02 -0.12520954166E+02  0.31148417177E+03  0.35674344315E+03  0.15294330000E+03 0.  0.
<mgrwt>
<rscale>  0 0.47491798E+03</rscale>
<asrwt>0</asrwt>
<pdfrwt beam="1">  1        1 0.31509780E+00 0.66382381E+03</pdfrwt>
<pdfrwt beam="2">  1       -1 0.13369653E-01 0.66382381E+03</pdfrwt>
<totfact> 0.11400167E+02</totfact>
</mgrwt>
</event>
<event>
 4    2  0.3396630E-007  0.9419137E+03  0.7818608E-02  0.9461845E-01
         -1   -1    0    0    0  501 -0.00000000000E+00  0.00000000000E+00  0.78204036906E+03  0.78204036907E+03  0.50400000000E-02 0.  1.
          1   -1    0    0  501    0  0.00000000000E+00 -0.00000000000E+00 -0.22437268310E+04  0.22437268310E+04  0.50400000000E-02 0. -1.
    8880023    1    1    2    0    0  0.59786816078E+03  0.30974970152E+03 -0.19597704934E+04  0.21743738888E+04  0.65864270000E+03 0.  0.
    8880022    1    1    2    0    0 -0.59786816078E+03 -0.30974970152E+03  0.49808403138E+03  0.85139331134E+03  0.15294330000E+03 0.  0.
<mgrwt>
<rscale>  0 0.87156226E+03</rscale>
<asrwt>0</asrwt>
<pdfrwt beam="1">  1        1 0.34518874E+00 0.94191370E+03</pdfrwt>
<pdfrwt beam="2">  1       -1 0.12031390E+00 0.94191370E+03</pdfrwt>
<totfact> 0.12808878E+00</totfact>
</mgrwt>
</event>
<event>
 4    2  0.3396630E-007  0.6820382E+03  0.7818608E-02  0.1008193E+00
         -1   -1    0    0    0  501 -0.00000000000E+00  0.00000000000E+00  0.13157782923E+03  0.13157782932E+03  0.50400000000E-02 0.  1.
          1   -1    0    0  501    0  0.00000000000E+00 -0.00000000000E+00 -0.29864442640E+04  0.29864442640E+04  0.50400000000E-02 0. -1.
    8880023    1    1    2    0    0  0.12080962102E+03 -0.12950245206E+03 -0.80604575121E+03  0.10558815317E+04  0.65864270000E+03 0.  1.
    8880022    1    1    2    0    0 -0.12080962102E+03  0.12950245206E+03 -0.20488206835E+04  0.20621405616E+04  0.15294330000E+03 0.  0.
<mgrwt>
<rscale>  0 0.52198973E+03</rscale>
<asrwt>0</asrwt>
<pdfrwt beam="1">  1        1 0.45945291E+00 0.68203816E+03</pdfrwt>
<pdfrwt beam="2">  1       -1 0.20242745E-01 0.68203816E+03</pdfrwt>
<totfact> 0.13140457E+01</totfact>
</mgrwt>
</event>
<event>
 4    2  0.3396630E-007  0.7821272E+03  0.7818608E-02  0.9750864E-01
         -1   -1    0    0    0  501 -0.00000000000E+00  0.00000000000E+00  0.83306385429E+03  0.83306385430E+03  0.50400000000E-02 0.  1.
          1   -1    0    0  501    0  0.00000000000E+00 -0.00000000000E+00 -0.10540042948E+04  0.10540042948E+04  0.50400000000E-02 0. -1.
    8880023    1    1    2    0    0  0.25014511743E+03  0.33961759528E+03  0.57679897100E+03  0.97181271345E+03  0.65864270000E+03 0.  1.
    8880022    1    1    2    0    0 -0.25014511743E+03 -0.33961759528E+03 -0.79773941147E+03  0.91525543562E+03  0.15294330000E+03 0. -1.
<mgrwt>
<rscale>  0 0.68067480E+03</rscale>
<asrwt>0</asrwt>
<pdfrwt beam="1">  1        1 0.16215451E+00 0.78212716E+03</pdfrwt>
<pdfrwt beam="2">  1       -1 0.12816367E+00 0.78212716E+03</pdfrwt>
<totfact> 0.74395679E+00</totfact>
</mgrwt>
</event>
<event>
 4    2  0.3396630E-007  0.6947021E+03  0.7818608E-02  0.1001993E+00
          1   -1    0    0  501    0  0.00000000000E+00  0.00000000000E+00  0.44043493571E+03  0.44043493574E+03  0.50400000000E-02 0. -1.
         -1   -1    0    0    0  501 -0.00000000000E+00 -0.00000000000E+00 -0.75206229861E+03  0.75206229863E+03  0.50400000000E-02 0.  1.
    8880023    1    1    2    0    0  0.20368679665E+03 -0.85512709943E+02 -0.50721507024E+03  0.86016165250E+03  0.65864270000E+03 0.  1.
    8880022    1    1    2    0    0 -0.20368679665E+03  0.85512709943E+02  0.19558770735E+03  0.33233558186E+03  0.15294330000E+03 0.  0.
<mgrwt>
<rscale>  0 0.54784836E+03</rscale>
<asrwt>0</asrwt>
<pdfrwt beam="1">  1        1 0.67759221E-01 0.69470205E+03</pdfrwt>
<pdfrwt beam="2">  1       -1 0.11570189E+00 0.69470205E+03</pdfrwt>
<totfact> 0.36653738E+01</totfact>
</mgrwt>
</event>
<event>
 4    2  0.4317631E-007  0.7296905E+03  0.7818608E-02  0.9891065E-01
          1   -1    0    0  501    0  0.00000000000E+00  0.00000000000E+00  0.92728105755E+03  0.92728105756E+03  0.50400000000E-02 0. -1.
         -1   -1    0    0    0  501 -0.00000000000E+00 -0.00000000000E+00 -0.10319521041E+04  0.10319521042E+04  0.50400000000E-02 0.  1.
    8880023    1    1    2    0    0  0.30129553039E+03 -0.88650950030E+02 -0.85951212591E+03  0.11274791743E+04  0.65864270000E+03 0.  1.
    8880022    1    1    2    0    0 -0.30129553039E+03  0.88650950030E+02  0.75484107932E+03  0.83175398744E+03  0.15294330000E+03 0.  0.
<mgrwt>
<rscale>  0 0.60696294E+03</rscale>
<asrwt>0</asrwt>
<pdfrwt beam="1">  1        1 0.14265862E+00 0.72969048E+03</pdfrwt>
<pdfrwt beam="2">  1       -1 0.15876186E+00 0.72969048E+03</pdfrwt>
<totfact> 0.53640551E+00</totfact>
</mgrwt>
</event>
<event>
 4    2  0.3396630E-007  0.9735769E+03  0.7818608E-02  0.9416974E-01
         -1   -1    0    0    0  501 -0.00000000000E+00  0.00000000000E+00  0.58783892776E+03  0.58783892779E+03  0.50400000000E-02 0.  1.
          1   -1    0    0  501    0  0.00000000000E+00 -0.00000000000E+00 -0.27805137378E+04  0.27805137378E+04  0.50400000000E-02 0. -1.
    8880023    1    1    2    0    0  0.22224859293E+03  0.68165041267E+03  0.83387114347E+02  0.97714141211E+03  0.65864270000E+03 0.  0.
    8880022    1    1    2    0    0 -0.22224859293E+03 -0.68165041267E+03 -0.22760619244E+04  0.23912112535E+04  0.15294330000E+03 0.  0.
<mgrwt>
<rscale>  0 0.90691851E+03</rscale>
<asrwt>0</asrwt>
<pdfrwt beam="1">  1        1 0.42777134E+00 0.97357687E+03</pdfrwt>
<pdfrwt beam="2">  1       -1 0.90436760E-01 0.97357687E+03</pdfrwt>
<totfact> 0.10573572E+00</totfact>
</mgrwt>
</event>
<event>
 4    2  0.3396630E-007  0.8115735E+03  0.7818608E-02  0.9686309E-01
          1   -1    0    0  501    0  0.00000000000E+00  0.00000000000E+00  0.25441723364E+04  0.25441723365E+04  0.50400000000E-02 0. -1.
         -1   -1    0    0    0  501 -0.00000000000E+00 -0.00000000000E+00 -0.56422224893E+03  0.56422224896E+03  0.50400000000E-02 0.  1.
    8880023    1    1    2    0    0  0.35870319456E+03 -0.31011840515E+03 -0.22955348418E+03  0.84341354943E+03  0.65864270000E+03 0.  1.
    8880022    1    1    2    0    0 -0.35870319456E+03  0.31011840515E+03  0.22095035717E+04  0.22649810360E+04  0.15294330000E+03 0.  0.
<mgrwt>
<rscale>  0 0.71837856E+03</rscale>
<asrwt>0</asrwt>
<pdfrwt beam="1">  1        1 0.39141113E+00 0.81157354E+03</pdfrwt>
<pdfrwt beam="2">  1       -1 0.86803423E-01 0.81157354E+03</pdfrwt>
<totfact> 0.17378372E+00</totfact>
</mgrwt>
</event>
<event>
 4    2  0.3396630E-007  0.6900022E+03  0.7818608E-02  0.1004152E+00
         -1   -1    0    0    0  501 -0.00000000000E+00  0.00000000000E+00  0.44463488720E+03  0.44463488723E+03  0.50400000000E-02 0.  1.
          1   -1    0    0  501    0  0.00000000000E+00 -0.00000000000E+00 -0.15533932810E+04  0.15533932810E+04  0.50400000000E-02 0. -1.
    8880023    1    1    2    0    0 -0.37244403948E+02 -0.20225164446E+03  0.15612209462E+03  0.70744412359E+03  0.65864270000E+03 0.  1.
    8880022    1    1    2    0    0  0.37244403948E+02  0.20225164446E+03 -0.12648804884E+04  0.12905840446E+04  0.15294330000E+03 0.  0.
<mgrwt>
<rscale>  0 0.53866748E+03</rscale>
<asrwt>0</asrwt>
<pdfrwt beam="1">  1        1 0.23898358E+00 0.69000223E+03</pdfrwt>
<pdfrwt beam="2">  1       -1 0.68405368E-01 0.69000223E+03</pdfrwt>
<totfact> 0.13605954E+01</totfact>
</mgrwt>
</event>
<event>
 4    2  0.3396630E-007  0.1205837E+04  0.7818608E-02  0.9151469E-01
         -1   -1    0    0    0  501 -0.00000000000E+00  0.00000000000E+00  0.64443594097E+03  0.64443594099E+03  0.50400000000E-02 0.  1.
          1   -1    0    0  501    0  0.00000000000E+00 -0.00000000000E+00 -0.19991766216E+04  0.19991766216E+04  0.50400000000E-02 0. -1.
    8880023    1    1    2    0    0 -0.50990683657E+03 -0.87191098098E+03 -0.47703687978E+03  0.12967683416E+04  0.65864270000E+03 0.  0.
    8880022    1    1    2    0    0  0.50990683657E+03  0.87191098098E+03 -0.87770380085E+03  0.13468442210E+04  0.15294330000E+03 0.  0.
<mgrwt>
<rscale>  0 0.11568703E+04</rscale>
<asrwt>0</asrwt>
<pdfrwt beam="1">  1        1 0.30756563E+00 0.12058374E+04</pdfrwt>
<pdfrwt beam="2">  1       -1 0.99143992E-01 0.12058374E+04</pdfrwt>
<totfact> 0.28586642E+00</totfact>
</mgrwt>
</event>
<event>
 4    2  0.3396630E-007  0.6687245E+03  0.7818608E-02  0.1016594E+00
          1   -1    0    0  501    0  0.00000000000E+00  0.00000000000E+00  0.69961433428E+03  0.69961433429E+03  0.50400000000E-02 0. -1.
         -1   -1    0    0    0  501 -0.00000000000E+00 -0.00000000000E+00 -0.52943179002E+03  0.52943179004E+03  0.50400000000E-02 0.  1.
    8880023    1    1    2    0    0 -0.10178300983E+03  0.54976701741E+02 -0.29121676227E+03  0.72938304595E+03  0.65864270000E+03 0.  1.
    8880022    1    1    2    0    0  0.10178300983E+03 -0.54976701741E+02  0.46139930653E+03  0.49966307839E+03  0.15294330000E+03 0.  0.
<mgrwt>
<rscale>  0 0.48935929E+03</rscale>
<asrwt>0</asrwt>
<pdfrwt beam="1">  1        1 0.10763298E+00 0.66872448E+03</pdfrwt>
<pdfrwt beam="2">  1       -1 0.81451044E-01 0.66872448E+03</pdfrwt>
<totfact> 0.42222531E+01</totfact>
</mgrwt>
</event>
<event>
 4    2  0.3396630E-007  0.8308273E+03  0.7818608E-02  0.9647725E-01
         -1   -1    0    0    0  501 -0.00000000000E+00  0.00000000000E+00  0.27691812859E+03  0.27691812864E+03  0.50400000000E-02 0.  1.
          1   -1    0    0  501    0  0.00000000000E+00 -0.00000000000E+00 -0.33497809693E+04  0.33497809693E+04  0.50400000000E-02 0. -1.
    8880023    1    1    2    0    0  0.36126570982E+02  0.50513227588E+03 -0.43791574343E+03  0.93917205552E+03  0.65864270000E+03 0.  0.
    8880022    1    1    2    0    0 -0.36126570982E+02 -0.50513227588E+03 -0.26349470973E+04  0.26875270425E+04  0.15294330000E+03 0. -1.
<mgrwt>
<rscale>  0 0.74216380E+03</rscale>
<asrwt>0</asrwt>
<pdfrwt beam="1">  1        1 0.51535089E+00 0.83082727E+03</pdfrwt>
<pdfrwt beam="2">  1       -1 0.42602791E-01 0.83082727E+03</pdfrwt>
<totfact> 0.18901420E+00</totfact>
</mgrwt>
</event>
<event>
 4    2  0.3396630E-007  0.7359009E+03  0.7818608E-02  0.9872052E-01
         -1   -1    0    0    0  501 -0.00000000000E+00  0.00000000000E+00  0.11686486335E+04  0.11686486336E+04  0.50400000000E-02 0.  1.
          1   -1    0    0  501    0  0.00000000000E+00 -0.00000000000E+00 -0.30440046445E+03  0.30440046449E+03  0.50400000000E-02 0. -1.
    8880023    1    1    2    0    0 -0.43746576985E+02  0.32530943249E+03  0.83008488905E+03  0.11093201157E+04  0.65864270000E+03 0.  0.
    8880022    1    1    2    0    0  0.43746576985E+02 -0.32530943249E+03  0.34163280056E+02  0.36372898232E+03  0.15294330000E+03 0.  0.
<mgrwt>
<rscale>  0 0.61635079E+03</rscale>
<asrwt>0</asrwt>
<pdfrwt beam="1">  1        1 0.46830841E-01 0.73590094E+03</pdfrwt>
<pdfrwt beam="2">  1       -1 0.17979210E+00 0.73590094E+03</pdfrwt>
<totfact> 0.18466449E+01</totfact>
</mgrwt>
</event>
<event>
 4    2  0.3396630E-007  0.7830748E+03  0.7818608E-02  0.9748663E-01
          1   -1    0    0  501    0  0.00000000000E+00  0.00000000000E+00  0.30794573843E+03  0.30794573847E+03  0.50400000000E-02 0. -1.
         -1   -1    0    0    0  501 -0.00000000000E+00 -0.00000000000E+00 -0.14922674399E+04  0.14922674399E+04  0.50400000000E-02 0.  1.
    8880023    1    1    2    0    0  0.26475146818E+03  0.33060940002E+03 -0.10866751508E+04  0.13394286114E+04  0.65864270000E+03 0.  0.
    8880022    1    1    2    0    0 -0.26475146818E+03 -0.33060940002E+03 -0.97646550590E+02  0.46078456695E+03  0.15294330000E+03 0.  0.
<mgrwt>
<rscale>  0 0.68191869E+03</rscale>
<asrwt>0</asrwt>
<pdfrwt beam="1">  1        1 0.47376269E-01 0.78307479E+03</pdfrwt>
<pdfrwt beam="2">  1       -1 0.22957960E+00 0.78307479E+03</pdfrwt>
<totfact> 0.82917879E+00</totfact>
</mgrwt>
</event>
<event>
 4    2  0.3396630E-007  0.9326718E+03  0.7818608E-02  0.9475497E-01
         -1   -1    0    0    0  501 -0.00000000000E+00  0.00000000000E+00  0.57924270773E+03  0.57924270775E+03  0.50400000000E-02 0.  1.
          1   -1    0    0  501    0  0.00000000000E+00 -0.00000000000E+00 -0.19749832958E+04  0.19749832958E+04  0.50400000000E-02 0. -1.
    8880023    1    1    2    0    0 -0.65127277536E+03 -0.10913383893E+03  0.74108126226E+02  0.93561137411E+03  0.65864270000E+03 0.  0.
    8880022    1    1    2    0    0  0.65127277536E+03  0.10913383893E+03 -0.14698487142E+04  0.16186146294E+04  0.15294330000E+03 0.  0.
<mgrwt>
<rscale>  0 0.86114713E+03</rscale>
<asrwt>0</asrwt>
<pdfrwt beam="1">  1        1 0.30384358E+00 0.93267177E+03</pdfrwt>
<pdfrwt beam="2">  1       -1 0.89114264E-01 0.93267177E+03</pdfrwt>
<totfact> 0.39036953E+00</totfact>
</mgrwt>
</event>
<event>
 4    2  0.3396630E-007  0.7393969E+03  0.7818608E-02  0.9861707E-01
          1   -1    0    0  501    0  0.00000000000E+00  0.00000000000E+00  0.28182175253E+04  0.28182175253E+04  0.50400000000E-02 0. -1.
         -1   -1    0    0    0  501 -0.00000000000E+00 -0.00000000000E+00 -0.87584159147E+03  0.87584159149E+03  0.50400000000E-02 0.  1.
    8880023    1    1    2    0    0 -0.30766426417E+03  0.13505678453E+03 -0.70466331280E+03  0.10214001298E+04  0.65864270000E+03 0.  1.
    8880022    1    1    2    0    0  0.30766426417E+03 -0.13505678453E+03  0.26470392467E+04  0.26726589870E+04  0.15294330000E+03 0.  0.
<mgrwt>
<rscale>  0 0.62153552E+03</rscale>
<asrwt>0</asrwt>
<pdfrwt beam="1">  1        1 0.43357192E+00 0.73939694E+03</pdfrwt>
<pdfrwt beam="2">  1       -1 0.13474486E+00 0.73939694E+03</pdfrwt>
<totfact> 0.40513931E-01</totfact>
</mgrwt>
</event>
<event>
 4    2  0.3396630E-007  0.8755310E+03  0.7818608E-02  0.9566512E-01
         -1   -1    0    0    0  501 -0.00000000000E+00  0.00000000000E+00  0.28442014667E+03  0.28442014671E+03  0.50400000000E-02 0.  1.
          1   -1    0    0  501    0  0.00000000000E+00 -0.00000000000E+00 -0.22565471957E+04  0.22565471957E+04  0.50400000000E-02 0. -1.
    8880023    1    1    2    0    0 -0.53365757906E+03 -0.21898401186E+03 -0.65013125677E+03  0.10905160551E+04  0.65864270000E+03 0. -1.
    8880022    1    1    2    0    0  0.53365757906E+03  0.21898401186E+03 -0.13219957923E+04  0.14504512874E+04  0.15294330000E+03 0.  0.
<mgrwt>
<rscale>  0 0.79552834E+03</rscale>
<asrwt>0</asrwt>
<pdfrwt beam="1">  1        1 0.34716109E+00 0.87553105E+03</pdfrwt>
<pdfrwt beam="2">  1       -1 0.43756947E-01 0.87553105E+03</pdfrwt>
<totfact> 0.10594459E+01</totfact>
</mgrwt>
</event>
<event>
 4    2  0.3396630E-007  0.8798513E+03  0.7818608E-02  0.9559183E-01
         -1   -1    0    0    0  501 -0.00000000000E+00  0.00000000000E+00  0.12058158525E+04  0.12058158525E+04  0.50400000000E-02 0.  1.
          1   -1    0    0  501    0  0.00000000000E+00 -0.00000000000E+00 -0.10943443043E+04  0.10943443043E+04  0.50400000000E-02 0. -1.
    8880023    1    1    2    0    0  0.17748314833E+03 -0.55572281198E+03  0.93208598946E+03  0.12817654269E+04  0.65864270000E+03 0.  0.
    8880022    1    1    2    0    0 -0.17748314833E+03  0.55572281198E+03 -0.82061444124E+03  0.10183947299E+04  0.15294330000E+03 0. -1.
<mgrwt>
<rscale>  0 0.80057648E+03</rscale>
<asrwt>0</asrwt>
<pdfrwt beam="1">  1        1 0.16836066E+00 0.87985130E+03</pdfrwt>
<pdfrwt beam="2">  1       -1 0.18551013E+00 0.87985130E+03</pdfrwt>
<totfact> 0.24840619E+00</totfact>
</mgrwt>
</event>
<event>
 4    2  0.3396630E-007  0.8908017E+03  0.7818608E-02  0.9540962E-01
         -1   -1    0    0    0  501 -0.00000000000E+00  0.00000000000E+00  0.56940880642E+03  0.56940880645E+03  0.50400000000E-02 0.  1.
          1   -1    0    0  501    0  0.00000000000E+00 -0.00000000000E+00 -0.13886188610E+04  0.13886188610E+04  0.50400000000E-02 0. -1.
    8880023    1    1    2    0    0 -0.32314844980E+03 -0.50526477168E+03  0.48568721989E+02  0.89212473182E+03  0.65864270000E+03 0.  0.
    8880022    1    1    2    0    0  0.32314844980E+03  0.50526477168E+03 -0.86777877655E+03  0.10659029356E+04  0.15294330000E+03 0.  0.
<mgrwt>
<rscale>  0 0.81330056E+03</rscale>
<asrwt>0</asrwt>
<pdfrwt beam="1">  1        1 0.21363367E+00 0.89080167E+03</pdfrwt>
<pdfrwt beam="2">  1       -1 0.87601355E-01 0.89080167E+03</pdfrwt>
<totfact> 0.10207745E+01</totfact>
</mgrwt>
</event>
<event>
 4    2  0.3396630E-007  0.6587282E+03  0.7818608E-02  0.1025499E+00
          1   -1    0    0  501    0  0.00000000000E+00  0.00000000000E+00  0.13461558731E+04  0.13461558731E+04  0.50400000000E-02 0. -1.
         -1   -1    0    0    0  501 -0.00000000000E+00 -0.00000000000E+00 -0.17238322349E+03  0.17238322356E+03  0.50400000000E-02 0.  1.
    8880023    1    1    2    0    0 -0.13017942784E+01  0.10531413918E+02  0.49852325385E+03  0.82610425870E+03  0.65864270000E+03 0.  1.
    8880022    1    1    2    0    0  0.13017942784E+01 -0.10531413918E+02  0.67524939581E+03  0.69243483802E+03  0.15294330000E+03 0.  0.
<mgrwt>
<rscale>  0 0.45753361E+03</rscale>
<asrwt>0</asrwt>
<pdfrwt beam="1">  1        1 0.20710091E+00 0.65872818E+03</pdfrwt>
<pdfrwt beam="2">  1       -1 0.26520496E-01 0.65872818E+03</pdfrwt>
<totfact> 0.10917140E+02</totfact>
</mgrwt>
</event>
<event>
 4    2  0.3396630E-007  0.8556438E+03  0.7818608E-02  0.9601360E-01
         -1   -1    0    0    0  501 -0.00000000000E+00  0.00000000000E+00  0.88679002731E+03  0.88679002732E+03  0.50400000000E-02 0.  1.
          1   -1    0    0  501    0  0.00000000000E+00 -0.00000000000E+00 -0.58008403142E+03  0.58008403144E+03  0.50400000000E-02 0. -1.
    8880023    1    1    2    0    0 -0.39000898571E+03  0.38237296753E+03  0.27518308420E+03  0.89880589190E+03  0.65864270000E+03 0.  1.
    8880022    1    1    2    0    0  0.39000898571E+03 -0.38237296753E+03  0.31522911683E+02  0.56806816686E+03  0.15294330000E+03 0. -1.
<mgrwt>
<rscale>  0 0.77206247E+03</rscale>
<asrwt>0</asrwt>
<pdfrwt beam="1">  1        1 0.89243698E-01 0.85564379E+03</pdfrwt>
<pdfrwt beam="2">  1       -1 0.13642923E+00 0.85564379E+03</pdfrwt>
<totfact> 0.16375846E+01</totfact>
</mgrwt>
</event>
<event>
 4    2  0.3396630E-007  0.6610232E+03  0.7818608E-02  0.1023132E+00
         -1   -1    0    0    0  501 -0.00000000000E+00  0.00000000000E+00  0.13681043349E+03  0.13681043358E+03  0.50400000000E-02 0.  1.
          1   -1    0    0  501    0  0.00000000000E+00 -0.00000000000E+00 -0.13969658249E+04  0.13969658249E+04  0.50400000000E-02 0. -1.
    8880023    1    1    2    0    0 -0.28036307462E+02  0.48532797935E+02 -0.75738834932E+03  0.10052804509E+04  0.65864270000E+03 0.  1.
    8880022    1    1    2    0    0  0.28036307462E+02 -0.48532797935E+02 -0.50276704212E+03  0.52849580761E+03  0.15294330000E+03 0.  0.
<mgrwt>
<rscale>  0 0.46573199E+03</rscale>
<asrwt>0</asrwt>
<pdfrwt beam="1">  1        1 0.21491781E+00 0.66102320E+03</pdfrwt>
<pdfrwt beam="2">  1       -1 0.21047760E-01 0.66102320E+03</pdfrwt>
<totfact> 0.14874072E+02</totfact>
</mgrwt>
</event>
<event>
 4    2  0.3396630E-007  0.1020256E+04  0.7818608E-02  0.9355523E-01
          1   -1    0    0  501    0  0.00000000000E+00  0.00000000000E+00  0.10991398185E+04  0.10991398185E+04  0.50400000000E-02 0. -1.
         -1   -1    0    0    0  501 -0.00000000000E+00 -0.00000000000E+00 -0.92550367180E+03  0.92550367181E+03  0.50400000000E-02 0.  1.
    8880023    1    1    2    0    0 -0.74847662775E+03  0.21655229935E+03 -0.34410203462E+03  0.10767212161E+04  0.65864270000E+03 0.  0.
    8880022    1    1    2    0    0  0.74847662775E+03 -0.21655229935E+03  0.51773818133E+03  0.94792227427E+03  0.15294330000E+03 0.  0.
<mgrwt>
<rscale>  0 0.95828092E+03</rscale>
<asrwt>0</asrwt>
<pdfrwt beam="1">  1        1 0.16909843E+00 0.10202560E+04</pdfrwt>
<pdfrwt beam="2">  1       -1 0.14238518E+00 0.10202560E+04</pdfrwt>
<totfact> 0.50938674E+00</totfact>
</mgrwt>
</event>
<event>
 4    2  0.3396630E-007  0.7575101E+03  0.7818608E-02  0.9811597E-01
         -1   -1    0    0    0  501 -0.00000000000E+00  0.00000000000E+00  0.41571737156E+03  0.41571737159E+03  0.50400000000E-02 0.  1.
          1   -1    0    0  501    0  0.00000000000E+00 -0.00000000000E+00 -0.83757368766E+03  0.83757368768E+03  0.50400000000E-02 0. -1.
    8880023    1    1    2    0    0  0.34385924629E+03 -0.14755383169E+03 -0.16786380130E+03  0.77588644566E+03  0.65864270000E+03 0.  0.
    8880022    1    1    2    0    0 -0.34385924629E+03  0.14755383169E+03 -0.25399251480E+03  0.47740461361E+03  0.15294330000E+03 0.  0.
<mgrwt>
<rscale>  0 0.64743892E+03</rscale>
<asrwt>0</asrwt>
<pdfrwt beam="1">  1        1 0.12885749E+00 0.75751008E+03</pdfrwt>
<pdfrwt beam="2">  1       -1 0.63956519E-01 0.75751008E+03</pdfrwt>
<totfact> 0.52000804E+01</totfact>
</mgrwt>
</event>
<event>
 4    2  0.3396630E-007  0.6941712E+03  0.7818608E-02  0.1002230E+00
         -1   -1    0    0    0  501 -0.00000000000E+00  0.00000000000E+00  0.57689778500E+03  0.57689778502E+03  0.50400000000E-02 0.  1.
          1   -1    0    0  501    0  0.00000000000E+00 -0.00000000000E+00 -0.50618569302E+03  0.50618569304E+03  0.50400000000E-02 0. -1.
    8880023    1    1    2    0    0 -0.20101879420E+03 -0.87492332836E+02 -0.17943182326E+03  0.71698636625E+03  0.65864270000E+03 0.  0.
    8880022    1    1    2    0    0  0.20101879420E+03  0.87492332836E+02  0.25014391524E+03  0.36609711181E+03  0.15294330000E+03 0.  0.
<mgrwt>
<rscale>  0 0.54683224E+03</rscale>
<asrwt>0</asrwt>
<pdfrwt beam="1">  1        1 0.77874722E-01 0.69417121E+03</pdfrwt>
<pdfrwt beam="2">  1       -1 0.88753506E-01 0.69417121E+03</pdfrwt>
<totfact> 0.55673980E+01</totfact>
</mgrwt>
</event>
<event>
 4    2  0.3396630E-007  0.6706422E+03  0.7818608E-02  0.1015207E+00
          1   -1    0    0  501    0  0.00000000000E+00  0.00000000000E+00  0.18709070411E+04  0.18709070411E+04  0.50400000000E-02 0. -1.
         -1   -1    0    0    0  501 -0.00000000000E+00 -0.00000000000E+00 -0.22202360581E+03  0.22202360586E+03  0.50400000000E-02 0.  1.
    8880023    1    1    2    0    0  0.11729689023E+03  0.46820682370E+02  0.30892904235E+03  0.73837530852E+03  0.65864270000E+03 0.  1.
    8880022    1    1    2    0    0 -0.11729689023E+03 -0.46820682370E+02  0.13399543929E+04  0.13545553384E+04  0.15294330000E+03 0.  0.
<mgrwt>
<rscale>  0 0.49456769E+03</rscale>
<asrwt>0</asrwt>
<pdfrwt beam="1">  1        1 0.28783187E+00 0.67064219E+03</pdfrwt>
<pdfrwt beam="2">  1       -1 0.34157476E-01 0.67064219E+03</pdfrwt>
<totfact> 0.30945611E+01</totfact>
</mgrwt>
</event>
<event>
 4    2  0.3396630E-007  0.8027873E+03  0.7818608E-02  0.9704801E-01
         -1   -1    0    0    0  501 -0.00000000000E+00  0.00000000000E+00  0.18284041138E+04  0.18284041138E+04  0.50400000000E-02 0.  1.
          1   -1    0    0  501    0  0.00000000000E+00 -0.00000000000E+00 -0.54825601046E+03  0.54825601048E+03  0.50400000000E-02 0. -1.
    8880023    1    1    2    0    0 -0.43241116134E+03  0.15387602602E+03  0.16045550602E+04  0.17941751284E+04  0.65864270000E+03 0.  1.
    8880022    1    1    2    0    0  0.43241116134E+03 -0.15387602602E+03 -0.32440695682E+03  0.58248499593E+03  0.15294330000E+03 0.  0.
<mgrwt>
<rscale>  0 0.70731635E+03</rscale>
<asrwt>0</asrwt>
<pdfrwt beam="1">  1        1 0.84347080E-01 0.80278730E+03</pdfrwt>
<pdfrwt beam="2">  1       -1 0.28129293E+00 0.80278730E+03</pdfrwt>
<totfact> 0.17706514E+00</totfact>
</mgrwt>
</event>
<event>
 4    2  0.3396630E-007  0.8606065E+03  0.7818608E-02  0.9592485E-01
         -1   -1    0    0    0  501 -0.00000000000E+00  0.00000000000E+00  0.82458140476E+03  0.82458140478E+03  0.50400000000E-02 0.  1.
          1   -1    0    0  501    0  0.00000000000E+00 -0.00000000000E+00 -0.63246831074E+03  0.63246831076E+03  0.50400000000E-02 0. -1.
    8880023    1    1    2    0    0  0.40006007744E+03  0.38312570547E+03  0.19485996319E+03  0.88239106029E+03  0.65864270000E+03 0.  1.
    8880022    1    1    2    0    0 -0.40006007744E+03 -0.38312570547E+03 -0.27468691684E+01  0.57465865526E+03  0.15294330000E+03 0. -1.
<mgrwt>
<rscale>  0 0.77795544E+03</rscale>
<asrwt>0</asrwt>
<pdfrwt beam="1">  1        1 0.97302818E-01 0.86060652E+03</pdfrwt>
<pdfrwt beam="2">  1       -1 0.12685868E+00 0.86060652E+03</pdfrwt>
<totfact> 0.17365298E+01</totfact>
</mgrwt>
</event>
<event>
 4    2  0.3396630E-007  0.7519043E+03  0.7818608E-02  0.9826536E-01
          1   -1    0    0  501    0  0.00000000000E+00  0.00000000000E+00  0.84878586382E+03  0.84878586384E+03  0.50400000000E-02 0. -1.
         -1   -1    0    0    0  501 -0.00000000000E+00 -0.00000000000E+00 -0.10127938221E+04  0.10127938221E+04  0.50400000000E-02 0.  1.
    8880023    1    1    2    0    0  0.53361949765E+02 -0.35875115517E+03 -0.80994489916E+03  0.11051564753E+04  0.65864270000E+03 0.  1.
    8880022    1    1    2    0    0 -0.53361949765E+02  0.35875115517E+03  0.64593694086E+03  0.75642321065E+03  0.15294330000E+03 0.  0.
<mgrwt>
<rscale>  0 0.63957712E+03</rscale>
<asrwt>0</asrwt>
<pdfrwt beam="1">  1        1 0.13058244E+00 0.75190431E+03</pdfrwt>
<pdfrwt beam="2">  1       -1 0.15581443E+00 0.75190431E+03</pdfrwt>
<totfact> 0.65278679E+00</totfact>
</mgrwt>
</event>
<event>
 4    2  0.3396630E-007  0.8124732E+03  0.7818608E-02  0.9684448E-01
         -1   -1    0    0    0  501 -0.00000000000E+00  0.00000000000E+00  0.12047018519E+04  0.12047018519E+04  0.50400000000E-02 0.  1.
          1   -1    0    0  501    0  0.00000000000E+00 -0.00000000000E+00 -0.63547433836E+03  0.63547433838E+03  0.50400000000E-02 0. -1.
    8880023    1    1    2    0    0  0.45700042770E+03 -0.13211030194E+03  0.92170123133E+03  0.12286764785E+04  0.65864270000E+03 0.  0.
    8880022    1    1    2    0    0 -0.45700042770E+03  0.13211030194E+03 -0.35247371776E+03  0.61149971179E+03  0.15294330000E+03 0.  0.
<mgrwt>
<rscale>  0 0.71950339E+03</rscale>
<asrwt>0</asrwt>
<pdfrwt beam="1">  1        1 0.97765284E-01 0.81247322E+03</pdfrwt>
<pdfrwt beam="2">  1       -1 0.18533874E+00 0.81247322E+03</pdfrwt>
<totfact> 0.61561023E+00</totfact>
</mgrwt>
</event>
<event>
 4    2  0.3396630E-007  0.6898582E+03  0.7818608E-02  0.1004220E+00
         -1   -1    0    0    0  501 -0.00000000000E+00  0.00000000000E+00  0.83512392838E+03  0.83512392840E+03  0.50400000000E-02 0.  1.
          1   -1    0    0  501    0  0.00000000000E+00 -0.00000000000E+00 -0.21734820926E+04  0.21734820926E+04  0.50400000000E-02 0. -1.
    8880023    1    1    2    0    0  0.34715916895E+02  0.20221017887E+03  0.68320305069E+03  0.97091233696E+03  0.65864270000E+03 0.  0.
    8880022    1    1    2    0    0 -0.34715916895E+02 -0.20221017887E+03 -0.20215612149E+04  0.20376936841E+04  0.15294330000E+03 0. -1.
<mgrwt>
<rscale>  0 0.53837920E+03</rscale>
<asrwt>0</asrwt>
<pdfrwt beam="1">  1        1 0.33438186E+00 0.68985822E+03</pdfrwt>
<pdfrwt beam="2">  1       -1 0.12848060E+00 0.68985822E+03</pdfrwt>
<totfact> 0.12746969E+00</totfact>
</mgrwt>
</event>
<event>
 4    2  0.3396630E-007  0.1403757E+04  0.7818608E-02  0.8980769E-01
         -1   -1    0    0    0  501 -0.00000000000E+00  0.00000000000E+00  0.19608260325E+04  0.19608260325E+04  0.50400000000E-02 0.  1.
          1   -1    0    0  501    0  0.00000000000E+00 -0.00000000000E+00 -0.17367485799E+04  0.17367485799E+04  0.50400000000E-02 0. -1.
    8880023    1    1    2    0    0 -0.36895169981E+03 -0.11834682966E+04  0.13996599916E+04  0.19823170443E+04  0.65864270000E+03 0.  0.
    8880022    1    1    2    0    0  0.36895169981E+03  0.11834682966E+04 -0.11755825390E+04  0.17152575681E+04  0.15294330000E+03 0.  0.
<mgrwt>
<rscale>  0 0.13633690E+04</rscale>
<asrwt>0</asrwt>
<pdfrwt beam="1">  1        1 0.26719209E+00 0.14037567E+04</pdfrwt>
<pdfrwt beam="2">  1       -1 0.30166554E+00 0.14037567E+04</pdfrwt>
<totfact> 0.13855514E-01</totfact>
</mgrwt>
</event>
<event>
 4    2  0.3396630E-007  0.6614862E+03  0.7818608E-02  0.1022683E+00
          1   -1    0    0  501    0  0.00000000000E+00  0.00000000000E+00  0.37312922945E+03  0.37312922948E+03  0.50400000000E-02 0. -1.
         -1   -1    0    0    0  501 -0.00000000000E+00 -0.00000000000E+00 -0.52733425892E+03  0.52733425894E+03  0.50400000000E-02 0.  1.
    8880023    1    1    2    0    0 -0.60018658549E+02  0.12311247953E+02 -0.25315620605E+03  0.70827401274E+03  0.65864270000E+03 0.  1.
    8880022    1    1    2    0    0  0.60018658549E+02 -0.12311247953E+02  0.98951176583E+02  0.19218947568E+03  0.15294330000E+03 0.  0.
<mgrwt>
<rscale>  0 0.46730750E+03</rscale>
<asrwt>0</asrwt>
<pdfrwt beam="1">  1        1 0.57404497E-01 0.66148621E+03</pdfrwt>
<pdfrwt beam="2">  1       -1 0.81128347E-01 0.66148621E+03</pdfrwt>
<totfact> 0.10193218E+02</totfact>
</mgrwt>
</event>
<event>
 4    2  0.3396630E-007  0.7456065E+03  0.7818608E-02  0.9843907E-01
         -1   -1    0    0    0  501 -0.00000000000E+00  0.00000000000E+00  0.33569226940E+03  0.33569226944E+03  0.50400000000E-02 0.  1.
          1   -1    0    0  501    0  0.00000000000E+00 -0.00000000000E+00 -0.16836559360E+04  0.16836559360E+04  0.50400000000E-02 0. -1.
    8880023    1    1    2    0    0  0.29804043113E+03 -0.18245765227E+03 -0.14447506623E+04  0.16258024406E+04  0.65864270000E+03 0. -1.
    8880022    1    1    2    0    0 -0.29804043113E+03  0.18245765227E+03  0.96786995687E+02  0.39354576483E+03  0.15294330000E+03 0.  0.
<mgrwt>
<rscale>  0 0.63058565E+03</rscale>
<asrwt>0</asrwt>
<pdfrwt beam="1">  1        1 0.25902399E+00 0.74560653E+03</pdfrwt>
<pdfrwt beam="2">  1       -1 0.51644965E-01 0.74560653E+03</pdfrwt>
<totfact> 0.19146649E+01</totfact>
</mgrwt>
</event>
<event>
 4    2  0.3396630E-007  0.8434242E+03  0.7818608E-02  0.9623757E-01
         -1   -1    0    0    0  501 -0.00000000000E+00  0.00000000000E+00  0.42407185229E+03  0.42407185232E+03  0.50400000000E-02 0.  1.
          1   -1    0    0  501    0  0.00000000000E+00 -0.00000000000E+00 -0.12539718316E+04  0.12539718316E+04  0.50400000000E-02 0. -1.
    8880023    1    1    2    0    0  0.37496701070E+03  0.37007280121E+03 -0.24981611123E+03  0.87964335557E+03  0.65864270000E+03 0.  1.
    8880022    1    1    2    0    0 -0.37496701070E+03 -0.37007280121E+03 -0.58008386809E+03  0.79840032837E+03  0.15294330000E+03 0.  0.
<mgrwt>
<rscale>  0 0.75743535E+03</rscale>
<asrwt>0</asrwt>
<pdfrwt beam="1">  1        1 0.19291874E+00 0.84342418E+03</pdfrwt>
<pdfrwt beam="2">  1       -1 0.65241824E-01 0.84342418E+03</pdfrwt>
<totfact> 0.23708628E+01</totfact>
</mgrwt>
</event>
<event>
 4    2  0.3396630E-007  0.7407803E+03  0.7818608E-02  0.9857680E-01
          1   -1    0    0  501    0  0.00000000000E+00  0.00000000000E+00  0.15576428963E+04  0.15576428963E+04  0.50400000000E-02 0. -1.
         -1   -1    0    0    0  501 -0.00000000000E+00 -0.00000000000E+00 -0.50205025977E+03  0.50205025979E+03  0.50400000000E-02 0.  1.
    8880023    1    1    2    0    0 -0.12099463293E+03  0.31671061961E+03 -0.18584452480E+03  0.76373667676E+03  0.65864270000E+03 0.  1.
    8880022    1    1    2    0    0  0.12099463293E+03 -0.31671061961E+03  0.12414371613E+04  0.12959564793E+04  0.15294330000E+03 0.  0.
<mgrwt>
<rscale>  0 0.62356879E+03</rscale>
<asrwt>0</asrwt>
<pdfrwt beam="1">  1        1 0.23963736E+00 0.74078035E+03</pdfrwt>
<pdfrwt beam="2">  1       -1 0.77238503E-01 0.74078035E+03</pdfrwt>
<totfact> 0.10435575E+01</totfact>
</mgrwt>
</event>
<event>
 4    2  0.3396630E-007  0.7169815E+03  0.7818608E-02  0.9932935E-01
         -1   -1    0    0    0  501 -0.00000000000E+00  0.00000000000E+00  0.15620337086E+04  0.15620337086E+04  0.50400000000E-02 0.  1.
          1   -1    0    0  501    0  0.00000000000E+00 -0.00000000000E+00 -0.33045113741E+03  0.33045113745E+03  0.50400000000E-02 0. -1.
    8880023    1    1    2    0    0  0.14514430313E+03  0.24328046822E+03  0.13666932832E+04  0.15433447417E+04  0.65864270000E+03 0.  1.
    8880022    1    1    2    0    0 -0.14514430313E+03 -0.24328046822E+03 -0.13511071206E+03  0.34914010437E+03  0.15294330000E+03 0.  0.
<mgrwt>
<rscale>  0 0.58691327E+03</rscale>
<asrwt>0</asrwt>
<pdfrwt beam="1">  1        1 0.50838637E-01 0.71698149E+03</pdfrwt>
<pdfrwt beam="2">  1       -1 0.24031288E+00 0.71698149E+03</pdfrwt>
<totfact> 0.64921786E+00</totfact>
</mgrwt>
</event>
<event>
 4    2  0.3396630E-007  0.1078844E+04  0.7818608E-02  0.9284985E-01
         -1   -1    0    0    0  501 -0.00000000000E+00  0.00000000000E+00  0.50576287495E+03  0.50576287498E+03  0.50400000000E-02 0.  1.
          1   -1    0    0  501    0  0.00000000000E+00 -0.00000000000E+00 -0.27281778959E+04  0.27281778959E+04  0.50400000000E-02 0. -1.
    8880023    1    1    2    0    0 -0.63572113188E+03 -0.57092249257E+03 -0.20951861292E+04  0.23566308519E+04  0.65864270000E+03 0.  0.
    8880022    1    1    2    0    0  0.63572113188E+03  0.57092249257E+03 -0.12722889180E+03  0.87730991899E+03  0.15294330000E+03 0.  0.
<mgrwt>
<rscale>  0 0.10217704E+04</rscale>
<asrwt>0</asrwt>
<pdfrwt beam="1">  1        1 0.41971967E+00 0.10788439E+04</pdfrwt>
<pdfrwt beam="2">  1       -1 0.77809675E-01 0.10788439E+04</pdfrwt>
<totfact> 0.15680328E+00</totfact>
</mgrwt>
</event>
<event>
 4    2  0.3396630E-007  0.7472844E+03  0.7818608E-02  0.9839214E-01
          1   -1    0    0  501    0  0.00000000000E+00  0.00000000000E+00  0.16447244244E+04  0.16447244245E+04  0.50400000000E-02 0. -1.
         -1   -1    0    0    0  501 -0.00000000000E+00 -0.00000000000E+00 -0.84324904111E+03  0.84324904113E+03  0.50400000000E-02 0.  1.
    8880023    1    1    2    0    0  0.28897313979E+03 -0.20277662294E+03 -0.64750601135E+03  0.98878616259E+03  0.65864270000E+03 0.  1.
    8880022    1    1    2    0    0 -0.28897313979E+03  0.20277662294E+03  0.14489813947E+04  0.14991873030E+04  0.15294330000E+03 0.  0.
<mgrwt>
<rscale>  0 0.63299875E+03</rscale>
<asrwt>0</asrwt>
<pdfrwt beam="1">  1        1 0.25303453E+00 0.74728444E+03</pdfrwt>
<pdfrwt beam="2">  1       -1 0.12973062E+00 0.74728444E+03</pdfrwt>
<totfact> 0.27770033E+00</totfact>
</mgrwt>
</event>
<event>
 4    2  0.3396630E-007  0.6726580E+03  0.7818608E-02  0.1013825E+00
         -1   -1    0    0    0  501 -0.00000000000E+00  0.00000000000E+00  0.28449122966E+03  0.28449122970E+03  0.50400000000E-02 0.  1.
          1   -1    0    0  501    0  0.00000000000E+00 -0.00000000000E+00 -0.99363589286E+03  0.99363589288E+03  0.50400000000E-02 0. -1.
    8880023    1    1    2    0    0 -0.93571160611E+02  0.99513648121E+02 -0.15926433221E+03  0.69125527994E+03  0.65864270000E+03 0.  1.
    8880022    1    1    2    0    0  0.93571160611E+02 -0.99513648121E+02 -0.54988033099E+03  0.58687184264E+03  0.15294330000E+03 0.  0.
<mgrwt>
<rscale>  0 0.49982353E+03</rscale>
<asrwt>0</asrwt>
<pdfrwt beam="1">  1        1 0.15286706E+00 0.67265796E+03</pdfrwt>
<pdfrwt beam="2">  1       -1 0.43767882E-01 0.67265796E+03</pdfrwt>
<totfact> 0.81150997E+01</totfact>
</mgrwt>
</event>
<event>
 4    2  0.3396630E-007  0.1169098E+04  0.7818608E-02  0.9187763E-01
          1   -1    0    0  501    0  0.00000000000E+00  0.00000000000E+00  0.23682386008E+04  0.23682386008E+04  0.50400000000E-02 0. -1.
         -1   -1    0    0    0  501 -0.00000000000E+00 -0.00000000000E+00 -0.58847256442E+03  0.58847256445E+03  0.50400000000E-02 0.  1.
    8880023    1    1    2    0    0 -0.96438724843E+03  0.54189316707E+02  0.15684015925E+04  0.19561883878E+04  0.65864270000E+03 0.  0.
    8880022    1    1    2    0    0  0.96438724843E+03 -0.54189316707E+02  0.21136444384E+03  0.10005227774E+04  0.15294330000E+03 0.  0.
<mgrwt>
<rscale>  0 0.11180633E+04</rscale>
<asrwt>0</asrwt>
<pdfrwt beam="1">  1        1 0.36434439E+00 0.11690977E+04</pdfrwt>
<pdfrwt beam="2">  1       -1 0.90534242E-01 0.11690977E+04</pdfrwt>
<totfact> 0.19791440E+00</totfact>
</mgrwt>
</event>
<event>
 4    2  0.3396630E-007  0.8758843E+03  0.7818608E-02  0.9565910E-01
         -1   -1    0    0    0  501 -0.00000000000E+00  0.00000000000E+00  0.26987514915E+03  0.26987514920E+03  0.50400000000E-02 0.  1.
          1   -1    0    0  501    0  0.00000000000E+00 -0.00000000000E+00 -0.23779333619E+04  0.23779333619E+04  0.50400000000E-02 0. -1.
    8880023    1    1    2    0    0 -0.21597361138E+03  0.53546102657E+03 -0.71000746110E+03  0.11275122673E+04  0.65864270000E+03 0.  1.
    8880022    1    1    2    0    0  0.21597361138E+03 -0.53546102657E+03 -0.13980507516E+04  0.15202962438E+04  0.15294330000E+03 0.  0.
<mgrwt>
<rscale>  0 0.79594174E+03</rscale>
<asrwt>0</asrwt>
<pdfrwt beam="1">  1        1 0.36583589E+00 0.87588431E+03</pdfrwt>
<pdfrwt beam="2">  1       -1 0.41519255E-01 0.87588431E+03</pdfrwt>
<totfact> 0.96577667E+00</totfact>
</mgrwt>
</event>
<event>
 4    2  0.3396630E-007  0.8716438E+03  0.7818608E-02  0.9573178E-01
          1   -1    0    0  501    0  0.00000000000E+00  0.00000000000E+00  0.79140118584E+03  0.79140118586E+03  0.50400000000E-02 0. -1.
         -1   -1    0    0    0  501 -0.00000000000E+00 -0.00000000000E+00 -0.83552987016E+03  0.83552987018E+03  0.50400000000E-02 0.  1.
    8880023    1    1    2    0    0 -0.17468014298E+03 -0.54354352514E+03 -0.37576957926E+03  0.94919212968E+03  0.65864270000E+03 0.  0.
    8880022    1    1    2    0    0  0.17468014298E+03  0.54354352514E+03  0.33164089494E+03  0.67773892635E+03  0.15294330000E+03 0.  0.
<mgrwt>
<rscale>  0 0.79097181E+03</rscale>
<asrwt>0</asrwt>
<pdfrwt beam="1">  1        1 0.12175403E+00 0.87164380E+03</pdfrwt>
<pdfrwt beam="2">  1       -1 0.12854306E+00 0.87164380E+03</pdfrwt>
<totfact> 0.11918300E+01</totfact>
</mgrwt>
</event>
<event>
 4    2  0.3396630E-007  0.1339875E+04  0.7818608E-02  0.9031868E-01
         -1   -1    0    0    0  501 -0.00000000000E+00  0.00000000000E+00  0.12890435556E+04  0.12890435556E+04  0.50400000000E-02 0.  1.
          1   -1    0    0  501    0  0.00000000000E+00 -0.00000000000E+00 -0.18967984343E+04  0.18967984343E+04  0.50400000000E-02 0. -1.
    8880023    1    1    2    0    0  0.11283795982E+04 -0.29700762725E+03  0.62770086825E+03  0.14796190842E+04  0.65864270000E+03 0.  1.
    8880022    1    1    2    0    0 -0.11283795982E+04  0.29700762725E+03 -0.12354557469E+04  0.17062229057E+04  0.15294330000E+03 0.  0.
<mgrwt>
<rscale>  0 0.12970996E+04</rscale>
<asrwt>0</asrwt>
<pdfrwt beam="1">  1        1 0.29181515E+00 0.13398747E+04</pdfrwt>
<pdfrwt beam="2">  1       -1 0.19831439E+00 0.13398747E+04</pdfrwt>
<totfact> 0.52156514E-01</totfact>
</mgrwt>
</event>
<event>
 4    2  0.3396630E-007  0.8036877E+03  0.7818608E-02  0.9702879E-01
          1   -1    0    0  501    0  0.00000000000E+00  0.00000000000E+00  0.24550236144E+04  0.24550236144E+04  0.50400000000E-02 0. -1.
         -1   -1    0    0    0  501 -0.00000000000E+00 -0.00000000000E+00 -0.25585715562E+03  0.25585715567E+03  0.50400000000E-02 0.  1.
    8880023    1    1    2    0    0 -0.43556432271E+03  0.14962417572E+03  0.50638902114E+03  0.94991774390E+03  0.65864270000E+03 0.  0.
    8880022    1    1    2    0    0  0.43556432271E+03 -0.14962417572E+03  0.16927774376E+04  0.17609630261E+04  0.15294330000E+03 0.  0.
<mgrwt>
<rscale>  0 0.70845663E+03</rscale>
<asrwt>0</asrwt>
<pdfrwt beam="1">  1        1 0.37769593E+00 0.80368768E+03</pdfrwt>
<pdfrwt beam="2">  1       -1 0.39362640E-01 0.80368768E+03</pdfrwt>
<totfact> 0.95344985E+00</totfact>
</mgrwt>
</event>
<event>
 4    2  0.3396630E-007  0.6998042E+03  0.7818608E-02  0.9998014E-01
         -1   -1    0    0    0  501 -0.00000000000E+00  0.00000000000E+00  0.34123860612E+03  0.34123860616E+03  0.50400000000E-02 0.  1.
          1   -1    0    0  501    0  0.00000000000E+00 -0.00000000000E+00 -0.15058836022E+04  0.15058836022E+04  0.50400000000E-02 0. -1.
    8880023    1    1    2    0    0 -0.23337624529E+03 -0.38094728238E+02 -0.54621641146E+02  0.70193262506E+03  0.65864270000E+03 0.  1.
    8880022    1    1    2    0    0  0.23337624529E+03  0.38094728238E+02 -0.11100233549E+04  0.11451895833E+04  0.15294330000E+03 0.  0.
<mgrwt>
<rscale>  0 0.55737382E+03</rscale>
<asrwt>0</asrwt>
<pdfrwt beam="1">  1        1 0.23167440E+00 0.69980418E+03</pdfrwt>
<pdfrwt beam="2">  1       -1 0.52498248E-01 0.69980418E+03</pdfrwt>
<totfact> 0.24644272E+01</totfact>
</mgrwt>
</event>
<event>
 4    2  0.3396630E-007  0.6859560E+03  0.7818608E-02  0.1006137E+00
         -1   -1    0    0    0  501 -0.00000000000E+00  0.00000000000E+00  0.62006867526E+03  0.62006867528E+03  0.50400000000E-02 0.  1.
          1   -1    0    0  501    0  0.00000000000E+00 -0.00000000000E+00 -0.68467253645E+03  0.68467253647E+03  0.50400000000E-02 0. -1.
    8880023    1    1    2    0    0  0.54490386842E+01  0.19156139554E+03  0.38938813852E+03  0.78877042856E+03  0.65864270000E+03 0.  1.
    8880022    1    1    2    0    0 -0.54490386842E+01 -0.19156139554E+03 -0.45399199971E+03  0.51597078319E+03  0.15294330000E+03 0.  0.
<mgrwt>
<rscale>  0 0.53039201E+03</rscale>
<asrwt>0</asrwt>
<pdfrwt beam="1">  1        1 0.10533424E+00 0.68595602E+03</pdfrwt>
<pdfrwt beam="2">  1       -1 0.95395181E-01 0.68595602E+03</pdfrwt>
<totfact> 0.30835927E+01</totfact>
</mgrwt>
</event>
<event>
 4    2  0.3396630E-007  0.7690919E+03  0.7818608E-02  0.9782114E-01
          1   -1    0    0  501    0  0.00000000000E+00  0.00000000000E+00  0.23533771606E+04  0.23533771606E+04  0.50400000000E-02 0. -1.
         -1   -1    0    0    0  501 -0.00000000000E+00 -0.00000000000E+00 -0.32835484871E+03  0.32835484875E+03  0.50400000000E-02 0.  1.
    8880023    1    1    2    0    0 -0.39707136835E+03 -0.51422314861E+01  0.18215099343E+03  0.79036782878E+03  0.65864270000E+03 0.  1.
    8880022    1    1    2    0    0  0.39707136835E+03  0.51422314861E+01  0.18428713184E+04  0.18913641805E+04  0.15294330000E+03 0.  0.
<mgrwt>
<rscale>  0 0.66331315E+03</rscale>
<asrwt>0</asrwt>
<pdfrwt beam="1">  1        1 0.36205804E+00 0.76909188E+03</pdfrwt>
<pdfrwt beam="2">  1       -1 0.50516129E-01 0.76909188E+03</pdfrwt>
<totfact> 0.70723857E+00</totfact>
</mgrwt>
</event>
<event>
 4    2  0.3396630E-007  0.9666803E+03  0.7818608E-02  0.9426510E-01
         -1   -1    0    0    0  501 -0.00000000000E+00  0.00000000000E+00  0.54218697483E+03  0.54218697486E+03  0.50400000000E-02 0.  1.
          1   -1    0    0  501    0  0.00000000000E+00 -0.00000000000E+00 -0.24395784715E+04  0.24395784715E+04  0.50400000000E-02 0. -1.
    8880023    1    1    2    0    0 -0.57101289859E+03  0.41785738983E+03 -0.16988736468E+02  0.96682953617E+03  0.65864270000E+03 0.  0.
    8880022    1    1    2    0    0  0.57101289859E+03 -0.41785738983E+03 -0.18804027602E+04  0.20149359102E+04  0.15294330000E+03 0.  0.
<mgrwt>
<rscale>  0 0.89925727E+03</rscale>
<asrwt>0</asrwt>
<pdfrwt beam="1">  1        1 0.37531976E+00 0.96668027E+03</pdfrwt>
<pdfrwt beam="2">  1       -1 0.83413382E-01 0.96668027E+03</pdfrwt>
<totfact> 0.21762685E+00</totfact>
</mgrwt>
</event>
<event>
 4    2  0.3396630E-007  0.7620018E+03  0.7818608E-02  0.9799952E-01
          1   -1    0    0  501    0  0.00000000000E+00  0.00000000000E+00  0.33049902455E+04  0.33049902455E+04  0.50400000000E-02 0. -1.
         -1   -1    0    0    0  501 -0.00000000000E+00 -0.00000000000E+00 -0.37486974913E+03  0.37486974917E+03  0.50400000000E-02 0.  1.
    8880023    1    1    2    0    0  0.21272018258E+03 -0.31872670275E+03  0.42792501974E+02  0.76320245781E+03  0.65864270000E+03 0.  1.
    8880022    1    1    2    0    0 -0.21272018258E+03  0.31872670275E+03  0.28873279944E+04  0.29166575368E+04  0.15294330000E+03 0.  0.
<mgrwt>
<rscale>  0 0.65365105E+03</rscale>
<asrwt>0</asrwt>
<pdfrwt beam="1">  1        1 0.50846002E+00 0.76200183E+03</pdfrwt>
<pdfrwt beam="2">  1       -1 0.57672271E-01 0.76200183E+03</pdfrwt>
<totfact> 0.11670005E+00</totfact>
</mgrwt>
</event>
<event>
 4    2  0.3396630E-007  0.7848966E+03  0.7818608E-02  0.9744458E-01
          1   -1    0    0  501    0  0.00000000000E+00  0.00000000000E+00  0.24249212916E+04  0.24249212916E+04  0.50400000000E-02 0. -1.
         -1   -1    0    0    0  501 -0.00000000000E+00 -0.00000000000E+00 -0.53452213508E+03  0.53452213510E+03  0.50400000000E-02 0.  1.
    8880023    1    1    2    0    0 -0.41467032642E+02  0.42489169716E+03 -0.20849747226E+03  0.81211690742E+03  0.65864270000E+03 0.  0.
    8880022    1    1    2    0    0  0.41467032642E+02 -0.42489169716E+03  0.20988966288E+04  0.21473265193E+04  0.15294330000E+03 0.  0.
<mgrwt>
<rscale>  0 0.68430368E+03</rscale>
<asrwt>0</asrwt>
<pdfrwt beam="1">  1        1 0.37306481E+00 0.78489660E+03</pdfrwt>
<pdfrwt beam="2">  1       -1 0.82234175E-01 0.78489660E+03</pdfrwt>
<totfact> 0.23679641E+00</totfact>
</mgrwt>
</event>
<event>
 4    2  0.3396630E-007  0.8308252E+03  0.7818608E-02  0.9647729E-01
         -1   -1    0    0    0  501 -0.00000000000E+00  0.00000000000E+00  0.90760161701E+03  0.90760161702E+03  0.50400000000E-02 0.  1.
          1   -1    0    0  501    0  0.00000000000E+00 -0.00000000000E+00 -0.10206199595E+04  0.10206199595E+04  0.50400000000E-02 0. -1.
    8880023    1    1    2    0    0 -0.29427684595E+03 -0.41214252547E+03  0.61116068585E+03  0.10314009470E+04  0.65864270000E+03 0.  1.
    8880022    1    1    2    0    0  0.29427684595E+03  0.41214252547E+03 -0.72417902830E+03  0.89682062945E+03  0.15294330000E+03 0.  0.
<mgrwt>
<rscale>  0 0.74216129E+03</rscale>
<asrwt>0</asrwt>
<pdfrwt beam="1">  1        1 0.15701845E+00 0.83082521E+03</pdfrwt>
<pdfrwt beam="2">  1       -1 0.13963102E+00 0.83082521E+03</pdfrwt>
<totfact> 0.62984126E+00</totfact>
</mgrwt>
</event>
<event>
 4    2  0.3396630E-007  0.6818813E+03  0.7818608E-02  0.1008279E+00
         -1   -1    0    0    0  501 -0.00000000000E+00  0.00000000000E+00  0.39290170490E+03  0.39290170493E+03  0.50400000000E-02 0.  1.
          1   -1    0    0  501    0  0.00000000000E+00 -0.00000000000E+00 -0.11380129290E+04  0.11380129290E+04  0.50400000000E-02 0. -1.
    8880023    1    1    2    0    0 -0.17629708435E+03  0.84440971209E+01  0.67683402212E+02  0.68523223357E+03  0.65864270000E+03 0.  1.
    8880022    1    1    2    0    0  0.17629708435E+03 -0.84440971209E+01 -0.81279462631E+03  0.84568240037E+03  0.15294330000E+03 0.  0.
<mgrwt>
<rscale>  0 0.52164446E+03</rscale>
<asrwt>0</asrwt>
<pdfrwt beam="1">  1        1 0.17507891E+00 0.68188135E+03</pdfrwt>
<pdfrwt beam="2">  1       -1 0.60446417E-01 0.68188135E+03</pdfrwt>
<totfact> 0.34132133E+01</totfact>
</mgrwt>
</event>
<event>
 4    2  0.3396630E-007  0.7360349E+03  0.7818608E-02  0.9871651E-01
          1   -1    0    0  501    0  0.00000000000E+00  0.00000000000E+00  0.63938017452E+03  0.63938017454E+03  0.50400000000E-02 0. -1.
         -1   -1    0    0    0  501 -0.00000000000E+00 -0.00000000000E+00 -0.75472009441E+03  0.75472009443E+03  0.50400000000E-02 0.  1.
    8880023    1    1    2    0    0 -0.11269429663E+02  0.32834448901E+03 -0.48101429118E+03  0.87927359683E+03  0.65864270000E+03 0.  0.
    8880022    1    1    2    0    0  0.11269429663E+02 -0.32834448901E+03  0.36567437129E+03  0.51482667213E+03  0.15294330000E+03 0.  0.
<mgrwt>
<rscale>  0 0.61655066E+03</rscale>
<asrwt>0</asrwt>
<pdfrwt beam="1">  1        1 0.98366181E-01 0.73603486E+03</pdfrwt>
<pdfrwt beam="2">  1       -1 0.11611078E+00 0.73603486E+03</pdfrwt>
<totfact> 0.21513407E+01</totfact>
</mgrwt>
</event>
<event>
 4    2  0.3396630E-007  0.7870255E+03  0.7818608E-02  0.9739585E-01
         -1   -1    0    0    0  501 -0.00000000000E+00  0.00000000000E+00  0.89910336385E+03  0.89910336386E+03  0.50400000000E-02 0.  1.
          1   -1    0    0  501    0  0.00000000000E+00 -0.00000000000E+00 -0.28538852880E+04  0.28538852880E+04  0.50400000000E-02 0. -1.
    8880023    1    1    2    0    0  0.22411395405E+03  0.36792917423E+03  0.70354212351E+03  0.10556423009E+04  0.65864270000E+03 0.  1.
    8880022    1    1    2    0    0 -0.22411395405E+03 -0.36792917423E+03 -0.26583240477E+04  0.26973463510E+04  0.15294330000E+03 0.  0.
<mgrwt>
<rscale>  0 0.68708022E+03</rscale>
<asrwt>0</asrwt>
<pdfrwt beam="1">  1        1 0.43905927E+00 0.78702551E+03</pdfrwt>
<pdfrwt beam="2">  1       -1 0.13832360E+00 0.78702551E+03</pdfrwt>
<totfact> 0.35336440E-01</totfact>
</mgrwt>
</event>
<event>
 4    2  0.3396630E-007  0.1038885E+04  0.7818608E-02  0.9332364E-01
         -1   -1    0    0    0  501 -0.00000000000E+00  0.00000000000E+00  0.50758369326E+03  0.50758369328E+03  0.50400000000E-02 0.  1.
          1   -1    0    0  501    0  0.00000000000E+00 -0.00000000000E+00 -0.19556988300E+04  0.19556988300E+04  0.50400000000E-02 0. -1.
    8880023    1    1    2    0    0 -0.79739030163E+03  0.98188583772E+02 -0.35453958283E+03  0.10977161806E+04  0.65864270000E+03 0.  1.
    8880022    1    1    2    0    0  0.79739030163E+03 -0.98188583772E+02 -0.10935755539E+04  0.13655663427E+04  0.15294330000E+03 0.  0.
<mgrwt>
<rscale>  0 0.97857226E+03</rscale>
<asrwt>0</asrwt>
<pdfrwt beam="1">  1        1 0.30087674E+00 0.10388852E+04</pdfrwt>
<pdfrwt beam="2">  1       -1 0.78089800E-01 0.10388852E+04</pdfrwt>
<totfact> 0.52753237E+00</totfact>
</mgrwt>
</event>
<event>
 4    2  0.3396630E-007  0.7380969E+03  0.7818608E-02  0.9865526E-01
         -1   -1    0    0    0  501 -0.00000000000E+00  0.00000000000E+00  0.77134954695E+03  0.77134954696E+03  0.50400000000E-02 0.  1.
          1   -1    0    0  501    0  0.00000000000E+00 -0.00000000000E+00 -0.63067657253E+03  0.63067657255E+03  0.50400000000E-02 0. -1.
    8880023    1    1    2    0    0  0.18350907879E+03 -0.27803098840E+03  0.49778423510E+03  0.89026746738E+03  0.65864270000E+03 0.  1.
    8880022    1    1    2    0    0 -0.18350907879E+03  0.27803098840E+03 -0.35711126068E+03  0.51175865213E+03  0.15294330000E+03 0.  0.
<mgrwt>
<rscale>  0 0.61961540E+03</rscale>
<asrwt>0</asrwt>
<pdfrwt beam="1">  1        1 0.97027165E-01 0.73809689E+03</pdfrwt>
<pdfrwt beam="2">  1       -1 0.11866916E+00 0.73809689E+03</pdfrwt>
<totfact> 0.20821294E+01</totfact>
</mgrwt>
</event>
<event>
 4    2  0.3396630E-007  0.8478068E+03  0.7818608E-02  0.9615632E-01
         -1   -1    0    0    0  501 -0.00000000000E+00  0.00000000000E+00  0.93305451715E+03  0.93305451716E+03  0.50400000000E-02 0.  1.
          1   -1    0    0  501    0  0.00000000000E+00 -0.00000000000E+00 -0.69414838872E+03  0.69414838874E+03  0.50400000000E-02 0. -1.
    8880023    1    1    2    0    0 -0.42209696427E+03 -0.32680323854E+03 -0.25364166273E+03  0.88493531024E+03  0.65864270000E+03 0. -1.
    8880022    1    1    2    0    0  0.42209696427E+03  0.32680323854E+03  0.49254779116E+03  0.74226759566E+03  0.15294330000E+03 0.  0.
<mgrwt>
<rscale>  0 0.76270143E+03</rscale>
<asrwt>0</asrwt>
<pdfrwt beam="1">  1        1 0.10679206E+00 0.84780682E+03</pdfrwt>
<pdfrwt beam="2">  1       -1 0.14354685E+00 0.84780682E+03</pdfrwt>
<totfact> 0.11025001E+01</totfact>
</mgrwt>
</event>
<event>
 4    2  0.3396630E-007  0.7180194E+03  0.7818608E-02  0.9929345E-01
          1   -1    0    0  501    0  0.00000000000E+00  0.00000000000E+00  0.24315031151E+04  0.24315031151E+04  0.50400000000E-02 0. -1.
         -1   -1    0    0    0  501 -0.00000000000E+00 -0.00000000000E+00 -0.20204031245E+03  0.20204031251E+03  0.50400000000E-02 0.  1.
    8880023    1    1    2    0    0 -0.27515160707E+03  0.77674049615E+02  0.50246041864E+03  0.87636655768E+03  0.65864270000E+03 0.  1.
    8880022    1    1    2    0    0  0.27515160707E+03 -0.77674049615E+02  0.17270023840E+04  0.17571768700E+04  0.15294330000E+03 0.  0.
<mgrwt>
<rscale>  0 0.58859922E+03</rscale>
<asrwt>0</asrwt>
<pdfrwt beam="1">  1        1 0.37407739E+00 0.71801941E+03</pdfrwt>
<pdfrwt beam="2">  1       -1 0.31083126E-01 0.71801941E+03</pdfrwt>
<totfact> 0.15269206E+01</totfact>
</mgrwt>
</event>
<event>
 4    2  0.3396630E-007  0.8770787E+03  0.7818608E-02  0.9563877E-01
          1   -1    0    0  501    0  0.00000000000E+00  0.00000000000E+00  0.15609897471E+04  0.15609897472E+04  0.50400000000E-02 0. -1.
         -1   -1    0    0    0  501 -0.00000000000E+00 -0.00000000000E+00 -0.97012633897E+03  0.97012633898E+03  0.50400000000E-02 0.  1.
    8880023    1    1    2    0    0 -0.56299652973E+02  0.57644350546E+03 -0.69074359458E+03  0.11164200310E+04  0.65864270000E+03 0.  0.
    8880022    1    1    2    0    0  0.56299652973E+02 -0.57644350546E+03  0.12816070027E+04  0.14146960551E+04  0.15294330000E+03 0.  0.
<mgrwt>
<rscale>  0 0.79733860E+03</rscale>
<asrwt>0</asrwt>
<pdfrwt beam="1">  1        1 0.24015227E+00 0.87707866E+03</pdfrwt>
<pdfrwt beam="2">  1       -1 0.14925021E+00 0.87707866E+03</pdfrwt>
<totfact> 0.21508369E+00</totfact>
</mgrwt>
</event>
<event>
 4    2  0.3396630E-007  0.8001498E+03  0.7818608E-02  0.9710472E-01
         -1   -1    0    0    0  501 -0.00000000000E+00  0.00000000000E+00  0.60538757478E+03  0.60538757480E+03  0.50400000000E-02 0.  1.
          1   -1    0    0  501    0  0.00000000000E+00 -0.00000000000E+00 -0.69390360031E+03  0.69390360033E+03  0.50400000000E-02 0. -1.
    8880023    1    1    2    0    0 -0.23647909317E+03  0.38795249536E+03 -0.15585743965E+03  0.81518786051E+03  0.65864270000E+03 0. -1.
    8880022    1    1    2    0    0  0.23647909317E+03 -0.38795249536E+03  0.67341414118E+02  0.48410331463E+03  0.15294330000E+03 0.  1.
<mgrwt>
<rscale>  0 0.70396688E+03</rscale>
<asrwt>0</asrwt>
<pdfrwt beam="1">  1        1 0.10675440E+00 0.80014980E+03</pdfrwt>
<pdfrwt beam="2">  1       -1 0.93136549E-01 0.80014980E+03</pdfrwt>
<totfact> 0.31511015E+01</totfact>
</mgrwt>
</event>
<event>
 4    2  0.3396630E-007  0.8519760E+03  0.7818608E-02  0.9607999E-01
          1   -1    0    0  501    0  0.00000000000E+00  0.00000000000E+00  0.18571814365E+04  0.18571814365E+04  0.50400000000E-02 0. -1.
         -1   -1    0    0    0  501 -0.00000000000E+00 -0.00000000000E+00 -0.38492321919E+03  0.38492321923E+03  0.50400000000E-02 0.  1.
    8880023    1    1    2    0    0 -0.24390242914E+03 -0.48224940565E+03  0.23570770806E+03  0.88398032449E+03  0.65864270000E+03 0.  0.
    8880022    1    1    2    0    0  0.24390242914E+03  0.48224940565E+03  0.12365505093E+04  0.13581243313E+04  0.15294330000E+03 0.  0.
<mgrwt>
<rscale>  0 0.76769002E+03</rscale>
<asrwt>0</asrwt>
<pdfrwt beam="1">  1        1 0.28572022E+00 0.85197599E+03</pdfrwt>
<pdfrwt beam="2">  1       -1 0.59218957E-01 0.85197599E+03</pdfrwt>
<totfact> 0.11068831E+01</totfact>
</mgrwt>
</event>
<event>
 4    2  0.3396630E-007  0.7899287E+03  0.7818608E-02  0.9733011E-01
         -1   -1    0    0    0  501 -0.00000000000E+00  0.00000000000E+00  0.97911941809E+03  0.97911941810E+03  0.50400000000E-02 0.  1.
          1   -1    0    0  501    0  0.00000000000E+00 -0.00000000000E+00 -0.16164617944E+04  0.16164617944E+04  0.50400000000E-02 0. -1.
    8880023    1    1    2    0    0 -0.30892605548E+03 -0.30780149550E+03  0.77677508415E+03  0.11078658791E+04  0.65864270000E+03 0.  0.
    8880022    1    1    2    0    0  0.30892605548E+03  0.30780149550E+03 -0.14141174605E+04  0.14877153335E+04  0.15294330000E+03 0.  0.
<mgrwt>
<rscale>  0 0.69084896E+03</rscale>
<asrwt>0</asrwt>
<pdfrwt beam="1">  1        1 0.24868643E+00 0.78992865E+03</pdfrwt>
<pdfrwt beam="2">  1       -1 0.15063376E+00 0.78992865E+03</pdfrwt>
<totfact> 0.19523264E+00</totfact>
</mgrwt>
</event>
<event>
 4    2  0.3396630E-007  0.7739737E+03  0.7818608E-02  0.9770188E-01
          1   -1    0    0  501    0  0.00000000000E+00  0.00000000000E+00  0.41050837845E+03  0.41050837848E+03  0.50400000000E-02 0. -1.
         -1   -1    0    0    0  501 -0.00000000000E+00 -0.00000000000E+00 -0.14694622126E+04  0.14694622126E+04  0.50400000000E-02 0.  1.
    8880023    1    1    2    0    0  0.59662186654E+02  0.40207646201E+03 -0.11959757850E+04  0.14245677739E+04  0.65864270000E+03 0.  1.
    8880022    1    1    2    0    0 -0.59662186654E+02 -0.40207646201E+03  0.13702195091E+03  0.45540281714E+03  0.15294330000E+03 0.  0.
<mgrwt>
<rscale>  0 0.66987253E+03</rscale>
<asrwt>0</asrwt>
<pdfrwt beam="1">  1        1 0.63155136E-01 0.77397368E+03</pdfrwt>
<pdfrwt beam="2">  1       -1 0.22607111E+00 0.77397368E+03</pdfrwt>
<totfact> 0.60012496E+00</totfact>
</mgrwt>
</event>
<event>
 4    2  0.3396630E-007  0.7638443E+03  0.7818608E-02  0.9795255E-01
         -1   -1    0    0    0  501 -0.00000000000E+00  0.00000000000E+00  0.11773240439E+04  0.11773240439E+04  0.50400000000E-02 0.  1.
          1   -1    0    0  501    0  0.00000000000E+00 -0.00000000000E+00 -0.33706326822E+03  0.33706326825E+03  0.50400000000E-02 0. -1.
    8880023    1    1    2    0    0  0.25019371039E+03  0.29504401989E+03  0.78406146509E+03  0.10946279979E+04  0.65864270000E+03 0.  0.
    8880022    1    1    2    0    0 -0.25019371039E+03 -0.29504401989E+03  0.56199310555E+02  0.41975931427E+03  0.15294330000E+03 0.  0.
<mgrwt>
<rscale>  0 0.65617818E+03</rscale>
<asrwt>0</asrwt>
<pdfrwt beam="1">  1        1 0.51855888E-01 0.76384427E+03</pdfrwt>
<pdfrwt beam="2">  1       -1 0.18112677E+00 0.76384427E+03</pdfrwt>
<totfact> 0.15774677E+01</totfact>
</mgrwt>
</event>
<event>
 4    2  0.3396630E-007  0.6659482E+03  0.7818608E-02  0.1018751E+00
          1   -1    0    0  501    0  0.00000000000E+00  0.00000000000E+00  0.21801940986E+04  0.21801940986E+04  0.50400000000E-02 0. -1.
         -1   -1    0    0    0  501 -0.00000000000E+00 -0.00000000000E+00 -0.34416214911E+03  0.34416214915E+03  0.50400000000E-02 0.  1.
    8880023    1    1    2    0    0  0.24251019348E+02  0.95334587134E+02 -0.13323802947E+02  0.66608147057E+03  0.65864270000E+03 0.  1.
    8880022    1    1    2    0    0 -0.24251019348E+02 -0.95334587134E+02  0.18493557524E+04  0.18582747772E+04  0.15294330000E+03 0.  0.
<mgrwt>
<rscale>  0 0.48140108E+03</rscale>
<asrwt>0</asrwt>
<pdfrwt beam="1">  1        1 0.33541448E+00 0.66594820E+03</pdfrwt>
<pdfrwt beam="2">  1       -1 0.52948022E-01 0.66594820E+03</pdfrwt>
<totfact> 0.86100637E+00</totfact>
</mgrwt>
</event>
<event>
 4    2  0.3396630E-007  0.1145976E+04  0.7818608E-02  0.9211515E-01
         -1   -1    0    0    0  501 -0.00000000000E+00  0.00000000000E+00  0.84231753815E+03  0.84231753817E+03  0.50400000000E-02 0.  1.
          1   -1    0    0  501    0  0.00000000000E+00 -0.00000000000E+00 -0.13062580526E+04  0.13062580526E+04  0.50400000000E-02 0. -1.
    8880023    1    1    2    0    0 -0.29625494368E+03 -0.88976578435E+03 -0.29706774971E+03  0.11838537058E+04  0.65864270000E+03 0.  1.
    8880022    1    1    2    0    0  0.29625494368E+03  0.88976578435E+03 -0.16687276475E+03  0.96472188494E+03  0.15294330000E+03 0.  0.
<mgrwt>
<rscale>  0 0.10935358E+04</rscale>
<asrwt>0</asrwt>
<pdfrwt beam="1">  1        1 0.20096278E+00 0.11459757E+04</pdfrwt>
<pdfrwt beam="2">  1       -1 0.12958731E+00 0.11459757E+04</pdfrwt>
<totfact> 0.45205028E+00</totfact>
</mgrwt>
</event>
<event>
 4    2  0.3396630E-007  0.7450375E+03  0.7818608E-02  0.9845509E-01
         -1   -1    0    0    0  501 -0.00000000000E+00  0.00000000000E+00  0.37119230807E+03  0.37119230810E+03  0.50400000000E-02 0.  1.
          1   -1    0    0  501    0  0.00000000000E+00 -0.00000000000E+00 -0.94388271788E+03  0.94388271789E+03  0.50400000000E-02 0. -1.
    8880023    1    1    2    0    0 -0.26118924994E+03  0.23032769644E+03 -0.17607534157E+03  0.76556084292E+03  0.65864270000E+03 0.  0.
    8880022    1    1    2    0    0  0.26118924994E+03 -0.23032769644E+03 -0.39661506824E+03  0.54951418308E+03  0.15294330000E+03 0.  1.
<mgrwt>
<rscale>  0 0.62976429E+03</rscale>
<asrwt>0</asrwt>
<pdfrwt beam="1">  1        1 0.14521273E+00 0.74503750E+03</pdfrwt>
<pdfrwt beam="2">  1       -1 0.57106509E-01 0.74503750E+03</pdfrwt>
<totfact> 0.53285531E+01</totfact>
</mgrwt>
</event>
<event>
 4    2  0.3396630E-007  0.7081476E+03  0.7818608E-02  0.9964945E-01
          1   -1    0    0  501    0  0.00000000000E+00  0.00000000000E+00  0.93687261581E+03  0.93687261583E+03  0.50400000000E-02 0. -1.
         -1   -1    0    0    0  501 -0.00000000000E+00 -0.00000000000E+00 -0.41211609495E+03  0.41211609498E+03  0.50400000000E-02 0.  1.
    8880023    1    1    2    0    0  0.22928273315E+03  0.12285074367E+03 -0.39356337971E+02  0.70924044198E+03  0.65864270000E+03 0.  1.
    8880022    1    1    2    0    0 -0.22928273315E+03 -0.12285074367E+03  0.56411285883E+03  0.63974826882E+03  0.15294330000E+03 0.  0.
<mgrwt>
<rscale>  0 0.57214427E+03</rscale>
<asrwt>0</asrwt>
<pdfrwt beam="1">  1        1 0.14413425E+00 0.70814764E+03</pdfrwt>
<pdfrwt beam="2">  1       -1 0.63402476E-01 0.70814764E+03</pdfrwt>
<totfact> 0.44081886E+01</totfact>
</mgrwt>
</event>
<event>
 4    2  0.3396630E-007  0.7084819E+03  0.7818608E-02  0.9963682E-01
          1   -1    0    0  501    0  0.00000000000E+00  0.00000000000E+00  0.42499004829E+03  0.42499004832E+03  0.50400000000E-02 0. -1.
         -1   -1    0    0    0  501 -0.00000000000E+00 -0.00000000000E+00 -0.63470755339E+03  0.63470755341E+03  0.50400000000E-02 0.  1.
    8880023    1    1    2    0    0  0.25784454791E+03  0.40652416395E+02 -0.25666470182E+03  0.75354057971E+03  0.65864270000E+03 0.  1.
    8880022    1    1    2    0    0 -0.25784454791E+03 -0.40652416395E+02  0.46947196719E+02  0.30615702203E+03  0.15294330000E+03 0.  1.
<mgrwt>
<rscale>  0 0.57271806E+03</rscale>
<asrwt>0</asrwt>
<pdfrwt beam="1">  1        1 0.65383084E-01 0.70848192E+03</pdfrwt>
<pdfrwt beam="2">  1       -1 0.97647316E-01 0.70848192E+03</pdfrwt>
<totfact> 0.56985778E+01</totfact>
</mgrwt>
</event>
<event>
 4    2  0.3396630E-007  0.7873436E+03  0.7818608E-02  0.9738861E-01
         -1   -1    0    0    0  501 -0.00000000000E+00  0.00000000000E+00  0.30832213510E+03  0.30832213514E+03  0.50400000000E-02 0.  1.
          1   -1    0    0  501    0  0.00000000000E+00 -0.00000000000E+00 -0.23652486214E+04  0.23652486214E+04  0.50400000000E-02 0. -1.
    8880023    1    1    2    0    0  0.12947556966E+03  0.41150425511E+03 -0.27529201069E+03  0.83408367238E+03  0.65864270000E+03 0.  0.
    8880022    1    1    2    0    0 -0.12947556966E+03 -0.41150425511E+03 -0.17816344756E+04  0.18394870842E+04  0.15294330000E+03 0. -1.
<mgrwt>
<rscale>  0 0.68749408E+03</rscale>
<asrwt>0</asrwt>
<pdfrwt beam="1">  1        1 0.36388439E+00 0.78734356E+03</pdfrwt>
<pdfrwt beam="2">  1       -1 0.47434176E-01 0.78734356E+03</pdfrwt>
<totfact> 0.77956520E+00</totfact>
</mgrwt>
</event>
<event>
 4    2  0.3396630E-007  0.7521404E+03  0.7818608E-02  0.9825897E-01
          1   -1    0    0  501    0  0.00000000000E+00  0.00000000000E+00  0.12185962391E+04  0.12185962391E+04  0.50400000000E-02 0. -1.
         -1   -1    0    0    0  501 -0.00000000000E+00 -0.00000000000E+00 -0.44627517370E+03  0.44627517373E+03  0.50400000000E-02 0.  1.
    8880023    1    1    2    0    0  0.25311641719E+03  0.26045534305E+03 -0.49173216611E+02  0.75374605662E+03  0.65864270000E+03 0.  1.
    8880022    1    1    2    0    0 -0.25311641719E+03 -0.26045534305E+03  0.82149428201E+03  0.91112535623E+03  0.15294330000E+03 0.  0.
<mgrwt>
<rscale>  0 0.63991074E+03</rscale>
<asrwt>0</asrwt>
<pdfrwt beam="1">  1        1 0.18747634E+00 0.75214035E+03</pdfrwt>
<pdfrwt beam="2">  1       -1 0.68657720E-01 0.75214035E+03</pdfrwt>
<totfact> 0.22908364E+01</totfact>
</mgrwt>
</event>
<event>
 4    2  0.3396630E-007  0.7870614E+03  0.7818608E-02  0.9739504E-01
          1   -1    0    0  501    0  0.00000000000E+00  0.00000000000E+00  0.49472019025E+03  0.49472019027E+03  0.50400000000E-02 0. -1.
         -1   -1    0    0    0  501 -0.00000000000E+00 -0.00000000000E+00 -0.18720790163E+04  0.18720790163E+04  0.50400000000E-02 0.  1.
    8880023    1    1    2    0    0  0.42179808180E+03  0.87987942849E+02 -0.16544849995E+04  0.18321534651E+04  0.65864270000E+03 0.  1.
    8880022    1    1    2    0    0 -0.42179808180E+03 -0.87987942849E+02  0.27712617341E+03  0.53464574150E+03  0.15294330000E+03 0.  0.
<mgrwt>
<rscale>  0 0.68712699E+03</rscale>
<asrwt>0</asrwt>
<pdfrwt beam="1">  1        1 0.76110799E-01 0.78706144E+03</pdfrwt>
<pdfrwt beam="2">  1       -1 0.28801215E+00 0.78706144E+03</pdfrwt>
<totfact> 0.18547184E+00</totfact>
</mgrwt>
</event>
<event>
 4    2  0.3396630E-007  0.7329830E+03  0.7818608E-02  0.9880879E-01
         -1   -1    0    0    0  501 -0.00000000000E+00  0.00000000000E+00  0.79220332916E+03  0.79220332917E+03  0.50400000000E-02 0.  1.
          1   -1    0    0  501    0  0.00000000000E+00 -0.00000000000E+00 -0.83068250202E+03  0.83068250204E+03  0.50400000000E-02 0. -1.
    8880023    1    1    2    0    0  0.32156539101E+03 -0.70426697419E+01  0.56274341588E+03  0.92409104436E+03  0.65864270000E+03 0.  1.
    8880022    1    1    2    0    0 -0.32156539101E+03  0.70426697419E+01 -0.60122258874E+03  0.69879478685E+03  0.15294330000E+03 0.  0.
<mgrwt>
<rscale>  0 0.61196959E+03</rscale>
<asrwt>0</asrwt>
<pdfrwt beam="1">  1        1 0.12779731E+00 0.73298302E+03</pdfrwt>
<pdfrwt beam="2">  1       -1 0.12187743E+00 0.73298302E+03</pdfrwt>
<totfact> 0.12793774E+01</totfact>
</mgrwt>
</event>
<event>
 4    2  0.3396630E-007  0.7371176E+03  0.7818608E-02  0.9868424E-01
          1   -1    0    0  501    0  0.00000000000E+00  0.00000000000E+00  0.10181243004E+04  0.10181243004E+04  0.50400000000E-02 0. -1.
         -1   -1    0    0    0  501 -0.00000000000E+00 -0.00000000000E+00 -0.71304564280E+03  0.71304564282E+03  0.50400000000E-02 0.  1.
    8880023    1    1    2    0    0 -0.14927927010E+03  0.29537752120E+03 -0.47028733978E+03  0.87436409392E+03  0.65864270000E+03 0.  0.
    8880022    1    1    2    0    0  0.14927927010E+03 -0.29537752120E+03  0.77536599735E+03  0.85680584928E+03  0.15294330000E+03 0.  0.
<mgrwt>
<rscale>  0 0.61816292E+03</rscale>
<asrwt>0</asrwt>
<pdfrwt beam="1">  1        1 0.15663451E+00 0.73711762E+03</pdfrwt>
<pdfrwt beam="2">  1       -1 0.10969933E+00 0.73711762E+03</pdfrwt>
<totfact> 0.11630964E+01</totfact>
</mgrwt>
</event>
<event>
 4    2  0.3517155E-007  0.8053166E+03  0.7818608E-02  0.9699416E-01
          1   -1    0    0  501    0  0.00000000000E+00  0.00000000000E+00  0.10082155596E+04  0.10082155596E+04  0.50400000000E-02 0. -1.
         -1   -1    0    0    0  501 -0.00000000000E+00 -0.00000000000E+00 -0.93476820454E+03  0.93476820455E+03  0.50400000000E-02 0.  1.
    8880023    1    1    2    0    0  0.45333844551E+03 -0.95962987737E+02 -0.67413700180E+03  0.10502359471E+04  0.65864270000E+03 0.  1.
    8880022    1    1    2    0    0 -0.45333844551E+03  0.95962987737E+02  0.74758435687E+03  0.89274781705E+03  0.15294330000E+03 0.  0.
<mgrwt>
<rscale>  0 0.71051563E+03</rscale>
<asrwt>0</asrwt>
<pdfrwt beam="1">  1        1 0.15511009E+00 0.80531661E+03</pdfrwt>
<pdfrwt beam="2">  1       -1 0.14381049E+00 0.80531661E+03</pdfrwt>
<totfact> 0.59807524E+00</totfact>
</mgrwt>
</event>
<event>
 4    2  0.3396630E-007  0.7964209E+03  0.7818608E-02  0.9718589E-01
          1   -1    0    0  501    0  0.00000000000E+00  0.00000000000E+00  0.83554442017E+03  0.83554442019E+03  0.50400000000E-02 0. -1.
         -1   -1    0    0    0  501 -0.00000000000E+00 -0.00000000000E+00 -0.67348490011E+03  0.67348490013E+03  0.50400000000E-02 0.  1.
    8880023    1    1    2    0    0  0.42877880586E+03  0.12893712051E+03 -0.29679684797E+03  0.84992624423E+03  0.65864270000E+03 0.  0.
    8880022    1    1    2    0    0 -0.42877880586E+03 -0.12893712051E+03  0.45885636803E+03  0.65910307608E+03  0.15294330000E+03 0.  0.
<mgrwt>
<rscale>  0 0.69920724E+03</rscale>
<asrwt>0</asrwt>
<pdfrwt beam="1">  1        1 0.12854530E+00 0.79642090E+03</pdfrwt>
<pdfrwt beam="2">  1       -1 0.10361306E+00 0.79642090E+03</pdfrwt>
<totfact> 0.18501785E+01</totfact>
</mgrwt>
</event>
<event>
 4    2  0.3396630E-007  0.8039151E+03  0.7818608E-02  0.9702394E-01
          1   -1    0    0  501    0  0.00000000000E+00  0.00000000000E+00  0.25977768428E+04  0.25977768428E+04  0.50400000000E-02 0. -1.
         -1   -1    0    0    0  501 -0.00000000000E+00 -0.00000000000E+00 -0.35313545381E+03  0.35313545385E+03  0.50400000000E-02 0.  1.
    8880023    1    1    2    0    0  0.19536521418E+03  0.41749448719E+03  0.17196935666E+03  0.82210271842E+03  0.65864270000E+03 0.  1.
    8880022    1    1    2    0    0 -0.19536521418E+03 -0.41749448719E+03  0.20726720323E+04  0.21288095782E+04  0.15294330000E+03 0.  0.
<mgrwt>
<rscale>  0 0.70874435E+03</rscale>
<asrwt>0</asrwt>
<pdfrwt beam="1">  1        1 0.39965796E+00 0.80391506E+03</pdfrwt>
<pdfrwt beam="2">  1       -1 0.54328533E-01 0.80391506E+03</pdfrwt>
<totfact> 0.41662816E+00</totfact>
</mgrwt>
</event>
<event>
 4    2  0.3396630E-007  0.9921093E+03  0.7818608E-02  0.9391955E-01
         -1   -1    0    0    0  501 -0.00000000000E+00  0.00000000000E+00  0.41722705008E+03  0.41722705011E+03  0.50400000000E-02 0.  1.
          1   -1    0    0  501    0  0.00000000000E+00 -0.00000000000E+00 -0.25449139102E+04  0.25449139102E+04  0.50400000000E-02 0. -1.
    8880023    1    1    2    0    0  0.51345111037E+03  0.53557307654E+03 -0.38909640875E+03  0.10656813711E+04  0.65864270000E+03 0.  0.
    8880022    1    1    2    0    0 -0.51345111037E+03 -0.53557307654E+03 -0.17385904513E+04  0.18964595892E+04  0.15294330000E+03 0.  0.
<mgrwt>
<rscale>  0 0.92740745E+03</rscale>
<asrwt>0</asrwt>
<pdfrwt beam="1">  1        1 0.39152521E+00 0.99210925E+03</pdfrwt>
<pdfrwt beam="2">  1       -1 0.64188778E-01 0.99210925E+03</pdfrwt>
<totfact> 0.31673238E+00</totfact>
</mgrwt>
</event>
<event>
 4    2  0.3396630E-007  0.7410165E+03  0.7818608E-02  0.9856996E-01
         -1   -1    0    0    0  501 -0.00000000000E+00  0.00000000000E+00  0.52165787982E+03  0.52165787984E+03  0.50400000000E-02 0.  1.
          1   -1    0    0  501    0  0.00000000000E+00 -0.00000000000E+00 -0.96258839701E+03  0.96258839702E+03  0.50400000000E-02 0. -1.
    8880023    1    1    2    0    0  0.33011886407E+03  0.79477731447E+02  0.17783496953E+03  0.76205685934E+03  0.65864270000E+03 0.  1.
    8880022    1    1    2    0    0 -0.33011886407E+03 -0.79477731447E+02 -0.61876548672E+03  0.72218941753E+03  0.15294330000E+03 0.  0.
<mgrwt>
<rscale>  0 0.62391480E+03</rscale>
<asrwt>0</asrwt>
<pdfrwt beam="1">  1        1 0.14809052E+00 0.74101645E+03</pdfrwt>
<pdfrwt beam="2">  1       -1 0.80255058E-01 0.74101645E+03</pdfrwt>
<totfact> 0.25809588E+01</totfact>
</mgrwt>
</event>
<event>
 4    2  0.3396630E-007  0.8055909E+03  0.7818608E-02  0.9698835E-01
         -1   -1    0    0    0  501 -0.00000000000E+00  0.00000000000E+00  0.10526951685E+04  0.10526951685E+04  0.50400000000E-02 0.  1.
          1   -1    0    0  501    0  0.00000000000E+00 -0.00000000000E+00 -0.68172250511E+03  0.68172250513E+03  0.50400000000E-02 0. -1.
    8880023    1    1    2    0    0  0.20113154584E+02  0.46342422668E+03  0.76189855893E+03  0.11088129568E+04  0.65864270000E+03 0.  1.
    8880022    1    1    2    0    0 -0.20113154584E+02 -0.46342422668E+03 -0.39092589555E+03  0.62560471680E+03  0.15294330000E+03 0.  0.
<mgrwt>
<rscale>  0 0.71086188E+03</rscale>
<asrwt>0</asrwt>
<pdfrwt beam="1">  1        1 0.10488039E+00 0.80559094E+03</pdfrwt>
<pdfrwt beam="2">  1       -1 0.16195310E+00 0.80559094E+03</pdfrwt>
<totfact> 0.82076327E+00</totfact>
</mgrwt>
</event>
<event>
 4    2  0.3396630E-007  0.8354554E+03  0.7818608E-02  0.9638810E-01
         -1   -1    0    0    0  501 -0.00000000000E+00  0.00000000000E+00  0.37060745078E+03  0.37060745082E+03  0.50400000000E-02 0.  1.
          1   -1    0    0  501    0  0.00000000000E+00 -0.00000000000E+00 -0.19995438822E+04  0.19995438822E+04  0.50400000000E-02 0. -1.
    8880023    1    1    2    0    0  0.29971528744E+03  0.41754797918E+03 -0.22194796913E+03  0.86443430965E+03  0.65864270000E+03 0.  0.
    8880022    1    1    2    0    0 -0.29971528744E+03 -0.41754797918E+03 -0.14069884623E+04  0.15057170234E+04  0.15294330000E+03 0.  0.
<mgrwt>
<rscale>  0 0.74779901E+03</rscale>
<asrwt>0</asrwt>
<pdfrwt beam="1">  1        1 0.30762213E+00 0.83545543E+03</pdfrwt>
<pdfrwt beam="2">  1       -1 0.57016532E-01 0.83545543E+03</pdfrwt>
<totfact> 0.95920391E+00</totfact>
</mgrwt>
</event>
<event>
 4    2  0.3396630E-007  0.7212955E+03  0.7818608E-02  0.9918226E-01
         -1   -1    0    0    0  501 -0.00000000000E+00  0.00000000000E+00  0.26399417433E+03  0.26399417438E+03  0.50400000000E-02 0.  1.
          1   -1    0    0  501    0  0.00000000000E+00 -0.00000000000E+00 -0.15713240916E+04  0.15713240917E+04  0.50400000000E-02 0. -1.
    8880023    1    1    2    0    0 -0.22842616185E+03 -0.18514459908E+03 -0.31132237765E+03  0.78561368565E+03  0.65864270000E+03 0.  1.
    8880022    1    1    2    0    0  0.22842616185E+03  0.18514459908E+03 -0.99600753967E+03  0.10497045804E+04  0.15294330000E+03 0.  0.
<mgrwt>
<rscale>  0 0.59386029E+03</rscale>
<asrwt>0</asrwt>
<pdfrwt beam="1">  1        1 0.24174216E+00 0.72129553E+03</pdfrwt>
<pdfrwt beam="2">  1       -1 0.40614489E-01 0.72129553E+03</pdfrwt>
<totfact> 0.35793281E+01</totfact>
</mgrwt>
</event>
<event>
 4    2  0.3396630E-007  0.1097990E+04  0.7818608E-02  0.9263297E-01
          1   -1    0    0  501    0  0.00000000000E+00  0.00000000000E+00  0.14817263788E+04  0.14817263788E+04  0.50400000000E-02 0. -1.
         -1   -1    0    0    0  501 -0.00000000000E+00 -0.00000000000E+00 -0.17441514100E+04  0.17441514100E+04  0.50400000000E-02 0.  1.
    8880023    1    1    2    0    0  0.60185692252E+02  0.87644160537E+03 -0.14007933779E+04  0.17798327165E+04  0.65864270000E+03 0.  0.
    8880022    1    1    2    0    0 -0.60185692252E+02 -0.87644160537E+03  0.11383683467E+04  0.14460450722E+04  0.15294330000E+03 0.  0.
<mgrwt>
<rscale>  0 0.10423316E+04</rscale>
<asrwt>0</asrwt>
<pdfrwt beam="1">  1        1 0.22795790E+00 0.10979902E+04</pdfrwt>
<pdfrwt beam="2">  1       -1 0.26833099E+00 0.10979902E+04</pdfrwt>
<totfact> 0.35571404E-01</totfact>
</mgrwt>
</event>
<event>
 4    2  0.3396630E-007  0.6833904E+03  0.7818608E-02  0.1007467E+00
          1   -1    0    0  501    0  0.00000000000E+00  0.00000000000E+00  0.35267722267E+04  0.35267722267E+04  0.50400000000E-02 0. -1.
         -1   -1    0    0    0  501 -0.00000000000E+00 -0.00000000000E+00 -0.60292774584E+02  0.60292774794E+02  0.50400000000E-02 0.  1.
    8880023    1    1    2    0    0  0.86955242478E+02 -0.16015946608E+03  0.26408215570E+04  0.27278124883E+04  0.65864270000E+03 0. -1.
    8880022    1    1    2    0    0 -0.86955242478E+02  0.16015946608E+03  0.82565789505E+03  0.85925251320E+03  0.15294330000E+03 0.  1.
<mgrwt>
<rscale>  0 0.52493736E+03</rscale>
<asrwt>0</asrwt>
<pdfrwt beam="1">  1        1 0.54258028E+00 0.68339043E+03</pdfrwt>
<pdfrwt beam="2">  1       -1 0.92758125E-02 0.68339043E+03</pdfrwt>
<totfact> 0.18399392E+01</totfact>
</mgrwt>
</event>
<event>
 4    2  0.3396630E-007  0.7573154E+03  0.7818608E-02  0.9812108E-01
          1   -1    0    0  501    0  0.00000000000E+00  0.00000000000E+00  0.36601027628E+03  0.36601027632E+03  0.50400000000E-02 0. -1.
         -1   -1    0    0    0  501 -0.00000000000E+00 -0.00000000000E+00 -0.92202385731E+03  0.92202385732E+03  0.50400000000E-02 0.  1.
    8880023    1    1    2    0    0 -0.12414399079E+03  0.35256873019E+03 -0.34182715437E+03  0.83088654441E+03  0.65864270000E+03 0.  1.
    8880022    1    1    2    0    0  0.12414399079E+03 -0.35256873019E+03 -0.21418642666E+03  0.45714758923E+03  0.15294330000E+03 0. -1.
<mgrwt>
<rscale>  0 0.64716801E+03</rscale>
<asrwt>0</asrwt>
<pdfrwt beam="1">  1        1 0.56309274E-01 0.75731542E+03</pdfrwt>
<pdfrwt beam="2">  1       -1 0.14184982E+00 0.75731542E+03</pdfrwt>
<totfact> 0.27966279E+01</totfact>
</mgrwt>
</event>
<event>
 4    2  0.3396630E-007  0.1318395E+04  0.7818608E-02  0.9049835E-01
          1   -1    0    0  501    0  0.00000000000E+00  0.00000000000E+00  0.42289898998E+04  0.42289898999E+04  0.50400000000E-02 0. -1.
         -1   -1    0    0    0  501 -0.00000000000E+00 -0.00000000000E+00 -0.91754957548E+03  0.91754957550E+03  0.50400000000E-02 0.  1.
    8880023    1    1    2    0    0 -0.28527741344E+03  0.11058804714E+04  0.37020920004E+04  0.39298409898E+04  0.65864270000E+03 0. -1.
    8880022    1    1    2    0    0  0.28527741344E+03 -0.11058804714E+04 -0.39065167603E+03  0.12166984855E+04  0.15294330000E+03 0.  0.
<mgrwt>
<rscale>  0 0.12747456E+04</rscale>
<asrwt>0</asrwt>
<pdfrwt beam="1">  1        1 0.65061382E+00 0.13183949E+04</pdfrwt>
<pdfrwt beam="2">  1       -1 0.14116147E+00 0.13183949E+04</pdfrwt>
<totfact> 0.24279478E-02</totfact>
</mgrwt>
</event>
<event>
 4    2  0.3396630E-007  0.1043037E+04  0.7818608E-02  0.9327298E-01
          1   -1    0    0  501    0  0.00000000000E+00  0.00000000000E+00  0.18663538593E+04  0.18663538593E+04  0.50400000000E-02 0. -1.
         -1   -1    0    0    0  501 -0.00000000000E+00 -0.00000000000E+00 -0.59944661224E+03  0.59944661226E+03  0.50400000000E-02 0.  1.
    8880023    1    1    2    0    0  0.26268369604E+03  0.76492756353E+03  0.11404260601E+03  0.10492534603E+04  0.65864270000E+03 0.  0.
    8880022    1    1    2    0    0 -0.26268369604E+03 -0.76492756353E+03  0.11528646410E+04  0.14165470113E+04  0.15294330000E+03 0.  0.
<mgrwt>
<rscale>  0 0.98308093E+03</rscale>
<asrwt>0</asrwt>
<pdfrwt beam="1">  1        1 0.28713136E+00 0.10430374E+04</pdfrwt>
<pdfrwt beam="2">  1       -1 0.92222557E-01 0.10430374E+04</pdfrwt>
<totfact> 0.42190288E+00</totfact>
</mgrwt>
</event>
<event>
 4    2  0.3917099E-007  0.7778105E+03  0.7818608E-02  0.9761006E-01
         -1   -1    0    0    0  501 -0.00000000000E+00  0.00000000000E+00  0.87895591955E+03  0.87895591956E+03  0.50400000000E-02 0.  1.
          1   -1    0    0  501    0  0.00000000000E+00 -0.00000000000E+00 -0.11876647596E+04  0.11876647596E+04  0.50400000000E-02 0. -1.
    8880023    1    1    2    0    0 -0.39281835170E+03 -0.12989499879E+03  0.64848470928E+03  0.10126804000E+04  0.65864270000E+03 0.  1.
    8880022    1    1    2    0    0  0.39281835170E+03  0.12989499879E+03 -0.95719354931E+03  0.10539402791E+04  0.15294330000E+03 0.  0.
<mgrwt>
<rscale>  0 0.67497861E+03</rscale>
<asrwt>0</asrwt>
<pdfrwt beam="1">  1        1 0.18271766E+00 0.77781050E+03</pdfrwt>
<pdfrwt beam="2">  1       -1 0.13522399E+00 0.77781050E+03</pdfrwt>
<totfact> 0.51719113E+00</totfact>
</mgrwt>
</event>
<event>
 4    2  0.3396630E-007  0.1050200E+04  0.7818608E-02  0.9318641E-01
          1   -1    0    0  501    0  0.00000000000E+00  0.00000000000E+00  0.13470658707E+04  0.13470658707E+04  0.50400000000E-02 0. -1.
         -1   -1    0    0    0  501 -0.00000000000E+00 -0.00000000000E+00 -0.70905614288E+03  0.70905614290E+03  0.50400000000E-02 0.  1.
    8880023    1    1    2    0    0  0.63959106291E+03 -0.50993444441E+03  0.78045765610E+02  0.10530960133E+04  0.65864270000E+03 0.  0.
    8880022    1    1    2    0    0 -0.63959106291E+03  0.50993444441E+03  0.55996396218E+03  0.10030260003E+04  0.15294330000E+03 0.  0.
<mgrwt>
<rscale>  0 0.99084702E+03</rscale>
<asrwt>0</asrwt>
<pdfrwt beam="1">  1        1 0.20724090E+00 0.10502000E+04</pdfrwt>
<pdfrwt beam="2">  1       -1 0.10908556E+00 0.10502000E+04</pdfrwt>
<totfact> 0.65091780E+00</totfact>
</mgrwt>
</event>
<event>
 4    2  0.3396630E-007  0.8494126E+03  0.7818608E-02  0.9612681E-01
         -1   -1    0    0    0  501 -0.00000000000E+00  0.00000000000E+00  0.29069960695E+03  0.29069960699E+03  0.50400000000E-02 0.  1.
          1   -1    0    0  501    0  0.00000000000E+00 -0.00000000000E+00 -0.23419358918E+04  0.23419358918E+04  0.50400000000E-02 0. -1.
    8880023    1    1    2    0    0  0.14585223892E+03  0.51615756285E+03 -0.50340330093E+03  0.98737864821E+03  0.65864270000E+03 0.  0.
    8880022    1    1    2    0    0 -0.14585223892E+03 -0.51615756285E+03 -0.15478329839E+04  0.16452568506E+04  0.15294330000E+03 0.  0.
<mgrwt>
<rscale>  0 0.76462514E+03</rscale>
<asrwt>0</asrwt>
<pdfrwt beam="1">  1        1 0.36029782E+00 0.84941257E+03</pdfrwt>
<pdfrwt beam="2">  1       -1 0.44723018E-01 0.84941257E+03</pdfrwt>
<totfact> 0.89390337E+00</totfact>
</mgrwt>
</event>
<event>
 4    2  0.3957351E-007  0.7545777E+03  0.7818608E-02  0.9819353E-01
          1   -1    0    0  501    0  0.00000000000E+00  0.00000000000E+00  0.13280345681E+04  0.13280345681E+04  0.50400000000E-02 0. -1.
         -1   -1    0    0    0  501 -0.00000000000E+00 -0.00000000000E+00 -0.70732643016E+03  0.70732643018E+03  0.50400000000E-02 0.  1.
    8880023    1    1    2    0    0 -0.26602628791E+03  0.25457284433E+03 -0.45980458804E+03  0.88363328614E+03  0.65864270000E+03 0.  0.
    8880022    1    1    2    0    0  0.26602628791E+03 -0.25457284433E+03  0.10805127260E+04  0.11517277122E+04  0.15294330000E+03 0.  0.
<mgrwt>
<rscale>  0 0.64334218E+03</rscale>
<asrwt>0</asrwt>
<pdfrwt beam="1">  1        1 0.20431301E+00 0.75457771E+03</pdfrwt>
<pdfrwt beam="2">  1       -1 0.10881945E+00 0.75457771E+03</pdfrwt>
<totfact> 0.70146490E+00</totfact>
</mgrwt>
</event>
<event>
 4    2  0.3396630E-007  0.1062806E+04  0.7818608E-02  0.9303643E-01
          1   -1    0    0  501    0  0.00000000000E+00  0.00000000000E+00  0.19981468372E+04  0.19981468372E+04  0.50400000000E-02 0. -1.
         -1   -1    0    0    0  501 -0.00000000000E+00 -0.00000000000E+00 -0.85156731385E+03  0.85156731387E+03  0.50400000000E-02 0.  1.
    8880023    1    1    2    0    0  0.78224357361E+03 -0.28955235537E+03 -0.35894607944E+03  0.11217834324E+04  0.65864270000E+03 0.  0.
    8880022    1    1    2    0    0 -0.78224357361E+03  0.28955235537E+03  0.15055256028E+04  0.17279307187E+04  0.15294330000E+03 0.  0.
<mgrwt>
<rscale>  0 0.10044813E+04</rscale>
<asrwt>0</asrwt>
<pdfrwt beam="1">  1        1 0.30740720E+00 0.10628056E+04</pdfrwt>
<pdfrwt beam="2">  1       -1 0.13101036E+00 0.10628056E+04</pdfrwt>
<totfact> 0.14887871E+00</totfact>
</mgrwt>
</event>
<event>
 4    2  0.3396630E-007  0.7183671E+03  0.7818608E-02  0.9928151E-01
         -1   -1    0    0    0  501 -0.00000000000E+00  0.00000000000E+00  0.20044163116E+03  0.20044163123E+03  0.50400000000E-02 0.  1.
          1   -1    0    0  501    0  0.00000000000E+00 -0.00000000000E+00 -0.20220673022E+04  0.20220673022E+04  0.50400000000E-02 0. -1.
    8880023    1    1    2    0    0  0.21278995005E+02 -0.28598639858E+03 -0.53562089361E+03  0.89606973151E+03  0.65864270000E+03 0.  0.
    8880022    1    1    2    0    0 -0.21278995005E+02  0.28598639858E+03 -0.12860047774E+04  0.13264392019E+04  0.15294330000E+03 0.  0.
<mgrwt>
<rscale>  0 0.58916181E+03</rscale>
<asrwt>0</asrwt>
<pdfrwt beam="1">  1        1 0.31108726E+00 0.71836705E+03</pdfrwt>
<pdfrwt beam="2">  1       -1 0.30837175E-01 0.71836705E+03</pdfrwt>
<totfact> 0.29172745E+01</totfact>
</mgrwt>
</event>
<event>
 4    2  0.3396630E-007  0.7677118E+03  0.7818608E-02  0.9785536E-01
          1   -1    0    0  501    0  0.00000000000E+00  0.00000000000E+00  0.28059240218E+04  0.28059240218E+04  0.50400000000E-02 0. -1.
         -1   -1    0    0    0  501 -0.00000000000E+00 -0.00000000000E+00 -0.33627049400E+03  0.33627049404E+03  0.50400000000E-02 0.  1.
    8880023    1    1    2    0    0  0.43314622791E+02 -0.39203965445E+03  0.14741358552E+03  0.78173666837E+03  0.65864270000E+03 0.  0.
    8880022    1    1    2    0    0 -0.43314622791E+02  0.39203965445E+03  0.23222399423E+04  0.23604578475E+04  0.15294330000E+03 0.  0.
<mgrwt>
<rscale>  0 0.66144548E+03</rscale>
<asrwt>0</asrwt>
<pdfrwt beam="1">  1        1 0.43168060E+00 0.76771183E+03</pdfrwt>
<pdfrwt beam="2">  1       -1 0.51733924E-01 0.76771183E+03</pdfrwt>
<totfact> 0.33011876E+00</totfact>
</mgrwt>
</event>
<event>
 4    2  0.3396630E-007  0.6695184E+03  0.7818608E-02  0.1016010E+00
         -1   -1    0    0    0  501 -0.00000000000E+00  0.00000000000E+00  0.60655964277E+03  0.60655964279E+03  0.50400000000E-02 0.  1.
          1   -1    0    0  501    0  0.00000000000E+00 -0.00000000000E+00 -0.79725158973E+03  0.79725158975E+03  0.50400000000E-02 0. -1.
    8880023    1    1    2    0    0 -0.39138025173E+02  0.11363518335E+03  0.40137293420E+03  0.78061205376E+03  0.65864270000E+03 0.  1.
    8880022    1    1    2    0    0  0.39138025173E+02 -0.11363518335E+03 -0.59206488116E+03  0.62319917878E+03  0.15294330000E+03 0.  0.
<mgrwt>
<rscale>  0 0.49154199E+03</rscale>
<asrwt>0</asrwt>
<pdfrwt beam="1">  1        1 0.12265409E+00 0.66951844E+03</pdfrwt>
<pdfrwt beam="2">  1       -1 0.93316869E-01 0.66951844E+03</pdfrwt>
<totfact> 0.25669989E+01</totfact>
</mgrwt>
</event>
<event>
 4    2  0.3396630E-007  0.6770721E+03  0.7818608E-02  0.1011031E+00
         -1   -1    0    0    0  501 -0.00000000000E+00  0.00000000000E+00  0.80224690972E+03  0.80224690973E+03  0.50400000000E-02 0.  1.
          1   -1    0    0  501    0  0.00000000000E+00 -0.00000000000E+00 -0.40807612911E+03  0.40807612914E+03  0.50400000000E-02 0. -1.
    8880023    1    1    2    0    0  0.40617391487E+02 -0.15154761632E+03  0.60372056767E+03  0.90714121425E+03  0.65864270000E+03 0.  1.
    8880022    1    1    2    0    0 -0.40617391487E+02  0.15154761632E+03 -0.20954978706E+03  0.30318182461E+03  0.15294330000E+03 0.  0.
<mgrwt>
<rscale>  0 0.51067021E+03</rscale>
<asrwt>0</asrwt>
<pdfrwt beam="1">  1        1 0.62780943E-01 0.67707212E+03</pdfrwt>
<pdfrwt beam="2">  1       -1 0.12342260E+00 0.67707212E+03</pdfrwt>
<totfact> 0.34746060E+01</totfact>
</mgrwt>
</event>
<event>
 4    2  0.3396630E-007  0.8060285E+03  0.7818608E-02  0.9697910E-01
         -1   -1    0    0    0  501 -0.00000000000E+00  0.00000000000E+00  0.36892228657E+03  0.36892228661E+03  0.50400000000E-02 0.  1.
          1   -1    0    0  501    0  0.00000000000E+00 -0.00000000000E+00 -0.30113767674E+04  0.30113767674E+04  0.50400000000E-02 0. -1.
    8880023    1    1    2    0    0 -0.46315507119E+03 -0.36866094434E+02 -0.12487877847E+03  0.81564492548E+03  0.65864270000E+03 0.  1.
    8880022    1    1    2    0    0  0.46315507119E+03  0.36866094434E+02 -0.25175757024E+04  0.25646541286E+04  0.15294330000E+03 0.  0.
<mgrwt>
<rscale>  0 0.71141387E+03</rscale>
<asrwt>0</asrwt>
<pdfrwt beam="1">  1        1 0.46328872E+00 0.80602850E+03</pdfrwt>
<pdfrwt beam="2">  1       -1 0.56757277E-01 0.80602850E+03</pdfrwt>
<totfact> 0.19588774E+00</totfact>
</mgrwt>
</event>
<event>
 4    2  0.3396630E-007  0.6705481E+03  0.7818608E-02  0.1015273E+00
          1   -1    0    0  501    0  0.00000000000E+00  0.00000000000E+00  0.65827835614E+03  0.65827835616E+03  0.50400000000E-02 0. -1.
         -1   -1    0    0    0  501 -0.00000000000E+00 -0.00000000000E+00 -0.36846149111E+03  0.36846149115E+03  0.50400000000E-02 0.  1.
    8880023    1    1    2    0    0  0.32575558941E+02  0.12150470124E+03 -0.62166043360E+01  0.67057692467E+03  0.65864270000E+03 0.  1.
    8880022    1    1    2    0    0 -0.32575558941E+02 -0.12150470124E+03  0.29603346937E+03  0.35616292264E+03  0.15294330000E+03 0.  0.
<mgrwt>
<rscale>  0 0.49431713E+03</rscale>
<asrwt>0</asrwt>
<pdfrwt beam="1">  1        1 0.10127359E+00 0.67054811E+03</pdfrwt>
<pdfrwt beam="2">  1       -1 0.56686384E-01 0.67054811E+03</pdfrwt>
<totfact> 0.96470580E+01</totfact>
</mgrwt>
</event>
<event>
 4    2  0.3396630E-007  0.1162019E+04  0.7818608E-02  0.9194957E-01
          1   -1    0    0  501    0  0.00000000000E+00  0.00000000000E+00  0.22411520025E+04  0.22411520025E+04  0.50400000000E-02 0. -1.
         -1   -1    0    0    0  501 -0.00000000000E+00 -0.00000000000E+00 -0.14000706927E+04  0.14000706927E+04  0.50400000000E-02 0.  1.
    8880023    1    1    2    0    0 -0.88860871940E+03  0.35616242978E+03 -0.10177930433E+04  0.15447297556E+04  0.65864270000E+03 0.  1.
    8880022    1    1    2    0    0  0.88860871940E+03 -0.35616242978E+03  0.18588743531E+04  0.20964929397E+04  0.15294330000E+03 0.  0.
<mgrwt>
<rscale>  0 0.11105631E+04</rscale>
<asrwt>0</asrwt>
<pdfrwt beam="1">  1        1 0.34479261E+00 0.11620186E+04</pdfrwt>
<pdfrwt beam="2">  1       -1 0.21539549E+00 0.11620186E+04</pdfrwt>
<totfact> 0.23876315E-01</totfact>
</mgrwt>
</event>
<event>
 4    2  0.3396630E-007  0.9081707E+03  0.7818608E-02  0.9513040E-01
          1   -1    0    0  501    0  0.00000000000E+00  0.00000000000E+00  0.37261592627E+04  0.37261592627E+04  0.50400000000E-02 0. -1.
         -1   -1    0    0    0  501 -0.00000000000E+00 -0.00000000000E+00 -0.72925539538E+03  0.72925539540E+03  0.50400000000E-02 0.  1.
    8880023    1    1    2    0    0 -0.62316265413E+03 -0.51303634417E+02 -0.40410911285E+03  0.99402119583E+03  0.65864270000E+03 0.  1.
    8880022    1    1    2    0    0  0.62316265413E+03  0.51303634417E+02  0.34010129802E+04  0.34613934623E+04  0.15294330000E+03 0.  0.
<mgrwt>
<rscale>  0 0.83329203E+03</rscale>
<asrwt>0</asrwt>
<pdfrwt beam="1">  1        1 0.57325527E+00 0.90817067E+03</pdfrwt>
<pdfrwt beam="2">  1       -1 0.11219314E+00 0.90817067E+03</pdfrwt>
<totfact> 0.12753316E-01</totfact>
</mgrwt>
</event>
<event>
 4    2  0.3396630E-007  0.9907764E+03  0.7818608E-02  0.9393726E-01
         -1   -1    0    0    0  501 -0.00000000000E+00  0.00000000000E+00  0.92106900819E+03  0.92106900820E+03  0.50400000000E-02 0.  1.
          1   -1    0    0  501    0  0.00000000000E+00 -0.00000000000E+00 -0.85762772560E+03  0.85762772561E+03  0.50400000000E-02 0. -1.
    8880023    1    1    2    0    0  0.23997873796E+03 -0.70016989052E+03  0.19975308157E+03  0.10107122093E+04  0.65864270000E+03 0.  1.
    8880022    1    1    2    0    0 -0.23997873796E+03  0.70016989052E+03 -0.13631179898E+03  0.76798452447E+03  0.15294330000E+03 0. -1.
<mgrwt>
<rscale>  0 0.92593841E+03</rscale>
<asrwt>0</asrwt>
<pdfrwt beam="1">  1        1 0.13194273E+00 0.99077640E+03</pdfrwt>
<pdfrwt beam="2">  1       -1 0.14170292E+00 0.99077640E+03</pdfrwt>
<totfact> 0.80388924E+00</totfact>
</mgrwt>
</event>
<event>
 4    2  0.3396630E-007  0.7669053E+03  0.7818608E-02  0.9787548E-01
         -1   -1    0    0    0  501 -0.00000000000E+00  0.00000000000E+00  0.22221057986E+03  0.22221057992E+03  0.50400000000E-02 0.  1.
          1   -1    0    0  501    0  0.00000000000E+00 -0.00000000000E+00 -0.18769860675E+04  0.18769860675E+04  0.50400000000E-02 0. -1.
    8880023    1    1    2    0    0 -0.17655506132E+03 -0.35094423754E+03 -0.63485332024E+03  0.99558148437E+03  0.65864270000E+03 0.  1.
    8880022    1    1    2    0    0  0.17655506132E+03  0.35094423754E+03 -0.10199221674E+04  0.11036151630E+04  0.15294330000E+03 0.  0.
<mgrwt>
<rscale>  0 0.66035114E+03</rscale>
<asrwt>0</asrwt>
<pdfrwt beam="1">  1        1 0.28876708E+00 0.76690531E+03</pdfrwt>
<pdfrwt beam="2">  1       -1 0.34186244E-01 0.76690531E+03</pdfrwt>
<totfact> 0.30220193E+01</totfact>
</mgrwt>
</event>
<event>
 4    2  0.3789881E-007  0.7823058E+03  0.7818608E-02  0.9750448E-01
          1   -1    0    0  501    0  0.00000000000E+00  0.00000000000E+00  0.10980620973E+04  0.10980620974E+04  0.50400000000E-02 0. -1.
         -1   -1    0    0    0  501 -0.00000000000E+00 -0.00000000000E+00 -0.95807380640E+03  0.95807380641E+03  0.50400000000E-02 0.  1.
    8880023    1    1    2    0    0  0.31271671316E+03  0.28354964653E+03 -0.73452996929E+03  0.10730967462E+04  0.65864270000E+03 0.  1.
    8880022    1    1    2    0    0 -0.31271671316E+03 -0.28354964653E+03  0.87451826024E+03  0.98303915753E+03  0.15294330000E+03 0.  0.
<mgrwt>
<rscale>  0 0.68090945E+03</rscale>
<asrwt>0</asrwt>
<pdfrwt beam="1">  1        1 0.16893263E+00 0.78230579E+03</pdfrwt>
<pdfrwt beam="2">  1       -1 0.14739597E+00 0.78230579E+03</pdfrwt>
<totfact> 0.48032294E+00</totfact>
</mgrwt>
</event>
<event>
 4    2  0.3396630E-007  0.6670918E+03  0.7818608E-02  0.1017839E+00
          1   -1    0    0  501    0  0.00000000000E+00  0.00000000000E+00  0.11242202106E+04  0.11242202106E+04  0.50400000000E-02 0. -1.
         -1   -1    0    0    0  501 -0.00000000000E+00 -0.00000000000E+00 -0.48237007772E+03  0.48237007774E+03  0.50400000000E-02 0.  1.
    8880023    1    1    2    0    0  0.45566039808E+02  0.95524909910E+02 -0.23725426392E+03  0.70802617495E+03  0.65864270000E+03 0.  1.
    8880022    1    1    2    0    0 -0.45566039808E+02 -0.95524909910E+02  0.87910439684E+03  0.89856411344E+03  0.15294330000E+03 0.  0.
<mgrwt>
<rscale>  0 0.48474419E+03</rscale>
<asrwt>0</asrwt>
<pdfrwt beam="1">  1        1 0.17295695E+00 0.66709181E+03</pdfrwt>
<pdfrwt beam="2">  1       -1 0.74210781E-01 0.66709181E+03</pdfrwt>
<totfact> 0.23127686E+01</totfact>
</mgrwt>
</event>
<event>
 4    2  0.3396630E-007  0.7688644E+03  0.7818608E-02  0.9782676E-01
          1   -1    0    0  501    0  0.00000000000E+00  0.00000000000E+00  0.13607235300E+04  0.13607235300E+04  0.50400000000E-02 0. -1.
         -1   -1    0    0    0  501 -0.00000000000E+00 -0.00000000000E+00 -0.30292512262E+03  0.30292512267E+03  0.50400000000E-02 0.  1.
    8880023    1    1    2    0    0 -0.29381896728E+03  0.26648202047E+03  0.36568966442E+03  0.85139966508E+03  0.65864270000E+03 0. -1.
    8880022    1    1    2    0    0  0.29381896728E+03 -0.26648202047E+03  0.69210874299E+03  0.81224898763E+03  0.15294330000E+03 0.  0.
<mgrwt>
<rscale>  0 0.66300571E+03</rscale>
<asrwt>0</asrwt>
<pdfrwt beam="1">  1        1 0.20934208E+00 0.76886440E+03</pdfrwt>
<pdfrwt beam="2">  1       -1 0.46603864E-01 0.76886440E+03</pdfrwt>
<totfact> 0.38551802E+01</totfact>
</mgrwt>
</event>
<event>
 4    2  0.3396630E-007  0.8068677E+03  0.7818608E-02  0.9696139E-01
         -1   -1    0    0    0  501 -0.00000000000E+00  0.00000000000E+00  0.84833112388E+03  0.84833112389E+03  0.50400000000E-02 0.  1.
          1   -1    0    0  501    0  0.00000000000E+00 -0.00000000000E+00 -0.89286323152E+03  0.89286323153E+03  0.50400000000E-02 0. -1.
    8880023    1    1    2    0    0  0.25980858747E+03  0.38694276989E+03  0.54544499987E+03  0.97393308982E+03  0.65864270000E+03 0.  1.
    8880022    1    1    2    0    0 -0.25980858747E+03 -0.38694276989E+03 -0.58997710751E+03  0.76726126560E+03  0.15294330000E+03 0.  0.
<mgrwt>
<rscale>  0 0.71247149E+03</rscale>
<asrwt>0</asrwt>
<pdfrwt beam="1">  1        1 0.13736358E+00 0.80686766E+03</pdfrwt>
<pdfrwt beam="2">  1       -1 0.13051248E+00 0.80686766E+03</pdfrwt>
<totfact> 0.94865747E+00</totfact>
</mgrwt>
</event>
<event>
 4    2  0.3396630E-007  0.6655262E+03  0.7818608E-02  0.1019096E+00
         -1   -1    0    0    0  501 -0.00000000000E+00  0.00000000000E+00  0.12005837602E+04  0.12005837602E+04  0.50400000000E-02 0.  1.
          1   -1    0    0  501    0  0.00000000000E+00 -0.00000000000E+00 -0.48381057582E+03  0.48381057585E+03  0.50400000000E-02 0. -1.
    8880023    1    1    2    0    0 -0.95321115668E+02 -0.53677875276E+01  0.10858830717E+04  0.12736040122E+04  0.65864270000E+03 0.  1.
    8880022    1    1    2    0    0  0.95321115668E+02  0.53677875276E+01 -0.36910988732E+03  0.41079032385E+03  0.15294330000E+03 0.  0.
<mgrwt>
<rscale>  0 0.48014265E+03</rscale>
<asrwt>0</asrwt>
<pdfrwt beam="1">  1        1 0.74432396E-01 0.66552621E+03</pdfrwt>
<pdfrwt beam="2">  1       -1 0.18470519E+00 0.66552621E+03</pdfrwt>
<totfact> 0.93190703E+00</totfact>
</mgrwt>
</event>
<event>
 4    2  0.3396630E-007  0.6915673E+03  0.7818608E-02  0.1003416E+00
         -1   -1    0    0    0  501 -0.00000000000E+00  0.00000000000E+00  0.25925708971E+03  0.25925708976E+03  0.50400000000E-02 0.  1.
          1   -1    0    0  501    0  0.00000000000E+00 -0.00000000000E+00 -0.18230134026E+04  0.18230134026E+04  0.50400000000E-02 0. -1.
    8880023    1    1    2    0    0 -0.20201888576E+03  0.60360809484E+02 -0.23831478586E+03  0.73147740973E+03  0.65864270000E+03 0.  1.
    8880022    1    1    2    0    0  0.20201888576E+03 -0.60360809484E+02 -0.13254415270E+04  0.13507930826E+04  0.15294330000E+03 0.  0.
<mgrwt>
<rscale>  0 0.54177245E+03</rscale>
<asrwt>0</asrwt>
<pdfrwt beam="1">  1        1 0.28046359E+00 0.69156725E+03</pdfrwt>
<pdfrwt beam="2">  1       -1 0.39885707E-01 0.69156725E+03</pdfrwt>
<totfact> 0.25151860E+01</totfact>
</mgrwt>
</event>
<event>
 4    2  0.3396630E-007  0.9099823E+03  0.7818608E-02  0.9510193E-01
         -1   -1    0    0    0  501 -0.00000000000E+00  0.00000000000E+00  0.46180903659E+03  0.46180903662E+03  0.50400000000E-02 0.  1.
          1   -1    0    0  501    0  0.00000000000E+00 -0.00000000000E+00 -0.16872850628E+04  0.16872850628E+04  0.50400000000E-02 0. -1.
    8880023    1    1    2    0    0  0.11823316088E+02  0.62778798814E+03 -0.19172708233E+03  0.92996076757E+03  0.65864270000E+03 0.  0.
    8880022    1    1    2    0    0 -0.11823316088E+02 -0.62778798814E+03 -0.10337489439E+04  0.12191333319E+04  0.15294330000E+03 0.  0.
<mgrwt>
<rscale>  0 0.83536478E+03</rscale>
<asrwt>0</asrwt>
<pdfrwt beam="1">  1        1 0.25958231E+00 0.90998228E+03</pdfrwt>
<pdfrwt beam="2">  1       -1 0.71047545E-01 0.90998228E+03</pdfrwt>
<totfact> 0.99090219E+00</totfact>
</mgrwt>
</event>
<event>
 4    2  0.3396630E-007  0.7955117E+03  0.7818608E-02  0.9720586E-01
         -1   -1    0    0    0  501 -0.00000000000E+00  0.00000000000E+00  0.70141817487E+03  0.70141817489E+03  0.50400000000E-02 0.  1.
          1   -1    0    0  501    0  0.00000000000E+00 -0.00000000000E+00 -0.11443129746E+04  0.11443129746E+04  0.50400000000E-02 0. -1.
    8880023    1    1    2    0    0  0.79811673666E+02  0.43892905368E+03  0.39199347304E+03  0.88684705930E+03  0.65864270000E+03 0.  0.
    8880022    1    1    2    0    0 -0.79811673666E+02 -0.43892905368E+03 -0.83488827274E+03  0.95888409017E+03  0.15294330000E+03 0.  0.
<mgrwt>
<rscale>  0 0.69804226E+03</rscale>
<asrwt>0</asrwt>
<pdfrwt beam="1">  1        1 0.17604815E+00 0.79551167E+03</pdfrwt>
<pdfrwt beam="2">  1       -1 0.10791049E+00 0.79551167E+03</pdfrwt>
<totfact> 0.96396724E+00</totfact>
</mgrwt>
</event>
<event>
 4    2  0.3396630E-007  0.7142030E+03  0.7818608E-02  0.9942712E-01
          1   -1    0    0  501    0  0.00000000000E+00  0.00000000000E+00  0.20643816967E+04  0.20643816967E+04  0.50400000000E-02 0. -1.
         -1   -1    0    0    0  501 -0.00000000000E+00 -0.00000000000E+00 -0.29563621203E+03  0.29563621208E+03  0.50400000000E-02 0.  1.
    8880023    1    1    2    0    0 -0.20303272463E+03  0.18722576136E+03  0.17503438048E+03  0.73533870672E+03  0.65864270000E+03 0.  0.
    8880022    1    1    2    0    0  0.20303272463E+03 -0.18722576136E+03  0.15937111042E+04  0.16246792021E+04  0.15294330000E+03 0.  0.
<mgrwt>
<rscale>  0 0.58235180E+03</rscale>
<asrwt>0</asrwt>
<pdfrwt beam="1">  1        1 0.31759718E+00 0.71420304E+03</pdfrwt>
<pdfrwt beam="2">  1       -1 0.45482495E-01 0.71420304E+03</pdfrwt>
<totfact> 0.13588878E+01</totfact>
</mgrwt>
</event>
<event>
 4    2  0.3396630E-007  0.7207819E+03  0.7818608E-02  0.9919949E-01
          1   -1    0    0  501    0  0.00000000000E+00  0.00000000000E+00  0.67413716161E+03  0.67413716163E+03  0.50400000000E-02 0. -1.
         -1   -1    0    0    0  501 -0.00000000000E+00 -0.00000000000E+00 -0.41254724408E+03  0.41254724411E+03  0.50400000000E-02 0.  1.
    8880023    1    1    2    0    0 -0.21681183560E+03  0.19674607641E+03  0.13719675047E+03  0.73372307122E+03  0.65864270000E+03 0.  0.
    8880022    1    1    2    0    0  0.21681183560E+03 -0.19674607641E+03  0.12439316706E+03  0.35296133452E+03  0.15294330000E+03 0.  1.
<mgrwt>
<rscale>  0 0.59304140E+03</rscale>
<asrwt>0</asrwt>
<pdfrwt beam="1">  1        1 0.10371341E+00 0.72078193E+03</pdfrwt>
<pdfrwt beam="2">  1       -1 0.63468807E-01 0.72078193E+03</pdfrwt>
<totfact> 0.74245854E+01</totfact>
</mgrwt>
</event>
<event>
 4    2  0.3396630E-007  0.7995381E+03  0.7818608E-02  0.9711796E-01
          1   -1    0    0  501    0  0.00000000000E+00  0.00000000000E+00  0.55502434883E+03  0.55502434885E+03  0.50400000000E-02 0. -1.
         -1   -1    0    0    0  501 -0.00000000000E+00 -0.00000000000E+00 -0.10548143936E+04  0.10548143937E+04  0.50400000000E-02 0.  1.
    8880023    1    1    2    0    0 -0.38357537086E+03  0.24149712791E+03 -0.72664050915E+03  0.10804015752E+04  0.65864270000E+03 0.  1.
    8880022    1    1    2    0    0  0.38357537086E+03 -0.24149712791E+03  0.22685046434E+03  0.52943716729E+03  0.15294330000E+03 0.  0.
<mgrwt>
<rscale>  0 0.70318803E+03</rscale>
<asrwt>0</asrwt>
<pdfrwt beam="1">  1        1 0.85388362E-01 0.79953808E+03</pdfrwt>
<pdfrwt beam="2">  1       -1 0.16227914E+00 0.79953808E+03</pdfrwt>
<totfact> 0.11011908E+01</totfact>
</mgrwt>
</event>
<event>
 4    2  0.3396630E-007  0.8388158E+03  0.7818608E-02  0.9632417E-01
         -1   -1    0    0    0  501 -0.00000000000E+00  0.00000000000E+00  0.14622308546E+04  0.14622308547E+04  0.50400000000E-02 0.  1.
          1   -1    0    0  501    0  0.00000000000E+00 -0.00000000000E+00 -0.99308227123E+03  0.99308227124E+03  0.50400000000E-02 0. -1.
    8880023    1    1    2    0    0 -0.39358776140E+03  0.33895484846E+03  0.12498364647E+04  0.15052252688E+04  0.65864270000E+03 0.  1.
    8880022    1    1    2    0    0  0.39358776140E+03 -0.33895484846E+03 -0.78068788125E+03  0.95008785708E+03  0.15294330000E+03 0.  0.
<mgrwt>
<rscale>  0 0.75187252E+03</rscale>
<asrwt>0</asrwt>
<pdfrwt beam="1">  1        1 0.15278189E+00 0.83881579E+03</pdfrwt>
<pdfrwt beam="2">  1       -1 0.22495859E+00 0.83881579E+03</pdfrwt>
<totfact> 0.16098374E+00</totfact>
</mgrwt>
</event>
<event>
 4    2  0.3396630E-007  0.7056696E+03  0.7818608E-02  0.9974447E-01
         -1   -1    0    0    0  501 -0.00000000000E+00  0.00000000000E+00  0.95118421907E+03  0.95118421909E+03  0.50400000000E-02 0.  1.
          1   -1    0    0  501    0  0.00000000000E+00 -0.00000000000E+00 -0.48017916651E+03  0.48017916654E+03  0.50400000000E-02 0. -1.
    8880023    1    1    2    0    0  0.23140943583E+03 -0.10299995422E+03  0.74638002372E+03  0.10271575651E+04  0.65864270000E+03 0.  1.
    8880022    1    1    2    0    0 -0.23140943583E+03  0.10299995422E+03 -0.27537497115E+03  0.40420582048E+03  0.15294330000E+03 0.  0.
<mgrwt>
<rscale>  0 0.56785004E+03</rscale>
<asrwt>0</asrwt>
<pdfrwt beam="1">  1        1 0.73873718E-01 0.70566956E+03</pdfrwt>
<pdfrwt beam="2">  1       -1 0.14633603E+00 0.70566956E+03</pdfrwt>
<totfact> 0.18028335E+01</totfact>
</mgrwt>
</event>
<event>
 4    2  0.4828782E-007  0.7684268E+03  0.7818608E-02  0.9783760E-01
         -1   -1    0    0    0  501 -0.00000000000E+00  0.00000000000E+00  0.10483958947E+04  0.10483958947E+04  0.50400000000E-02 0.  1.
          1   -1    0    0  501    0  0.00000000000E+00 -0.00000000000E+00 -0.99126242198E+03  0.99126242199E+03  0.50400000000E-02 0. -1.
    8880023    1    1    2    0    0  0.51540431050E+01 -0.39578156945E+03  0.84662738778E+03  0.11433537313E+04  0.65864270000E+03 0.  0.
    8880022    1    1    2    0    0 -0.51540431050E+01  0.39578156945E+03 -0.78949391506E+03  0.89630458540E+03  0.15294330000E+03 0.  0.
<mgrwt>
<rscale>  0 0.66241390E+03</rscale>
<asrwt>0</asrwt>
<pdfrwt beam="1">  1        1 0.15250191E+00 0.76842685E+03</pdfrwt>
<pdfrwt beam="2">  1       -1 0.16129168E+00 0.76842685E+03</pdfrwt>
<totfact> 0.45426012E+00</totfact>
</mgrwt>
</event>
<event>
 4    2  0.3396630E-007  0.8740725E+03  0.7818608E-02  0.9569005E-01
         -1   -1    0    0    0  501 -0.00000000000E+00  0.00000000000E+00  0.67129786385E+03  0.67129786387E+03  0.50400000000E-02 0.  1.
          1   -1    0    0  501    0  0.00000000000E+00 -0.00000000000E+00 -0.14531800431E+04  0.14531800431E+04  0.50400000000E-02 0. -1.
    8880023    1    1    2    0    0  0.55961964322E+03  0.13045481574E+03 -0.11352629850E+04  0.14327682490E+04  0.65864270000E+03 0. -1.
    8880022    1    1    2    0    0 -0.55961964322E+03 -0.13045481574E+03  0.35338080575E+03  0.69170965796E+03  0.15294330000E+03 0.  0.
<mgrwt>
<rscale>  0 0.79382034E+03</rscale>
<asrwt>0</asrwt>
<pdfrwt beam="1">  1        1 0.22356616E+00 0.87407254E+03</pdfrwt>
<pdfrwt beam="2">  1       -1 0.10327659E+00 0.87407254E+03</pdfrwt>
<totfact> 0.63711981E+00</totfact>
</mgrwt>
</event>
<event>
 4    2  0.3396630E-007  0.7090929E+03  0.7818608E-02  0.9961385E-01
         -1   -1    0    0    0  501 -0.00000000000E+00  0.00000000000E+00  0.12322199088E+04  0.12322199088E+04  0.50400000000E-02 0.  1.
          1   -1    0    0  501    0  0.00000000000E+00 -0.00000000000E+00 -0.43144307193E+03  0.43144307196E+03  0.50400000000E-02 0. -1.
    8880023    1    1    2    0    0 -0.25213014150E+03 -0.73708497905E+02  0.10524442369E+04  0.12690357083E+04  0.65864270000E+03 0.  0.
    8880022    1    1    2    0    0  0.25213014150E+03  0.73708497905E+02 -0.25166740003E+03  0.39462727246E+03  0.15294330000E+03 0.  0.
<mgrwt>
<rscale>  0 0.57376354E+03</rscale>
<asrwt>0</asrwt>
<pdfrwt beam="1">  1        1 0.66375858E-01 0.70909291E+03</pdfrwt>
<pdfrwt beam="2">  1       -1 0.18957229E+00 0.70909291E+03</pdfrwt>
<totfact> 0.99957035E+00</totfact>
</mgrwt>
</event>
<event>
 4    2  0.3396630E-007  0.8574543E+03  0.7818608E-02  0.9598108E-01
          1   -1    0    0  501    0  0.00000000000E+00  0.00000000000E+00  0.12062485506E+04  0.12062485507E+04  0.50400000000E-02 0. -1.
         -1   -1    0    0    0  501 -0.00000000000E+00 -0.00000000000E+00 -0.21543867163E+04  0.21543867163E+04  0.50400000000E-02 0.  1.
    8880023    1    1    2    0    0 -0.54252959132E+03  0.84138490379E+02 -0.19934576031E+04  0.21700463277E+04  0.65864270000E+03 0.  1.
    8880022    1    1    2    0    0  0.54252959132E+03 -0.84138490379E+02  0.10453194374E+04  0.11905889392E+04  0.15294330000E+03 0.  0.
<mgrwt>
<rscale>  0 0.77421537E+03</rscale>
<asrwt>0</asrwt>
<pdfrwt beam="1">  1        1 0.18557670E+00 0.85745428E+03</pdfrwt>
<pdfrwt beam="2">  1       -1 0.33144411E+00 0.85745428E+03</pdfrwt>
<totfact> 0.22813645E-01</totfact>
</mgrwt>
</event>
<event>
 4    2  0.3396630E-007  0.7934746E+03  0.7818608E-02  0.9725087E-01
          1   -1    0    0  501    0  0.00000000000E+00  0.00000000000E+00  0.27560669150E+04  0.27560669150E+04  0.50400000000E-02 0. -1.
         -1   -1    0    0    0  501 -0.00000000000E+00 -0.00000000000E+00 -0.27870248494E+03  0.27870248498E+03  0.50400000000E-02 0.  1.
    8880023    1    1    2    0    0 -0.43712675701E+03 -0.68643075348E+02  0.36905024350E+03  0.87509997256E+03  0.65864270000E+03 0.  0.
    8880022    1    1    2    0    0  0.43712675701E+03  0.68643075348E+02  0.21083141866E+04  0.21596694275E+04  0.15294330000E+03 0.  0.
<mgrwt>
<rscale>  0 0.69542563E+03</rscale>
<asrwt>0</asrwt>
<pdfrwt beam="1">  1        1 0.42401031E+00 0.79347456E+03</pdfrwt>
<pdfrwt beam="2">  1       -1 0.42877304E-01 0.79347456E+03</pdfrwt>
<totfact> 0.50633808E+00</totfact>
</mgrwt>
</event>
<event>
 4    2  0.3396630E-007  0.9115796E+03  0.7818608E-02  0.9507693E-01
          1   -1    0    0  501    0  0.00000000000E+00  0.00000000000E+00  0.14311817435E+04  0.14311817435E+04  0.50400000000E-02 0. -1.
         -1   -1    0    0    0  501 -0.00000000000E+00 -0.00000000000E+00 -0.21783019218E+04  0.21783019218E+04  0.50400000000E-02 0.  1.
    8880023    1    1    2    0    0 -0.11757585118E+02  0.63010227744E+03 -0.20004266421E+04  0.21983366616E+04  0.65864270000E+03 0.  1.
    8880022    1    1    2    0    0  0.11757585118E+02 -0.63010227744E+03  0.12533064638E+04  0.14111470037E+04  0.15294330000E+03 0.  0.
<mgrwt>
<rscale>  0 0.83719047E+03</rscale>
<asrwt>0</asrwt>
<pdfrwt beam="1">  1        1 0.22018181E+00 0.91157958E+03</pdfrwt>
<pdfrwt beam="2">  1       -1 0.33512337E+00 0.91157958E+03</pdfrwt>
<totfact> 0.14791191E-01</totfact>
</mgrwt>
</event>
<event>
 4    2  0.3396630E-007  0.1107272E+04  0.7818608E-02  0.9253002E-01
         -1   -1    0    0    0  501 -0.00000000000E+00  0.00000000000E+00  0.61572907550E+03  0.61572907552E+03  0.50400000000E-02 0.  1.
          1   -1    0    0  501    0  0.00000000000E+00 -0.00000000000E+00 -0.27786241797E+04  0.27786241797E+04  0.50400000000E-02 0. -1.
    8880023    1    1    2    0    0  0.87782009241E+03 -0.14721826550E+03 -0.63670491595E+02  0.11091011992E+04  0.65864270000E+03 0.  1.
    8880022    1    1    2    0    0 -0.87782009241E+03  0.14721826550E+03 -0.20992246126E+04  0.22852520560E+04  0.15294330000E+03 0.  0.
<mgrwt>
<rscale>  0 0.10522710E+04</rscale>
<asrwt>0</asrwt>
<pdfrwt beam="1">  1        1 0.42748064E+00 0.11072721E+04</pdfrwt>
<pdfrwt beam="2">  1       -1 0.94727552E-01 0.11072721E+04</pdfrwt>
<totfact> 0.93650722E-01</totfact>
</mgrwt>
</event>
<event>
 4    2  0.3396630E-007  0.7847834E+03  0.7818608E-02  0.9744718E-01
         -1   -1    0    0    0  501 -0.00000000000E+00  0.00000000000E+00  0.98611871352E+03  0.98611871354E+03  0.50400000000E-02 0.  1.
          1   -1    0    0  501    0  0.00000000000E+00 -0.00000000000E+00 -0.85182218172E+03  0.85182218174E+03  0.50400000000E-02 0. -1.
    8880023    1    1    2    0    0 -0.98431680055E+02 -0.41519399089E+03  0.74185375616E+03  0.10799222414E+04  0.65864270000E+03 0.  0.
    8880022    1    1    2    0    0  0.98431680055E+02  0.41519399089E+03 -0.60755722436E+03  0.75801865386E+03  0.15294330000E+03 0.  0.
<mgrwt>
<rscale>  0 0.68415578E+03</rscale>
<asrwt>0</asrwt>
<pdfrwt beam="1">  1        1 0.13104957E+00 0.78478344E+03</pdfrwt>
<pdfrwt beam="2">  1       -1 0.15171057E+00 0.78478344E+03</pdfrwt>
<totfact> 0.69457287E+00</totfact>
</mgrwt>
</event>
<event>
 4    2  0.3396630E-007  0.1292404E+04  0.7818608E-02  0.9072147E-01
          1   -1    0    0  501    0  0.00000000000E+00  0.00000000000E+00  0.16492893717E+04  0.16492893717E+04  0.50400000000E-02 0. -1.
         -1   -1    0    0    0  501 -0.00000000000E+00 -0.00000000000E+00 -0.11848878528E+04  0.11848878528E+04  0.50400000000E-02 0.  1.
    8880023    1    1    2    0    0  0.87781691898E+03 -0.68259447973E+03  0.95724217111E+03  0.16082974064E+04  0.65864270000E+03 0.  0.
    8880022    1    1    2    0    0 -0.87781691898E+03  0.68259447973E+03 -0.49284065214E+03  0.12258798181E+04  0.15294330000E+03 0.  0.
<mgrwt>
<rscale>  0 0.12476428E+04</rscale>
<asrwt>0</asrwt>
<pdfrwt beam="1">  1        1 0.25373682E+00 0.12924040E+04</pdfrwt>
<pdfrwt beam="2">  1       -1 0.18229044E+00 0.12924040E+04</pdfrwt>
<totfact> 0.10027578E+00</totfact>
</mgrwt>
</event>
<event>
 4    2  0.3396630E-007  0.7748927E+03  0.7818608E-02  0.9767974E-01
         -1   -1    0    0    0  501 -0.00000000000E+00  0.00000000000E+00  0.13741291267E+04  0.13741291268E+04  0.50400000000E-02 0.  1.
          1   -1    0    0  501    0  0.00000000000E+00 -0.00000000000E+00 -0.35868947686E+03  0.35868947690E+03  0.50400000000E-02 0. -1.
    8880023    1    1    2    0    0 -0.18479340941E+03 -0.36400538430E+03  0.18770102938E+03  0.79730195450E+03  0.65864270000E+03 0. -1.
    8880022    1    1    2    0    0  0.18479340941E+03  0.36400538430E+03  0.82773862050E+03  0.93551664915E+03  0.15294330000E+03 0.  0.
<mgrwt>
<rscale>  0 0.67109942E+03</rscale>
<asrwt>0</asrwt>
<pdfrwt beam="1">  1        1 0.55182996E-01 0.77489272E+03</pdfrwt>
<pdfrwt beam="2">  1       -1 0.21140448E+00 0.77489272E+03</pdfrwt>
<totfact> 0.89780288E+00</totfact>
</mgrwt>
</event>
<event>
 4    2  0.3396630E-007  0.8370379E+03  0.7818608E-02  0.9635791E-01
          1   -1    0    0  501    0  0.00000000000E+00  0.00000000000E+00  0.47784765427E+03  0.47784765430E+03  0.50400000000E-02 0. -1.
         -1   -1    0    0    0  501 -0.00000000000E+00 -0.00000000000E+00 -0.14254389020E+04  0.14254389020E+04  0.50400000000E-02 0.  1.
    8880023    1    1    2    0    0  0.19198563181E+02  0.51619152337E+03 -0.10623473460E+04  0.13524845150E+04  0.65864270000E+03 0.  0.
    8880022    1    1    2    0    0 -0.19198563181E+02 -0.51619152337E+03  0.11475609820E+03  0.55080204132E+03  0.15294330000E+03 0.  0.
<mgrwt>
<rscale>  0 0.74971920E+03</rscale>
<asrwt>0</asrwt>
<pdfrwt beam="1">  1        1 0.73515024E-01 0.83703792E+03</pdfrwt>
<pdfrwt beam="2">  1       -1 0.21929829E+00 0.83703792E+03</pdfrwt>
<totfact> 0.53782066E+00</totfact>
</mgrwt>
</event>
<event>
 4    2  0.3396630E-007  0.6739796E+03  0.7818608E-02  0.1012957E+00
          1   -1    0    0  501    0  0.00000000000E+00  0.00000000000E+00  0.38349761406E+04  0.38349761406E+04  0.50400000000E-02 0. -1.
         -1   -1    0    0    0  501 -0.00000000000E+00 -0.00000000000E+00 -0.54862346413E+02  0.54862346644E+02  0.50400000000E-02 0.  1.
    8880023    1    1    2    0    0 -0.13730329496E+03 -0.39825079660E+02  0.23591767345E+04  0.24535613509E+04  0.65864270000E+03 0.  1.
    8880022    1    1    2    0    0  0.13730329496E+03  0.39825079660E+02  0.14209370597E+04  0.14362771364E+04  0.15294330000E+03 0.  1.
<mgrwt>
<rscale>  0 0.50316026E+03</rscale>
<asrwt>0</asrwt>
<pdfrwt beam="1">  1        1 0.58999642E+00 0.67397955E+03</pdfrwt>
<pdfrwt beam="2">  1       -1 0.84403597E-02 0.67397955E+03</pdfrwt>
<totfact> 0.12117265E+01</totfact>
</mgrwt>
</event>
<event>
 4    2  0.3396630E-007  0.1327495E+04  0.7818608E-02  0.9042172E-01
         -1   -1    0    0    0  501 -0.00000000000E+00  0.00000000000E+00  0.17040175926E+04  0.17040175926E+04  0.50400000000E-02 0.  1.
          1   -1    0    0  501    0  0.00000000000E+00 -0.00000000000E+00 -0.20841116551E+04  0.20841116551E+04  0.50400000000E-02 0. -1.
    8880023    1    1    2    0    0 -0.10653522931E+04  0.43983877786E+03  0.12248866125E+04  0.18062643989E+04  0.65864270000E+03 0.  0.
    8880022    1    1    2    0    0  0.10653522931E+04 -0.43983877786E+03 -0.16049806750E+04  0.19818648488E+04  0.15294330000E+03 0.  0.
<mgrwt>
<rscale>  0 0.12842212E+04</rscale>
<asrwt>0</asrwt>
<pdfrwt beam="1">  1        1 0.32063256E+00 0.13274953E+04</pdfrwt>
<pdfrwt beam="2">  1       -1 0.26215655E+00 0.13274953E+04</pdfrwt>
<totfact> 0.14650503E-01</totfact>
</mgrwt>
</event>
<event>
 4    2  0.3396630E-007  0.1298317E+04  0.7818608E-02  0.9067014E-01
          1   -1    0    0  501    0  0.00000000000E+00  0.00000000000E+00  0.22512171644E+04  0.22512171644E+04  0.50400000000E-02 0. -1.
         -1   -1    0    0    0  501 -0.00000000000E+00 -0.00000000000E+00 -0.16122767206E+04  0.16122767206E+04  0.50400000000E-02 0.  1.
    8880023    1    1    2    0    0  0.32895010505E+03 -0.10693965833E+04 -0.11589737018E+04  0.17403584320E+04  0.65864270000E+03 0.  1.
    8880022    1    1    2    0    0 -0.32895010505E+03  0.10693965833E+04  0.17979141456E+04  0.21231354530E+04  0.15294330000E+03 0.  0.
<mgrwt>
<rscale>  0 0.12538144E+04</rscale>
<asrwt>0</asrwt>
<pdfrwt beam="1">  1        1 0.34634110E+00 0.12983172E+04</pdfrwt>
<pdfrwt beam="2">  1       -1 0.24804257E+00 0.12983172E+04</pdfrwt>
<totfact> 0.13994361E-01</totfact>
</mgrwt>
</event>
<event>
 4    2  0.3396630E-007  0.8972823E+03  0.7818608E-02  0.9530409E-01
         -1   -1    0    0    0  501 -0.00000000000E+00  0.00000000000E+00  0.19763025360E+03  0.19763025367E+03  0.50400000000E-02 0.  1.
          1   -1    0    0  501    0  0.00000000000E+00 -0.00000000000E+00 -0.31068212665E+04  0.31068212665E+04  0.50400000000E-02 0. -1.
    8880023    1    1    2    0    0 -0.10063159277E+03  0.60098130876E+03 -0.20703639393E+04  0.22564401828E+04  0.65864270000E+03 0.  1.
    8880022    1    1    2    0    0  0.10063159277E+03 -0.60098130876E+03 -0.83882707359E+03  0.10480113374E+04  0.15294330000E+03 0. -1.
<mgrwt>
<rscale>  0 0.82078569E+03</rscale>
<asrwt>0</asrwt>
<pdfrwt beam="1">  1        1 0.47797247E+00 0.89728226E+03</pdfrwt>
<pdfrwt beam="2">  1       -1 0.30404657E-01 0.89728226E+03</pdfrwt>
<totfact> 0.51861241E+00</totfact>
</mgrwt>
</event>
<event>
 4    2  0.3396630E-007  0.6929302E+03  0.7818608E-02  0.1002790E+00
         -1   -1    0    0    0  501 -0.00000000000E+00  0.00000000000E+00  0.92877554498E+03  0.92877554499E+03  0.50400000000E-02 0.  1.
          1   -1    0    0  501    0  0.00000000000E+00 -0.00000000000E+00 -0.26131025349E+03  0.26131025354E+03  0.50400000000E-02 0. -1.
    8880023    1    1    2    0    0  0.63301473905E+02 -0.20575464599E+03  0.34737715221E+03  0.77512782371E+03  0.65864270000E+03 0. -1.
    8880022    1    1    2    0    0 -0.63301473905E+02  0.20575464599E+03  0.32008813928E+03  0.41495797482E+03  0.15294330000E+03 0.  0.
<mgrwt>
<rscale>  0 0.54443678E+03</rscale>
<asrwt>0</asrwt>
<pdfrwt beam="1">  1        1 0.40201577E-01 0.69293020E+03</pdfrwt>
<pdfrwt beam="2">  1       -1 0.14288855E+00 0.69293020E+03</pdfrwt>
<totfact> 0.42765079E+01</totfact>
</mgrwt>
</event>
<event>
 4    2  0.3396630E-007  0.7830710E+03  0.7818608E-02  0.9748672E-01
         -1   -1    0    0    0  501 -0.00000000000E+00  0.00000000000E+00  0.35182163992E+03  0.35182163996E+03  0.50400000000E-02 0.  1.
          1   -1    0    0  501    0  0.00000000000E+00 -0.00000000000E+00 -0.21411367352E+04  0.21411367352E+04  0.50400000000E-02 0. -1.
    8880023    1    1    2    0    0  0.29846510721E+03 -0.30051390059E+03 -0.15568166480E+03  0.79839652535E+03  0.65864270000E+03 0.  1.
    8880022    1    1    2    0    0 -0.29846510721E+03  0.30051390059E+03 -0.16336334304E+04  0.16945618498E+04  0.15294330000E+03 0.  0.
<mgrwt>
<rscale>  0 0.68191376E+03</rscale>
<asrwt>0</asrwt>
<pdfrwt beam="1">  1        1 0.32940564E+00 0.78307103E+03</pdfrwt>
<pdfrwt beam="2">  1       -1 0.54126408E-01 0.78307103E+03</pdfrwt>
<totfact> 0.85935609E+00</totfact>
</mgrwt>
</event>
<event>
 4    2  0.3396630E-007  0.7232865E+03  0.7818608E-02  0.9911618E-01
         -1   -1    0    0    0  501 -0.00000000000E+00  0.00000000000E+00  0.11496913898E+04  0.11496913898E+04  0.50400000000E-02 0.  1.
          1   -1    0    0  501    0  0.00000000000E+00 -0.00000000000E+00 -0.30138551381E+03  0.30138551385E+03  0.50400000000E-02 0. -1.
    8880023    1    1    2    0    0 -0.22537018175E+03 -0.19631982372E+03  0.84901103652E+03  0.11153309547E+04  0.65864270000E+03 0.  1.
    8880022    1    1    2    0    0  0.22537018175E+03  0.19631982372E+03 -0.70516053807E+00  0.33574594900E+03  0.15294330000E+03 0.  0.
<mgrwt>
<rscale>  0 0.59701499E+03</rscale>
<asrwt>0</asrwt>
<pdfrwt beam="1">  1        1 0.46367002E-01 0.72328653E+03</pdfrwt>
<pdfrwt beam="2">  1       -1 0.17687560E+00 0.72328653E+03</pdfrwt>
<totfact> 0.19653970E+01</totfact>
</mgrwt>
</event>
<event>
 4    2  0.3396630E-007  0.7408584E+03  0.7818608E-02  0.9857454E-01
          1   -1    0    0  501    0  0.00000000000E+00  0.00000000000E+00  0.42476880894E+03  0.42476880897E+03  0.50400000000E-02 0. -1.
         -1   -1    0    0    0  501 -0.00000000000E+00 -0.00000000000E+00 -0.73766216542E+03  0.73766216543E+03  0.50400000000E-02 0.  1.
    8880023    1    1    2    0    0  0.29811375490E+03 -0.16183082212E+03 -0.14827642926E+03  0.75555087955E+03  0.65864270000E+03 0. -1.
    8880022    1    1    2    0    0 -0.29811375490E+03  0.16183082212E+03 -0.16461692722E+03  0.40688009485E+03  0.15294330000E+03 0.  1.
<mgrwt>
<rscale>  0 0.62368327E+03</rscale>
<asrwt>0</asrwt>
<pdfrwt beam="1">  1        1 0.65349048E-01 0.74085844E+03</pdfrwt>
<pdfrwt beam="2">  1       -1 0.11348649E+00 0.74085844E+03</pdfrwt>
<totfact> 0.40119224E+01</totfact>
</mgrwt>
</event>
<event>
 4    2  0.3396630E-007  0.7038774E+03  0.7818608E-02  0.9981481E-01
          1   -1    0    0  501    0  0.00000000000E+00  0.00000000000E+00  0.45511560079E+03  0.45511560081E+03  0.50400000000E-02 0. -1.
         -1   -1    0    0    0  501 -0.00000000000E+00 -0.00000000000E+00 -0.10830943090E+04  0.10830943090E+04  0.50400000000E-02 0.  1.
    8880023    1    1    2    0    0  0.22934510812E+03 -0.95047041108E+02 -0.89787227193E+03  0.11408847188E+04  0.65864270000E+03 0.  1.
    8880022    1    1    2    0    0 -0.22934510812E+03  0.95047041108E+02  0.26989356374E+03  0.39732519100E+03  0.15294330000E+03 0.  1.
<mgrwt>
<rscale>  0 0.56469758E+03</rscale>
<asrwt>0</asrwt>
<pdfrwt beam="1">  1        1 0.70017785E-01 0.70387735E+03</pdfrwt>
<pdfrwt beam="2">  1       -1 0.16662989E+00 0.70387735E+03</pdfrwt>
<totfact> 0.13589812E+01</totfact>
</mgrwt>
</event>
<event>
 4    2  0.3396630E-007  0.6891098E+03  0.7818608E-02  0.1004579E+00
          1   -1    0    0  501    0  0.00000000000E+00  0.00000000000E+00  0.19101509728E+03  0.19101509734E+03  0.50400000000E-02 0. -1.
         -1   -1    0    0    0  501 -0.00000000000E+00 -0.00000000000E+00 -0.18809128344E+04  0.18809128344E+04  0.50400000000E-02 0.  1.
    8880023    1    1    2    0    0  0.12882710206E+03 -0.15641530638E+03 -0.16822656453E+04  0.18179356639E+04  0.65864270000E+03 0.  1.
    8880022    1    1    2    0    0 -0.12882710206E+03  0.15641530638E+03 -0.76320917955E+01  0.25399226787E+03  0.15294330000E+03 0.  0.
<mgrwt>
<rscale>  0 0.53687407E+03</rscale>
<asrwt>0</asrwt>
<pdfrwt beam="1">  1        1 0.29386939E-01 0.68910984E+03</pdfrwt>
<pdfrwt beam="2">  1       -1 0.28937119E+00 0.68910984E+03</pdfrwt>
<totfact> 0.64248805E+00</totfact>
</mgrwt>
</event>
<event>
 4    2  0.3690481E-007  0.6622718E+03  0.7818608E-02  0.1021941E+00
         -1   -1    0    0    0  501 -0.00000000000E+00  0.00000000000E+00  0.16781594034E+04  0.16781594034E+04  0.50400000000E-02 0.  1.
          1   -1    0    0  501    0  0.00000000000E+00 -0.00000000000E+00 -0.18179289558E+04  0.18179289558E+04  0.50400000000E-02 0. -1.
    8880023    1    1    2    0    0  0.25051456346E+02 -0.64546048127E+02  0.16086415361E+04  0.17396354692E+04  0.65864270000E+03 0.  1.
    8880022    1    1    2    0    0 -0.25051456346E+02  0.64546048127E+02 -0.17484110884E+04  0.17564528900E+04  0.15294330000E+03 0.  0.
<mgrwt>
<rscale>  0 0.46992687E+03</rscale>
<asrwt>0</asrwt>
<pdfrwt beam="1">  1        1 0.27968138E+00 0.66227183E+03</pdfrwt>
<pdfrwt beam="2">  1       -1 0.25817837E+00 0.66227183E+03</pdfrwt>
<totfact> 0.26774339E-01</totfact>
</mgrwt>
</event>
<event>
 4    2  0.3396630E-007  0.9736373E+03  0.7818608E-02  0.9416891E-01
          1   -1    0    0  501    0  0.00000000000E+00  0.00000000000E+00  0.12787059776E+04  0.12787059776E+04  0.50400000000E-02 0. -1.
         -1   -1    0    0    0  501 -0.00000000000E+00 -0.00000000000E+00 -0.15710479131E+04  0.15710479131E+04  0.50400000000E-02 0.  1.
    8880023    1    1    2    0    0  0.68462404835E+03  0.21318840323E+03 -0.12871755704E+04  0.16139363488E+04  0.65864270000E+03 0.  0.
    8880022    1    1    2    0    0 -0.68462404835E+03 -0.21318840323E+03  0.99483363480E+03  0.12358175419E+04  0.15294330000E+03 0.  0.
<mgrwt>
<rscale>  0 0.90698554E+03</rscale>
<asrwt>0</asrwt>
<pdfrwt beam="1">  1        1 0.19672400E+00 0.97363730E+03</pdfrwt>
<pdfrwt beam="2">  1       -1 0.24169968E+00 0.97363730E+03</pdfrwt>
<totfact> 0.74990520E-01</totfact>
</mgrwt>
</event>
<event>
 4    2  0.3396630E-007  0.7350941E+03  0.7818608E-02  0.9874475E-01
          1   -1    0    0  501    0  0.00000000000E+00  0.00000000000E+00  0.42305968057E+04  0.42305968057E+04  0.50400000000E-02 0. -1.
         -1   -1    0    0    0  501 -0.00000000000E+00 -0.00000000000E+00 -0.83054674739E+02  0.83054674892E+02  0.50400000000E-02 0.  1.
    8880023    1    1    2    0    0  0.84887914966E+02  0.31519380139E+03  0.34612407636E+04  0.35384390514E+04  0.65864270000E+03 0. -1.
    8880022    1    1    2    0    0 -0.84887914966E+02 -0.31519380139E+03  0.68630136740E+03  0.77521242925E+03  0.15294330000E+03 0.  0.
<mgrwt>
<rscale>  0 0.61514434E+03</rscale>
<asrwt>0</asrwt>
<pdfrwt beam="1">  1        1 0.65086106E+00 0.73509407E+03</pdfrwt>
<pdfrwt beam="2">  1       -1 0.12777642E-01 0.73509407E+03</pdfrwt>
<totfact> 0.28075797E+00</totfact>
</mgrwt>
</event>
<event>
 4    2  0.3396630E-007  0.6696799E+03  0.7818608E-02  0.1015893E+00
         -1   -1    0    0    0  501 -0.00000000000E+00  0.00000000000E+00  0.18853321179E+03  0.18853321186E+03  0.50400000000E-02 0.  1.
          1   -1    0    0  501    0  0.00000000000E+00 -0.00000000000E+00 -0.15134088458E+04  0.15134088458E+04  0.50400000000E-02 0. -1.
    8880023    1    1    2    0    0 -0.11232244542E+03  0.45217165170E+02 -0.45298612359E+03  0.80849709845E+03  0.65864270000E+03 0.  1.
    8880022    1    1    2    0    0  0.11232244542E+03 -0.45217165170E+02 -0.87188951040E+03  0.89344495921E+03  0.15294330000E+03 0.  0.
<mgrwt>
<rscale>  0 0.49198113E+03</rscale>
<asrwt>0</asrwt>
<pdfrwt beam="1">  1        1 0.23283212E+00 0.66967987E+03</pdfrwt>
<pdfrwt beam="2">  1       -1 0.29005111E-01 0.66967987E+03</pdfrwt>
<totfact> 0.71672265E+01</totfact>
</mgrwt>
</event>
<event>
 4    2  0.3396630E-007  0.6625550E+03  0.7818608E-02  0.1021679E+00
         -1   -1    0    0    0  501 -0.00000000000E+00  0.00000000000E+00  0.88881070755E+03  0.88881070757E+03  0.50400000000E-02 0.  1.
          1   -1    0    0  501    0  0.00000000000E+00 -0.00000000000E+00 -0.29224839262E+03  0.29224839266E+03  0.50400000000E-02 0. -1.
    8880023    1    1    2    0    0 -0.42911829099E+02 -0.57684793491E+02  0.71492816701E+03  0.97473147622E+03  0.65864270000E+03 0.  1.
    8880022    1    1    2    0    0  0.42911829099E+02  0.57684793491E+02 -0.11836585208E+03  0.20632762401E+03  0.15294330000E+03 0.  0.
<mgrwt>
<rscale>  0 0.47085524E+03</rscale>
<asrwt>0</asrwt>
<pdfrwt beam="1">  1        1 0.44961292E-01 0.66255503E+03</pdfrwt>
<pdfrwt beam="2">  1       -1 0.13674011E+00 0.66255503E+03</pdfrwt>
<totfact> 0.41603559E+01</totfact>
</mgrwt>
</event>
<event>
 4    2  0.3396630E-007  0.7593624E+03  0.7818608E-02  0.9806761E-01
         -1   -1    0    0    0  501 -0.00000000000E+00  0.00000000000E+00  0.30421188190E+03  0.30421188194E+03  0.50400000000E-02 0.  1.
          1   -1    0    0  501    0  0.00000000000E+00 -0.00000000000E+00 -0.23236561840E+04  0.23236561840E+04  0.50400000000E-02 0. -1.
    8880023    1    1    2    0    0 -0.13920015555E+03 -0.35134644055E+03 -0.23125845531E+03  0.79379574451E+03  0.65864270000E+03 0.  0.
    8880022    1    1    2    0    0  0.13920015555E+03  0.35134644055E+03 -0.17881858468E+04  0.18340723214E+04  0.15294330000E+03 0.  0.
<mgrwt>
<rscale>  0 0.65000967E+03</rscale>
<asrwt>0</asrwt>
<pdfrwt beam="1">  1        1 0.35748556E+00 0.75936237E+03</pdfrwt>
<pdfrwt beam="2">  1       -1 0.46801829E-01 0.75936237E+03</pdfrwt>
<totfact> 0.85676376E+00</totfact>
</mgrwt>
</event>
<event>
 4    2  0.3396630E-007  0.9871725E+03  0.7818608E-02  0.9398536E-01
         -1   -1    0    0    0  501 -0.00000000000E+00  0.00000000000E+00  0.97529553581E+03  0.97529553583E+03  0.50400000000E-02 0.  1.
          1   -1    0    0  501    0  0.00000000000E+00 -0.00000000000E+00 -0.20815257041E+04  0.20815257041E+04  0.50400000000E-02 0. -1.
    8880023    1    1    2    0    0 -0.58052350580E+03  0.45132221493E+03  0.62589796307E+03  0.11688702875E+04  0.65864270000E+03 0.  1.
    8880022    1    1    2    0    0  0.58052350580E+03 -0.45132221493E+03 -0.17321281313E+04  0.18879509525E+04  0.15294330000E+03 0.  0.
<mgrwt>
<rscale>  0 0.92196284E+03</rscale>
<asrwt>0</asrwt>
<pdfrwt beam="1">  1        1 0.32023472E+00 0.98717247E+03</pdfrwt>
<pdfrwt beam="2">  1       -1 0.15004547E+00 0.98717247E+03</pdfrwt>
<totfact> 0.92754121E-01</totfact>
</mgrwt>
</event>
<event>
 4    2  0.3396630E-007  0.1063462E+04  0.7818608E-02  0.9302871E-01
          1   -1    0    0  501    0  0.00000000000E+00  0.00000000000E+00  0.22239251106E+04  0.22239251106E+04  0.50400000000E-02 0. -1.
         -1   -1    0    0    0  501 -0.00000000000E+00 -0.00000000000E+00 -0.52965694367E+03  0.52965694369E+03  0.50400000000E-02 0.  1.
    8880023    1    1    2    0    0  0.15655337395E+03 -0.82014147816E+03  0.27270159840E+03  0.10978694691E+04  0.65864270000E+03 0.  0.
    8880022    1    1    2    0    0 -0.15655337395E+03  0.82014147816E+03  0.14215665685E+04  0.16557125852E+04  0.15294330000E+03 0.  0.
<mgrwt>
<rscale>  0 0.10051900E+04</rscale>
<asrwt>0</asrwt>
<pdfrwt beam="1">  1        1 0.34214233E+00 0.10634619E+04</pdfrwt>
<pdfrwt beam="2">  1       -1 0.81485683E-01 0.10634619E+04</pdfrwt>
<totfact> 0.31650221E+00</totfact>
</mgrwt>
</event>
<event>
 4    2  0.3396630E-007  0.1370068E+04  0.7818608E-02  0.9007297E-01
         -1   -1    0    0    0  501 -0.00000000000E+00  0.00000000000E+00  0.12319585840E+04  0.12319585840E+04  0.50400000000E-02 0.  1.
          1   -1    0    0  501    0  0.00000000000E+00 -0.00000000000E+00 -0.14802997270E+04  0.14802997270E+04  0.50400000000E-02 0. -1.
    8880023    1    1    2    0    0 -0.49221536012E+03 -0.10959009144E+04  0.26746238629E+03  0.13959301950E+04  0.65864270000E+03 0.  0.
    8880022    1    1    2    0    0  0.49221536012E+03  0.10959009144E+04 -0.51580352935E+03  0.13163281160E+04  0.15294330000E+03 0.  0.
<mgrwt>
<rscale>  0 0.13284582E+04</rscale>
<asrwt>0</asrwt>
<pdfrwt beam="1">  1        1 0.22773842E+00 0.13700675E+04</pdfrwt>
<pdfrwt beam="2">  1       -1 0.18953209E+00 0.13700675E+04</pdfrwt>
<totfact> 0.11553635E+00</totfact>
</mgrwt>
</event>
<event>
 4    2  0.3396630E-007  0.8856323E+03  0.7818608E-02  0.9549502E-01
          1   -1    0    0  501    0  0.00000000000E+00  0.00000000000E+00  0.10844473365E+04  0.10844473366E+04  0.50400000000E-02 0. -1.
         -1   -1    0    0    0  501 -0.00000000000E+00 -0.00000000000E+00 -0.10940574594E+04  0.10940574594E+04  0.50400000000E-02 0.  1.
    8880023    1    1    2    0    0  0.33991489569E+02 -0.59108279579E+03 -0.79020326237E+03  0.11869143587E+04  0.65864270000E+03 0.  1.
    8880022    1    1    2    0    0 -0.33991489569E+02  0.59108279579E+03  0.78059313949E+03  0.99159043726E+03  0.15294330000E+03 0.  0.
<mgrwt>
<rscale>  0 0.80730617E+03</rscale>
<asrwt>0</asrwt>
<pdfrwt beam="1">  1        1 0.16683805E+00 0.88563226E+03</pdfrwt>
<pdfrwt beam="2">  1       -1 0.16831653E+00 0.88563226E+03</pdfrwt>
<totfact> 0.33591345E+00</totfact>
</mgrwt>
</event>
<event>
 4    2  0.3396630E-007  0.7823304E+03  0.7818608E-02  0.9750391E-01
         -1   -1    0    0    0  501 -0.00000000000E+00  0.00000000000E+00  0.38405595897E+03  0.38405595900E+03  0.50400000000E-02 0.  1.
          1   -1    0    0  501    0  0.00000000000E+00 -0.00000000000E+00 -0.13970328722E+04  0.13970328722E+04  0.50400000000E-02 0. -1.
    8880023    1    1    2    0    0  0.40186211640E+03 -0.12937357958E+03 -0.10731612259E+04  0.13280496627E+04  0.65864270000E+03 0.  0.
    8880022    1    1    2    0    0 -0.40186211640E+03  0.12937357958E+03  0.60184312627E+02  0.45303916850E+03  0.15294330000E+03 0.  0.
<mgrwt>
<rscale>  0 0.68094180E+03</rscale>
<asrwt>0</asrwt>
<pdfrwt beam="1">  1        1 0.21492813E+00 0.78233042E+03</pdfrwt>
<pdfrwt beam="2">  1       -1 0.59085533E-01 0.78233042E+03</pdfrwt>
<totfact> 0.23050445E+01</totfact>
</mgrwt>
</event>
<event>
 4    2  0.3396630E-007  0.7534233E+03  0.7818608E-02  0.9822441E-01
         -1   -1    0    0    0  501 -0.00000000000E+00  0.00000000000E+00  0.14813181537E+03  0.14813181545E+03  0.50400000000E-02 0.  1.
          1   -1    0    0  501    0  0.00000000000E+00 -0.00000000000E+00 -0.26344756096E+04  0.26344756097E+04  0.50400000000E-02 0. -1.
    8880023    1    1    2    0    0 -0.44031594260E+02 -0.36317718484E+03 -0.10487150462E+04  0.12912977593E+04  0.65864270000E+03 0.  0.
    8880022    1    1    2    0    0  0.44031594260E+02  0.36317718484E+03 -0.14376287481E+04  0.14913096658E+04  0.15294330000E+03 0.  0.
<mgrwt>
<rscale>  0 0.64171997E+03</rscale>
<asrwt>0</asrwt>
<pdfrwt beam="1">  1        1 0.40530390E+00 0.75342329E+03</pdfrwt>
<pdfrwt beam="2">  1       -1 0.22789512E-01 0.75342329E+03</pdfrwt>
<totfact> 0.18800411E+01</totfact>
</mgrwt>
</event>
<event>
 4    2  0.3396630E-007  0.6640071E+03  0.7818608E-02  0.1020381E+00
         -1   -1    0    0    0  501 -0.00000000000E+00  0.00000000000E+00  0.10194598761E+04  0.10194598761E+04  0.50400000000E-02 0.  1.
          1   -1    0    0  501    0  0.00000000000E+00 -0.00000000000E+00 -0.18083800417E+03  0.18083800424E+03  0.50400000000E-02 0. -1.
    8880023    1    1    2    0    0  0.14203573741E+02  0.83026854980E+02  0.75881657903E+03  0.10083193973E+04  0.65864270000E+03 0.  0.
    8880022    1    1    2    0    0 -0.14203573741E+02 -0.83026854980E+02  0.79805292894E+02  0.19197848302E+03  0.15294330000E+03 0.  0.
<mgrwt>
<rscale>  0 0.47549243E+03</rscale>
<asrwt>0</asrwt>
<pdfrwt beam="1">  1        1 0.27821231E-01 0.66400708E+03</pdfrwt>
<pdfrwt beam="2">  1       -1 0.15683999E+00 0.66400708E+03</pdfrwt>
<totfact> 0.53789428E+01</totfact>
</mgrwt>
</event>
<event>
 4    2  0.3396630E-007  0.6964715E+03  0.7818608E-02  0.1001217E+00
          1   -1    0    0  501    0  0.00000000000E+00  0.00000000000E+00  0.19565932999E+03  0.19565933005E+03  0.50400000000E-02 0. -1.
         -1   -1    0    0    0  501 -0.00000000000E+00 -0.00000000000E+00 -0.13888170644E+04  0.13888170644E+04  0.50400000000E-02 0.  1.
    8880023    1    1    2    0    0 -0.18973555704E+03 -0.12354275940E+03 -0.10877577782E+04  0.12916228495E+04  0.65864270000E+03 0.  0.
    8880022    1    1    2    0    0  0.18973555704E+03  0.12354275940E+03 -0.10539995617E+03  0.29285354494E+03  0.15294330000E+03 0.  0.
<mgrwt>
<rscale>  0 0.55119999E+03</rscale>
<asrwt>0</asrwt>
<pdfrwt beam="1">  1        1 0.30101436E-01 0.69647154E+03</pdfrwt>
<pdfrwt beam="2">  1       -1 0.21366416E+00 0.69647154E+03</pdfrwt>
<totfact> 0.19206557E+01</totfact>
</mgrwt>
</event>
<event>
 4    2  0.3396630E-007  0.8871257E+03  0.7818608E-02  0.9547023E-01
         -1   -1    0    0    0  501 -0.00000000000E+00  0.00000000000E+00  0.42506176229E+03  0.42506176232E+03  0.50400000000E-02 0.  1.
          1   -1    0    0  501    0  0.00000000000E+00 -0.00000000000E+00 -0.29751784855E+04  0.29751784855E+04  0.50400000000E-02 0. -1.
    8880023    1    1    2    0    0  0.43803953276E+03 -0.40162568527E+03 -0.12163519385E+03  0.89542568088E+03  0.65864270000E+03 0.  0.
    8880022    1    1    2    0    0 -0.43803953276E+03  0.40162568527E+03 -0.24284815294E+04  0.25048145669E+04  0.15294330000E+03 0.  0.
<mgrwt>
<rscale>  0 0.80904018E+03</rscale>
<asrwt>0</asrwt>
<pdfrwt beam="1">  1        1 0.45771975E+00 0.88712571E+03</pdfrwt>
<pdfrwt beam="2">  1       -1 0.65394119E-01 0.88712571E+03</pdfrwt>
<totfact> 0.15470040E+00</totfact>
</mgrwt>
</event>
<event>
 4    2  0.3396630E-007  0.6765500E+03  0.7818608E-02  0.1011347E+00
          1   -1    0    0  501    0  0.00000000000E+00  0.00000000000E+00  0.95997032766E+03  0.95997032767E+03  0.50400000000E-02 0. -1.
         -1   -1    0    0    0  501 -0.00000000000E+00 -0.00000000000E+00 -0.65528834925E+03  0.65528834927E+03  0.50400000000E-02 0.  1.
    8880023    1    1    2    0    0  0.43556700218E+02 -0.14836629436E+03 -0.46139662415E+03  0.81890585202E+03  0.65864270000E+03 0.  1.
    8880022    1    1    2    0    0 -0.43556700218E+02  0.14836629436E+03  0.76607860256E+03  0.79635282492E+03  0.15294330000E+03 0.  0.
<mgrwt>
<rscale>  0 0.50942961E+03</rscale>
<asrwt>0</asrwt>
<pdfrwt beam="1">  1        1 0.14768774E+00 0.67655003E+03</pdfrwt>
<pdfrwt beam="2">  1       -1 0.10081359E+00 0.67655003E+03</pdfrwt>
<totfact> 0.15834724E+01</totfact>
</mgrwt>
</event>
<event>
 4    2  0.3396630E-007  0.8738320E+03  0.7818608E-02  0.9569417E-01
          1   -1    0    0  501    0  0.00000000000E+00  0.00000000000E+00  0.10759655314E+04  0.10759655314E+04  0.50400000000E-02 0. -1.
         -1   -1    0    0    0  501 -0.00000000000E+00 -0.00000000000E+00 -0.96498252012E+03  0.96498252013E+03  0.50400000000E-02 0.  1.
    8880023    1    1    2    0    0 -0.30661853829E+03  0.48554841122E+03 -0.64010085989E+03  0.10831950446E+04  0.65864270000E+03 0.  1.
    8880022    1    1    2    0    0  0.30661853829E+03 -0.48554841122E+03  0.75108387116E+03  0.95775300688E+03  0.15294330000E+03 0.  0.
<mgrwt>
<rscale>  0 0.79353848E+03</rscale>
<asrwt>0</asrwt>
<pdfrwt beam="1">  1        1 0.16553316E+00 0.87383202E+03</pdfrwt>
<pdfrwt beam="2">  1       -1 0.14845885E+00 0.87383202E+03</pdfrwt>
<totfact> 0.48318459E+00</totfact>
</mgrwt>
</event>
<event>
 4    2  0.3396630E-007  0.7145514E+03  0.7818608E-02  0.9941473E-01
         -1   -1    0    0    0  501 -0.00000000000E+00  0.00000000000E+00  0.26368993223E+03  0.26368993228E+03  0.50400000000E-02 0.  1.
          1   -1    0    0  501    0  0.00000000000E+00 -0.00000000000E+00 -0.15494855078E+04  0.15494855078E+04  0.50400000000E-02 0. -1.
    8880023    1    1    2    0    0  0.26136975504E+03  0.91974929558E+02 -0.29498603650E+03  0.77304624991E+03  0.65864270000E+03 0.  0.
    8880022    1    1    2    0    0 -0.26136975504E+03 -0.91974929558E+02 -0.99080953911E+03  0.10401291902E+04  0.15294330000E+03 0.  1.
<mgrwt>
<rscale>  0 0.58292774E+03</rscale>
<asrwt>0</asrwt>
<pdfrwt beam="1">  1        1 0.23838238E+00 0.71455143E+03</pdfrwt>
<pdfrwt beam="2">  1       -1 0.40567683E-01 0.71455143E+03</pdfrwt>
<totfact> 0.37146483E+01</totfact>
</mgrwt>
</event>
<event>
 4    2  0.3396630E-007  0.9417190E+03  0.7818608E-02  0.9462130E-01
         -1   -1    0    0    0  501 -0.00000000000E+00  0.00000000000E+00  0.39896657651E+03  0.39896657654E+03  0.50400000000E-02 0.  1.
          1   -1    0    0  501    0  0.00000000000E+00 -0.00000000000E+00 -0.25086938373E+04  0.25086938373E+04  0.50400000000E-02 0. -1.
    8880023    1    1    2    0    0  0.22122328475E+03  0.63567654234E+03 -0.32849003960E+03  0.99736669314E+03  0.65864270000E+03 0.  0.
    8880022    1    1    2    0    0 -0.22122328475E+03 -0.63567654234E+03 -0.17812372211E+04  0.19102937207E+04  0.15294330000E+03 0.  0.
<mgrwt>
<rscale>  0 0.87134328E+03</rscale>
<asrwt>0</asrwt>
<pdfrwt beam="1">  1        1 0.38595289E+00 0.94171897E+03</pdfrwt>
<pdfrwt beam="2">  1       -1 0.61379475E-01 0.94171897E+03</pdfrwt>
<totfact> 0.36955451E+00</totfact>
</mgrwt>
</event>
<event>
 4    2  0.3396630E-007  0.7684012E+03  0.7818608E-02  0.9783824E-01
          1   -1    0    0  501    0  0.00000000000E+00  0.00000000000E+00  0.15513992195E+04  0.15513992195E+04  0.50400000000E-02 0. -1.
         -1   -1    0    0    0  501 -0.00000000000E+00 -0.00000000000E+00 -0.52190126532E+03  0.52190126535E+03  0.50400000000E-02 0.  1.
    8880023    1    1    2    0    0  0.39576382174E+03 -0.10786892234E+01 -0.18199383485E+03  0.78965950153E+03  0.65864270000E+03 0.  0.
    8880022    1    1    2    0    0 -0.39576382174E+03  0.10786892234E+01  0.12114917891E+04  0.12836409834E+04  0.15294330000E+03 0.  0.
<mgrwt>
<rscale>  0 0.66237916E+03</rscale>
<asrwt>0</asrwt>
<pdfrwt beam="1">  1        1 0.23867680E+00 0.76840118E+03</pdfrwt>
<pdfrwt beam="2">  1       -1 0.80292502E-01 0.76840118E+03</pdfrwt>
<totfact> 0.96694135E+00</totfact>
</mgrwt>
</event>
<event>
 4    2  0.3396630E-007  0.6726281E+03  0.7818608E-02  0.1013845E+00
         -1   -1    0    0    0  501 -0.00000000000E+00  0.00000000000E+00  0.32550742691E+03  0.32550742695E+03  0.50400000000E-02 0.  1.
          1   -1    0    0  501    0  0.00000000000E+00 -0.00000000000E+00 -0.71002588294E+03  0.71002588296E+03  0.50400000000E-02 0. -1.
    8880023    1    1    2    0    0 -0.61666715136E+01  0.13630960386E+03 -0.92786257399E+02  0.67899766698E+03  0.65864270000E+03 0.  0.
    8880022    1    1    2    0    0  0.61666715136E+01 -0.13630960386E+03 -0.29173219863E+03  0.35653564293E+03  0.15294330000E+03 0. -1.
<mgrwt>
<rscale>  0 0.49974714E+03</rscale>
<asrwt>0</asrwt>
<pdfrwt beam="1">  1        1 0.10923475E+00 0.67262809E+03</pdfrwt>
<pdfrwt beam="2">  1       -1 0.50078066E-01 0.67262809E+03</pdfrwt>
<totfact> 0.10921099E+02</totfact>
</mgrwt>
</event>
<event>
 4    2  0.3396630E-007  0.8081668E+03  0.7818608E-02  0.9693408E-01
          1   -1    0    0  501    0  0.00000000000E+00  0.00000000000E+00  0.72471056807E+03  0.72471056809E+03  0.50400000000E-02 0. -1.
         -1   -1    0    0    0  501 -0.00000000000E+00 -0.00000000000E+00 -0.58561109168E+03  0.58561109171E+03  0.50400000000E-02 0.  1.
    8880023    1    1    2    0    0  0.46565338271E+03 -0.49902174964E+02  0.50376862145E+02  0.80973534837E+03  0.65864270000E+03 0.  0.
    8880022    1    1    2    0    0 -0.46565338271E+03  0.49902174964E+02  0.88722614242E+02  0.50058631143E+03  0.15294330000E+03 0. -1.
<mgrwt>
<rscale>  0 0.71410620E+03</rscale>
<asrwt>0</asrwt>
<pdfrwt beam="1">  1        1 0.11149393E+00 0.80816676E+03</pdfrwt>
<pdfrwt beam="2">  1       -1 0.90094014E-01 0.80816676E+03</pdfrwt>
<totfact> 0.31722300E+01</totfact>
</mgrwt>
</event>
<event>
 4    2  0.3396630E-007  0.7849216E+03  0.7818608E-02  0.9744401E-01
          1   -1    0    0  501    0  0.00000000000E+00  0.00000000000E+00  0.18834251367E+04  0.18834251368E+04  0.50400000000E-02 0. -1.
         -1   -1    0    0    0  501 -0.00000000000E+00 -0.00000000000E+00 -0.43927153511E+03  0.43927153514E+03  0.50400000000E-02 0.  1.
    8880023    1    1    2    0    0 -0.33593711227E+03  0.26351078646E+03 -0.24813088737E+02  0.78531367849E+03  0.65864270000E+03 0.  1.
    8880022    1    1    2    0    0  0.33593711227E+03 -0.26351078646E+03  0.14689666904E+04  0.15373829934E+04  0.15294330000E+03 0.  0.
<mgrwt>
<rscale>  0 0.68433632E+03</rscale>
<asrwt>0</asrwt>
<pdfrwt beam="1">  1        1 0.28975771E+00 0.78492158E+03</pdfrwt>
<pdfrwt beam="2">  1       -1 0.67580237E-01 0.78492158E+03</pdfrwt>
<totfact> 0.82416408E+00</totfact>
</mgrwt>
</event>
<event>
 4    2  0.3396630E-007  0.1487872E+04  0.7818608E-02  0.8918248E-01
         -1   -1    0    0    0  501 -0.00000000000E+00  0.00000000000E+00  0.14400754214E+04  0.14400754214E+04  0.50400000000E-02 0.  1.
          1   -1    0    0  501    0  0.00000000000E+00 -0.00000000000E+00 -0.38798814202E+04  0.38798814202E+04  0.50400000000E-02 0. -1.
    8880023    1    1    2    0    0 -0.98569770007E+03  0.89908421169E+03  0.88709550974E+03  0.17322531643E+04  0.65864270000E+03 0.  0.
    8880022    1    1    2    0    0  0.98569770007E+03 -0.89908421169E+03 -0.33269015085E+04  0.35877036773E+04  0.15294330000E+03 0.  0.
<mgrwt>
<rscale>  0 0.14502202E+04</rscale>
<asrwt>0</asrwt>
<pdfrwt beam="1">  1        1 0.59690483E+00 0.14878718E+04</pdfrwt>
<pdfrwt beam="2">  1       -1 0.22155007E+00 0.14878718E+04</pdfrwt>
<totfact> 0.12541192E-02</totfact>
</mgrwt>
</event>
<event>
 4    2  0.3396630E-007  0.9687256E+03  0.7818608E-02  0.9423669E-01
          1   -1    0    0  501    0  0.00000000000E+00  0.00000000000E+00  0.38283915495E+04  0.38283915495E+04  0.50400000000E-02 0. -1.
         -1   -1    0    0    0  501 -0.00000000000E+00 -0.00000000000E+00 -0.20638729668E+03  0.20638729674E+03  0.50400000000E-02 0.  1.
    8880023    1    1    2    0    0  0.66765171452E+03 -0.24261115767E+03  0.14446986509E+04  0.17394204161E+04  0.65864270000E+03 0.  0.
    8880022    1    1    2    0    0 -0.66765171452E+03  0.24261115767E+03  0.21773056020E+04  0.22953584302E+04  0.15294330000E+03 0.  1.
<mgrwt>
<rscale>  0 0.90153149E+03</rscale>
<asrwt>0</asrwt>
<pdfrwt beam="1">  1        1 0.58898325E+00 0.96872555E+03</pdfrwt>
<pdfrwt beam="2">  1       -1 0.31751895E-01 0.96872555E+03</pdfrwt>
<totfact> 0.13104074E+00</totfact>
</mgrwt>
</event>
<event>
 4    2  0.3396630E-007  0.7213959E+03  0.7818608E-02  0.9917891E-01
         -1   -1    0    0    0  501 -0.00000000000E+00  0.00000000000E+00  0.40516222073E+03  0.40516222076E+03  0.50400000000E-02 0.  1.
          1   -1    0    0  501    0  0.00000000000E+00 -0.00000000000E+00 -0.11829878287E+04  0.11829878287E+04  0.50400000000E-02 0. -1.
    8880023    1    1    2    0    0  0.11369791557E+03 -0.27143081860E+03  0.22584630758E+02  0.72174938663E+03  0.65864270000E+03 0.  1.
    8880022    1    1    2    0    0 -0.11369791557E+03  0.27143081860E+03 -0.80041023870E+03  0.86640066281E+03  0.15294330000E+03 0.  0.
<mgrwt>
<rscale>  0 0.59402015E+03</rscale>
<asrwt>0</asrwt>
<pdfrwt beam="1">  1        1 0.18199813E+00 0.72139595E+03</pdfrwt>
<pdfrwt beam="2">  1       -1 0.62332650E-01 0.72139595E+03</pdfrwt>
<totfact> 0.29634330E+01</totfact>
</mgrwt>
</event>
<event>
 4    2  0.3396630E-007  0.7870433E+03  0.7818608E-02  0.9739545E-01
          1   -1    0    0  501    0  0.00000000000E+00  0.00000000000E+00  0.71378018940E+03  0.71378018942E+03  0.50400000000E-02 0. -1.
         -1   -1    0    0    0  501 -0.00000000000E+00 -0.00000000000E+00 -0.85624158099E+03  0.85624158101E+03  0.50400000000E-02 0.  1.
    8880023    1    1    2    0    0 -0.27089375631E+03  0.33502771478E+03 -0.54788671820E+03  0.95896666215E+03  0.65864270000E+03 0.  0.
    8880022    1    1    2    0    0  0.27089375631E+03 -0.33502771478E+03  0.40542532661E+03  0.61105510827E+03  0.15294330000E+03 0.  0.
<mgrwt>
<rscale>  0 0.68710342E+03</rscale>
<asrwt>0</asrwt>
<pdfrwt beam="1">  1        1 0.10981234E+00 0.78704333E+03</pdfrwt>
<pdfrwt beam="2">  1       -1 0.13172947E+00 0.78704333E+03</pdfrwt>
<totfact> 0.13287309E+01</totfact>
</mgrwt>
</event>
<event>
 4    2  0.3396630E-007  0.1128545E+04  0.7818608E-02  0.9229921E-01
          1   -1    0    0  501    0  0.00000000000E+00  0.00000000000E+00  0.43869912939E+04  0.43869912939E+04  0.50400000000E-02 0. -1.
         -1   -1    0    0    0  501 -0.00000000000E+00 -0.00000000000E+00 -0.35336608094E+03  0.35336608098E+03  0.50400000000E-02 0.  1.
    8880023    1    1    2    0    0  0.23946257456E+03 -0.88456867978E+03  0.81965575154E+03  0.13947938311E+04  0.65864270000E+03 0.  1.
    8880022    1    1    2    0    0 -0.23946257456E+03  0.88456867978E+03  0.32139694614E+04  0.33455635438E+04  0.15294330000E+03 0.  0.
<mgrwt>
<rscale>  0 0.10749862E+04</rscale>
<asrwt>0</asrwt>
<pdfrwt beam="1">  1        1 0.67492175E+00 0.11285452E+04</pdfrwt>
<pdfrwt beam="2">  1       -1 0.54364011E-01 0.11285452E+04</pdfrwt>
<totfact> 0.14918604E-01</totfact>
</mgrwt>
</event>
<event>
 4    2  0.3396630E-007  0.7881572E+03  0.7818608E-02  0.9737013E-01
         -1   -1    0    0    0  501 -0.00000000000E+00  0.00000000000E+00  0.42555096182E+03  0.42555096185E+03  0.50400000000E-02 0.  1.
          1   -1    0    0  501    0  0.00000000000E+00 -0.00000000000E+00 -0.10195387372E+04  0.10195387373E+04  0.50400000000E-02 0. -1.
    8880023    1    1    2    0    0  0.34933595352E+03 -0.25562855413E+03 -0.14202575442E+03  0.80085147643E+03  0.65864270000E+03 0.  1.
    8880022    1    1    2    0    0 -0.34933595352E+03  0.25562855413E+03 -0.45196202100E+03  0.64423822267E+03  0.15294330000E+03 0. -1.
<mgrwt>
<rscale>  0 0.68855171E+03</rscale>
<asrwt>0</asrwt>
<pdfrwt beam="1">  1        1 0.15685211E+00 0.78815720E+03</pdfrwt>
<pdfrwt beam="2">  1       -1 0.65469379E-01 0.78815720E+03</pdfrwt>
<totfact> 0.35319358E+01</totfact>
</mgrwt>
</event>
<event>
 4    2  0.3396630E-007  0.7029852E+03  0.7818608E-02  0.9985036E-01
          1   -1    0    0  501    0  0.00000000000E+00  0.00000000000E+00  0.39358548509E+03  0.39358548512E+03  0.50400000000E-02 0. -1.
         -1   -1    0    0    0  501 -0.00000000000E+00 -0.00000000000E+00 -0.72101660793E+03  0.72101660795E+03  0.50400000000E-02 0.  1.
    8880023    1    1    2    0    0 -0.21572804510E+03 -0.11764075121E+03 -0.40976098566E+03  0.81369048625E+03  0.65864270000E+03 0.  1.
    8880022    1    1    2    0    0  0.21572804510E+03  0.11764075121E+03  0.82329862814E+02  0.30091160681E+03  0.15294330000E+03 0.  0.
<mgrwt>
<rscale>  0 0.56311282E+03</rscale>
<asrwt>0</asrwt>
<pdfrwt beam="1">  1        1 0.60551613E-01 0.70298516E+03</pdfrwt>
<pdfrwt beam="2">  1       -1 0.11092563E+00 0.70298516E+03</pdfrwt>
<totfact> 0.47020382E+01</totfact>
</mgrwt>
</event>
<event>
 4    2  0.3396630E-007  0.7937502E+03  0.7818608E-02  0.9724476E-01
         -1   -1    0    0    0  501 -0.00000000000E+00  0.00000000000E+00  0.23539716199E+03  0.23539716205E+03  0.50400000000E-02 0.  1.
          1   -1    0    0  501    0  0.00000000000E+00 -0.00000000000E+00 -0.20182846845E+04  0.20182846846E+04  0.50400000000E-02 0. -1.
    8880023    1    1    2    0    0  0.87736469144E+02 -0.43420216249E+03 -0.64399536120E+03  0.10221396370E+04  0.65864270000E+03 0.  1.
    8880022    1    1    2    0    0 -0.87736469144E+02  0.43420216249E+03 -0.11388921614E+04  0.12315422096E+04  0.15294330000E+03 0.  0.
<mgrwt>
<rscale>  0 0.69578024E+03</rscale>
<asrwt>0</asrwt>
<pdfrwt beam="1">  1        1 0.31050532E+00 0.79375022E+03</pdfrwt>
<pdfrwt beam="2">  1       -1 0.36214949E-01 0.79375022E+03</pdfrwt>
<totfact> 0.21857770E+01</totfact>
</mgrwt>
</event>
<event>
 4    2  0.3396630E-007  0.8872643E+03  0.7818608E-02  0.9546794E-01
          1   -1    0    0  501    0  0.00000000000E+00  0.00000000000E+00  0.17826101468E+04  0.17826101468E+04  0.50400000000E-02 0. -1.
         -1   -1    0    0    0  501 -0.00000000000E+00 -0.00000000000E+00 -0.51703281883E+03  0.51703281885E+03  0.50400000000E-02 0.  1.
    8880023    1    1    2    0    0  0.28242776051E+03  0.52312747601E+03 -0.64009440141E+01  0.88728742491E+03  0.65864270000E+03 0.  1.
    8880022    1    1    2    0    0 -0.28242776051E+03 -0.52312747601E+03  0.12719782720E+04  0.14123555407E+04  0.15294330000E+03 0.  0.
<mgrwt>
<rscale>  0 0.80920104E+03</rscale>
<asrwt>0</asrwt>
<pdfrwt beam="1">  1        1 0.27424772E+00 0.88726434E+03</pdfrwt>
<pdfrwt beam="2">  1       -1 0.79543510E-01 0.88726434E+03</pdfrwt>
<totfact> 0.67651400E+00</totfact>
</mgrwt>
</event>
<event>
 4    2  0.3396630E-007  0.1025947E+04  0.7818608E-02  0.9348371E-01
         -1   -1    0    0    0  501 -0.00000000000E+00  0.00000000000E+00  0.13789422135E+04  0.13789422135E+04  0.50400000000E-02 0.  1.
          1   -1    0    0  501    0  0.00000000000E+00 -0.00000000000E+00 -0.93058409840E+03  0.93058409842E+03  0.50400000000E-02 0. -1.
    8880023    1    1    2    0    0 -0.51105514053E+03 -0.59798036978E+03 -0.43720326718E+03  0.11152196117E+04  0.65864270000E+03 0.  0.
    8880022    1    1    2    0    0  0.51105514053E+03  0.59798036978E+03  0.88556138225E+03  0.11943067002E+04  0.15294330000E+03 0.  0.
<mgrwt>
<rscale>  0 0.96449137E+03</rscale>
<asrwt>0</asrwt>
<pdfrwt beam="1">  1        1 0.14316679E+00 0.10259474E+04</pdfrwt>
<pdfrwt beam="2">  1       -1 0.21214495E+00 0.10259474E+04</pdfrwt>
<totfact> 0.21393551E+00</totfact>
</mgrwt>
</event>
<event>
 4    2  0.3396630E-007  0.7379049E+03  0.7818608E-02  0.9866092E-01
          1   -1    0    0  501    0  0.00000000000E+00  0.00000000000E+00  0.74835213017E+03  0.74835213019E+03  0.50400000000E-02 0. -1.
         -1   -1    0    0    0  501 -0.00000000000E+00 -0.00000000000E+00 -0.19740857449E+04  0.19740857449E+04  0.50400000000E-02 0.  1.
    8880023    1    1    2    0    0  0.17713697826E+03  0.28163088087E+03 -0.18538880048E+04  0.19953456850E+04  0.65864270000E+03 0.  1.
    8880022    1    1    2    0    0 -0.17713697826E+03 -0.28163088087E+03  0.62815439006E+03  0.72709219009E+03  0.15294330000E+03 0.  0.
<mgrwt>
<rscale>  0 0.61933108E+03</rscale>
<asrwt>0</asrwt>
<pdfrwt beam="1">  1        1 0.11513110E+00 0.73790492E+03</pdfrwt>
<pdfrwt beam="2">  1       -1 0.30370550E+00 0.73790492E+03</pdfrwt>
<totfact> 0.81481786E-01</totfact>
</mgrwt>
</event>
<event>
 4    2  0.3396630E-007  0.6737378E+03  0.7818608E-02  0.1013114E+00
          1   -1    0    0  501    0  0.00000000000E+00  0.00000000000E+00  0.36127644517E+03  0.36127644520E+03  0.50400000000E-02 0. -1.
         -1   -1    0    0    0  501 -0.00000000000E+00 -0.00000000000E+00 -0.54250767709E+03  0.54250767712E+03  0.50400000000E-02 0.  1.
    8880023    1    1    2    0    0  0.11693397125E+03  0.80242376655E+02 -0.17026785315E+03  0.69491995274E+03  0.65864270000E+03 0.  0.
    8880022    1    1    2    0    0 -0.11693397125E+03 -0.80242376655E+02 -0.10963378778E+02  0.20886416958E+03  0.15294330000E+03 0.  1.
<mgrwt>
<rscale>  0 0.50255591E+03</rscale>
<asrwt>0</asrwt>
<pdfrwt beam="1">  1        1 0.55580991E-01 0.67373778E+03</pdfrwt>
<pdfrwt beam="2">  1       -1 0.83462720E-01 0.67373778E+03</pdfrwt>
<totfact> 0.10000239E+02</totfact>
</mgrwt>
</event>
<event>
 4    2  0.3396630E-007  0.1329909E+04  0.7818608E-02  0.9040153E-01
         -1   -1    0    0    0  501 -0.00000000000E+00  0.00000000000E+00  0.11546616820E+04  0.11546616820E+04  0.50400000000E-02 0.  1.
          1   -1    0    0  501    0  0.00000000000E+00 -0.00000000000E+00 -0.19917499732E+04  0.19917499732E+04  0.50400000000E-02 0. -1.
    8880023    1    1    2    0    0  0.50960227565E+03  0.10368956491E+04  0.45573541709E+03  0.14058278853E+04  0.65864270000E+03 0.  0.
    8880022    1    1    2    0    0 -0.50960227565E+03 -0.10368956491E+04 -0.12928237083E+04  0.17405837700E+04  0.15294330000E+03 0.  0.
<mgrwt>
<rscale>  0 0.12867329E+04</rscale>
<asrwt>0</asrwt>
<pdfrwt beam="1">  1        1 0.30642307E+00 0.13299087E+04</pdfrwt>
<pdfrwt beam="2">  1       -1 0.17764026E+00 0.13299087E+04</pdfrwt>
<totfact> 0.63089098E-01</totfact>
</mgrwt>
</event>
<event>
 4    2  0.3396630E-007  0.6874121E+03  0.7818608E-02  0.1005408E+00
         -1   -1    0    0    0  501 -0.00000000000E+00  0.00000000000E+00  0.39150458071E+03  0.39150458074E+03  0.50400000000E-02 0.  1.
          1   -1    0    0  501    0  0.00000000000E+00 -0.00000000000E+00 -0.10003120112E+04  0.10003120112E+04  0.50400000000E-02 0. -1.
    8880023    1    1    2    0    0 -0.18871448302E+03 -0.55785093834E+02  0.48224989620E+02  0.68910158082E+03  0.65864270000E+03 0.  1.
    8880022    1    1    2    0    0  0.18871448302E+03  0.55785093834E+02 -0.65703242013E+03  0.70271501116E+03  0.15294330000E+03 0.  0.
<mgrwt>
<rscale>  0 0.53341347E+03</rscale>
<asrwt>0</asrwt>
<pdfrwt beam="1">  1        1 0.15389415E+00 0.68741206E+03</pdfrwt>
<pdfrwt beam="2">  1       -1 0.60231474E-01 0.68741206E+03</pdfrwt>
<totfact> 0.43612862E+01</totfact>
</mgrwt>
</event>
<event>
 4    2  0.3396630E-007  0.7366561E+03  0.7818608E-02  0.9869797E-01
          1   -1    0    0  501    0  0.00000000000E+00  0.00000000000E+00  0.12489740707E+04  0.12489740707E+04  0.50400000000E-02 0. -1.
         -1   -1    0    0    0  501 -0.00000000000E+00 -0.00000000000E+00 -0.40709876860E+03  0.40709876863E+03  0.50400000000E-02 0.  1.
    8880023    1    1    2    0    0  0.32984471390E+03 -0.73760112816E+01 -0.25626343530E+01  0.73666051488E+03  0.65864270000E+03 0.  1.
    8880022    1    1    2    0    0 -0.32984471390E+03  0.73760112816E+01  0.84443793649E+03  0.91941232449E+03  0.15294330000E+03 0.  0.
<mgrwt>
<rscale>  0 0.61747646E+03</rscale>
<asrwt>0</asrwt>
<pdfrwt beam="1">  1        1 0.19214986E+00 0.73665606E+03</pdfrwt>
<pdfrwt beam="2">  1       -1 0.62630580E-01 0.73665606E+03</pdfrwt>
<totfact> 0.26262308E+01</totfact>
</mgrwt>
</event>
<event>
 4    2  0.3396630E-007  0.6590929E+03  0.7818608E-02  0.1025106E+00
          1   -1    0    0  501    0  0.00000000000E+00  0.00000000000E+00  0.65885606773E+03  0.65885606775E+03  0.50400000000E-02 0. -1.
         -1   -1    0    0    0  501 -0.00000000000E+00 -0.00000000000E+00 -0.44240731898E+03  0.44240731901E+03  0.50400000000E-02 0.  1.
    8880023    1    1    2    0    0 -0.20727885833E+02 -0.12791467332E+02 -0.17361799740E+03  0.68157661504E+03  0.65864270000E+03 0.  1.
    8880022    1    1    2    0    0  0.20727885833E+02  0.12791467332E+02  0.39006674615E+03  0.41968677172E+03  0.15294330000E+03 0.  0.
<mgrwt>
<rscale>  0 0.45888332E+03</rscale>
<asrwt>0</asrwt>
<pdfrwt beam="1">  1        1 0.10136247E+00 0.65909292E+03</pdfrwt>
<pdfrwt beam="2">  1       -1 0.68062665E-01 0.65909292E+03</pdfrwt>
<totfact> 0.67104934E+01</totfact>
</mgrwt>
</event>
<event>
 4    2  0.3396630E-007  0.7591637E+03  0.7818608E-02  0.9807277E-01
          1   -1    0    0  501    0  0.00000000000E+00  0.00000000000E+00  0.10692039281E+04  0.10692039281E+04  0.50400000000E-02 0. -1.
         -1   -1    0    0    0  501 -0.00000000000E+00 -0.00000000000E+00 -0.56111135289E+03  0.56111135291E+03  0.50400000000E-02 0.  1.
    8880023    1    1    2    0    0 -0.15177667011E+03  0.34566329708E+03 -0.22487879602E+03  0.79177013817E+03  0.65864270000E+03 0.  1.
    8880022    1    1    2    0    0  0.15177667011E+03 -0.34566329708E+03  0.73297137125E+03  0.83854514287E+03  0.15294330000E+03 0.  0.
<mgrwt>
<rscale>  0 0.64973451E+03</rscale>
<asrwt>0</asrwt>
<pdfrwt beam="1">  1        1 0.16449291E+00 0.75916367E+03</pdfrwt>
<pdfrwt beam="2">  1       -1 0.86324824E-01 0.75916367E+03</pdfrwt>
<totfact> 0.18225815E+01</totfact>
</mgrwt>
</event>
<event>
 4    2  0.3396630E-007  0.7350341E+03  0.7818608E-02  0.9874656E-01
          1   -1    0    0  501    0  0.00000000000E+00  0.00000000000E+00  0.21727245482E+04  0.21727245482E+04  0.50400000000E-02 0. -1.
         -1   -1    0    0    0  501 -0.00000000000E+00 -0.00000000000E+00 -0.17598701301E+03  0.17598701308E+03  0.50400000000E-02 0.  1.
    8880023    1    1    2    0    0 -0.27522830334E+03 -0.17525504928E+03  0.74672937853E+03  0.10477976533E+04  0.65864270000E+03 0.  0.
    8880022    1    1    2    0    0  0.27522830334E+03  0.17525504928E+03  0.12500081567E+04  0.13009139080E+04  0.15294330000E+03 0.  1.
<mgrwt>
<rscale>  0 0.61505454E+03</rscale>
<asrwt>0</asrwt>
<pdfrwt beam="1">  1        1 0.33426531E+00 0.73503412E+03</pdfrwt>
<pdfrwt beam="2">  1       -1 0.27074926E-01 0.73503412E+03</pdfrwt>
<totfact> 0.28922550E+01</totfact>
</mgrwt>
</event>
<event>
 4    2  0.3396630E-007  0.7752171E+03  0.7818608E-02  0.9767194E-01
          1   -1    0    0  501    0  0.00000000000E+00  0.00000000000E+00  0.17897269327E+04  0.17897269328E+04  0.50400000000E-02 0. -1.
         -1   -1    0    0    0  501 -0.00000000000E+00 -0.00000000000E+00 -0.27103513638E+03  0.27103513643E+03  0.50400000000E-02 0.  1.
    8880023    1    1    2    0    0  0.76591470721E+01 -0.40876981222E+03  0.42700457308E+03  0.88503928366E+03  0.65864270000E+03 0.  0.
    8880022    1    1    2    0    0 -0.76591470721E+01  0.40876981222E+03  0.10916872233E+04  0.11757227855E+04  0.15294330000E+03 0.  0.
<mgrwt>
<rscale>  0 0.67153194E+03</rscale>
<asrwt>0</asrwt>
<pdfrwt beam="1">  1        1 0.27534260E+00 0.77521715E+03</pdfrwt>
<pdfrwt beam="2">  1       -1 0.41697714E-01 0.77521715E+03</pdfrwt>
<totfact> 0.24139993E+01</totfact>
</mgrwt>
</event>
<event>
 4    2  0.3431090E-007  0.7829286E+03  0.7818608E-02  0.9749002E-01
          1   -1    0    0  501    0  0.00000000000E+00  0.00000000000E+00  0.90167284421E+03  0.90167284422E+03  0.50400000000E-02 0. -1.
         -1   -1    0    0    0  501 -0.00000000000E+00 -0.00000000000E+00 -0.10732585509E+04  0.10732585510E+04  0.50400000000E-02 0.  1.
    8880023    1    1    2    0    0  0.36769396213E+02  0.42168119665E+03 -0.85329581052E+03  0.11580548202E+04  0.65864270000E+03 0.  1.
    8880022    1    1    2    0    0 -0.36769396213E+02 -0.42168119665E+03  0.68171010379E+03  0.81687657496E+03  0.15294330000E+03 0.  0.
<mgrwt>
<rscale>  0 0.68172698E+03</rscale>
<asrwt>0</asrwt>
<pdfrwt beam="1">  1        1 0.13871890E+00 0.78292862E+03</pdfrwt>
<pdfrwt beam="2">  1       -1 0.16511670E+00 0.78292862E+03</pdfrwt>
<totfact> 0.50016892E+00</totfact>
</mgrwt>
</event>
<event>
 4    2  0.3396630E-007  0.7192048E+03  0.7818608E-02  0.9925286E-01
         -1   -1    0    0    0  501 -0.00000000000E+00  0.00000000000E+00  0.11685777574E+04  0.11685777574E+04  0.50400000000E-02 0.  1.
          1   -1    0    0  501    0  0.00000000000E+00 -0.00000000000E+00 -0.52543177898E+03  0.52543177901E+03  0.50400000000E-02 0. -1.
    8880023    1    1    2    0    0  0.27664298285E+03 -0.83150828914E+02  0.98592472331E+03  0.12203700941E+04  0.65864270000E+03 0.  0.
    8880022    1    1    2    0    0 -0.27664298285E+03  0.83150828914E+02 -0.34277874491E+03  0.47363944229E+03  0.15294330000E+03 0.  0.
<mgrwt>
<rscale>  0 0.59051331E+03</rscale>
<asrwt>0</asrwt>
<pdfrwt beam="1">  1        1 0.80835659E-01 0.71920484E+03</pdfrwt>
<pdfrwt beam="2">  1       -1 0.17978119E+00 0.71920484E+03</pdfrwt>
<totfact> 0.89484092E+00</totfact>
</mgrwt>
</event>
<event>
 4    2  0.3396630E-007  0.7082072E+03  0.7818608E-02  0.9964720E-01
          1   -1    0    0  501    0  0.00000000000E+00  0.00000000000E+00  0.92735727227E+03  0.92735727228E+03  0.50400000000E-02 0. -1.
         -1   -1    0    0    0  501 -0.00000000000E+00 -0.00000000000E+00 -0.34675746766E+03  0.34675746769E+03  0.50400000000E-02 0.  1.
    8880023    1    1    2    0    0 -0.34856222191E+02 -0.25793845826E+03  0.11246887624E+03  0.71708204472E+03  0.65864270000E+03 0.  0.
    8880022    1    1    2    0    0  0.34856222191E+02  0.25793845826E+03  0.46813092837E+03  0.55703269525E+03  0.15294330000E+03 0.  0.
<mgrwt>
<rscale>  0 0.57224656E+03</rscale>
<asrwt>0</asrwt>
<pdfrwt beam="1">  1        1 0.14267035E+00 0.70820718E+03</pdfrwt>
<pdfrwt beam="2">  1       -1 0.53347304E-01 0.70820718E+03</pdfrwt>
<totfact> 0.62872695E+01</totfact>
</mgrwt>
</event>
<event>
 4    2  0.3396630E-007  0.7837410E+03  0.7818608E-02  0.9747122E-01
         -1   -1    0    0    0  501 -0.00000000000E+00  0.00000000000E+00  0.21971281967E+03  0.21971281973E+03  0.50400000000E-02 0.  1.
          1   -1    0    0  501    0  0.00000000000E+00 -0.00000000000E+00 -0.17995470325E+04  0.17995470325E+04  0.50400000000E-02 0. -1.
    8880023    1    1    2    0    0  0.31978501168E+03 -0.27960195840E+03 -0.81204760473E+03  0.11285704353E+04  0.65864270000E+03 0.  0.
    8880022    1    1    2    0    0 -0.31978501168E+03  0.27960195840E+03 -0.76778660811E+03  0.89068941693E+03  0.15294330000E+03 0.  0.
<mgrwt>
<rscale>  0 0.68279179E+03</rscale>
<asrwt>0</asrwt>
<pdfrwt beam="1">  1        1 0.27685338E+00 0.78374097E+03</pdfrwt>
<pdfrwt beam="2">  1       -1 0.33801974E-01 0.78374097E+03</pdfrwt>
<totfact> 0.34674108E+01</totfact>
</mgrwt>
</event>
<event>
 4    2  0.3396630E-007  0.7628508E+03  0.7818608E-02  0.9797782E-01
         -1   -1    0    0    0  501 -0.00000000000E+00  0.00000000000E+00  0.15809084812E+04  0.15809084813E+04  0.50400000000E-02 0.  1.
          1   -1    0    0  501    0  0.00000000000E+00 -0.00000000000E+00 -0.39772143050E+03  0.39772143054E+03  0.50400000000E-02 0. -1.
    8880023    1    1    2    0    0  0.13153004518E+03 -0.36170564958E+03  0.13349542131E+04  0.15375448244E+04  0.65864270000E+03 0.  1.
    8880022    1    1    2    0    0 -0.13153004518E+03  0.36170564958E+03 -0.15176716236E+03  0.44108508738E+03  0.15294330000E+03 0.  0.
<mgrwt>
<rscale>  0 0.65481698E+03</rscale>
<asrwt>0</asrwt>
<pdfrwt beam="1">  1        1 0.61187913E-01 0.76285080E+03</pdfrwt>
<pdfrwt beam="2">  1       -1 0.24321669E+00 0.76285080E+03</pdfrwt>
<totfact> 0.48431596E+00</totfact>
</mgrwt>
</event>
<event>
 4    2  0.3396630E-007  0.6706956E+03  0.7818608E-02  0.1015169E+00
          1   -1    0    0  501    0  0.00000000000E+00  0.00000000000E+00  0.19700186752E+04  0.19700186752E+04  0.50400000000E-02 0. -1.
         -1   -1    0    0    0  501 -0.00000000000E+00 -0.00000000000E+00 -0.32247029075E+03  0.32247029079E+03  0.50400000000E-02 0.  1.
    8880023    1    1    2    0    0  0.87700012156E+02  0.91274995930E+02  0.39099665246E+02  0.67183435987E+03  0.65864270000E+03 0.  1.
    8880022    1    1    2    0    0 -0.87700012156E+02 -0.91274995930E+02  0.16084487192E+04  0.16206546061E+04  0.15294330000E+03 0.  0.
<mgrwt>
<rscale>  0 0.49470980E+03</rscale>
<asrwt>0</asrwt>
<pdfrwt beam="1">  1        1 0.30307979E+00 0.67069563E+03</pdfrwt>
<pdfrwt beam="2">  1       -1 0.49610814E-01 0.67069563E+03</pdfrwt>
<totfact> 0.13445800E+01</totfact>
</mgrwt>
</event>
<event>
 4    2  0.3396630E-007  0.6609311E+03  0.7818608E-02  0.1023222E+00
          1   -1    0    0  501    0  0.00000000000E+00  0.00000000000E+00  0.24086395506E+04  0.24086395506E+04  0.50400000000E-02 0. -1.
         -1   -1    0    0    0  501 -0.00000000000E+00 -0.00000000000E+00 -0.77406870689E+02  0.77406870853E+02  0.50400000000E-02 0.  1.
    8880023    1    1    2    0    0 -0.28295652902E+02  0.47106660543E+02  0.15011982707E+04  0.16402518513E+04  0.65864270000E+03 0.  1.
    8880022    1    1    2    0    0  0.28295652902E+02 -0.47106660543E+02  0.83003440916E+03  0.84579457012E+03  0.15294330000E+03 0.  0.
<mgrwt>
<rscale>  0 0.46541559E+03</rscale>
<asrwt>0</asrwt>
<pdfrwt beam="1">  1        1 0.37055990E+00 0.66093108E+03</pdfrwt>
<pdfrwt beam="2">  1       -1 0.11908750E-01 0.66093108E+03</pdfrwt>
<totfact> 0.78685805E+01</totfact>
</mgrwt>
</event>
<event>
 4    2  0.3396630E-007  0.7186162E+03  0.7818608E-02  0.9927296E-01
         -1   -1    0    0    0  501 -0.00000000000E+00  0.00000000000E+00  0.63812979377E+03  0.63812979379E+03  0.50400000000E-02 0.  1.
          1   -1    0    0  501    0  0.00000000000E+00 -0.00000000000E+00 -0.69864352826E+03  0.69864352828E+03  0.50400000000E-02 0. -1.
    8880023    1    1    2    0    0 -0.13767361129E+03 -0.25227968350E+03  0.36098083632E+03  0.80418681437E+03  0.65864270000E+03 0.  1.
    8880022    1    1    2    0    0  0.13767361129E+03  0.25227968350E+03 -0.42149457081E+03  0.53258650770E+03  0.15294330000E+03 0.  0.
<mgrwt>
<rscale>  0 0.58956438E+03</rscale>
<asrwt>0</asrwt>
<pdfrwt beam="1">  1        1 0.10748362E+00 0.71861622E+03</pdfrwt>
<pdfrwt beam="2">  1       -1 0.98173815E-01 0.71861622E+03</pdfrwt>
<totfact> 0.27941479E+01</totfact>
</mgrwt>
</event>
<event>
 4    2  0.3396630E-007  0.8061587E+03  0.7818608E-02  0.9697634E-01
          1   -1    0    0  501    0  0.00000000000E+00  0.00000000000E+00  0.69731176507E+03  0.69731176509E+03  0.50400000000E-02 0. -1.
         -1   -1    0    0    0  501 -0.00000000000E+00 -0.00000000000E+00 -0.21527442242E+04  0.21527442242E+04  0.50400000000E-02 0.  1.
    8880023    1    1    2    0    0 -0.20851132638E+03  0.41545722187E+03 -0.19768873965E+04  0.21349416060E+04  0.65864270000E+03 0.  1.
    8880022    1    1    2    0    0  0.20851132638E+03 -0.41545722187E+03  0.52145493738E+03  0.71511438327E+03  0.15294330000E+03 0.  0.
<mgrwt>
<rscale>  0 0.71157808E+03</rscale>
<asrwt>0</asrwt>
<pdfrwt beam="1">  1        1 0.10727873E+00 0.80615872E+03</pdfrwt>
<pdfrwt beam="2">  1       -1 0.33119142E+00 0.80615872E+03</pdfrwt>
<totfact> 0.59613031E-01</totfact>
</mgrwt>
</event>
<event>
 4    2  0.3396630E-007  0.7419789E+03  0.7818608E-02  0.9854220E-01
         -1   -1    0    0    0  501 -0.00000000000E+00  0.00000000000E+00  0.55702896616E+03  0.55702896618E+03  0.50400000000E-02 0.  1.
          1   -1    0    0  501    0  0.00000000000E+00 -0.00000000000E+00 -0.11665662800E+04  0.11665662800E+04  0.50400000000E-02 0. -1.
    8880023    1    1    2    0    0  0.18272481228E+03  0.28867655609E+03  0.25252435008E+03  0.78377373310E+03  0.65864270000E+03 0.  1.
    8880022    1    1    2    0    0 -0.18272481228E+03 -0.28867655609E+03 -0.86206166388E+03  0.93982151305E+03  0.15294330000E+03 0.  0.
<mgrwt>
<rscale>  0 0.62532232E+03</rscale>
<asrwt>0</asrwt>
<pdfrwt beam="1">  1        1 0.17947174E+00 0.74197892E+03</pdfrwt>
<pdfrwt beam="2">  1       -1 0.85696764E-01 0.74197892E+03</pdfrwt>
<totfact> 0.15713083E+01</totfact>
</mgrwt>
</event>
<event>
 4    2  0.3396630E-007  0.6684513E+03  0.7818608E-02  0.1016798E+00
         -1   -1    0    0    0  501 -0.00000000000E+00  0.00000000000E+00  0.33119817240E+03  0.33119817244E+03  0.50400000000E-02 0.  1.
          1   -1    0    0  501    0  0.00000000000E+00 -0.00000000000E+00 -0.59708467286E+03  0.59708467288E+03  0.50400000000E-02 0. -1.
    8880023    1    1    2    0    0  0.82985523929E+02 -0.78296218498E+02 -0.10087788707E+03  0.67602030249E+03  0.65864270000E+03 0.  0.
    8880022    1    1    2    0    0 -0.82985523929E+02  0.78296218498E+02 -0.16500861338E+03  0.25226254284E+03  0.15294330000E+03 0.  0.
<mgrwt>
<rscale>  0 0.48859918E+03</rscale>
<asrwt>0</asrwt>
<pdfrwt beam="1">  1        1 0.91859180E-01 0.66845127E+03</pdfrwt>
<pdfrwt beam="2">  1       -1 0.50953565E-01 0.66845127E+03</pdfrwt>
<totfact> 0.13641193E+02</totfact>
</mgrwt>
</event>
<event>
 4    2  0.3396630E-007  0.7080944E+03  0.7818608E-02  0.9965146E-01
          1   -1    0    0  501    0  0.00000000000E+00  0.00000000000E+00  0.71947276269E+03  0.71947276271E+03  0.50400000000E-02 0. -1.
         -1   -1    0    0    0  501 -0.00000000000E+00 -0.00000000000E+00 -0.73998173581E+03  0.73998173583E+03  0.50400000000E-02 0.  1.
    8880023    1    1    2    0    0  0.13764060619E+03 -0.22055065138E+03 -0.51822778296E+03  0.87747237426E+03  0.65864270000E+03 0.  1.
    8880022    1    1    2    0    0 -0.13764060619E+03  0.22055065138E+03  0.49771880984E+03  0.58198212428E+03  0.15294330000E+03 0.  0.
<mgrwt>
<rscale>  0 0.57205283E+03</rscale>
<asrwt>0</asrwt>
<pdfrwt beam="1">  1        1 0.11068812E+00 0.70809444E+03</pdfrwt>
<pdfrwt beam="2">  1       -1 0.11384334E+00 0.70809444E+03</pdfrwt>
<totfact> 0.18966563E+01</totfact>
</mgrwt>
</event>
<event>
 4    2  0.3396630E-007  0.6995335E+03  0.7818608E-02  0.9999142E-01
          1   -1    0    0  501    0  0.00000000000E+00  0.00000000000E+00  0.11177281132E+04  0.11177281132E+04  0.50400000000E-02 0. -1.
         -1   -1    0    0    0  501 -0.00000000000E+00 -0.00000000000E+00 -0.32714851426E+03  0.32714851430E+03  0.50400000000E-02 0.  1.
    8880023    1    1    2    0    0  0.21988564873E+03 -0.84777639094E+02  0.10940061045E+03  0.70803647253E+03  0.65864270000E+03 0.  1.
    8880022    1    1    2    0    0 -0.21988564873E+03  0.84777639094E+02  0.68117898847E+03  0.73684015496E+03  0.15294330000E+03 0.  0.
<mgrwt>
<rscale>  0 0.55687882E+03</rscale>
<asrwt>0</asrwt>
<pdfrwt beam="1">  1        1 0.17195817E+00 0.69953353E+03</pdfrwt>
<pdfrwt beam="2">  1       -1 0.50330542E-01 0.69953353E+03</pdfrwt>
<totfact> 0.50213591E+01</totfact>
</mgrwt>
</event>
<event>
 4    2  0.3396630E-007  0.8736699E+03  0.7818608E-02  0.9569695E-01
         -1   -1    0    0    0  501 -0.00000000000E+00  0.00000000000E+00  0.18440088064E+03  0.18440088071E+03  0.50400000000E-02 0.  1.
          1   -1    0    0  501    0  0.00000000000E+00 -0.00000000000E+00 -0.32029393434E+04  0.32029393434E+04  0.50400000000E-02 0. -1.
    8880023    1    1    2    0    0  0.43763278599E+03 -0.37143829041E+03 -0.12769076083E+04  0.15471884518E+04  0.65864270000E+03 0. -1.
    8880022    1    1    2    0    0 -0.43763278599E+03  0.37143829041E+03 -0.17416308544E+04  0.18401517723E+04  0.15294330000E+03 0.  1.
<mgrwt>
<rscale>  0 0.79334846E+03</rscale>
<asrwt>0</asrwt>
<pdfrwt beam="1">  1        1 0.49275986E+00 0.87366988E+03</pdfrwt>
<pdfrwt beam="2">  1       -1 0.28369369E-01 0.87366988E+03</pdfrwt>
<totfact> 0.49921873E+00</totfact>
</mgrwt>
</event>
<event>
 4    2  0.3396630E-007  0.8651563E+03  0.7818608E-02  0.9584456E-01
         -1   -1    0    0    0  501 -0.00000000000E+00  0.00000000000E+00  0.70510015732E+03  0.70510015734E+03  0.50400000000E-02 0.  1.
          1   -1    0    0  501    0  0.00000000000E+00 -0.00000000000E+00 -0.10700163491E+04  0.10700163491E+04  0.50400000000E-02 0. -1.
    8880023    1    1    2    0    0  0.17331420376E+02 -0.56070027045E+03  0.27756910616E+03  0.90859231032E+03  0.65864270000E+03 0.  1.
    8880022    1    1    2    0    0 -0.17331420376E+02  0.56070027045E+03 -0.64248529795E+03  0.86652419615E+03  0.15294330000E+03 0.  0.
<mgrwt>
<rscale>  0 0.78333557E+03</rscale>
<asrwt>0</asrwt>
<pdfrwt beam="1">  1        1 0.16461790E+00 0.86515627E+03</pdfrwt>
<pdfrwt beam="2">  1       -1 0.10847695E+00 0.86515627E+03</pdfrwt>
<totfact> 0.10724563E+01</totfact>
</mgrwt>
</event>
<event>
 4    2  0.3396630E-007  0.7148066E+03  0.7818608E-02  0.9940567E-01
         -1   -1    0    0    0  501 -0.00000000000E+00  0.00000000000E+00  0.43717005905E+03  0.43717005908E+03  0.50400000000E-02 0.  1.
          1   -1    0    0  501    0  0.00000000000E+00 -0.00000000000E+00 -0.65098603616E+03  0.65098603618E+03  0.50400000000E-02 0. -1.
    8880023    1    1    2    0    0  0.21299127680E+03  0.17824991983E+03 -0.17073353580E+02  0.71501050592E+03  0.65864270000E+03 0.  1.
    8880022    1    1    2    0    0 -0.21299127680E+03 -0.17824991983E+03 -0.19674262353E+03  0.37314558934E+03  0.15294330000E+03 0.  0.
<mgrwt>
<rscale>  0 0.58334889E+03</rscale>
<asrwt>0</asrwt>
<pdfrwt beam="1">  1        1 0.10015170E+00 0.71480663E+03</pdfrwt>
<pdfrwt beam="2">  1       -1 0.67256933E-01 0.71480663E+03</pdfrwt>
<totfact> 0.69628237E+01</totfact>
</mgrwt>
</event>
<event>
 4    2  0.3396630E-007  0.1361050E+04  0.7818608E-02  0.9014555E-01
          1   -1    0    0  501    0  0.00000000000E+00  0.00000000000E+00  0.22607038319E+04  0.22607038319E+04  0.50400000000E-02 0. -1.
         -1   -1    0    0    0  501 -0.00000000000E+00 -0.00000000000E+00 -0.82419640186E+03  0.82419640187E+03  0.50400000000E-02 0.  1.
    8880023    1    1    2    0    0 -0.40355673928E+03 -0.11206194764E+04  0.22579003824E+03  0.13796511879E+04  0.65864270000E+03 0.  0.
    8880022    1    1    2    0    0  0.40355673928E+03  0.11206194764E+04  0.12107173918E+04  0.17052490459E+04  0.15294330000E+03 0.  0.
<mgrwt>
<rscale>  0 0.13190995E+04</rscale>
<asrwt>0</asrwt>
<pdfrwt beam="1">  1        1 0.34780058E+00 0.13610497E+04</pdfrwt>
<pdfrwt beam="2">  1       -1 0.12679945E+00 0.13610497E+04</pdfrwt>
<totfact> 0.10339208E+00</totfact>
</mgrwt>
</event>
<event>
 4    2  0.3396630E-007  0.7356643E+03  0.7818608E-02  0.9872761E-01
         -1   -1    0    0    0  501 -0.00000000000E+00  0.00000000000E+00  0.26370482491E+03  0.26370482496E+03  0.50400000000E-02 0.  1.
          1   -1    0    0  501    0  0.00000000000E+00 -0.00000000000E+00 -0.12533556307E+04  0.12533556307E+04  0.50400000000E-02 0. -1.
    8880023    1    1    2    0    0  0.17644990281E+03  0.27614704732E+03 -0.43415978868E+03  0.85422285636E+03  0.65864270000E+03 0.  0.
    8880022    1    1    2    0    0 -0.17644990281E+03 -0.27614704732E+03 -0.55549101707E+03  0.66283759927E+03  0.15294330000E+03 0.  0.
<mgrwt>
<rscale>  0 0.61599735E+03</rscale>
<asrwt>0</asrwt>
<pdfrwt beam="1">  1        1 0.19282394E+00 0.73566430E+03</pdfrwt>
<pdfrwt beam="2">  1       -1 0.40569974E-01 0.73566430E+03</pdfrwt>
<totfact> 0.59507504E+01</totfact>
</mgrwt>
</event>
<event>
 4    2  0.3396630E-007  0.7313007E+03  0.7818608E-02  0.9886053E-01
         -1   -1    0    0    0  501 -0.00000000000E+00  0.00000000000E+00  0.81225396985E+03  0.81225396987E+03  0.50400000000E-02 0.  1.
          1   -1    0    0  501    0  0.00000000000E+00 -0.00000000000E+00 -0.62252580664E+03  0.62252580666E+03  0.50400000000E-02 0. -1.
    8880023    1    1    2    0    0 -0.29733292043E+03 -0.11217683328E+03  0.56175374617E+03  0.92215399207E+03  0.65864270000E+03 0.  0.
    8880022    1    1    2    0    0  0.29733292043E+03  0.11217683328E+03 -0.37202558295E+03  0.51262578445E+03  0.15294330000E+03 0. -1.
<mgrwt>
<rscale>  0 0.60942007E+03</rscale>
<asrwt>0</asrwt>
<pdfrwt beam="1">  1        1 0.95773201E-01 0.73130070E+03</pdfrwt>
<pdfrwt beam="2">  1       -1 0.12496215E+00 0.73130070E+03</pdfrwt>
<totfact> 0.18706514E+01</totfact>
</mgrwt>
</event>
<event>
 4    2  0.3396630E-007  0.8313053E+03  0.7818608E-02  0.9646798E-01
          1   -1    0    0  501    0  0.00000000000E+00  0.00000000000E+00  0.13622199892E+04  0.13622199892E+04  0.50400000000E-02 0. -1.
         -1   -1    0    0    0  501 -0.00000000000E+00 -0.00000000000E+00 -0.42295303918E+03  0.42295303921E+03  0.50400000000E-02 0.  1.
    8880023    1    1    2    0    0 -0.35668795191E+03  0.36059946840E+03  0.16580360850E+03  0.84767878026E+03  0.65864270000E+03 0.  1.
    8880022    1    1    2    0    0  0.35668795191E+03 -0.36059946840E+03  0.77346334152E+03  0.93749424817E+03  0.15294330000E+03 0.  0.
<mgrwt>
<rscale>  0 0.74274720E+03</rscale>
<asrwt>0</asrwt>
<pdfrwt beam="1">  1        1 0.20957231E+00 0.83130529E+03</pdfrwt>
<pdfrwt beam="2">  1       -1 0.65069698E-01 0.83130529E+03</pdfrwt>
<totfact> 0.20004501E+01</totfact>
</mgrwt>
</event>
<event>
 4    2  0.3626586E-007  0.7421425E+03  0.7818608E-02  0.9853749E-01
         -1   -1    0    0    0  501 -0.00000000000E+00  0.00000000000E+00  0.74454686604E+03  0.74454686606E+03  0.50400000000E-02 0.  1.
          1   -1    0    0  501    0  0.00000000000E+00 -0.00000000000E+00 -0.13278503022E+04  0.13278503022E+04  0.50400000000E-02 0. -1.
    8880023    1    1    2    0    0 -0.14860240288E+03 -0.30803031308E+03  0.52067957375E+03  0.90657750507E+03  0.65864270000E+03 0.  0.
    8880022    1    1    2    0    0  0.14860240288E+03  0.30803031308E+03 -0.11039830099E+04  0.11658196632E+04  0.15294330000E+03 0.  0.
<mgrwt>
<rscale>  0 0.62556113E+03</rscale>
<asrwt>0</asrwt>
<pdfrwt beam="1">  1        1 0.20428466E+00 0.74214254E+03</pdfrwt>
<pdfrwt beam="2">  1       -1 0.11454567E+00 0.74214254E+03</pdfrwt>
<totfact> 0.62263173E+00</totfact>
</mgrwt>
</event>
<event>
 4    2  0.3396630E-007  0.7086193E+03  0.7818608E-02  0.9963164E-01
         -1   -1    0    0    0  501 -0.00000000000E+00  0.00000000000E+00  0.43979148102E+03  0.43979148105E+03  0.50400000000E-02 0.  1.
          1   -1    0    0  501    0  0.00000000000E+00 -0.00000000000E+00 -0.84499818613E+03  0.84499818615E+03  0.50400000000E-02 0. -1.
    8880023    1    1    2    0    0 -0.21380020473E+03  0.15040149523E+03  0.79687558954E+02  0.71308586483E+03  0.65864270000E+03 0.  1.
    8880022    1    1    2    0    0  0.21380020473E+03 -0.15040149523E+03 -0.48489426406E+03  0.57170380237E+03  0.15294330000E+03 0.  0.
<mgrwt>
<rscale>  0 0.57295353E+03</rscale>
<asrwt>0</asrwt>
<pdfrwt beam="1">  1        1 0.12999972E+00 0.70861932E+03</pdfrwt>
<pdfrwt beam="2">  1       -1 0.67660228E-01 0.70861932E+03</pdfrwt>
<totfact> 0.45980106E+01</totfact>
</mgrwt>
</event>
<event>
 4    2  0.3396630E-007  0.8807196E+03  0.7818608E-02  0.9557720E-01
          1   -1    0    0  501    0  0.00000000000E+00  0.00000000000E+00  0.26368903012E+03  0.26368903017E+03  0.50400000000E-02 0. -1.
         -1   -1    0    0    0  501 -0.00000000000E+00 -0.00000000000E+00 -0.24629460108E+04  0.24629460108E+04  0.50400000000E-02 0.  1.
    8880023    1    1    2    0    0 -0.70947083957E+02  0.58036482701E+03 -0.75137757927E+03  0.11576853174E+04  0.65864270000E+03 0.  1.
    8880022    1    1    2    0    0  0.70947083957E+02 -0.58036482701E+03 -0.14478794014E+04  0.15689497236E+04  0.15294330000E+03 0.  0.
<mgrwt>
<rscale>  0 0.80158909E+03</rscale>
<asrwt>0</asrwt>
<pdfrwt beam="1">  1        1 0.40567545E-01 0.88071961E+03</pdfrwt>
<pdfrwt beam="2">  1       -1 0.37891475E+00 0.88071961E+03</pdfrwt>
<totfact> 0.10751718E+00</totfact>
</mgrwt>
</event>
<event>
 4    2  0.3396630E-007  0.8441184E+03  0.7818608E-02  0.9622463E-01
          1   -1    0    0  501    0  0.00000000000E+00  0.00000000000E+00  0.18857487145E+04  0.18857487145E+04  0.50400000000E-02 0. -1.
         -1   -1    0    0    0  501 -0.00000000000E+00 -0.00000000000E+00 -0.30018148918E+03  0.30018148922E+03  0.50400000000E-02 0.  1.
    8880023    1    1    2    0    0 -0.52061107305E+03 -0.87691597004E+02  0.53249368733E+03  0.99804080020E+03  0.65864270000E+03 0.  1.
    8880022    1    1    2    0    0  0.52061107305E+03  0.87691597004E+02  0.10530735380E+04  0.11878894035E+04  0.15294330000E+03 0.  0.
<mgrwt>
<rscale>  0 0.75827108E+03</rscale>
<asrwt>0</asrwt>
<pdfrwt beam="1">  1        1 0.29011519E+00 0.84411842E+03</pdfrwt>
<pdfrwt beam="2">  1       -1 0.46181767E-01 0.84411842E+03</pdfrwt>
<totfact> 0.17076660E+01</totfact>
</mgrwt>
</event>
<event>
 4    2  0.3396630E-007  0.7839664E+03  0.7818608E-02  0.9746601E-01
          1   -1    0    0  501    0  0.00000000000E+00  0.00000000000E+00  0.98285191440E+03  0.98285191441E+03  0.50400000000E-02 0. -1.
         -1   -1    0    0    0  501 -0.00000000000E+00 -0.00000000000E+00 -0.49752924947E+03  0.49752924949E+03  0.50400000000E-02 0.  1.
    8880023    1    1    2    0    0  0.25340685387E+03  0.34143533613E+03 -0.43038851009E+02  0.78514691065E+03  0.65864270000E+03 0.  0.
    8880022    1    1    2    0    0 -0.25340685387E+03 -0.34143533613E+03  0.52836151594E+03  0.69523425325E+03  0.15294330000E+03 0.  0.
<mgrwt>
<rscale>  0 0.68308698E+03</rscale>
<asrwt>0</asrwt>
<pdfrwt beam="1">  1        1 0.15120799E+00 0.78396641E+03</pdfrwt>
<pdfrwt beam="2">  1       -1 0.76542962E-01 0.78396641E+03</pdfrwt>
<totfact> 0.27366414E+01</totfact>
</mgrwt>
</event>
<event>
 4    2  0.3396630E-007  0.8145004E+03  0.7818608E-02  0.9680278E-01
         -1   -1    0    0    0  501 -0.00000000000E+00  0.00000000000E+00  0.37320183459E+03  0.37320183462E+03  0.50400000000E-02 0.  1.
          1   -1    0    0  501    0  0.00000000000E+00 -0.00000000000E+00 -0.13980456329E+04  0.13980456329E+04  0.50400000000E-02 0. -1.
    8880023    1    1    2    0    0 -0.12611996157E+03 -0.46227099853E+03 -0.25841492825E+03  0.85451108957E+03  0.65864270000E+03 0.  1.
    8880022    1    1    2    0    0  0.12611996157E+03  0.46227099853E+03 -0.76642887002E+03  0.91673637792E+03  0.15294330000E+03 0.  0.
<mgrwt>
<rscale>  0 0.72203277E+03</rscale>
<asrwt>0</asrwt>
<pdfrwt beam="1">  1        1 0.21508394E+00 0.81450042E+03</pdfrwt>
<pdfrwt beam="2">  1       -1 0.57415668E-01 0.81450042E+03</pdfrwt>
<totfact> 0.24251248E+01</totfact>
</mgrwt>
</event>
<event>
 4    2  0.3396630E-007  0.1693139E+04  0.7818608E-02  0.8784071E-01
          1   -1    0    0  501    0  0.00000000000E+00  0.00000000000E+00  0.21545227391E+04  0.21545227391E+04  0.50400000000E-02 0. -1.
         -1   -1    0    0    0  501 -0.00000000000E+00 -0.00000000000E+00 -0.13863538136E+04  0.13863538136E+04  0.50400000000E-02 0.  1.
    8880023    1    1    2    0    0 -0.14314677344E+04  0.61952323397E+03 -0.19025202090E+03  0.17037942803E+04  0.65864270000E+03 0.  0.
    8880022    1    1    2    0    0  0.14314677344E+04 -0.61952323397E+03  0.95842094647E+03  0.18370822724E+04  0.15294330000E+03 0.  0.
<mgrwt>
<rscale>  0 0.16607514E+04</rscale>
<asrwt>0</asrwt>
<pdfrwt beam="1">  1        1 0.33146503E+00 0.16931388E+04</pdfrwt>
<pdfrwt beam="2">  1       -1 0.21328520E+00 0.16931388E+04</pdfrwt>
<totfact> 0.26423152E-01</totfact>
</mgrwt>
</event>
<event>
 4    2  0.3396630E-007  0.1236541E+04  0.7818608E-02  0.9122396E-01
          1   -1    0    0  501    0  0.00000000000E+00  0.00000000000E+00  0.13409525412E+04  0.13409525412E+04  0.50400000000E-02 0. -1.
         -1   -1    0    0    0  501 -0.00000000000E+00 -0.00000000000E+00 -0.11118631434E+04  0.11118631434E+04  0.50400000000E-02 0.  1.
    8880023    1    1    2    0    0  0.10409984080E+04 -0.10744622650E+03 -0.29676984288E+03  0.12716544039E+04  0.65864270000E+03 0.  1.
    8880022    1    1    2    0    0 -0.10409984080E+04  0.10744622650E+03  0.52585924067E+03  0.11811612807E+04  0.15294330000E+03 0. -1.
<mgrwt>
<rscale>  0 0.11891628E+04</rscale>
<asrwt>0</asrwt>
<pdfrwt beam="1">  1        1 0.20630039E+00 0.12365406E+04</pdfrwt>
<pdfrwt beam="2">  1       -1 0.17105587E+00 0.12365406E+04</pdfrwt>
<totfact> 0.19957983E+00</totfact>
</mgrwt>
</event>
<event>
 4    2  0.3396630E-007  0.6602663E+03  0.7818608E-02  0.1023885E+00
          1   -1    0    0  501    0  0.00000000000E+00  0.00000000000E+00  0.42528134088E+03  0.42528134091E+03  0.50400000000E-02 0. -1.
         -1   -1    0    0    0  501 -0.00000000000E+00 -0.00000000000E+00 -0.11343906365E+04  0.11343906365E+04  0.50400000000E-02 0.  1.
    8880023    1    1    2    0    0 -0.45390641337E+01 -0.46052588707E+02 -0.10171455863E+04  0.12126569152E+04  0.65864270000E+03 0.  1.
    8880022    1    1    2    0    0  0.45390641337E+01  0.46052588707E+02  0.30803629066E+03  0.34701506222E+03  0.15294330000E+03 0.  0.
<mgrwt>
<rscale>  0 0.46310270E+03</rscale>
<asrwt>0</asrwt>
<pdfrwt beam="1">  1        1 0.65427899E-01 0.66026635E+03</pdfrwt>
<pdfrwt beam="2">  1       -1 0.17452164E+00 0.66026635E+03</pdfrwt>
<totfact> 0.13110283E+01</totfact>
</mgrwt>
</event>
<event>
 4    2  0.3396630E-007  0.8676109E+03  0.7818608E-02  0.9580166E-01
         -1   -1    0    0    0  501 -0.00000000000E+00  0.00000000000E+00  0.66064210158E+03  0.66064210160E+03  0.50400000000E-02 0.  1.
          1   -1    0    0  501    0  0.00000000000E+00 -0.00000000000E+00 -0.89993112957E+03  0.89993112959E+03  0.50400000000E-02 0. -1.
    8880023    1    1    2    0    0 -0.44596566241E+03  0.34648683723E+03  0.11711413035E+03  0.87547954072E+03  0.65864270000E+03 0.  0.
    8880022    1    1    2    0    0  0.44596566241E+03 -0.34648683723E+03 -0.35640315835E+03  0.68509369047E+03  0.15294330000E+03 0.  0.
<mgrwt>
<rscale>  0 0.78622962E+03</rscale>
<asrwt>0</asrwt>
<pdfrwt beam="1">  1        1 0.13845094E+00 0.86761092E+03</pdfrwt>
<pdfrwt beam="2">  1       -1 0.10163725E+00 0.86761092E+03</pdfrwt>
<totfact> 0.16967341E+01</totfact>
</mgrwt>
</event>
<event>
 4    2  0.3396630E-007  0.8886055E+03  0.7818608E-02  0.9544577E-01
         -1   -1    0    0    0  501 -0.00000000000E+00  0.00000000000E+00  0.41531043332E+03  0.41531043335E+03  0.50400000000E-02 0.  1.
          1   -1    0    0  501    0  0.00000000000E+00 -0.00000000000E+00 -0.18288479230E+04  0.18288479230E+04  0.50400000000E-02 0. -1.
    8880023    1    1    2    0    0  0.19541249521E+03  0.56358102122E+03 -0.24252910164E+03  0.92110812730E+03  0.65864270000E+03 0.  0.
    8880022    1    1    2    0    0 -0.19541249521E+03 -0.56358102122E+03 -0.11710083881E+04  0.13230502291E+04  0.15294330000E+03 0.  0.
<mgrwt>
<rscale>  0 0.81075659E+03</rscale>
<asrwt>0</asrwt>
<pdfrwt beam="1">  1        1 0.28136121E+00 0.88860555E+03</pdfrwt>
<pdfrwt beam="2">  1       -1 0.63893914E-01 0.88860555E+03</pdfrwt>
<totfact> 0.98957609E+00</totfact>
</mgrwt>
</event>
<event>
 4    2  0.3396630E-007  0.7128258E+03  0.7818608E-02  0.9947654E-01
         -1   -1    0    0    0  501 -0.00000000000E+00  0.00000000000E+00  0.29788374482E+03  0.29788374486E+03  0.50400000000E-02 0.  1.
          1   -1    0    0  501    0  0.00000000000E+00 -0.00000000000E+00 -0.99869747487E+03  0.99869747488E+03  0.50400000000E-02 0. -1.
    8880023    1    1    2    0    0 -0.27068332295E+03 -0.32263098650E+02 -0.67703344900E+03  0.98310470764E+03  0.65864270000E+03 0.  0.
    8880022    1    1    2    0    0  0.27068332295E+03  0.32263098650E+02 -0.23780281053E+02  0.31347651210E+03  0.15294330000E+03 0.  0.
<mgrwt>
<rscale>  0 0.58006343E+03</rscale>
<asrwt>0</asrwt>
<pdfrwt beam="1">  1        1 0.15364576E+00 0.71282577E+03</pdfrwt>
<pdfrwt beam="2">  1       -1 0.45828269E-01 0.71282577E+03</pdfrwt>
<totfact> 0.73571510E+01</totfact>
</mgrwt>
</event>
<event>
 4    2  0.3396630E-007  0.6716585E+03  0.7818608E-02  0.1014501E+00
          1   -1    0    0  501    0  0.00000000000E+00  0.00000000000E+00  0.37693696236E+03  0.37693696240E+03  0.50400000000E-02 0. -1.
         -1   -1    0    0    0  501 -0.00000000000E+00 -0.00000000000E+00 -0.51118962494E+03  0.51118962496E+03  0.50400000000E-02 0.  1.
    8880023    1    1    2    0    0  0.12118162868E+03 -0.51283211019E+02 -0.64925786385E+02  0.67478924033E+03  0.65864270000E+03 0. -1.
    8880022    1    1    2    0    0 -0.12118162868E+03  0.51283211019E+02 -0.69326876192E+02  0.21333734703E+03  0.15294330000E+03 0.  1.
<mgrwt>
<rscale>  0 0.49724395E+03</rscale>
<asrwt>0</asrwt>
<pdfrwt beam="1">  1        1 0.57990302E-01 0.67165852E+03</pdfrwt>
<pdfrwt beam="2">  1       -1 0.78644557E-01 0.67165852E+03</pdfrwt>
<totfact> 0.10734988E+02</totfact>
</mgrwt>
</event>
<event>
 4    2  0.3396630E-007  0.7938274E+03  0.7818608E-02  0.9724305E-01
         -1   -1    0    0    0  501 -0.00000000000E+00  0.00000000000E+00  0.58107689007E+03  0.58107689009E+03  0.50400000000E-02 0.  1.
          1   -1    0    0  501    0  0.00000000000E+00 -0.00000000000E+00 -0.13454770240E+04  0.13454770240E+04  0.50400000000E-02 0. -1.
    8880023    1    1    2    0    0  0.41095182279E+03 -0.16574195862E+03  0.23061370440E+03  0.82664665028E+03  0.65864270000E+03 0.  0.
    8880022    1    1    2    0    0 -0.41095182279E+03  0.16574195862E+03 -0.99501383833E+03  0.10999072638E+04  0.15294330000E+03 0.  0.
<mgrwt>
<rscale>  0 0.69587955E+03</rscale>
<asrwt>0</asrwt>
<pdfrwt beam="1">  1        1 0.20699647E+00 0.79382744E+03</pdfrwt>
<pdfrwt beam="2">  1       -1 0.89396445E-01 0.79382744E+03</pdfrwt>
<totfact> 0.10598879E+01</totfact>
</mgrwt>
</event>
<event>
 4    2  0.3396630E-007  0.9470229E+03  0.7818608E-02  0.9454411E-01
         -1   -1    0    0    0  501 -0.00000000000E+00  0.00000000000E+00  0.48371878051E+03  0.48371878054E+03  0.50400000000E-02 0.  1.
          1   -1    0    0  501    0  0.00000000000E+00 -0.00000000000E+00 -0.49349248492E+04  0.49349248492E+04  0.50400000000E-02 0. -1.
    8880023    1    1    2    0    0 -0.59424676970E+03 -0.33153111982E+03 -0.34964637854E+02  0.94766810586E+03  0.65864270000E+03 0.  0.
    8880022    1    1    2    0    0  0.59424676970E+03  0.33153111982E+03 -0.44162414308E+04  0.44709755238E+04  0.15294330000E+03 0.  0.
<mgrwt>
<rscale>  0 0.87730037E+03</rscale>
<asrwt>0</asrwt>
<pdfrwt beam="1">  1        1 0.75921917E+00 0.94702287E+03</pdfrwt>
<pdfrwt beam="2">  1       -1 0.74418277E-01 0.94702287E+03</pdfrwt>
<totfact> 0.21061725E-02</totfact>
</mgrwt>
</event>
<event>
 4    2  0.3396630E-007  0.9419072E+03  0.7818608E-02  0.9461855E-01
          1   -1    0    0  501    0  0.00000000000E+00  0.00000000000E+00  0.58151446647E+03  0.58151446649E+03  0.50400000000E-02 0. -1.
         -1   -1    0    0    0  501 -0.00000000000E+00 -0.00000000000E+00 -0.15083034441E+04  0.15083034441E+04  0.50400000000E-02 0.  1.
    8880023    1    1    2    0    0  0.18677104375E+03  0.64691225397E+03 -0.10253746437E+04  0.13923297933E+04  0.65864270000E+03 0.  0.
    8880022    1    1    2    0    0 -0.18677104375E+03 -0.64691225397E+03  0.98585666123E+02  0.69748811724E+03  0.15294330000E+03 0.  0.
<mgrwt>
<rscale>  0 0.87155490E+03</rscale>
<asrwt>0</asrwt>
<pdfrwt beam="1">  1        1 0.89463765E-01 0.94190716E+03</pdfrwt>
<pdfrwt beam="2">  1       -1 0.23204668E+00 0.94190716E+03</pdfrwt>
<totfact> 0.33225493E+00</totfact>
</mgrwt>
</event>
<event>
 4    2  0.3396630E-007  0.8068789E+03  0.7818608E-02  0.9696115E-01
         -1   -1    0    0    0  501 -0.00000000000E+00  0.00000000000E+00  0.67378451891E+03  0.67378451893E+03  0.50400000000E-02 0.  1.
          1   -1    0    0  501    0  0.00000000000E+00 -0.00000000000E+00 -0.72712346644E+03  0.72712346645E+03  0.50400000000E-02 0. -1.
    8880023    1    1    2    0    0 -0.53972455465E+02 -0.46295821478E+03  0.22399483036E+03  0.83739311251E+03  0.65864270000E+03 0.  1.
    8880022    1    1    2    0    0  0.53972455465E+02  0.46295821478E+03 -0.27733377788E+03  0.56351487288E+03  0.15294330000E+03 0. -1.
<mgrwt>
<rscale>  0 0.71248563E+03</rscale>
<asrwt>0</asrwt>
<pdfrwt beam="1">  1        1 0.11186515E+00 0.80687889E+03</pdfrwt>
<pdfrwt beam="2">  1       -1 0.10365916E+00 0.80687889E+03</pdfrwt>
<totfact> 0.23000680E+01</totfact>
</mgrwt>
</event>
<event>
 4    2  0.3396630E-007  0.1000263E+04  0.7818608E-02  0.9381214E-01
         -1   -1    0    0    0  501 -0.00000000000E+00  0.00000000000E+00  0.96880609854E+03  0.96880609856E+03  0.50400000000E-02 0.  1.
          1   -1    0    0  501    0  0.00000000000E+00 -0.00000000000E+00 -0.15791515137E+04  0.15791515137E+04  0.50400000000E-02 0. -1.
    8880023    1    1    2    0    0  0.57502960718E+03 -0.48585634222E+03  0.56126056383E+03  0.11469695119E+04  0.65864270000E+03 0.  0.
    8880022    1    1    2    0    0 -0.57502960718E+03  0.48585634222E+03 -0.11716059790E+04  0.14009881004E+04  0.15294330000E+03 0.  0.
<mgrwt>
<rscale>  0 0.93637959E+03</rscale>
<asrwt>0</asrwt>
<pdfrwt beam="1">  1        1 0.24294639E+00 0.10002628E+04</pdfrwt>
<pdfrwt beam="2">  1       -1 0.14904709E+00 0.10002628E+04</pdfrwt>
<totfact> 0.20598784E+00</totfact>
</mgrwt>
</event>
<event>
 4    2  0.3396630E-007  0.7109192E+03  0.7818608E-02  0.9954603E-01
          1   -1    0    0  501    0  0.00000000000E+00  0.00000000000E+00  0.13530853010E+04  0.13530853010E+04  0.50400000000E-02 0. -1.
         -1   -1    0    0    0  501 -0.00000000000E+00 -0.00000000000E+00 -0.31703914087E+03  0.31703914091E+03  0.50400000000E-02 0.  1.
    8880023    1    1    2    0    0  0.23774825838E+03 -0.12276657086E+03  0.11411621350E+04  0.13444913870E+04  0.65864270000E+03 0.  0.
    8880022    1    1    2    0    0 -0.23774825838E+03  0.12276657086E+03 -0.10511597480E+03  0.32563305492E+03  0.15294330000E+03 0.  0.
<mgrwt>
<rscale>  0 0.57686407E+03</rscale>
<asrwt>0</asrwt>
<pdfrwt beam="1">  1        1 0.20816697E+00 0.71091917E+03</pdfrwt>
<pdfrwt beam="2">  1       -1 0.48775252E-01 0.71091917E+03</pdfrwt>
<totfact> 0.36070955E+01</totfact>
</mgrwt>
</event>
<event>
 4    2  0.3396630E-007  0.6978707E+03  0.7818608E-02  0.1000615E+00
         -1   -1    0    0    0  501 -0.00000000000E+00  0.00000000000E+00  0.11425802759E+04  0.11425802759E+04  0.50400000000E-02 0.  1.
          1   -1    0    0  501    0  0.00000000000E+00 -0.00000000000E+00 -0.60184191217E+03  0.60184191219E+03  0.50400000000E-02 0. -1.
    8880023    1    1    2    0    0  0.16290142378E+02 -0.23010407941E+03  0.99329240359E+03  0.12139412100E+04  0.65864270000E+03 0.  1.
    8880022    1    1    2    0    0 -0.16290142378E+02  0.23010407941E+03 -0.45255403986E+03  0.53048097808E+03  0.15294330000E+03 0.  0.
<mgrwt>
<rscale>  0 0.55381317E+03</rscale>
<asrwt>0</asrwt>
<pdfrwt beam="1">  1        1 0.92591063E-01 0.69787066E+03</pdfrwt>
<pdfrwt beam="2">  1       -1 0.17578158E+00 0.69787066E+03</pdfrwt>
<totfact> 0.79152540E+00</totfact>
</mgrwt>
</event>
<event>
 4    2  0.3396630E-007  0.8291448E+03  0.7818608E-02  0.9650999E-01
          1   -1    0    0  501    0  0.00000000000E+00  0.00000000000E+00  0.11517133968E+04  0.11517133968E+04  0.50400000000E-02 0. -1.
         -1   -1    0    0    0  501 -0.00000000000E+00 -0.00000000000E+00 -0.51595750203E+03  0.51595750206E+03  0.50400000000E-02 0.  1.
    8880023    1    1    2    0    0  0.41432081421E+03  0.28637232820E+03 -0.16761906890E+02  0.82931418367E+03  0.65864270000E+03 0.  0.
    8880022    1    1    2    0    0 -0.41432081421E+03 -0.28637232820E+03  0.65251780169E+03  0.83835671523E+03  0.15294330000E+03 0.  0.
<mgrwt>
<rscale>  0 0.74010782E+03</rscale>
<asrwt>0</asrwt>
<pdfrwt beam="1">  1        1 0.17718668E+00 0.82914477E+03</pdfrwt>
<pdfrwt beam="2">  1       -1 0.79378078E-01 0.82914477E+03</pdfrwt>
<totfact> 0.18785788E+01</totfact>
</mgrwt>
</event>
<event>
 4    2  0.3396630E-007  0.6703478E+03  0.7818608E-02  0.1015415E+00
          1   -1    0    0  501    0  0.00000000000E+00  0.00000000000E+00  0.26755974205E+04  0.26755974205E+04  0.50400000000E-02 0. -1.
         -1   -1    0    0    0  501 -0.00000000000E+00 -0.00000000000E+00 -0.10843583221E+03  0.10843583233E+03  0.50400000000E-02 0.  1.
    8880023    1    1    2    0    0  0.83380310601E+02  0.92756024750E+02  0.99630830806E+03  0.12008315483E+04  0.65864270000E+03 0.  1.
    8880022    1    1    2    0    0 -0.83380310601E+02 -0.92756024750E+02  0.15708532802E+04  0.15832017045E+04  0.15294330000E+03 0.  0.
<mgrwt>
<rscale>  0 0.49378198E+03</rscale>
<asrwt>0</asrwt>
<pdfrwt beam="1">  1        1 0.41163037E+00 0.67034779E+03</pdfrwt>
<pdfrwt beam="2">  1       -1 0.16682436E-01 0.67034779E+03</pdfrwt>
<totfact> 0.29947026E+01</totfact>
</mgrwt>
</event>
<event>
 4    2  0.3396630E-007  0.7585435E+03  0.7818608E-02  0.9808893E-01
         -1   -1    0    0    0  501 -0.00000000000E+00  0.00000000000E+00  0.66721529060E+03  0.66721529062E+03  0.50400000000E-02 0.  1.
          1   -1    0    0  501    0  0.00000000000E+00 -0.00000000000E+00 -0.91673270824E+03  0.91673270825E+03  0.50400000000E-02 0. -1.
    8880023    1    1    2    0    0 -0.37246567253E+03  0.53360311227E+02  0.36936056402E+03  0.84369155059E+03  0.65864270000E+03 0.  1.
    8880022    1    1    2    0    0  0.37246567253E+03 -0.53360311227E+02 -0.61887798166E+03  0.74025644828E+03  0.15294330000E+03 0.  0.
<mgrwt>
<rscale>  0 0.64887474E+03</rscale>
<asrwt>0</asrwt>
<pdfrwt beam="1">  1        1 0.14103580E+00 0.75854348E+03</pdfrwt>
<pdfrwt beam="2">  1       -1 0.10264851E+00 0.75854348E+03</pdfrwt>
<totfact> 0.16271484E+01</totfact>
</mgrwt>
</event>
<event>
 4    2  0.3396630E-007  0.7129698E+03  0.7818608E-02  0.9947134E-01
         -1   -1    0    0    0  501 -0.00000000000E+00  0.00000000000E+00  0.12235495833E+04  0.12235495833E+04  0.50400000000E-02 0.  1.
          1   -1    0    0  501    0  0.00000000000E+00 -0.00000000000E+00 -0.29489506779E+03  0.29489506783E+03  0.50400000000E-02 0. -1.
    8880023    1    1    2    0    0 -0.23791318307E+03 -0.13383955375E+03  0.96891470003E+03  0.12029636782E+04  0.65864270000E+03 0.  1.
    8880022    1    1    2    0    0  0.23791318307E+03  0.13383955375E+03 -0.40260184522E+02  0.31548097296E+03  0.15294330000E+03 0.  0.
<mgrwt>
<rscale>  0 0.58030360E+03</rscale>
<asrwt>0</asrwt>
<pdfrwt beam="1">  1        1 0.45368472E-01 0.71296979E+03</pdfrwt>
<pdfrwt beam="2">  1       -1 0.18823840E+00 0.71296979E+03</pdfrwt>
<totfact> 0.16815082E+01</totfact>
</mgrwt>
</event>
<event>
 4    2  0.3396630E-007  0.8605633E+03  0.7818608E-02  0.9592562E-01
          1   -1    0    0  501    0  0.00000000000E+00  0.00000000000E+00  0.27756432891E+04  0.27756432891E+04  0.50400000000E-02 0. -1.
         -1   -1    0    0    0  501 -0.00000000000E+00 -0.00000000000E+00 -0.22716751015E+03  0.22716751020E+03  0.50400000000E-02 0.  1.
    8880023    1    1    2    0    0  0.68458647621E+01  0.55381596057E+03  0.84917086785E+03  0.12089914611E+04  0.65864270000E+03 0.  1.
    8880022    1    1    2    0    0 -0.68458647621E+01 -0.55381596057E+03  0.16993049111E+04  0.17938193382E+04  0.15294330000E+03 0.  0.
<mgrwt>
<rscale>  0 0.77790423E+03</rscale>
<asrwt>0</asrwt>
<pdfrwt beam="1">  1        1 0.42702205E+00 0.86056330E+03</pdfrwt>
<pdfrwt beam="2">  1       -1 0.34948848E-01 0.86056330E+03</pdfrwt>
<totfact> 0.70308399E+00</totfact>
</mgrwt>
</event>
<event>
 4    2  0.3396630E-007  0.9607757E+03  0.7818608E-02  0.9434777E-01
         -1   -1    0    0    0  501 -0.00000000000E+00  0.00000000000E+00  0.84158403266E+03  0.84158403268E+03  0.50400000000E-02 0.  1.
          1   -1    0    0  501    0  0.00000000000E+00 -0.00000000000E+00 -0.21424159308E+04  0.21424159308E+04  0.50400000000E-02 0. -1.
    8880023    1    1    2    0    0 -0.58206577137E+03 -0.38791656135E+03  0.47315545977E+03  0.10709650396E+04  0.65864270000E+03 0.  1.
    8880022    1    1    2    0    0  0.58206577137E+03  0.38791656135E+03 -0.17739873579E+04  0.19130349238E+04  0.15294330000E+03 0.  0.
<mgrwt>
<rscale>  0 0.89268126E+03</rscale>
<asrwt>0</asrwt>
<pdfrwt beam="1">  1        1 0.32960245E+00 0.96077574E+03</pdfrwt>
<pdfrwt beam="2">  1       -1 0.12947447E+00 0.96077574E+03</pdfrwt>
<totfact> 0.12452410E+00</totfact>
</mgrwt>
</event>
<event>
 4    2  0.3396630E-007  0.6641829E+03  0.7818608E-02  0.1020229E+00
          1   -1    0    0  501    0  0.00000000000E+00  0.00000000000E+00  0.24861671410E+04  0.24861671410E+04  0.50400000000E-02 0. -1.
         -1   -1    0    0    0  501 -0.00000000000E+00 -0.00000000000E+00 -0.18759762493E+03  0.18759762499E+03  0.50400000000E-02 0.  1.
    8880023    1    1    2    0    0  0.69837019367E+02  0.49512904914E+02  0.41740491754E+03  0.78445255336E+03  0.65864270000E+03 0.  1.
    8880022    1    1    2    0    0 -0.69837019367E+02 -0.49512904914E+02  0.18811645985E+04  0.18893122127E+04  0.15294330000E+03 0.  0.
<mgrwt>
<rscale>  0 0.47604073E+03</rscale>
<asrwt>0</asrwt>
<pdfrwt beam="1">  1        1 0.38248722E+00 0.66418291E+03</pdfrwt>
<pdfrwt beam="2">  1       -1 0.28861176E-01 0.66418291E+03</pdfrwt>
<totfact> 0.16093794E+01</totfact>
</mgrwt>
</event>
<event>
 4    2  0.3396630E-007  0.7665694E+03  0.7818608E-02  0.9788388E-01
         -1   -1    0    0    0  501 -0.00000000000E+00  0.00000000000E+00  0.79575322214E+03  0.79575322216E+03  0.50400000000E-02 0.  1.
          1   -1    0    0  501    0  0.00000000000E+00 -0.00000000000E+00 -0.71803344272E+03  0.71803344274E+03  0.50400000000E-02 0. -1.
    8880023    1    1    2    0    0  0.17462315042E+03  0.35117679863E+03  0.50183301831E+03  0.91622321139E+03  0.65864270000E+03 0.  1.
    8880022    1    1    2    0    0 -0.17462315042E+03 -0.35117679863E+03 -0.42411323889E+03  0.59756345351E+03  0.15294330000E+03 0.  0.
<mgrwt>
<rscale>  0 0.65989469E+03</rscale>
<asrwt>0</asrwt>
<pdfrwt beam="1">  1        1 0.11046668E+00 0.76656937E+03</pdfrwt>
<pdfrwt beam="2">  1       -1 0.12242357E+00 0.76656937E+03</pdfrwt>
<totfact> 0.15847127E+01</totfact>
</mgrwt>
</event>
<event>
 4    2  0.3396630E-007  0.9527795E+03  0.7818608E-02  0.9446126E-01
         -1   -1    0    0    0  501 -0.00000000000E+00  0.00000000000E+00  0.75484161498E+03  0.75484161500E+03  0.50400000000E-02 0.  1.
          1   -1    0    0  501    0  0.00000000000E+00 -0.00000000000E+00 -0.21183679535E+04  0.21183679536E+04  0.50400000000E-02 0. -1.
    8880023    1    1    2    0    0 -0.22483742474E+03  0.65071240812E+03  0.35408661663E+03  0.10164477576E+04  0.65864270000E+03 0.  1.
    8880022    1    1    2    0    0  0.22483742474E+03 -0.65071240812E+03 -0.17176129552E+04  0.18567618109E+04  0.15294330000E+03 0.  0.
<mgrwt>
<rscale>  0 0.88374966E+03</rscale>
<asrwt>0</asrwt>
<pdfrwt beam="1">  1        1 0.32590276E+00 0.95277947E+03</pdfrwt>
<pdfrwt beam="2">  1       -1 0.11612948E+00 0.95277947E+03</pdfrwt>
<totfact> 0.16932619E+00</totfact>
</mgrwt>
</event>
<event>
 4    2  0.3396630E-007  0.6842903E+03  0.7818608E-02  0.1006994E+00
         -1   -1    0    0    0  501 -0.00000000000E+00  0.00000000000E+00  0.29462177714E+03  0.29462177718E+03  0.50400000000E-02 0.  1.
          1   -1    0    0  501    0  0.00000000000E+00 -0.00000000000E+00 -0.15731451714E+04  0.15731451714E+04  0.50400000000E-02 0. -1.
    8880023    1    1    2    0    0  0.12522091919E+03 -0.13697732514E+03 -0.13277622528E+03  0.69705293807E+03  0.65864270000E+03 0.  0.
    8880022    1    1    2    0    0 -0.12522091919E+03  0.13697732514E+03 -0.11457471690E+04  0.11707140105E+04  0.15294330000E+03 0.  0.
<mgrwt>
<rscale>  0 0.52687051E+03</rscale>
<asrwt>0</asrwt>
<pdfrwt beam="1">  1        1 0.24202233E+00 0.68429034E+03</pdfrwt>
<pdfrwt beam="2">  1       -1 0.45326428E-01 0.68429034E+03</pdfrwt>
<totfact> 0.29307935E+01</totfact>
</mgrwt>
</event>
<event>
 4    2  0.3396630E-007  0.1473278E+04  0.7818608E-02  0.8928740E-01
         -1   -1    0    0    0  501 -0.00000000000E+00  0.00000000000E+00  0.94248806313E+03  0.94248806314E+03  0.50400000000E-02 0.  1.
          1   -1    0    0  501    0  0.00000000000E+00 -0.00000000000E+00 -0.25052389656E+04  0.25052389656E+04  0.50400000000E-02 0. -1.
    8880023    1    1    2    0    0  0.13092507620E+04 -0.15032911596E+03 -0.10555336453E+03  0.14770538649E+04  0.65864270000E+03 0.  0.
    8880022    1    1    2    0    0 -0.13092507620E+04  0.15032911596E+03 -0.14571975379E+04  0.19706731638E+04  0.15294330000E+03 0.  0.
<mgrwt>
<rscale>  0 0.14351803E+04</rscale>
<asrwt>0</asrwt>
<pdfrwt beam="1">  1        1 0.38542138E+00 0.14732775E+04</pdfrwt>
<pdfrwt beam="2">  1       -1 0.14499816E+00 0.14732775E+04</pdfrwt>
<totfact> 0.48941318E-01</totfact>
</mgrwt>
</event>
<event>
 4    2  0.3396630E-007  0.7984977E+03  0.7818608E-02  0.9714054E-01
         -1   -1    0    0    0  501 -0.00000000000E+00  0.00000000000E+00  0.73061359883E+03  0.73061359885E+03  0.50400000000E-02 0.  1.
          1   -1    0    0  501    0  0.00000000000E+00 -0.00000000000E+00 -0.96501796297E+03  0.96501796299E+03  0.50400000000E-02 0. -1.
    8880023    1    1    2    0    0  0.40102748086E+03  0.20728069790E+03  0.40722202290E+03  0.89634162590E+03  0.65864270000E+03 0.  1.
    8880022    1    1    2    0    0 -0.40102748086E+03 -0.20728069790E+03 -0.64162638704E+03  0.79928993593E+03  0.15294330000E+03 0.  0.
<mgrwt>
<rscale>  0 0.70186163E+03</rscale>
<asrwt>0</asrwt>
<pdfrwt beam="1">  1        1 0.14846430E+00 0.79849767E+03</pdfrwt>
<pdfrwt beam="2">  1       -1 0.11240209E+00 0.79849767E+03</pdfrwt>
<totfact> 0.11981461E+01</totfact>
</mgrwt>
</event>
<event>
 4    2  0.3396630E-007  0.8906181E+03  0.7818608E-02  0.9541263E-01
         -1   -1    0    0    0  501 -0.00000000000E+00  0.00000000000E+00  0.44579876691E+03  0.44579876694E+03  0.50400000000E-02 0.  1.
          1   -1    0    0  501    0  0.00000000000E+00 -0.00000000000E+00 -0.14313285404E+04  0.14313285404E+04  0.50400000000E-02 0. -1.
    8880023    1    1    2    0    0 -0.52486586947E+03  0.28966579826E+03 -0.87520659770E+03  0.12486741971E+04  0.65864270000E+03 0. -1.
    8880022    1    1    2    0    0  0.52486586947E+03 -0.28966579826E+03 -0.11032317578E+03  0.62845311022E+03  0.15294330000E+03 0.  0.
<mgrwt>
<rscale>  0 0.81308810E+03</rscale>
<asrwt>0</asrwt>
<pdfrwt beam="1">  1        1 0.22020439E+00 0.89061813E+03</pdfrwt>
<pdfrwt beam="2">  1       -1 0.68584427E-01 0.89061813E+03</pdfrwt>
<totfact> 0.15982709E+01</totfact>
</mgrwt>
</event>
<event>
 4    2  0.3396630E-007  0.7006281E+03  0.7818608E-02  0.9994605E-01
         -1   -1    0    0    0  501 -0.00000000000E+00  0.00000000000E+00  0.64429310540E+03  0.64429310542E+03  0.50400000000E-02 0.  1.
          1   -1    0    0  501    0  0.00000000000E+00 -0.00000000000E+00 -0.48258003214E+03  0.48258003216E+03  0.50400000000E-02 0. -1.
    8880023    1    1    2    0    0  0.22720059526E+03 -0.73820412819E+02  0.35321173586E+03  0.78462621703E+03  0.65864270000E+03 0.  1.
    8880022    1    1    2    0    0 -0.22720059526E+03  0.73820412819E+02 -0.19149866260E+03  0.34224692055E+03  0.15294330000E+03 0.  0.
<mgrwt>
<rscale>  0 0.55887412E+03</rscale>
<asrwt>0</asrwt>
<pdfrwt beam="1">  1        1 0.74243082E-01 0.70062813E+03</pdfrwt>
<pdfrwt beam="2">  1       -1 0.99122016E-01 0.70062813E+03</pdfrwt>
<totfact> 0.46445950E+01</totfact>
</mgrwt>
</event>
<event>
 4    2  0.3396630E-007  0.6663950E+03  0.7818608E-02  0.1018391E+00
          1   -1    0    0  501    0  0.00000000000E+00  0.00000000000E+00  0.45943057476E+03  0.45943057478E+03  0.50400000000E-02 0. -1.
         -1   -1    0    0    0  501 -0.00000000000E+00 -0.00000000000E+00 -0.39831835207E+03  0.39831835210E+03  0.50400000000E-02 0.  1.
    8880023    1    1    2    0    0 -0.10129948627E+03  0.32314830249E+01  0.68997417493E+01  0.66643067239E+03  0.65864270000E+03 0. -1.
    8880022    1    1    2    0    0  0.10129948627E+03 -0.32314830249E+01  0.54212480935E+02  0.19131825450E+03  0.15294330000E+03 0.  0.
<mgrwt>
<rscale>  0 0.48271854E+03</rscale>
<asrwt>0</asrwt>
<pdfrwt beam="1">  1        1 0.70681627E-01 0.66639495E+03</pdfrwt>
<pdfrwt beam="2">  1       -1 0.61279747E-01 0.66639495E+03</pdfrwt>
<totfact> 0.13728372E+02</totfact>
</mgrwt>
</event>
<event>
 4    2  0.3396630E-007  0.1032772E+04  0.7818608E-02  0.9339885E-01
          1   -1    0    0  501    0  0.00000000000E+00  0.00000000000E+00  0.16882828414E+04  0.16882828414E+04  0.50400000000E-02 0. -1.
         -1   -1    0    0    0  501 -0.00000000000E+00 -0.00000000000E+00 -0.96691786720E+03  0.96691786722E+03  0.50400000000E-02 0.  1.
    8880023    1    1    2    0    0 -0.39284314848E+03  0.69172365935E+03 -0.53285134540E+03  0.11621308544E+04  0.65864270000E+03 0.  0.
    8880022    1    1    2    0    0  0.39284314848E+03 -0.69172365935E+03  0.12542163196E+04  0.14930698542E+04  0.15294330000E+03 0.  0.
<mgrwt>
<rscale>  0 0.97192493E+03</rscale>
<asrwt>0</asrwt>
<pdfrwt beam="1">  1        1 0.25973582E+00 0.10327718E+04</pdfrwt>
<pdfrwt beam="2">  1       -1 0.14875660E+00 0.10327718E+04</pdfrwt>
<totfact> 0.17368165E+00</totfact>
</mgrwt>
</event>
<event>
 4    2  0.3396630E-007  0.7185664E+03  0.7818608E-02  0.9927467E-01
          1   -1    0    0  501    0  0.00000000000E+00  0.00000000000E+00  0.14813334683E+04  0.14813334683E+04  0.50400000000E-02 0. -1.
         -1   -1    0    0    0  501 -0.00000000000E+00 -0.00000000000E+00 -0.37192459864E+03  0.37192459867E+03  0.50400000000E-02 0.  1.
    8880023    1    1    2    0    0  0.17649329006E+03 -0.22666614373E+03  0.22768215083E+02  0.71892699214E+03  0.65864270000E+03 0.  0.
    8880022    1    1    2    0    0 -0.17649329006E+03  0.22666614373E+03  0.10866406546E+04  0.11343310748E+04  0.15294330000E+03 0.  0.
<mgrwt>
<rscale>  0 0.58948389E+03</rscale>
<asrwt>0</asrwt>
<pdfrwt beam="1">  1        1 0.22789746E+00 0.71856637E+03</pdfrwt>
<pdfrwt beam="2">  1       -1 0.57219169E-01 0.71856637E+03</pdfrwt>
<totfact> 0.21641477E+01</totfact>
</mgrwt>
</event>
<event>
 4    2  0.3396630E-007  0.7246444E+03  0.7818608E-02  0.9907173E-01
          1   -1    0    0  501    0  0.00000000000E+00  0.00000000000E+00  0.30510171753E+04  0.30510171753E+04  0.50400000000E-02 0. -1.
         -1   -1    0    0    0  501 -0.00000000000E+00 -0.00000000000E+00 -0.12843350455E+03  0.12843350465E+03  0.50400000000E-02 0.  1.
    8880023    1    1    2    0    0  0.14503056832E+03 -0.26507621292E+03  0.10455960065E+04  0.12721558393E+04  0.65864270000E+03 0.  1.
    8880022    1    1    2    0    0 -0.14503056832E+03  0.26507621292E+03  0.18769876642E+04  0.19072948406E+04  0.15294330000E+03 0.  0.
<mgrwt>
<rscale>  0 0.59914898E+03</rscale>
<asrwt>0</asrwt>
<pdfrwt beam="1">  1        1 0.46938726E+00 0.72464438E+03</pdfrwt>
<pdfrwt beam="2">  1       -1 0.19759001E-01 0.72464438E+03</pdfrwt>
<totfact> 0.12204224E+01</totfact>
</mgrwt>
</event>
<event>
 4    2  0.3396630E-007  0.7174246E+03  0.7818608E-02  0.9931399E-01
          1   -1    0    0  501    0  0.00000000000E+00  0.00000000000E+00  0.14578974657E+04  0.14578974657E+04  0.50400000000E-02 0. -1.
         -1   -1    0    0    0  501 -0.00000000000E+00 -0.00000000000E+00 -0.29952500684E+03  0.29952500688E+03  0.50400000000E-02 0.  1.
    8880023    1    1    2    0    0  0.27748109666E+03  0.62386512367E+02  0.19804928818E+03  0.74425906964E+03  0.65864270000E+03 0.  1.
    8880022    1    1    2    0    0 -0.27748109666E+03 -0.62386512367E+02  0.96032317068E+03  0.10131634030E+04  0.15294330000E+03 0.  0.
<mgrwt>
<rscale>  0 0.58763419E+03</rscale>
<asrwt>0</asrwt>
<pdfrwt beam="1">  1        1 0.22429192E+00 0.71742459E+03</pdfrwt>
<pdfrwt beam="2">  1       -1 0.46080769E-01 0.71742459E+03</pdfrwt>
<totfact> 0.33916869E+01</totfact>
</mgrwt>
</event>
<event>
 4    2  0.3396630E-007  0.7561959E+03  0.7818608E-02  0.9815057E-01
         -1   -1    0    0    0  501 -0.00000000000E+00  0.00000000000E+00  0.73685247262E+03  0.73685247263E+03  0.50400000000E-02 0.  1.
          1   -1    0    0  501    0  0.00000000000E+00 -0.00000000000E+00 -0.70821255331E+03  0.70821255333E+03  0.50400000000E-02 0. -1.
    8880023    1    1    2    0    0  0.34517131031E+03 -0.13739997955E+03  0.43602461499E+03  0.87289727859E+03  0.65864270000E+03 0.  1.
    8880022    1    1    2    0    0 -0.34517131031E+03  0.13739997955E+03 -0.40738469568E+03  0.57216774737E+03  0.15294330000E+03 0.  0.
<mgrwt>
<rscale>  0 0.64560704E+03</rscale>
<asrwt>0</asrwt>
<pdfrwt beam="1">  1        1 0.10895578E+00 0.75619587E+03</pdfrwt>
<pdfrwt beam="2">  1       -1 0.11336192E+00 0.75619587E+03</pdfrwt>
<totfact> 0.19514521E+01</totfact>
</mgrwt>
</event>
<event>
 4    2  0.3396630E-007  0.7677646E+03  0.7818608E-02  0.9785405E-01
         -1   -1    0    0    0  501 -0.00000000000E+00  0.00000000000E+00  0.22060967756E+04  0.22060967756E+04  0.50400000000E-02 0.  1.
          1   -1    0    0  501    0  0.00000000000E+00 -0.00000000000E+00 -0.11347231254E+04  0.11347231254E+04  0.50400000000E-02 0. -1.
    8880023    1    1    2    0    0 -0.34554873158E+02  0.39301167784E+03  0.20960373100E+04  0.22322264287E+04  0.65864270000E+03 0.  1.
    8880022    1    1    2    0    0  0.34554873158E+02 -0.39301167784E+03 -0.10246636597E+04  0.11085934723E+04  0.15294330000E+03 0.  0.
<mgrwt>
<rscale>  0 0.66151695E+03</rscale>
<asrwt>0</asrwt>
<pdfrwt beam="1">  1        1 0.17457279E+00 0.76776456E+03</pdfrwt>
<pdfrwt beam="2">  1       -1 0.33939950E+00 0.76776456E+03</pdfrwt>
<totfact> 0.23311100E-01</totfact>
</mgrwt>
</event>
<event>
 4    2  0.3396630E-007  0.8216317E+03  0.7818608E-02  0.9665839E-01
          1   -1    0    0  501    0  0.00000000000E+00  0.00000000000E+00  0.78559137773E+03  0.78559137775E+03  0.50400000000E-02 0. -1.
         -1   -1    0    0    0  501 -0.00000000000E+00 -0.00000000000E+00 -0.58219411557E+03  0.58219411559E+03  0.50400000000E-02 0.  1.
    8880023    1    1    2    0    0 -0.32626630406E+03 -0.36717672822E+03  0.22821104598E+03  0.85273614833E+03  0.65864270000E+03 0. -1.
    8880022    1    1    2    0    0  0.32626630406E+03  0.36717672822E+03 -0.24813783809E+02  0.51504934500E+03  0.15294330000E+03 0.  0.
<mgrwt>
<rscale>  0 0.73087642E+03</rscale>
<asrwt>0</asrwt>
<pdfrwt beam="1">  1        1 0.12086021E+00 0.82163170E+03</pdfrwt>
<pdfrwt beam="2">  1       -1 0.89568326E-01 0.82163170E+03</pdfrwt>
<totfact> 0.28297683E+01</totfact>
</mgrwt>
</event>
<event>
 4    2  0.3396630E-007  0.1155787E+04  0.7818608E-02  0.9201347E-01
          1   -1    0    0  501    0  0.00000000000E+00  0.00000000000E+00  0.81606195639E+03  0.81606195641E+03  0.50400000000E-02 0. -1.
         -1   -1    0    0    0  501 -0.00000000000E+00 -0.00000000000E+00 -0.14094614828E+04  0.14094614828E+04  0.50400000000E-02 0.  1.
    8880023    1    1    2    0    0 -0.83834908968E+03  0.44632209800E+03 -0.49902445283E+03  0.12589154944E+04  0.65864270000E+03 0.  0.
    8880022    1    1    2    0    0  0.83834908968E+03 -0.44632209800E+03 -0.94375073537E+02  0.96660794475E+03  0.15294330000E+03 0.  0.
<mgrwt>
<rscale>  0 0.11039537E+04</rscale>
<asrwt>0</asrwt>
<pdfrwt beam="1">  1        1 0.12554799E+00 0.11557867E+04</pdfrwt>
<pdfrwt beam="2">  1       -1 0.21684023E+00 0.11557867E+04</pdfrwt>
<totfact> 0.24427646E+00</totfact>
</mgrwt>
</event>
<event>
 4    2  0.3396630E-007  0.6644629E+03  0.7818608E-02  0.1019988E+00
          1   -1    0    0  501    0  0.00000000000E+00  0.00000000000E+00  0.68737325846E+03  0.68737325848E+03  0.50400000000E-02 0. -1.
         -1   -1    0    0    0  501 -0.00000000000E+00 -0.00000000000E+00 -0.66202750174E+03  0.66202750175E+03  0.50400000000E-02 0.  1.
    8880023    1    1    2    0    0  0.37640857156E+02  0.79270863002E+02 -0.47638282212E+03  0.81758883512E+03  0.65864270000E+03 0.  1.
    8880022    1    1    2    0    0 -0.37640857156E+02 -0.79270863002E+02  0.50172857884E+03  0.53181192511E+03  0.15294330000E+03 0.  0.
<mgrwt>
<rscale>  0 0.47690815E+03</rscale>
<asrwt>0</asrwt>
<pdfrwt beam="1">  1        1 0.10574973E+00 0.66446287E+03</pdfrwt>
<pdfrwt beam="2">  1       -1 0.10185038E+00 0.66446287E+03</pdfrwt>
<totfact> 0.26497101E+01</totfact>
</mgrwt>
</event>
<event>
 4    2  0.3396630E-007  0.6694818E+03  0.7818608E-02  0.1016037E+00
         -1   -1    0    0    0  501 -0.00000000000E+00  0.00000000000E+00  0.11698572543E+04  0.11698572543E+04  0.50400000000E-02 0.  1.
          1   -1    0    0  501    0  0.00000000000E+00 -0.00000000000E+00 -0.63728881740E+03  0.63728881742E+03  0.50400000000E-02 0. -1.
    8880023    1    1    2    0    0 -0.38650517377E+02 -0.11358638155E+03  0.10551286819E+04  0.12496009244E+04  0.65864270000E+03 0.  1.
    8880022    1    1    2    0    0  0.38650517377E+02  0.11358638155E+03 -0.52256024505E+03  0.55754514731E+03  0.15294330000E+03 0.  0.
<mgrwt>
<rscale>  0 0.49144221E+03</rscale>
<asrwt>0</asrwt>
<pdfrwt beam="1">  1        1 0.98044433E-01 0.66948184E+03</pdfrwt>
<pdfrwt beam="2">  1       -1 0.17997804E+00 0.66948184E+03</pdfrwt>
<totfact> 0.68279159E+00</totfact>
</mgrwt>
</event>
<event>
 4    2  0.3396630E-007  0.7395418E+03  0.7818608E-02  0.9861284E-01
          1   -1    0    0  501    0  0.00000000000E+00  0.00000000000E+00  0.54992814776E+03  0.54992814778E+03  0.50400000000E-02 0. -1.
         -1   -1    0    0    0  501 -0.00000000000E+00 -0.00000000000E+00 -0.84423482979E+03  0.84423482981E+03  0.50400000000E-02 0.  1.
    8880023    1    1    2    0    0 -0.38701829557E+02  0.33408687220E+03 -0.56955334907E+03  0.93344153191E+03  0.65864270000E+03 0.  1.
    8880022    1    1    2    0    0  0.38701829557E+02 -0.33408687220E+03  0.27524666704E+03  0.46072144569E+03  0.15294330000E+03 0.  0.
<mgrwt>
<rscale>  0 0.62174890E+03</rscale>
<asrwt>0</asrwt>
<pdfrwt beam="1">  1        1 0.84604330E-01 0.73954180E+03</pdfrwt>
<pdfrwt beam="2">  1       -1 0.12988228E+00 0.73954180E+03</pdfrwt>
<totfact> 0.20259715E+01</totfact>
</mgrwt>
</event>
<event>
 4    2  0.3396630E-007  0.9313999E+03  0.7818608E-02  0.9477396E-01
          1   -1    0    0  501    0  0.00000000000E+00  0.00000000000E+00  0.21802119059E+04  0.21802119059E+04  0.50400000000E-02 0. -1.
         -1   -1    0    0    0  501 -0.00000000000E+00 -0.00000000000E+00 -0.36680356810E+03  0.36680356814E+03  0.50400000000E-02 0.  1.
    8880023    1    1    2    0    0  0.46074490970E+02  0.65694188098E+03  0.47043059488E+03  0.10434608975E+04  0.65864270000E+03 0.  0.
    8880022    1    1    2    0    0 -0.46074490970E+02 -0.65694188098E+03  0.13429777429E+04  0.15035545766E+04  0.15294330000E+03 0.  0.
<mgrwt>
<rscale>  0 0.85971005E+03</rscale>
<asrwt>0</asrwt>
<pdfrwt beam="1">  1        1 0.33541722E+00 0.93139986E+03</pdfrwt>
<pdfrwt beam="2">  1       -1 0.56431317E-01 0.93139986E+03</pdfrwt>
<totfact> 0.73035349E+00</totfact>
</mgrwt>
</event>
<event>
 4    2  0.3396630E-007  0.6702172E+03  0.7818608E-02  0.1015508E+00
         -1   -1    0    0    0  501 -0.00000000000E+00  0.00000000000E+00  0.28104353234E+03  0.28104353238E+03  0.50400000000E-02 0.  1.
          1   -1    0    0  501    0  0.00000000000E+00 -0.00000000000E+00 -0.72042029528E+03  0.72042029529E+03  0.50400000000E-02 0. -1.
    8880023    1    1    2    0    0 -0.12117887551E+03 -0.26391392722E+02 -0.21707426345E+03  0.70449433468E+03  0.65864270000E+03 0.  0.
    8880022    1    1    2    0    0  0.12117887551E+03  0.26391392722E+02 -0.22230249949E+03  0.29696949300E+03  0.15294330000E+03 0.  0.
<mgrwt>
<rscale>  0 0.49343176E+03</rscale>
<asrwt>0</asrwt>
<pdfrwt beam="1">  1        1 0.11083389E+00 0.67021715E+03</pdfrwt>
<pdfrwt beam="2">  1       -1 0.43237467E-01 0.67021715E+03</pdfrwt>
<totfact> 0.14051119E+02</totfact>
</mgrwt>
</event>
<event>
 4    2  0.3396630E-007  0.6841281E+03  0.7818608E-02  0.1007079E+00
          1   -1    0    0  501    0  0.00000000000E+00  0.00000000000E+00  0.26592957414E+04  0.26592957414E+04  0.50400000000E-02 0. -1.
         -1   -1    0    0    0  501 -0.00000000000E+00 -0.00000000000E+00 -0.62170178694E+03  0.62170178696E+03  0.50400000000E-02 0.  1.
    8880023    1    1    2    0    0 -0.38171257316E+02  0.18100841524E+03 -0.42588070197E+03  0.80585710262E+03  0.65864270000E+03 0.  1.
    8880022    1    1    2    0    0  0.38171257316E+02 -0.18100841524E+03  0.24634746564E+04  0.24751404258E+04  0.15294330000E+03 0.  0.
<mgrwt>
<rscale>  0 0.52652368E+03</rscale>
<asrwt>0</asrwt>
<pdfrwt beam="1">  1        1 0.40912242E+00 0.68412813E+03</pdfrwt>
<pdfrwt beam="2">  1       -1 0.95646428E-01 0.68412813E+03</pdfrwt>
<totfact> 0.12011164E+00</totfact>
</mgrwt>
</event>
<event>
 4    2  0.3396630E-007  0.6820096E+03  0.7818608E-02  0.1008209E+00
         -1   -1    0    0    0  501 -0.00000000000E+00  0.00000000000E+00  0.12064251468E+04  0.12064251468E+04  0.50400000000E-02 0.  1.
          1   -1    0    0  501    0  0.00000000000E+00 -0.00000000000E+00 -0.29803358989E+03  0.29803358993E+03  0.50400000000E-02 0. -1.
    8880023    1    1    2    0    0 -0.75712019176E+02 -0.15998300483E+03  0.10342156041E+04  0.12388458313E+04  0.65864270000E+03 0.  0.
    8880022    1    1    2    0    0  0.75712019176E+02  0.15998300483E+03 -0.12582404718E+03  0.26561290546E+03  0.15294330000E+03 0. -1.
<mgrwt>
<rscale>  0 0.52192687E+03</rscale>
<asrwt>0</asrwt>
<pdfrwt beam="1">  1        1 0.45851323E-01 0.68200959E+03</pdfrwt>
<pdfrwt beam="2">  1       -1 0.18560386E+00 0.68200959E+03</pdfrwt>
<totfact> 0.17367662E+01</totfact>
</mgrwt>
</event>
<event>
 4    2  0.7621682E-007  0.6814686E+03  0.7818608E-02  0.1008505E+00
         -1   -1    0    0    0  501 -0.00000000000E+00  0.00000000000E+00  0.12656553213E+04  0.12656553213E+04  0.50400000000E-02 0.  1.
          1   -1    0    0  501    0  0.00000000000E+00 -0.00000000000E+00 -0.23445071034E+04  0.23445071034E+04  0.50400000000E-02 0. -1.
    8880023    1    1    2    0    0  0.12955091029E+03  0.11749827427E+03  0.11674963123E+04  0.13518310280E+04  0.65864270000E+03 0.  1.
    8880022    1    1    2    0    0 -0.12955091029E+03 -0.11749827427E+03 -0.22463480944E+04  0.22583313966E+04  0.15294330000E+03 0.  0.
<mgrwt>
<rscale>  0 0.52073222E+03</rscale>
<asrwt>0</asrwt>
<pdfrwt beam="1">  1        1 0.36069340E+00 0.68146863E+03</pdfrwt>
<pdfrwt beam="2">  1       -1 0.19471620E+00 0.68146863E+03</pdfrwt>
<totfact> 0.31041790E-01</totfact>
</mgrwt>
</event>
<event>
 4    2  0.3396630E-007  0.7637805E+03  0.7818608E-02  0.9795417E-01
         -1   -1    0    0    0  501 -0.00000000000E+00  0.00000000000E+00  0.54856026228E+03  0.54856026230E+03  0.50400000000E-02 0.  1.
          1   -1    0    0  501    0  0.00000000000E+00 -0.00000000000E+00 -0.23561039480E+04  0.23561039480E+04  0.50400000000E-02 0. -1.
    8880023    1    1    2    0    0  0.19879174242E+03 -0.33171115499E+03  0.25143974706E+03  0.80410360021E+03  0.65864270000E+03 0.  0.
    8880022    1    1    2    0    0 -0.19879174242E+03  0.33171115499E+03 -0.20589834328E+04  0.21005606101E+04  0.15294330000E+03 0.  0.
<mgrwt>
<rscale>  0 0.65609090E+03</rscale>
<asrwt>0</asrwt>
<pdfrwt beam="1">  1        1 0.36247752E+00 0.76378050E+03</pdfrwt>
<pdfrwt beam="2">  1       -1 0.84393888E-01 0.76378050E+03</pdfrwt>
<totfact> 0.25037646E+00</totfact>
</mgrwt>
</event>
<event>
 4    2  0.3396630E-007  0.7262171E+03  0.7818608E-02  0.9902085E-01
          1   -1    0    0  501    0  0.00000000000E+00  0.00000000000E+00  0.69806828587E+03  0.69806828589E+03  0.50400000000E-02 0. -1.
         -1   -1    0    0    0  501 -0.00000000000E+00 -0.00000000000E+00 -0.42458555921E+03  0.42458555924E+03  0.50400000000E-02 0.  1.
    8880023    1    1    2    0    0  0.19427985797E+03 -0.23629723563E+03  0.82386787148E+02  0.73087539002E+03  0.65864270000E+03 0. -1.
    8880022    1    1    2    0    0 -0.19427985797E+03  0.23629723563E+03  0.19109593951E+03  0.39177845511E+03  0.15294330000E+03 0.  0.
<mgrwt>
<rscale>  0 0.60160358E+03</rscale>
<asrwt>0</asrwt>
<pdfrwt beam="1">  1        1 0.10739512E+00 0.72621708E+03</pdfrwt>
<pdfrwt beam="2">  1       -1 0.65320856E-01 0.72621708E+03</pdfrwt>
<totfact> 0.66486086E+01</totfact>
</mgrwt>
</event>
<event>
 4    2  0.3396630E-007  0.7051631E+03  0.7818608E-02  0.9976421E-01
          1   -1    0    0  501    0  0.00000000000E+00  0.00000000000E+00  0.38344064904E+04  0.38344064904E+04  0.50400000000E-02 0. -1.
         -1   -1    0    0    0  501 -0.00000000000E+00 -0.00000000000E+00 -0.36010210022E+03  0.36010210026E+03  0.50400000000E-02 0.  1.
    8880023    1    1    2    0    0 -0.18447216495E+03  0.17150736070E+03 -0.25710775824E+01  0.70516776097E+03  0.65864270000E+03 0.  1.
    8880022    1    1    2    0    0  0.18447216495E+03 -0.17150736070E+03  0.34768754678E+04  0.34893408297E+04  0.15294330000E+03 0.  0.
<mgrwt>
<rscale>  0 0.56696324E+03</rscale>
<asrwt>0</asrwt>
<pdfrwt beam="1">  1        1 0.58990869E+00 0.70516307E+03</pdfrwt>
<pdfrwt beam="2">  1       -1 0.55400323E-01 0.70516307E+03</pdfrwt>
<totfact> 0.49137786E-01</totfact>
</mgrwt>
</event>
<event>
 4    2  0.3396630E-007  0.6999965E+03  0.7818608E-02  0.9997215E-01
          1   -1    0    0  501    0  0.00000000000E+00  0.00000000000E+00  0.15824174177E+04  0.15824174177E+04  0.50400000000E-02 0. -1.
         -1   -1    0    0    0  501 -0.00000000000E+00 -0.00000000000E+00 -0.50911928701E+03  0.50911928704E+03  0.50400000000E-02 0.  1.
    8880023    1    1    2    0    0  0.30680235631E+02  0.23503975044E+03 -0.24634553258E+03  0.74207903139E+03  0.65864270000E+03 0.  0.
    8880022    1    1    2    0    0 -0.30680235631E+02 -0.23503975044E+03  0.13196436633E+04  0.13494576733E+04  0.15294330000E+03 0.  0.
<mgrwt>
<rscale>  0 0.55772499E+03</rscale>
<asrwt>0</asrwt>
<pdfrwt beam="1">  1        1 0.24344883E+00 0.69999655E+03</pdfrwt>
<pdfrwt beam="2">  1       -1 0.78326046E-01 0.69999655E+03</pdfrwt>
<totfact> 0.98106852E+00</totfact>
</mgrwt>
</event>
<event>
 4    2  0.3396630E-007  0.7888162E+03  0.7818608E-02  0.9735521E-01
         -1   -1    0    0    0  501 -0.00000000000E+00  0.00000000000E+00  0.36712189586E+03  0.36712189590E+03  0.50400000000E-02 0.  1.
          1   -1    0    0  501    0  0.00000000000E+00 -0.00000000000E+00 -0.19234174744E+04  0.19234174744E+04  0.50400000000E-02 0. -1.
    8880023    1    1    2    0    0  0.19122863201E+03  0.38968240280E+03 -0.13974300954E+03  0.80109867041E+03  0.65864270000E+03 0.  1.
    8880022    1    1    2    0    0 -0.19122863201E+03 -0.38968240280E+03 -0.14165525690E+04  0.14894406999E+04  0.15294330000E+03 0.  0.
<mgrwt>
<rscale>  0 0.68940715E+03</rscale>
<asrwt>0</asrwt>
<pdfrwt beam="1">  1        1 0.29591037E+00 0.78881618E+03</pdfrwt>
<pdfrwt beam="2">  1       -1 0.56480293E-01 0.78881618E+03</pdfrwt>
<totfact> 0.11061190E+01</totfact>
</mgrwt>
</event>
<event>
 4    2  0.3396630E-007  0.6609547E+03  0.7818608E-02  0.1023199E+00
         -1   -1    0    0    0  501 -0.00000000000E+00  0.00000000000E+00  0.70982148980E+03  0.70982148981E+03  0.50400000000E-02 0.  1.
          1   -1    0    0  501    0  0.00000000000E+00 -0.00000000000E+00 -0.72469662854E+03  0.72469662855E+03  0.50400000000E-02 0. -1.
    8880023    1    1    2    0    0  0.19652524162E+02  0.51620012528E+02  0.54176200263E+03  0.85461518893E+03  0.65864270000E+03 0.  1.
    8880022    1    1    2    0    0 -0.19652524162E+02 -0.51620012528E+02 -0.55663714137E+03  0.57990292944E+03  0.15294330000E+03 0.  0.
<mgrwt>
<rscale>  0 0.46549665E+03</rscale>
<asrwt>0</asrwt>
<pdfrwt beam="1">  1        1 0.11149179E+00 0.66095465E+03</pdfrwt>
<pdfrwt beam="2">  1       -1 0.10920331E+00 0.66095465E+03</pdfrwt>
<totfact> 0.20819429E+01</totfact>
</mgrwt>
</event>
<event>
 4    2  0.3396630E-007  0.8779512E+03  0.7818608E-02  0.9562396E-01
         -1   -1    0    0    0  501 -0.00000000000E+00  0.00000000000E+00  0.28672778803E+03  0.28672778807E+03  0.50400000000E-02 0.  1.
          1   -1    0    0  501    0  0.00000000000E+00 -0.00000000000E+00 -0.24855733307E+04  0.24855733307E+04  0.50400000000E-02 0. -1.
    8880023    1    1    2    0    0  0.30573282023E+03 -0.49347295585E+03 -0.59710425465E+03  0.10617588298E+04  0.65864270000E+03 0.  1.
    8880022    1    1    2    0    0 -0.30573282023E+03  0.49347295585E+03 -0.16017412880E+04  0.17105422889E+04  0.15294330000E+03 0.  0.
<mgrwt>
<rscale>  0 0.79835828E+03</rscale>
<asrwt>0</asrwt>
<pdfrwt beam="1">  1        1 0.38239588E+00 0.87795121E+03</pdfrwt>
<pdfrwt beam="2">  1       -1 0.44111969E-01 0.87795121E+03</pdfrwt>
<totfact> 0.72908209E+00</totfact>
</mgrwt>
</event>
<event>
 4    2  0.3396630E-007  0.9044771E+03  0.7818608E-02  0.9518882E-01
          1   -1    0    0  501    0  0.00000000000E+00  0.00000000000E+00  0.29975000926E+04  0.29975000926E+04  0.50400000000E-02 0. -1.
         -1   -1    0    0    0  501 -0.00000000000E+00 -0.00000000000E+00 -0.23690255453E+03  0.23690255459E+03  0.50400000000E-02 0.  1.
    8880023    1    1    2    0    0 -0.56586277057E+03 -0.25311639984E+03  0.93727728105E+03  0.13025235103E+04  0.65864270000E+03 0.  1.
    8880022    1    1    2    0    0  0.56586277057E+03  0.25311639984E+03  0.18233202570E+04  0.19318791369E+04  0.15294330000E+03 0.  0.
<mgrwt>
<rscale>  0 0.82905906E+03</rscale>
<asrwt>0</asrwt>
<pdfrwt beam="1">  1        1 0.46115384E+00 0.90447708E+03</pdfrwt>
<pdfrwt beam="2">  1       -1 0.36446548E-01 0.90447708E+03</pdfrwt>
<totfact> 0.45071838E+00</totfact>
</mgrwt>
</event>
<event>
 4    2  0.3396630E-007  0.6828553E+03  0.7818608E-02  0.1007753E+00
          1   -1    0    0  501    0  0.00000000000E+00  0.00000000000E+00  0.18088587568E+04  0.18088587569E+04  0.50400000000E-02 0. -1.
         -1   -1    0    0    0  501 -0.00000000000E+00 -0.00000000000E+00 -0.24704673793E+03  0.24704673798E+03  0.50400000000E-02 0.  1.
    8880023    1    1    2    0    0 -0.49445156174E+02  0.17330985702E+03  0.25662109311E+03  0.72948318809E+03  0.65864270000E+03 0.  1.
    8880022    1    1    2    0    0  0.49445156174E+02 -0.17330985702E+03  0.13051909258E+04  0.13264223067E+04  0.15294330000E+03 0.  0.
<mgrwt>
<rscale>  0 0.52377714E+03</rscale>
<asrwt>0</asrwt>
<pdfrwt beam="1">  1        1 0.27828596E+00 0.68285528E+03</pdfrwt>
<pdfrwt beam="2">  1       -1 0.38007191E-01 0.68285528E+03</pdfrwt>
<totfact> 0.28083267E+01</totfact>
</mgrwt>
</event>
<event>
 4    2  0.3396630E-007  0.7389452E+03  0.7818608E-02  0.9863030E-01
         -1   -1    0    0    0  501 -0.00000000000E+00  0.00000000000E+00  0.20833780375E+04  0.20833780375E+04  0.50400000000E-02 0.  1.
          1   -1    0    0  501    0  0.00000000000E+00 -0.00000000000E+00 -0.21863929445E+03  0.21863929451E+03  0.50400000000E-02 0. -1.
    8880023    1    1    2    0    0 -0.33497528722E+03  0.46239239078E+01  0.17754392784E+04  0.19230768735E+04  0.65864270000E+03 0.  0.
    8880022    1    1    2    0    0  0.33497528722E+03 -0.46239239078E+01  0.89299464643E+02  0.37894045854E+03  0.15294330000E+03 0.  0.
<mgrwt>
<rscale>  0 0.62086938E+03</rscale>
<asrwt>0</asrwt>
<pdfrwt beam="1">  1        1 0.33636816E-01 0.73894521E+03</pdfrwt>
<pdfrwt beam="2">  1       -1 0.32051968E+00 0.73894521E+03</pdfrwt>
<totfact> 0.33829246E+00</totfact>
</mgrwt>
</event>
<event>
 4    2  0.3396630E-007  0.1476994E+04  0.7818608E-02  0.8926054E-01
         -1   -1    0    0    0  501 -0.00000000000E+00  0.00000000000E+00  0.21071925009E+04  0.21071925009E+04  0.50400000000E-02 0.  1.
          1   -1    0    0  501    0  0.00000000000E+00 -0.00000000000E+00 -0.95779576977E+03  0.95779576978E+03  0.50400000000E-02 0. -1.
    8880023    1    1    2    0    0  0.63114643282E+03  0.11616180694E+04  0.83820674723E+03  0.16982647368E+04  0.65864270000E+03 0.  0.
    8880022    1    1    2    0    0 -0.63114643282E+03 -0.11616180694E+04  0.31118998388E+03  0.13667235339E+04  0.15294330000E+03 0.  0.
<mgrwt>
<rscale>  0 0.14390118E+04</rscale>
<asrwt>0</asrwt>
<pdfrwt beam="1">  1        1 0.14735320E+00 0.14769944E+04</pdfrwt>
<pdfrwt beam="2">  1       -1 0.32418346E+00 0.14769944E+04</pdfrwt>
<totfact> 0.35860695E-01</totfact>
</mgrwt>
</event>
<event>
 4    2  0.4123705E-007  0.1420366E+04  0.7818608E-02  0.8968018E-01
          1   -1    0    0  501    0  0.00000000000E+00  0.00000000000E+00  0.18894723468E+04  0.18894723468E+04  0.50400000000E-02 0. -1.
         -1   -1    0    0    0  501 -0.00000000000E+00 -0.00000000000E+00 -0.23984983019E+04  0.23984983019E+04  0.50400000000E-02 0.  1.
    8880023    1    1    2    0    0 -0.33230462416E+03  0.12137551677E+04 -0.19218700769E+04  0.23897746273E+04  0.65864270000E+03 0.  1.
    8880022    1    1    2    0    0  0.33230462416E+03 -0.12137551677E+04  0.14128441218E+04  0.18981960215E+04  0.15294330000E+03 0.  0.
<mgrwt>
<rscale>  0 0.13805519E+04</rscale>
<asrwt>0</asrwt>
<pdfrwt beam="1">  1        1 0.29068805E+00 0.14203655E+04</pdfrwt>
<pdfrwt beam="2">  1       -1 0.36899974E+00 0.14203655E+04</pdfrwt>
<totfact> 0.39280020E-02</totfact>
</mgrwt>
</event>
<event>
 4    2  0.3396630E-007  0.7267617E+03  0.7818608E-02  0.9900337E-01
          1   -1    0    0  501    0  0.00000000000E+00  0.00000000000E+00  0.71419669297E+03  0.71419669298E+03  0.50400000000E-02 0. -1.
         -1   -1    0    0    0  501 -0.00000000000E+00 -0.00000000000E+00 -0.45879808684E+03  0.45879808687E+03  0.50400000000E-02 0.  1.
    8880023    1    1    2    0    0 -0.57226236454E+02 -0.30182376669E+03  0.36430828092E+03  0.81295950581E+03  0.65864270000E+03 0. -1.
    8880022    1    1    2    0    0  0.57226236454E+02  0.30182376669E+03 -0.10890967480E+03  0.36003527404E+03  0.15294330000E+03 0.  0.
<mgrwt>
<rscale>  0 0.60244950E+03</rscale>
<asrwt>0</asrwt>
<pdfrwt beam="1">  1        1 0.10987641E+00 0.72676175E+03</pdfrwt>
<pdfrwt beam="2">  1       -1 0.70584321E-01 0.72676175E+03</pdfrwt>
<totfact> 0.54874104E+01</totfact>
</mgrwt>
</event>
<event>
 4    2  0.3396630E-007  0.6662720E+03  0.7818608E-02  0.1018489E+00
          1   -1    0    0  501    0  0.00000000000E+00  0.00000000000E+00  0.16277391165E+04  0.16277391165E+04  0.50400000000E-02 0. -1.
         -1   -1    0    0    0  501 -0.00000000000E+00 -0.00000000000E+00 -0.26872706359E+03  0.26872706364E+03  0.50400000000E-02 0.  1.
    8880023    1    1    2    0    0  0.10015552567E+03  0.87750389007E+01  0.16218874275E+03  0.68572846315E+03  0.65864270000E+03 0.  0.
    8880022    1    1    2    0    0 -0.10015552567E+03 -0.87750389007E+01  0.11968233102E+04  0.12107377170E+04  0.15294330000E+03 0. -1.
<mgrwt>
<rscale>  0 0.48235736E+03</rscale>
<asrwt>0</asrwt>
<pdfrwt beam="1">  1        1 0.25042140E+00 0.66627197E+03</pdfrwt>
<pdfrwt beam="2">  1       -1 0.41342626E-01 0.66627197E+03</pdfrwt>
<totfact> 0.31967632E+01</totfact>
</mgrwt>
</event>
<event>
 4    2  0.3396630E-007  0.7590779E+03  0.7818608E-02  0.9807500E-01
         -1   -1    0    0    0  501 -0.00000000000E+00  0.00000000000E+00  0.39541846875E+03  0.39541846878E+03  0.50400000000E-02 0.  1.
          1   -1    0    0  501    0  0.00000000000E+00 -0.00000000000E+00 -0.11984684856E+04  0.11984684856E+04  0.50400000000E-02 0. -1.
    8880023    1    1    2    0    0  0.33777072466E+03 -0.16822622645E+03 -0.78961982388E+02  0.76317385086E+03  0.65864270000E+03 0.  1.
    8880022    1    1    2    0    0 -0.33777072466E+03  0.16822622645E+03 -0.72408803443E+03  0.83071310350E+03  0.15294330000E+03 0.  0.
<mgrwt>
<rscale>  0 0.64961576E+03</rscale>
<asrwt>0</asrwt>
<pdfrwt beam="1">  1        1 0.18437977E+00 0.75907795E+03</pdfrwt>
<pdfrwt beam="2">  1       -1 0.60833611E-01 0.75907795E+03</pdfrwt>
<totfact> 0.30172996E+01</totfact>
</mgrwt>
</event>
<event>
 4    2  0.3396630E-007  0.8306247E+03  0.7818608E-02  0.9648118E-01
         -1   -1    0    0    0  501 -0.00000000000E+00  0.00000000000E+00  0.24289801704E+04  0.24289801704E+04  0.50400000000E-02 0.  1.
          1   -1    0    0  501    0  0.00000000000E+00 -0.00000000000E+00 -0.68180345577E+03  0.68180345579E+03  0.50400000000E-02 0. -1.
    8880023    1    1    2    0    0  0.48468188602E+03  0.14563889981E+03  0.22393640591E+04  0.23884490397E+04  0.65864270000E+03 0.  1.
    8880022    1    1    2    0    0 -0.48468188602E+03 -0.14563889981E+03 -0.49218734447E+03  0.72233458650E+03  0.15294330000E+03 0.  0.
<mgrwt>
<rscale>  0 0.74191650E+03</rscale>
<asrwt>0</asrwt>
<pdfrwt beam="1">  1        1 0.10489284E+00 0.83062472E+03</pdfrwt>
<pdfrwt beam="2">  1       -1 0.37368925E+00 0.83062472E+03</pdfrwt>
<totfact> 0.32270504E-01</totfact>
</mgrwt>
</event>
<event>
 4    2  0.3396630E-007  0.7479444E+03  0.7818608E-02  0.9837382E-01
          1   -1    0    0  501    0  0.00000000000E+00  0.00000000000E+00  0.23628727793E+04  0.23628727793E+04  0.50400000000E-02 0. -1.
         -1   -1    0    0    0  501 -0.00000000000E+00 -0.00000000000E+00 -0.21833960807E+03  0.21833960813E+03  0.50400000000E-02 0.  1.
    8880023    1    1    2    0    0  0.19695569982E+03  0.29465086015E+03  0.51874857000E+03  0.91023126853E+03  0.65864270000E+03 0.  0.
    8880022    1    1    2    0    0 -0.19695569982E+03 -0.29465086015E+03  0.16257846012E+04  0.16709811189E+04  0.15294330000E+03 0.  0.
<mgrwt>
<rscale>  0 0.63394435E+03</rscale>
<asrwt>0</asrwt>
<pdfrwt beam="1">  1        1 0.36351887E+00 0.74794444E+03</pdfrwt>
<pdfrwt beam="2">  1       -1 0.33590710E-01 0.74794444E+03</pdfrwt>
<totfact> 0.14757164E+01</totfact>
</mgrwt>
</event>
<event>
 4    2  0.3396630E-007  0.1004427E+04  0.7818608E-02  0.9375789E-01
          1   -1    0    0  501    0  0.00000000000E+00  0.00000000000E+00  0.11013356748E+04  0.11013356749E+04  0.50400000000E-02 0. -1.
         -1   -1    0    0    0  501 -0.00000000000E+00 -0.00000000000E+00 -0.74402793238E+03  0.74402793240E+03  0.50400000000E-02 0.  1.
    8880023    1    1    2    0    0 -0.39289066888E+03 -0.64861404496E+03  0.28622502540E+02  0.10048346685E+04  0.65864270000E+03 0.  1.
    8880022    1    1    2    0    0  0.39289066888E+03  0.64861404496E+03  0.32868523992E+03  0.84052893880E+03  0.15294330000E+03 0. -1.
<mgrwt>
<rscale>  0 0.94095248E+03</rscale>
<asrwt>0</asrwt>
<pdfrwt beam="1">  1        1 0.16943626E+00 0.10044269E+04</pdfrwt>
<pdfrwt beam="2">  1       -1 0.11446584E+00 0.10044269E+04</pdfrwt>
<totfact> 0.88015181E+00</totfact>
</mgrwt>
</event>
<event>
 4    2  0.3396630E-007  0.6851198E+03  0.7818608E-02  0.1006564E+00
          1   -1    0    0  501    0  0.00000000000E+00  0.00000000000E+00  0.81911638033E+03  0.81911638035E+03  0.50400000000E-02 0. -1.
         -1   -1    0    0    0  501 -0.00000000000E+00 -0.00000000000E+00 -0.29673599690E+03  0.29673599694E+03  0.50400000000E-02 0.  1.
    8880023    1    1    2    0    0  0.80851991502E+02 -0.17041681554E+03  0.20285412908E+03  0.71452007634E+03  0.65864270000E+03 0.  0.
    8880022    1    1    2    0    0 -0.80851991502E+02  0.17041681554E+03  0.31952625435E+03  0.40133230095E+03  0.15294330000E+03 0.  0.
<mgrwt>
<rscale>  0 0.52863306E+03</rscale>
<asrwt>0</asrwt>
<pdfrwt beam="1">  1        1 0.12601790E+00 0.68511980E+03</pdfrwt>
<pdfrwt beam="2">  1       -1 0.45651693E-01 0.68511980E+03</pdfrwt>
<totfact> 0.10384115E+02</totfact>
</mgrwt>
</event>
<event>
 4    2  0.3396630E-007  0.7213045E+03  0.7818608E-02  0.9918197E-01
         -1   -1    0    0    0  501 -0.00000000000E+00  0.00000000000E+00  0.76443052829E+03  0.76443052830E+03  0.50400000000E-02 0.  1.
          1   -1    0    0  501    0  0.00000000000E+00 -0.00000000000E+00 -0.39880629329E+03  0.39880629332E+03  0.50400000000E-02 0. -1.
    8880023    1    1    2    0    0 -0.85179319316E+01 -0.29393432692E+03  0.40862050214E+03  0.82900594976E+03  0.65864270000E+03 0.  1.
    8880022    1    1    2    0    0  0.85179319316E+01  0.29393432692E+03 -0.42996267145E+02  0.33423087187E+03  0.15294330000E+03 0. -1.
<mgrwt>
<rscale>  0 0.59387454E+03</rscale>
<asrwt>0</asrwt>
<pdfrwt beam="1">  1        1 0.61354815E-01 0.72130448E+03</pdfrwt>
<pdfrwt beam="2">  1       -1 0.11760470E+00 0.72130448E+03</pdfrwt>
<totfact> 0.40130098E+01</totfact>
</mgrwt>
</event>
<event>
 4    2  0.3396630E-007  0.7428264E+03  0.7818608E-02  0.9851789E-01
          1   -1    0    0  501    0  0.00000000000E+00  0.00000000000E+00  0.12582347248E+04  0.12582347248E+04  0.50400000000E-02 0. -1.
         -1   -1    0    0    0  501 -0.00000000000E+00 -0.00000000000E+00 -0.29860126009E+03  0.29860126013E+03  0.50400000000E-02 0.  1.
    8880023    1    1    2    0    0  0.23139076995E+03 -0.25384876784E+03  0.30725887284E+03  0.80386510470E+03  0.65864270000E+03 0.  1.
    8880022    1    1    2    0    0 -0.23139076995E+03  0.25384876784E+03  0.65237459183E+03  0.75297088020E+03  0.15294330000E+03 0. -1.
<mgrwt>
<rscale>  0 0.62655780E+03</rscale>
<asrwt>0</asrwt>
<pdfrwt beam="1">  1        1 0.19357457E+00 0.74282642E+03</pdfrwt>
<pdfrwt beam="2">  1       -1 0.45938655E-01 0.74282642E+03</pdfrwt>
<totfact> 0.46912308E+01</totfact>
</mgrwt>
</event>
<event>
 4    2  0.3396630E-007  0.8162069E+03  0.7818608E-02  0.9676790E-01
          1   -1    0    0  501    0  0.00000000000E+00  0.00000000000E+00  0.60819863297E+03  0.60819863300E+03  0.50400000000E-02 0. -1.
         -1   -1    0    0    0  501 -0.00000000000E+00 -0.00000000000E+00 -0.91718899829E+03  0.91718899830E+03  0.50400000000E-02 0.  1.
    8880023    1    1    2    0    0  0.15090355769E+02 -0.48182550260E+03 -0.53029185297E+03  0.97334638715E+03  0.65864270000E+03 0.  0.
    8880022    1    1    2    0    0 -0.15090355769E+02  0.48182550260E+03  0.22130148765E+03  0.55204124415E+03  0.15294330000E+03 0.  0.
<mgrwt>
<rscale>  0 0.72415662E+03</rscale>
<asrwt>0</asrwt>
<pdfrwt beam="1">  1        1 0.93569021E-01 0.81620692E+03</pdfrwt>
<pdfrwt beam="2">  1       -1 0.14110600E+00 0.81620692E+03</pdfrwt>
<totfact> 0.14072745E+01</totfact>
</mgrwt>
</event>
<event>
 4    2  0.3396630E-007  0.7221590E+03  0.7818608E-02  0.9915347E-01
          1   -1    0    0  501    0  0.00000000000E+00  0.00000000000E+00  0.28176161851E+03  0.28176161856E+03  0.50400000000E-02 0. -1.
         -1   -1    0    0    0  501 -0.00000000000E+00 -0.00000000000E+00 -0.13641105514E+04  0.13641105514E+04  0.50400000000E-02 0.  1.
    8880023    1    1    2    0    0 -0.97104586055E+02  0.27977507480E+03 -0.10957208026E+04  0.13122948131E+04  0.65864270000E+03 0.  1.
    8880022    1    1    2    0    0  0.97104586055E+02 -0.27977507480E+03  0.13371869639E+02  0.33357735688E+03  0.15294330000E+03 0.  0.
<mgrwt>
<rscale>  0 0.59523225E+03</rscale>
<asrwt>0</asrwt>
<pdfrwt beam="1">  1        1 0.43347942E-01 0.72215898E+03</pdfrwt>
<pdfrwt beam="2">  1       -1 0.20986316E+00 0.72215898E+03</pdfrwt>
<totfact> 0.12669128E+01</totfact>
</mgrwt>
</event>
<event>
 4    2  0.3396630E-007  0.7458896E+03  0.7818608E-02  0.9843112E-01
          1   -1    0    0  501    0  0.00000000000E+00  0.00000000000E+00  0.13188046377E+04  0.13188046377E+04  0.50400000000E-02 0. -1.
         -1   -1    0    0    0  501 -0.00000000000E+00 -0.00000000000E+00 -0.68586249245E+03  0.68586249247E+03  0.50400000000E-02 0.  1.
    8880023    1    1    2    0    0  0.33182720047E+03 -0.11149768438E+03 -0.43982789062E+03  0.86590981298E+03  0.65864270000E+03 0.  0.
    8880022    1    1    2    0    0 -0.33182720047E+03  0.11149768438E+03  0.10727700359E+04  0.11387573172E+04  0.15294330000E+03 0.  0.
<mgrwt>
<rscale>  0 0.63099361E+03</rscale>
<asrwt>0</asrwt>
<pdfrwt beam="1">  1        1 0.20289302E+00 0.74588956E+03</pdfrwt>
<pdfrwt beam="2">  1       -1 0.10551731E+00 0.74588956E+03</pdfrwt>
<totfact> 0.76621374E+00</totfact>
</mgrwt>
</event>
<event>
 4    2  0.3396630E-007  0.7218225E+03  0.7818608E-02  0.9916467E-01
         -1   -1    0    0    0  501 -0.00000000000E+00  0.00000000000E+00  0.14982435186E+04  0.14982435186E+04  0.50400000000E-02 0.  1.
          1   -1    0    0  501    0  0.00000000000E+00 -0.00000000000E+00 -0.10435720776E+04  0.10435720776E+04  0.50400000000E-02 0. -1.
    8880023    1    1    2    0    0 -0.26293448901E+03 -0.13447308462E+03  0.13806325295E+04  0.15579390051E+04  0.65864270000E+03 0.  1.
    8880022    1    1    2    0    0  0.26293448901E+03  0.13447308462E+03 -0.92596108853E+03  0.98387659108E+03  0.15294330000E+03 0.  0.
<mgrwt>
<rscale>  0 0.59469835E+03</rscale>
<asrwt>0</asrwt>
<pdfrwt beam="1">  1        1 0.16054955E+00 0.72182253E+03</pdfrwt>
<pdfrwt beam="2">  1       -1 0.23049900E+00 0.72182253E+03</pdfrwt>
<totfact> 0.13823013E+00</totfact>
</mgrwt>
</event>
<event>
 4    2  0.3396630E-007  0.6626293E+03  0.7818608E-02  0.1021611E+00
          1   -1    0    0  501    0  0.00000000000E+00  0.00000000000E+00  0.57538100828E+03  0.57538100831E+03  0.50400000000E-02 0. -1.
         -1   -1    0    0    0  501 -0.00000000000E+00 -0.00000000000E+00 -0.48803291346E+03  0.48803291348E+03  0.50400000000E-02 0.  1.
    8880023    1    1    2    0    0 -0.68008292513E+02  0.25341716198E+02 -0.23191751273E+03  0.70204221341E+03  0.65864270000E+03 0.  1.
    8880022    1    1    2    0    0  0.68008292513E+02 -0.25341716198E+02  0.31926560756E+03  0.36137170838E+03  0.15294330000E+03 0.  0.
<mgrwt>
<rscale>  0 0.47109723E+03</rscale>
<asrwt>0</asrwt>
<pdfrwt beam="1">  1        1 0.88520155E-01 0.66262926E+03</pdfrwt>
<pdfrwt beam="2">  1       -1 0.75081987E-01 0.66262926E+03</pdfrwt>
<totfact> 0.66696930E+01</totfact>
</mgrwt>
</event>
<event>
 4    2  0.3396630E-007  0.7985476E+03  0.7818608E-02  0.9713945E-01
          1   -1    0    0  501    0  0.00000000000E+00  0.00000000000E+00  0.11718788372E+04  0.11718788372E+04  0.50400000000E-02 0. -1.
         -1   -1    0    0    0  501 -0.00000000000E+00 -0.00000000000E+00 -0.52952485758E+03  0.52952485760E+03  0.50400000000E-02 0.  1.
    8880023    1    1    2    0    0 -0.21070093710E+03  0.39934088838E+03  0.86328110389E+03  0.11759815052E+04  0.65864270000E+03 0. -1.
    8880022    1    1    2    0    0  0.21070093710E+03 -0.39934088838E+03 -0.22092712429E+03  0.52542218957E+03  0.15294330000E+03 0.  0.
<mgrwt>
<rscale>  0 0.70192530E+03</rscale>
<asrwt>0</asrwt>
<pdfrwt beam="1">  1        1 0.18028905E+00 0.79854758E+03</pdfrwt>
<pdfrwt beam="2">  1       -1 0.81465364E-01 0.79854758E+03</pdfrwt>
<totfact> 0.17242261E+01</totfact>
</mgrwt>
</event>
<event>
 4    2  0.3396630E-007  0.8956313E+03  0.7818608E-02  0.9533081E-01
         -1   -1    0    0    0  501 -0.00000000000E+00  0.00000000000E+00  0.12146783324E+04  0.12146783325E+04  0.50400000000E-02 0.  1.
          1   -1    0    0  501    0  0.00000000000E+00 -0.00000000000E+00 -0.52853220134E+03  0.52853220137E+03  0.50400000000E-02 0. -1.
    8880023    1    1    2    0    0  0.33019748791E+03 -0.50922971998E+03  0.66755942519E+03  0.11170456934E+04  0.65864270000E+03 0.  1.
    8880022    1    1    2    0    0 -0.33019748791E+03  0.50922971998E+03  0.18586705910E+02  0.62616484042E+03  0.15294330000E+03 0.  0.
<mgrwt>
<rscale>  0 0.81888191E+03</rscale>
<asrwt>0</asrwt>
<pdfrwt beam="1">  1        1 0.81312647E-01 0.89563134E+03</pdfrwt>
<pdfrwt beam="2">  1       -1 0.18687359E+00 0.89563134E+03</pdfrwt>
<totfact> 0.77389186E+00</totfact>
</mgrwt>
</event>
<event>
 4    2  0.3396630E-007  0.6658764E+03  0.7818608E-02  0.1018809E+00
         -1   -1    0    0    0  501 -0.00000000000E+00  0.00000000000E+00  0.47794695036E+03  0.47794695039E+03  0.50400000000E-02 0.  1.
          1   -1    0    0  501    0  0.00000000000E+00 -0.00000000000E+00 -0.43705532640E+03  0.43705532643E+03  0.50400000000E-02 0. -1.
    8880023    1    1    2    0    0  0.96557736128E+02 -0.16053395478E+02  0.17591210903E+03  0.68872083189E+03  0.65864270000E+03 0.  1.
    8880022    1    1    2    0    0 -0.96557736128E+02  0.16053395478E+02 -0.13502048507E+03  0.22628144492E+03  0.15294330000E+03 0.  0.
<mgrwt>
<rscale>  0 0.48118780E+03</rscale>
<asrwt>0</asrwt>
<pdfrwt beam="1">  1        1 0.67239281E-01 0.66587635E+03</pdfrwt>
<pdfrwt beam="2">  1       -1 0.73530300E-01 0.66587635E+03</pdfrwt>
<totfact> 0.10157834E+02</totfact>
</mgrwt>
</event>
<event>
 4    2  0.3396630E-007  0.8357839E+03  0.7818608E-02  0.9638182E-01
          1   -1    0    0  501    0  0.00000000000E+00  0.00000000000E+00  0.18509992422E+04  0.18509992422E+04  0.50400000000E-02 0. -1.
         -1   -1    0    0    0  501 -0.00000000000E+00 -0.00000000000E+00 -0.39214250611E+03  0.39214250614E+03  0.50400000000E-02 0.  1.
    8880023    1    1    2    0    0 -0.43205070106E+03  0.27938643435E+03  0.17823363013E+03  0.85457710077E+03  0.65864270000E+03 0.  0.
    8880022    1    1    2    0    0  0.43205070106E+03 -0.27938643435E+03  0.12806231060E+04  0.13885646476E+04  0.15294330000E+03 0.  0.
<mgrwt>
<rscale>  0 0.74819790E+03</rscale>
<asrwt>0</asrwt>
<pdfrwt beam="1">  1        1 0.28476911E+00 0.83578394E+03</pdfrwt>
<pdfrwt beam="2">  1       -1 0.60329617E-01 0.83578394E+03</pdfrwt>
<totfact> 0.10796451E+01</totfact>
</mgrwt>
</event>
<event>
 4    2  0.3396630E-007  0.8992574E+03  0.7818608E-02  0.9527225E-01
         -1   -1    0    0    0  501 -0.00000000000E+00  0.00000000000E+00  0.46712630871E+03  0.46712630874E+03  0.50400000000E-02 0.  1.
          1   -1    0    0  501    0  0.00000000000E+00 -0.00000000000E+00 -0.12639488041E+04  0.12639488041E+04  0.50400000000E-02 0. -1.
    8880023    1    1    2    0    0  0.46588745906E+03 -0.39724364718E+03 -0.54568855682E+03  0.10518744445E+04  0.65864270000E+03 0. -1.
    8880022    1    1    2    0    0 -0.46588745906E+03  0.39724364718E+03 -0.25113393857E+03  0.67920066832E+03  0.15294330000E+03 0.  1.
<mgrwt>
<rscale>  0 0.82306066E+03</rscale>
<asrwt>0</asrwt>
<pdfrwt beam="1">  1        1 0.19445366E+00 0.89925739E+03</pdfrwt>
<pdfrwt beam="2">  1       -1 0.71865587E-01 0.89925739E+03</pdfrwt>
<totfact> 0.19030989E+01</totfact>
</mgrwt>
</event>
<event>
 4    2  0.3396630E-007  0.1004325E+04  0.7818608E-02  0.9375921E-01
          1   -1    0    0  501    0  0.00000000000E+00  0.00000000000E+00  0.13244556954E+04  0.13244556954E+04  0.50400000000E-02 0. -1.
         -1   -1    0    0    0  501 -0.00000000000E+00 -0.00000000000E+00 -0.66657808250E+03  0.66657808252E+03  0.50400000000E-02 0.  1.
    8880023    1    1    2    0    0  0.75687878723E+03  0.44635278702E+02  0.46994586156E+02  0.10054235446E+04  0.65864270000E+03 0.  1.
    8880022    1    1    2    0    0 -0.75687878723E+03 -0.44635278702E+02  0.61088302677E+03  0.98561023335E+03  0.15294330000E+03 0.  0.
<mgrwt>
<rscale>  0 0.94084024E+03</rscale>
<asrwt>0</asrwt>
<pdfrwt beam="1">  1        1 0.20376241E+00 0.10043247E+04</pdfrwt>
<pdfrwt beam="2">  1       -1 0.10255047E+00 0.10043247E+04</pdfrwt>
<totfact> 0.78440754E+00</totfact>
</mgrwt>
</event>
<event>
 4    2  0.3396630E-007  0.7728288E+03  0.7818608E-02  0.9772960E-01
         -1   -1    0    0    0  501 -0.00000000000E+00  0.00000000000E+00  0.66444163052E+03  0.66444163053E+03  0.50400000000E-02 0.  1.
          1   -1    0    0  501    0  0.00000000000E+00 -0.00000000000E+00 -0.17808571499E+04  0.17808571499E+04  0.50400000000E-02 0. -1.
    8880023    1    1    2    0    0 -0.24897273572E+03 -0.31853842591E+03  0.39878181528E+03  0.86965009882E+03  0.65864270000E+03 0.  0.
    8880022    1    1    2    0    0  0.24897273572E+03  0.31853842591E+03 -0.15151973347E+04  0.15756486816E+04  0.15294330000E+03 0.  0.
<mgrwt>
<rscale>  0 0.66834068E+03</rscale>
<asrwt>0</asrwt>
<pdfrwt beam="1">  1        1 0.27397802E+00 0.77282880E+03</pdfrwt>
<pdfrwt beam="2">  1       -1 0.10222179E+00 0.77282880E+03</pdfrwt>
<totfact> 0.39680654E+00</totfact>
</mgrwt>
</event>
<event>
 4    2  0.3396630E-007  0.8536248E+03  0.7818608E-02  0.9605006E-01
          1   -1    0    0  501    0  0.00000000000E+00  0.00000000000E+00  0.63869896578E+03  0.63869896580E+03  0.50400000000E-02 0. -1.
         -1   -1    0    0    0  501 -0.00000000000E+00 -0.00000000000E+00 -0.12064286848E+04  0.12064286848E+04  0.50400000000E-02 0.  1.
    8880023    1    1    2    0    0  0.15282566886E+02 -0.54279977686E+03 -0.85832787916E+03  0.12105379420E+04  0.65864270000E+03 0.  0.
    8880022    1    1    2    0    0 -0.15282566886E+02  0.54279977686E+03  0.29059816012E+03  0.63458970863E+03  0.15294330000E+03 0.  0.
<mgrwt>
<rscale>  0 0.76965748E+03</rscale>
<asrwt>0</asrwt>
<pdfrwt beam="1">  1        1 0.98261380E-01 0.85362484E+03</pdfrwt>
<pdfrwt beam="2">  1       -1 0.18560441E+00 0.85362484E+03</pdfrwt>
<totfact> 0.60524868E+00</totfact>
</mgrwt>
</event>
<event>
 4    2  0.3396630E-007  0.9417845E+03  0.7818608E-02  0.9462034E-01
         -1   -1    0    0    0  501 -0.00000000000E+00  0.00000000000E+00  0.52494099626E+03  0.52494099629E+03  0.50400000000E-02 0.  1.
          1   -1    0    0  501    0  0.00000000000E+00 -0.00000000000E+00 -0.15575350315E+04  0.15575350315E+04  0.50400000000E-02 0. -1.
    8880023    1    1    2    0    0  0.66945983821E+03 -0.70508102767E+02 -0.13697738987E+03  0.95169368976E+03  0.65864270000E+03 0.  0.
    8880022    1    1    2    0    0 -0.66945983821E+03  0.70508102767E+02 -0.89561664537E+03  0.11307823380E+04  0.15294330000E+03 0.  0.
<mgrwt>
<rscale>  0 0.87141699E+03</rscale>
<asrwt>0</asrwt>
<pdfrwt beam="1">  1        1 0.23962077E+00 0.94178452E+03</pdfrwt>
<pdfrwt beam="2">  1       -1 0.80760154E-01 0.94178452E+03</pdfrwt>
<totfact> 0.92444916E+00</totfact>
</mgrwt>
</event>
<event>
 4    2  0.3396630E-007  0.7912907E+03  0.7818608E-02  0.9729954E-01
          1   -1    0    0  501    0  0.00000000000E+00  0.00000000000E+00  0.37429861611E+03  0.37429861615E+03  0.50400000000E-02 0. -1.
         -1   -1    0    0    0  501 -0.00000000000E+00 -0.00000000000E+00 -0.19488820453E+04  0.19488820453E+04  0.50400000000E-02 0.  1.
    8880023    1    1    2    0    0  0.36472712601E+03 -0.24352580622E+03 -0.16709393338E+04  0.18488318361E+04  0.65864270000E+03 0.  0.
    8880022    1    1    2    0    0 -0.36472712601E+03  0.24352580622E+03  0.96355904604E+02  0.47434882534E+03  0.15294330000E+03 0. -1.
<mgrwt>
<rscale>  0 0.69261026E+03</rscale>
<asrwt>0</asrwt>
<pdfrwt beam="1">  1        1 0.57584404E-01 0.79129066E+03</pdfrwt>
<pdfrwt beam="2">  1       -1 0.29982800E+00 0.79129066E+03</pdfrwt>
<totfact> 0.22648531E+00</totfact>
</mgrwt>
</event>
<event>
 4    2  0.3396630E-007  0.8677973E+03  0.7818608E-02  0.9579841E-01
          1   -1    0    0  501    0  0.00000000000E+00  0.00000000000E+00  0.13991542527E+04  0.13991542527E+04  0.50400000000E-02 0. -1.
         -1   -1    0    0    0  501 -0.00000000000E+00 -0.00000000000E+00 -0.64686095850E+03  0.64686095852E+03  0.50400000000E-02 0.  1.
    8880023    1    1    2    0    0 -0.56488242508E+03  0.13032958183E+02 -0.23426900819E+03  0.89886271845E+03  0.65864270000E+03 0.  0.
    8880022    1    1    2    0    0  0.56488242508E+03 -0.13032958183E+02  0.98656230238E+03  0.11471524928E+04  0.15294330000E+03 0.  0.
<mgrwt>
<rscale>  0 0.78644917E+03</rscale>
<asrwt>0</asrwt>
<pdfrwt beam="1">  1        1 0.21525450E+00 0.86779734E+03</pdfrwt>
<pdfrwt beam="2">  1       -1 0.99517071E-01 0.86779734E+03</pdfrwt>
<totfact> 0.75708975E+00</totfact>
</mgrwt>
</event>
<event>
 4    2  0.3396630E-007  0.6733923E+03  0.7818608E-02  0.1013339E+00
         -1   -1    0    0    0  501 -0.00000000000E+00  0.00000000000E+00  0.30905360470E+03  0.30905360475E+03  0.50400000000E-02 0.  1.
          1   -1    0    0  501    0  0.00000000000E+00 -0.00000000000E+00 -0.13157308126E+04  0.13157308126E+04  0.50400000000E-02 0. -1.
    8880023    1    1    2    0    0  0.13625693388E+03  0.32878741909E+02 -0.83459251535E+02  0.67854448390E+03  0.65864270000E+03 0.  1.
    8880022    1    1    2    0    0 -0.13625693388E+03 -0.32878741909E+02 -0.92321795634E+03  0.94623993344E+03  0.15294330000E+03 0.  0.
<mgrwt>
<rscale>  0 0.50168763E+03</rscale>
<asrwt>0</asrwt>
<pdfrwt beam="1">  1        1 0.20242012E+00 0.67339229E+03</pdfrwt>
<pdfrwt beam="2">  1       -1 0.47546709E-01 0.67339229E+03</pdfrwt>
<totfact> 0.40377538E+01</totfact>
</mgrwt>
</event>
<event>
 4    2  0.3396630E-007  0.7504940E+03  0.7818608E-02  0.9830370E-01
          1   -1    0    0  501    0  0.00000000000E+00  0.00000000000E+00  0.68396558719E+03  0.68396558721E+03  0.50400000000E-02 0. -1.
         -1   -1    0    0    0  501 -0.00000000000E+00 -0.00000000000E+00 -0.48954332701E+03  0.48954332703E+03  0.50400000000E-02 0.  1.
    8880023    1    1    2    0    0 -0.28986236480E+03  0.21309807609E+03  0.34949461126E+02  0.75130729509E+03  0.65864270000E+03 0.  0.
    8880022    1    1    2    0    0  0.28986236480E+03 -0.21309807609E+03  0.15947279906E+03  0.42220161915E+03  0.15294330000E+03 0.  0.
<mgrwt>
<rscale>  0 0.63757879E+03</rscale>
<asrwt>0</asrwt>
<pdfrwt beam="1">  1        1 0.10522548E+00 0.75049396E+03</pdfrwt>
<pdfrwt beam="2">  1       -1 0.75314358E-01 0.75049396E+03</pdfrwt>
<totfact> 0.51117290E+01</totfact>
</mgrwt>
</event>
<event>
 4    2  0.3396630E-007  0.7108108E+03  0.7818608E-02  0.9955002E-01
         -1   -1    0    0    0  501 -0.00000000000E+00  0.00000000000E+00  0.50513993168E+03  0.50513993170E+03  0.50400000000E-02 0.  1.
          1   -1    0    0  501    0  0.00000000000E+00 -0.00000000000E+00 -0.88554192924E+03  0.88554192925E+03  0.50400000000E-02 0. -1.
    8880023    1    1    2    0    0  0.26197470764E+03  0.53018917041E+02  0.19585663748E+03  0.73730033346E+03  0.65864270000E+03 0.  0.
    8880022    1    1    2    0    0 -0.26197470764E+03 -0.53018917041E+02 -0.57625863504E+03  0.65338152750E+03  0.15294330000E+03 0.  0.
<mgrwt>
<rscale>  0 0.57668104E+03</rscale>
<asrwt>0</asrwt>
<pdfrwt beam="1">  1        1 0.13623722E+00 0.71081078E+03</pdfrwt>
<pdfrwt beam="2">  1       -1 0.77713836E-01 0.71081078E+03</pdfrwt>
<totfact> 0.31965983E+01</totfact>
</mgrwt>
</event>
<event>
 4    2  0.3396630E-007  0.7196573E+03  0.7818608E-02  0.9923747E-01
         -1   -1    0    0    0  501 -0.00000000000E+00  0.00000000000E+00  0.15751224800E+03  0.15751224808E+03  0.50400000000E-02 0.  1.
          1   -1    0    0  501    0  0.00000000000E+00 -0.00000000000E+00 -0.17786704001E+04  0.17786704001E+04  0.50400000000E-02 0. -1.
    8880023    1    1    2    0    0 -0.27499102030E+03 -0.92067193195E+02 -0.12373133797E+04  0.14313808142E+04  0.65864270000E+03 0. -1.
    8880022    1    1    2    0    0  0.27499102030E+03  0.92067193195E+02 -0.38384477234E+03  0.50480183397E+03  0.15294330000E+03 0.  1.
<mgrwt>
<rscale>  0 0.59124073E+03</rscale>
<asrwt>0</asrwt>
<pdfrwt beam="1">  1        1 0.27364159E+00 0.71965730E+03</pdfrwt>
<pdfrwt beam="2">  1       -1 0.24232655E-01 0.71965730E+03</pdfrwt>
<totfact> 0.64243417E+01</totfact>
</mgrwt>
</event>
<event>
 4    2  0.3396630E-007  0.7931997E+03  0.7818608E-02  0.9725697E-01
         -1   -1    0    0    0  501 -0.00000000000E+00  0.00000000000E+00  0.54882645266E+03  0.54882645269E+03  0.50400000000E-02 0.  1.
          1   -1    0    0  501    0  0.00000000000E+00 -0.00000000000E+00 -0.21131464085E+04  0.21131464085E+04  0.50400000000E-02 0. -1.
    8880023    1    1    2    0    0  0.41708642307E+03  0.14626835199E+03  0.21531621119E+03  0.82190436924E+03  0.65864270000E+03 0.  0.
    8880022    1    1    2    0    0 -0.41708642307E+03 -0.14626835199E+03 -0.17796361670E+04  0.18400684919E+04  0.15294330000E+03 0.  0.
<mgrwt>
<rscale>  0 0.69507185E+03</rscale>
<asrwt>0</asrwt>
<pdfrwt beam="1">  1        1 0.32509944E+00 0.79319967E+03</pdfrwt>
<pdfrwt beam="2">  1       -1 0.84434840E-01 0.79319967E+03</pdfrwt>
<totfact> 0.36253415E+00</totfact>
</mgrwt>
</event>
<event>
 4    2  0.3396630E-007  0.7068956E+03  0.7818608E-02  0.9969714E-01
         -1   -1    0    0    0  501 -0.00000000000E+00  0.00000000000E+00  0.92571373771E+03  0.92571373772E+03  0.50400000000E-02 0.  1.
          1   -1    0    0  501    0  0.00000000000E+00 -0.00000000000E+00 -0.46676445710E+03  0.46676445713E+03  0.50400000000E-02 0. -1.
    8880023    1    1    2    0    0 -0.14228782031E+03  0.21364787433E+03  0.71022997585E+03  0.10020619057E+04  0.65864270000E+03 0.  1.
    8880022    1    1    2    0    0  0.14228782031E+03 -0.21364787433E+03 -0.25128069524E+03  0.39041628915E+03  0.15294330000E+03 0.  0.
<mgrwt>
<rscale>  0 0.56998379E+03</rscale>
<asrwt>0</asrwt>
<pdfrwt beam="1">  1        1 0.71809918E-01 0.70689564E+03</pdfrwt>
<pdfrwt beam="2">  1       -1 0.14241750E+00 0.70689564E+03</pdfrwt>
<totfact> 0.20122290E+01</totfact>
</mgrwt>
</event>
<event>
 4    2  0.3396630E-007  0.7995686E+03  0.7818608E-02  0.9711730E-01
         -1   -1    0    0    0  501 -0.00000000000E+00  0.00000000000E+00  0.93995566563E+03  0.93995566565E+03  0.50400000000E-02 0.  1.
          1   -1    0    0  501    0  0.00000000000E+00 -0.00000000000E+00 -0.84221642303E+03  0.84221642305E+03  0.50400000000E-02 0. -1.
    8880023    1    1    2    0    0 -0.38144753433E+03 -0.24494383810E+03  0.66509105195E+03  0.10400269318E+04  0.65864270000E+03 0.  1.
    8880022    1    1    2    0    0  0.38144753433E+03  0.24494383810E+03 -0.56735180936E+03  0.74214515687E+03  0.15294330000E+03 0.  0.
<mgrwt>
<rscale>  0 0.70322688E+03</rscale>
<asrwt>0</asrwt>
<pdfrwt beam="1">  1        1 0.12957176E+00 0.79956858E+03</pdfrwt>
<pdfrwt beam="2">  1       -1 0.14460856E+00 0.79956858E+03</pdfrwt>
<totfact> 0.80271935E+00</totfact>
</mgrwt>
</event>
<event>
 4    2  0.3396630E-007  0.7059722E+03  0.7818608E-02  0.9973273E-01
          1   -1    0    0  501    0  0.00000000000E+00  0.00000000000E+00  0.26611455836E+04  0.26611455836E+04  0.50400000000E-02 0. -1.
         -1   -1    0    0    0  501 -0.00000000000E+00 -0.00000000000E+00 -0.66188755042E+03  0.66188755044E+03  0.50400000000E-02 0.  1.
    8880023    1    1    2    0    0 -0.25041298784E+03 -0.43357626332E+02 -0.46216901336E+03  0.84379911792E+03  0.65864270000E+03 0.  0.
    8880022    1    1    2    0    0  0.25041298784E+03  0.43357626332E+02  0.24614270466E+04  0.24792340162E+04  0.15294330000E+03 0.  0.
<mgrwt>
<rscale>  0 0.56837843E+03</rscale>
<asrwt>0</asrwt>
<pdfrwt beam="1">  1        1 0.40940701E+00 0.70597221E+03</pdfrwt>
<pdfrwt beam="2">  1       -1 0.10182885E+00 0.70597221E+03</pdfrwt>
<totfact> 0.10336497E+00</totfact>
</mgrwt>
</event>
<event>
 4    2  0.3396630E-007  0.6659760E+03  0.7818608E-02  0.1018728E+00
         -1   -1    0    0    0  501 -0.00000000000E+00  0.00000000000E+00  0.34313964243E+03  0.34313964246E+03  0.50400000000E-02 0.  1.
          1   -1    0    0  501    0  0.00000000000E+00 -0.00000000000E+00 -0.12898802791E+04  0.12898802791E+04  0.50400000000E-02 0. -1.
    8880023    1    1    2    0    0  0.84495324237E+02  0.50738716361E+02  0.30251521844E+01  0.66598290891E+03  0.65864270000E+03 0.  1.
    8880022    1    1    2    0    0 -0.84495324237E+02 -0.50738716361E+02 -0.94976578888E+03  0.96703701268E+03  0.15294330000E+03 0.  0.
<mgrwt>
<rscale>  0 0.48148362E+03</rscale>
<asrwt>0</asrwt>
<pdfrwt beam="1">  1        1 0.19844312E+00 0.66597604E+03</pdfrwt>
<pdfrwt beam="2">  1       -1 0.52790715E-01 0.66597604E+03</pdfrwt>
<totfact> 0.34580512E+01</totfact>
</mgrwt>
</event>
<event>
 4    2  0.3396630E-007  0.6904478E+03  0.7818608E-02  0.1003940E+00
          1   -1    0    0  501    0  0.00000000000E+00  0.00000000000E+00  0.36157405812E+03  0.36157405815E+03  0.50400000000E-02 0. -1.
         -1   -1    0    0    0  501 -0.00000000000E+00 -0.00000000000E+00 -0.12017693371E+04  0.12017693371E+04  0.50400000000E-02 0.  1.
    8880023    1    1    2    0    0  0.20689146457E+03  0.10194851894E+02 -0.10324198414E+04  0.12420180950E+04  0.65864270000E+03 0.  1.
    8880022    1    1    2    0    0 -0.20689146457E+03 -0.10194851894E+02  0.19222456248E+03  0.32132530021E+03  0.15294330000E+03 0.  0.
<mgrwt>
<rscale>  0 0.53955668E+03</rscale>
<asrwt>0</asrwt>
<pdfrwt beam="1">  1        1 0.55626779E-01 0.69044784E+03</pdfrwt>
<pdfrwt beam="2">  1       -1 0.18488759E+00 0.69044784E+03</pdfrwt>
<totfact> 0.13649346E+01</totfact>
</mgrwt>
</event>
<event>
 4    2  0.3396630E-007  0.6645741E+03  0.7818608E-02  0.1019893E+00
         -1   -1    0    0    0  501 -0.00000000000E+00  0.00000000000E+00  0.15924927731E+03  0.15924927739E+03  0.50400000000E-02 0.  1.
          1   -1    0    0  501    0  0.00000000000E+00 -0.00000000000E+00 -0.12575922942E+04  0.12575922942E+04  0.50400000000E-02 0. -1.
    8880023    1    1    2    0    0  0.40782480291E+02  0.78647007705E+02 -0.62787528072E+03  0.91426808810E+03  0.65864270000E+03 0.  1.
    8880022    1    1    2    0    0 -0.40782480291E+02 -0.78647007705E+02 -0.47046773617E+03  0.50257348350E+03  0.15294330000E+03 0.  0.
<mgrwt>
<rscale>  0 0.47725097E+03</rscale>
<asrwt>0</asrwt>
<pdfrwt beam="1">  1        1 0.19347573E+00 0.66457413E+03</pdfrwt>
<pdfrwt beam="2">  1       -1 0.24499890E-01 0.66457413E+03</pdfrwt>
<totfact> 0.14419069E+02</totfact>
</mgrwt>
</event>
<event>
 4    2  0.3396630E-007  0.6793560E+03  0.7818608E-02  0.1009690E+00
          1   -1    0    0  501    0  0.00000000000E+00  0.00000000000E+00  0.44066257743E+03  0.44066257746E+03  0.50400000000E-02 0. -1.
         -1   -1    0    0    0  501 -0.00000000000E+00 -0.00000000000E+00 -0.48304174170E+03  0.48304174172E+03  0.50400000000E-02 0.  1.
    8880023    1    1    2    0    0 -0.11358990061E+03 -0.12170310247E+03 -0.10895744104E+03  0.68803796472E+03  0.65864270000E+03 0.  0.
    8880022    1    1    2    0    0  0.11358990061E+03  0.12170310247E+03  0.66578276767E+02  0.23566635446E+03  0.15294330000E+03 0.  0.
<mgrwt>
<rscale>  0 0.51597896E+03</rscale>
<asrwt>0</asrwt>
<pdfrwt beam="1">  1        1 0.67794243E-01 0.67935596E+03</pdfrwt>
<pdfrwt beam="2">  1       -1 0.74314114E-01 0.67935596E+03</pdfrwt>
<totfact> 0.98187604E+01</totfact>
</mgrwt>
</event>
<event>
 4    2  0.3396630E-007  0.1146128E+04  0.7818608E-02  0.9211357E-01
          1   -1    0    0  501    0  0.00000000000E+00  0.00000000000E+00  0.11408285230E+04  0.11408285230E+04  0.50400000000E-02 0. -1.
         -1   -1    0    0    0  501 -0.00000000000E+00 -0.00000000000E+00 -0.10757955896E+04  0.10757955896E+04  0.50400000000E-02 0.  1.
    8880023    1    1    2    0    0  0.87516164408E+03 -0.33747673258E+03 -0.32195788730E+03  0.11904896202E+04  0.65864270000E+03 0.  0.
    8880022    1    1    2    0    0 -0.87516164408E+03  0.33747673258E+03  0.38699082070E+03  0.10261344925E+04  0.15294330000E+03 0.  0.
<mgrwt>
<rscale>  0 0.10936973E+04</rscale>
<asrwt>0</asrwt>
<pdfrwt beam="1">  1        1 0.17551208E+00 0.11461277E+04</pdfrwt>
<pdfrwt beam="2">  1       -1 0.16550701E+00 0.11461277E+04</pdfrwt>
<totfact> 0.30969210E+00</totfact>
</mgrwt>
</event>
<event>
 4    2  0.3396630E-007  0.1000025E+04  0.7818608E-02  0.9381525E-01
         -1   -1    0    0    0  501 -0.00000000000E+00  0.00000000000E+00  0.20813587522E+04  0.20813587522E+04  0.50400000000E-02 0.  1.
          1   -1    0    0  501    0  0.00000000000E+00 -0.00000000000E+00 -0.11053941443E+04  0.11053941444E+04  0.50400000000E-02 0. -1.
    8880023    1    1    2    0    0  0.27035781791E+02 -0.75200299011E+03  0.18007872764E+04  0.20598263159E+04  0.65864270000E+03 0.  1.
    8880022    1    1    2    0    0 -0.27035781791E+02  0.75200299011E+03 -0.82482266853E+03  0.11269265806E+04  0.15294330000E+03 0.  0.
<mgrwt>
<rscale>  0 0.93611807E+03</rscale>
<asrwt>0</asrwt>
<pdfrwt beam="1">  1        1 0.17006064E+00 0.10000248E+04</pdfrwt>
<pdfrwt beam="2">  1       -1 0.32020904E+00 0.10000248E+04</pdfrwt>
<totfact> 0.31171129E-01</totfact>
</mgrwt>
</event>
<event>
 4    2  0.3396630E-007  0.6794544E+03  0.7818608E-02  0.1009634E+00
         -1   -1    0    0    0  501 -0.00000000000E+00  0.00000000000E+00  0.66837755428E+03  0.66837755430E+03  0.50400000000E-02 0.  1.
          1   -1    0    0  501    0  0.00000000000E+00 -0.00000000000E+00 -0.52302145101E+03  0.52302145103E+03  0.50400000000E-02 0. -1.
    8880023    1    1    2    0    0 -0.78907681619E+02 -0.14704284064E+03  0.44771138263E+03  0.81369755290E+03  0.65864270000E+03 0.  1.
    8880022    1    1    2    0    0  0.78907681619E+02  0.14704284064E+03 -0.30235527936E+03  0.37770145243E+03  0.15294330000E+03 0.  0.
<mgrwt>
<rscale>  0 0.51620358E+03</rscale>
<asrwt>0</asrwt>
<pdfrwt beam="1">  1        1 0.80464839E-01 0.67945436E+03</pdfrwt>
<pdfrwt beam="2">  1       -1 0.10282732E+00 0.67945436E+03</pdfrwt>
<totfact> 0.38317703E+01</totfact>
</mgrwt>
</event>
<event>
 4    2  0.3396630E-007  0.7936512E+03  0.7818608E-02  0.9724695E-01
         -1   -1    0    0    0  501 -0.00000000000E+00  0.00000000000E+00  0.69098757286E+03  0.69098757288E+03  0.50400000000E-02 0.  1.
          1   -1    0    0  501    0  0.00000000000E+00 -0.00000000000E+00 -0.94586523754E+03  0.94586523755E+03  0.50400000000E-02 0. -1.
    8880023    1    1    2    0    0 -0.26760731369E+03 -0.35278648688E+03  0.35365781998E+03  0.86888206309E+03  0.65864270000E+03 0.  0.
    8880022    1    1    2    0    0  0.26760731369E+03  0.35278648688E+03 -0.60853548466E+03  0.76797074734E+03  0.15294330000E+03 0.  0.
<mgrwt>
<rscale>  0 0.69565285E+03</rscale>
<asrwt>0</asrwt>
<pdfrwt beam="1">  1        1 0.14551773E+00 0.79365117E+03</pdfrwt>
<pdfrwt beam="2">  1       -1 0.10630578E+00 0.79365117E+03</pdfrwt>
<totfact> 0.14156927E+01</totfact>
</mgrwt>
</event>
<event>
 4    2  0.3895339E-007  0.7658769E+03  0.7818608E-02  0.9790124E-01
          1   -1    0    0  501    0  0.00000000000E+00  0.00000000000E+00  0.13874801265E+04  0.13874801265E+04  0.50400000000E-02 0. -1.
         -1   -1    0    0    0  501 -0.00000000000E+00 -0.00000000000E+00 -0.69026175531E+03  0.69026175533E+03  0.50400000000E-02 0.  1.
    8880023    1    1    2    0    0 -0.25161016832E+03  0.29908105113E+03 -0.42760948228E+03  0.87716431046E+03  0.65864270000E+03 0.  0.
    8880022    1    1    2    0    0  0.25161016832E+03 -0.29908105113E+03  0.11248278534E+04  0.12005775713E+04  0.15294330000E+03 0.  0.
<mgrwt>
<rscale>  0 0.65895259E+03</rscale>
<asrwt>0</asrwt>
<pdfrwt beam="1">  1        1 0.21345848E+00 0.76587686E+03</pdfrwt>
<pdfrwt beam="2">  1       -1 0.10619412E+00 0.76587686E+03</pdfrwt>
<totfact> 0.67372550E+00</totfact>
</mgrwt>
</event>
<event>
 4    2  0.3396630E-007  0.7760353E+03  0.7818608E-02  0.9765234E-01
         -1   -1    0    0    0  501 -0.00000000000E+00  0.00000000000E+00  0.14507457097E+04  0.14507457097E+04  0.50400000000E-02 0.  1.
          1   -1    0    0  501    0  0.00000000000E+00 -0.00000000000E+00 -0.26755818832E+03  0.26755818837E+03  0.50400000000E-02 0. -1.
    8880023    1    1    2    0    0 -0.23235079832E+03 -0.33828041250E+03  0.93431575634E+03  0.12145685118E+04  0.65864270000E+03 0.  0.
    8880022    1    1    2    0    0  0.23235079832E+03  0.33828041250E+03  0.24887176500E+03  0.50373538628E+03  0.15294330000E+03 0.  0.
<mgrwt>
<rscale>  0 0.67262130E+03</rscale>
<asrwt>0</asrwt>
<pdfrwt beam="1">  1        1 0.41162797E-01 0.77603527E+03</pdfrwt>
<pdfrwt beam="2">  1       -1 0.22319165E+00 0.77603527E+03</pdfrwt>
<totfact> 0.10971826E+01</totfact>
</mgrwt>
</event>
<event>
 4    2  0.3396630E-007  0.7232602E+03  0.7818608E-02  0.9911705E-01
          1   -1    0    0  501    0  0.00000000000E+00  0.00000000000E+00  0.42800934634E+03  0.42800934637E+03  0.50400000000E-02 0. -1.
         -1   -1    0    0    0  501 -0.00000000000E+00 -0.00000000000E+00 -0.67856106440E+03  0.67856106442E+03  0.50400000000E-02 0.  1.
    8880023    1    1    2    0    0 -0.29554164311E+03  0.44161728880E+02 -0.26575077110E+03  0.77053799369E+03  0.65864270000E+03 0. -1.
    8880022    1    1    2    0    0  0.29554164311E+03 -0.44161728880E+02  0.15199053045E+02  0.33603241709E+03  0.15294330000E+03 0.  0.
<mgrwt>
<rscale>  0 0.59697349E+03</rscale>
<asrwt>0</asrwt>
<pdfrwt beam="1">  1        1 0.65847591E-01 0.72326021E+03</pdfrwt>
<pdfrwt beam="2">  1       -1 0.10439401E+00 0.72326021E+03</pdfrwt>
<totfact> 0.48389659E+01</totfact>
</mgrwt>
</event>
<event>
 4    2  0.3396630E-007  0.7188956E+03  0.7818608E-02  0.9926341E-01
         -1   -1    0    0    0  501 -0.00000000000E+00  0.00000000000E+00  0.29823406909E+03  0.29823406913E+03  0.50400000000E-02 0.  1.
          1   -1    0    0  501    0  0.00000000000E+00 -0.00000000000E+00 -0.28195144712E+04  0.28195144712E+04  0.50400000000E-02 0. -1.
    8880023    1    1    2    0    0  0.21371099348E+03  0.19320527597E+03 -0.16316277705E+03  0.73717905930E+03  0.65864270000E+03 0.  0.
    8880022    1    1    2    0    0 -0.21371099348E+03 -0.19320527597E+03 -0.23581176251E+04  0.23805694810E+04  0.15294330000E+03 0.  0.
<mgrwt>
<rscale>  0 0.59001513E+03</rscale>
<asrwt>0</asrwt>
<pdfrwt beam="1">  1        1 0.43377144E+00 0.71889559E+03</pdfrwt>
<pdfrwt beam="2">  1       -1 0.45882166E-01 0.71889559E+03</pdfrwt>
<totfact> 0.40872306E+00</totfact>
</mgrwt>
</event>
<event>
 4    2  0.3396630E-007  0.1063335E+04  0.7818608E-02  0.9303020E-01
          1   -1    0    0  501    0  0.00000000000E+00  0.00000000000E+00  0.15034087401E+04  0.15034087401E+04  0.50400000000E-02 0. -1.
         -1   -1    0    0    0  501 -0.00000000000E+00 -0.00000000000E+00 -0.81747880345E+03  0.81747880347E+03  0.50400000000E-02 0.  1.
    8880023    1    1    2    0    0 -0.75178718867E+03 -0.36288761740E+03 -0.21318313853E+03  0.10844946550E+04  0.65864270000E+03 0.  0.
    8880022    1    1    2    0    0  0.75178718867E+03  0.36288761740E+03  0.89911307513E+03  0.12363928885E+04  0.15294330000E+03 0.  0.
<mgrwt>
<rscale>  0 0.10050531E+04</rscale>
<asrwt>0</asrwt>
<pdfrwt beam="1">  1        1 0.23129365E+00 0.10633351E+04</pdfrwt>
<pdfrwt beam="2">  1       -1 0.12576597E+00 0.10633351E+04</pdfrwt>
<totfact> 0.35772328E+00</totfact>
</mgrwt>
</event>
<event>
 4    2  0.3396630E-007  0.6786644E+03  0.7818608E-02  0.1010089E+00
          1   -1    0    0  501    0  0.00000000000E+00  0.00000000000E+00  0.92764718858E+03  0.92764718859E+03  0.50400000000E-02 0. -1.
         -1   -1    0    0    0  501 -0.00000000000E+00 -0.00000000000E+00 -0.12192544779E+04  0.12192544780E+04  0.50400000000E-02 0.  1.
    8880023    1    1    2    0    0 -0.13469047204E+03  0.92917221315E+02 -0.11085586440E+04  0.12998029107E+04  0.65864270000E+03 0.  1.
    8880022    1    1    2    0    0  0.13469047204E+03 -0.92917221315E+02  0.81695135463E+03  0.84709875582E+03  0.15294330000E+03 0.  0.
<mgrwt>
<rscale>  0 0.51439096E+03</rscale>
<asrwt>0</asrwt>
<pdfrwt beam="1">  1        1 0.14271495E+00 0.67866438E+03</pdfrwt>
<pdfrwt beam="2">  1       -1 0.18757761E+00 0.67866438E+03</pdfrwt>
<totfact> 0.33414884E+00</totfact>
</mgrwt>
</event>
<event>
 4    2  0.3396630E-007  0.7079269E+03  0.7818608E-02  0.9965781E-01
          1   -1    0    0  501    0  0.00000000000E+00  0.00000000000E+00  0.11601817242E+04  0.11601817242E+04  0.50400000000E-02 0. -1.
         -1   -1    0    0    0  501 -0.00000000000E+00 -0.00000000000E+00 -0.65251643181E+03  0.65251643183E+03  0.50400000000E-02 0.  1.
    8880023    1    1    2    0    0  0.24661542812E+00  0.25951922324E+03 -0.42969133874E+03  0.82812749073E+03  0.65864270000E+03 0.  1.
    8880022    1    1    2    0    0 -0.24661542812E+00 -0.25951922324E+03  0.93735663112E+03  0.98457066530E+03  0.15294330000E+03 0.  1.
<mgrwt>
<rscale>  0 0.57176467E+03</rscale>
<asrwt>0</asrwt>
<pdfrwt beam="1">  1        1 0.17848950E+00 0.70792690E+03</pdfrwt>
<pdfrwt beam="2">  1       -1 0.10038714E+00 0.70792690E+03</pdfrwt>
<totfact> 0.11230458E+01</totfact>
</mgrwt>
</event>
<event>
 4    2  0.3396630E-007  0.1034438E+04  0.7818608E-02  0.9337827E-01
          1   -1    0    0  501    0  0.00000000000E+00  0.00000000000E+00  0.13289465482E+04  0.13289465482E+04  0.50400000000E-02 0. -1.
         -1   -1    0    0    0  501 -0.00000000000E+00 -0.00000000000E+00 -0.12976573703E+04  0.12976573704E+04  0.50400000000E-02 0.  1.
    8880023    1    1    2    0    0  0.69840464533E+03  0.38533395651E+03 -0.91395812608E+03  0.13803553778E+04  0.65864270000E+03 0.  0.
    8880022    1    1    2    0    0 -0.69840464533E+03 -0.38533395651E+03  0.94524730395E+03  0.12462485407E+04  0.15294330000E+03 0.  0.
<mgrwt>
<rscale>  0 0.97373750E+03</rscale>
<asrwt>0</asrwt>
<pdfrwt beam="1">  1        1 0.20445332E+00 0.10344378E+04</pdfrwt>
<pdfrwt beam="2">  1       -1 0.19963959E+00 0.10344378E+04</pdfrwt>
<totfact> 0.13068308E+00</totfact>
</mgrwt>
</event>
<event>
 4    2  0.3396630E-007  0.9898825E+03  0.7818608E-02  0.9394916E-01
          1   -1    0    0  501    0  0.00000000000E+00  0.00000000000E+00  0.11637480460E+04  0.11637480460E+04  0.50400000000E-02 0. -1.
         -1   -1    0    0    0  501 -0.00000000000E+00 -0.00000000000E+00 -0.11230447007E+04  0.11230447007E+04  0.50400000000E-02 0.  1.
    8880023    1    1    2    0    0 -0.27357355802E+03  0.68645070727E+03 -0.71324411748E+03  0.12200755889E+04  0.65864270000E+03 0.  0.
    8880022    1    1    2    0    0  0.27357355802E+03 -0.68645070727E+03  0.75394746284E+03  0.10667171579E+04  0.15294330000E+03 0.  0.
<mgrwt>
<rscale>  0 0.92495275E+03</rscale>
<asrwt>0</asrwt>
<pdfrwt beam="1">  1        1 0.17903816E+00 0.98988245E+03</pdfrwt>
<pdfrwt beam="2">  1       -1 0.17277611E+00 0.98988245E+03</pdfrwt>
<totfact> 0.26813943E+00</totfact>
</mgrwt>
</event>
<event>
 4    2  0.3396630E-007  0.1027269E+04  0.7818608E-02  0.9346720E-01
         -1   -1    0    0    0  501 -0.00000000000E+00  0.00000000000E+00  0.11478828720E+04  0.11478828720E+04  0.50400000000E-02 0.  1.
          1   -1    0    0  501    0  0.00000000000E+00 -0.00000000000E+00 -0.13175234553E+04  0.13175234553E+04  0.50400000000E-02 0. -1.
    8880023    1    1    2    0    0  0.63915683373E+03  0.46146492934E+03  0.72944659674E+03  0.12599102678E+04  0.65864270000E+03 0.  1.
    8880022    1    1    2    0    0 -0.63915683373E+03 -0.46146492934E+03 -0.89908718003E+03  0.12054960595E+04  0.15294330000E+03 0.  0.
<mgrwt>
<rscale>  0 0.96593201E+03</rscale>
<asrwt>0</asrwt>
<pdfrwt beam="1">  1        1 0.20269592E+00 0.10272690E+04</pdfrwt>
<pdfrwt beam="2">  1       -1 0.17659736E+00 0.10272690E+04</pdfrwt>
<totfact> 0.19374587E+00</totfact>
</mgrwt>
</event>
<event>
 4    2  0.3396630E-007  0.8313416E+03  0.7818608E-02  0.9646728E-01
          1   -1    0    0  501    0  0.00000000000E+00  0.00000000000E+00  0.52109674230E+03  0.52109674233E+03  0.50400000000E-02 0. -1.
         -1   -1    0    0    0  501 -0.00000000000E+00 -0.00000000000E+00 -0.12237735138E+04  0.12237735138E+04  0.50400000000E-02 0.  1.
    8880023    1    1    2    0    0 -0.37782896691E+03 -0.33847284279E+03 -0.85605259549E+03  0.11932957915E+04  0.65864270000E+03 0.  1.
    8880022    1    1    2    0    0  0.37782896691E+03  0.33847284279E+03  0.15337582404E+03  0.55157446457E+03  0.15294330000E+03 0.  0.
<mgrwt>
<rscale>  0 0.74279146E+03</rscale>
<asrwt>0</asrwt>
<pdfrwt beam="1">  1        1 0.80168730E-01 0.83134157E+03</pdfrwt>
<pdfrwt beam="2">  1       -1 0.18827285E+00 0.83134157E+03</pdfrwt>
<totfact> 0.77733609E+00</totfact>
</mgrwt>
</event>
<event>
 4    2  0.3396630E-007  0.1113949E+04  0.7818608E-02  0.9245682E-01
          1   -1    0    0  501    0  0.00000000000E+00  0.00000000000E+00  0.12312139565E+04  0.12312139565E+04  0.50400000000E-02 0. -1.
         -1   -1    0    0    0  501 -0.00000000000E+00 -0.00000000000E+00 -0.13167373920E+04  0.13167373920E+04  0.50400000000E-02 0.  1.
    8880023    1    1    2    0    0 -0.50012223163E+03 -0.74629133105E+03 -0.81532074773E+03  0.13804459878E+04  0.65864270000E+03 0. -1.
    8880022    1    1    2    0    0  0.50012223163E+03  0.74629133105E+03  0.72979731221E+03  0.11675053607E+04  0.15294330000E+03 0.  0.
<mgrwt>
<rscale>  0 0.10594104E+04</rscale>
<asrwt>0</asrwt>
<pdfrwt beam="1">  1        1 0.18941753E+00 0.11139494E+04</pdfrwt>
<pdfrwt beam="2">  1       -1 0.20257498E+00 0.11139494E+04</pdfrwt>
<totfact> 0.14508301E+00</totfact>
</mgrwt>
</event>
<event>
 4    2  0.3396630E-007  0.7291158E+03  0.7818608E-02  0.9892868E-01
         -1   -1    0    0    0  501 -0.00000000000E+00  0.00000000000E+00  0.23928187203E+03  0.23928187209E+03  0.50400000000E-02 0.  1.
          1   -1    0    0  501    0  0.00000000000E+00 -0.00000000000E+00 -0.23244075158E+04  0.23244075158E+04  0.50400000000E-02 0. -1.
    8880023    1    1    2    0    0  0.78236323751E+02  0.30278495342E+03 -0.37770402855E+03  0.82113956781E+03  0.65864270000E+03 0.  1.
    8880022    1    1    2    0    0 -0.78236323751E+02 -0.30278495342E+03 -0.17074216152E+04  0.17425498201E+04  0.15294330000E+03 0.  0.
<mgrwt>
<rscale>  0 0.60608190E+03</rscale>
<asrwt>0</asrwt>
<pdfrwt beam="1">  1        1 0.35760114E+00 0.72911580E+03</pdfrwt>
<pdfrwt beam="2">  1       -1 0.36812597E-01 0.72911580E+03</pdfrwt>
<totfact> 0.13346600E+01</totfact>
</mgrwt>
</event>
<event>
 4    2  0.3396630E-007  0.7455293E+03  0.7818608E-02  0.9844124E-01
         -1   -1    0    0    0  501 -0.00000000000E+00  0.00000000000E+00  0.52892956344E+03  0.52892956346E+03  0.50400000000E-02 0.  1.
          1   -1    0    0  501    0  0.00000000000E+00 -0.00000000000E+00 -0.13576139412E+04  0.13576139412E+04  0.50400000000E-02 0. -1.
    8880023    1    1    2    0    0  0.30070842679E+03  0.17770260221E+03  0.21456714851E+03  0.77579187948E+03  0.65864270000E+03 0.  0.
    8880022    1    1    2    0    0 -0.30070842679E+03 -0.17770260221E+03 -0.10432515262E+04  0.11107516252E+04  0.15294330000E+03 0.  0.
<mgrwt>
<rscale>  0 0.63047431E+03</rscale>
<asrwt>0</asrwt>
<pdfrwt beam="1">  1        1 0.20886368E+00 0.74552933E+03</pdfrwt>
<pdfrwt beam="2">  1       -1 0.81373780E-01 0.74552933E+03</pdfrwt>
<totfact> 0.12824751E+01</totfact>
</mgrwt>
</event>
<event>
 4    2  0.3396630E-007  0.8081775E+03  0.7818608E-02  0.9693386E-01
          1   -1    0    0  501    0  0.00000000000E+00  0.00000000000E+00  0.10251409802E+04  0.10251409802E+04  0.50400000000E-02 0. -1.
         -1   -1    0    0    0  501 -0.00000000000E+00 -0.00000000000E+00 -0.93013735592E+03  0.93013735593E+03  0.50400000000E-02 0.  1.
    8880023    1    1    2    0    0  0.45583155777E+03 -0.10750961745E+03 -0.66700026666E+03  0.10478741761E+04  0.65864270000E+03 0.  0.
    8880022    1    1    2    0    0 -0.45583155777E+03  0.10750961745E+03  0.76200389096E+03  0.90740416009E+03  0.15294330000E+03 0.  0.
<mgrwt>
<rscale>  0 0.71411975E+03</rscale>
<asrwt>0</asrwt>
<pdfrwt beam="1">  1        1 0.15771400E+00 0.80817754E+03</pdfrwt>
<pdfrwt beam="2">  1       -1 0.14309805E+00 0.80817754E+03</pdfrwt>
<totfact> 0.58776655E+00</totfact>
</mgrwt>
</event>
<event>
 4    2  0.3396630E-007  0.1017321E+04  0.7818608E-02  0.9359239E-01
          1   -1    0    0  501    0  0.00000000000E+00  0.00000000000E+00  0.44385988406E+03  0.44385988408E+03  0.50400000000E-02 0. -1.
         -1   -1    0    0    0  501 -0.00000000000E+00 -0.00000000000E+00 -0.26883074326E+04  0.26883074326E+04  0.50400000000E-02 0.  1.
    8880023    1    1    2    0    0  0.75483868169E+03  0.17706303646E+03 -0.34391740782E+03  0.10738818110E+04  0.65864270000E+03 0.  0.
    8880022    1    1    2    0    0 -0.75483868169E+03 -0.17706303646E+03 -0.19005301407E+04  0.20582855057E+04  0.15294330000E+03 0.  0.
<mgrwt>
<rscale>  0 0.95507468E+03</rscale>
<asrwt>0</asrwt>
<pdfrwt beam="1">  1        1 0.68286138E-01 0.10173215E+04</pdfrwt>
<pdfrwt beam="2">  1       -1 0.41358575E+00 0.10173215E+04</pdfrwt>
<totfact> 0.30842058E-01</totfact>
</mgrwt>
</event>
<event>
 4    2  0.3396630E-007  0.7061483E+03  0.7818608E-02  0.9972592E-01
         -1   -1    0    0    0  501 -0.00000000000E+00  0.00000000000E+00  0.17544440436E+03  0.17544440443E+03  0.50400000000E-02 0.  1.
          1   -1    0    0  501    0  0.00000000000E+00 -0.00000000000E+00 -0.24887783533E+04  0.24887783533E+04  0.50400000000E-02 0. -1.
    8880023    1    1    2    0    0  0.19424547224E+03  0.16463260447E+03 -0.60385944724E+03  0.92913488592E+03  0.65864270000E+03 0. -1.
    8880022    1    1    2    0    0 -0.19424547224E+03 -0.16463260447E+03 -0.17094745017E+04  0.17350878718E+04  0.15294330000E+03 0. -1.
<mgrwt>
<rscale>  0 0.56868534E+03</rscale>
<asrwt>0</asrwt>
<pdfrwt beam="1">  1        1 0.38288895E+00 0.70614829E+03</pdfrwt>
<pdfrwt beam="2">  1       -1 0.26991449E-01 0.70614829E+03</pdfrwt>
<totfact> 0.17865764E+01</totfact>
</mgrwt>
</event>
<event>
 4    2  0.3396630E-007  0.6863068E+03  0.7818608E-02  0.1005960E+00
         -1   -1    0    0    0  501 -0.00000000000E+00  0.00000000000E+00  0.40261344860E+03  0.40261344863E+03  0.50400000000E-02 0.  1.
          1   -1    0    0  501    0  0.00000000000E+00 -0.00000000000E+00 -0.30336709071E+04  0.30336709071E+04  0.50400000000E-02 0. -1.
    8880023    1    1    2    0    0 -0.15179450524E+03  0.11901806594E+03  0.10052700459E+03  0.69363012965E+03  0.65864270000E+03 0.  1.
    8880022    1    1    2    0    0  0.15179450524E+03 -0.11901806594E+03 -0.27315844631E+04  0.27426542261E+04  0.15294330000E+03 0.  0.
<mgrwt>
<rscale>  0 0.53112470E+03</rscale>
<asrwt>0</asrwt>
<pdfrwt beam="1">  1        1 0.46671859E+00 0.68630684E+03</pdfrwt>
<pdfrwt beam="2">  1       -1 0.61940532E-01 0.68630684E+03</pdfrwt>
<totfact> 0.16308655E+00</totfact>
</mgrwt>
</event>
<event>
 4    2  0.3396630E-007  0.7465368E+03  0.7818608E-02  0.9841299E-01
          1   -1    0    0  501    0  0.00000000000E+00  0.00000000000E+00  0.14803650632E+04  0.14803650632E+04  0.50400000000E-02 0. -1.
         -1   -1    0    0    0  501 -0.00000000000E+00 -0.00000000000E+00 -0.58683913378E+03  0.58683913380E+03  0.50400000000E-02 0.  1.
    8880023    1    1    2    0    0  0.27643753810E+03 -0.21700068114E+03 -0.30683870527E+03  0.80713518409E+03  0.65864270000E+03 0.  1.
    8880022    1    1    2    0    0 -0.27643753810E+03  0.21700068114E+03  0.12003646347E+04  0.12600690129E+04  0.15294330000E+03 0.  0.
<mgrwt>
<rscale>  0 0.63192517E+03</rscale>
<asrwt>0</asrwt>
<pdfrwt beam="1">  1        1 0.22774847E+00 0.74653681E+03</pdfrwt>
<pdfrwt beam="2">  1       -1 0.90282946E-01 0.74653681E+03</pdfrwt>
<totfact> 0.84183439E+00</totfact>
</mgrwt>
</event>
<event>
 4    2  0.3396630E-007  0.1072691E+04  0.7818608E-02  0.9292088E-01
          1   -1    0    0  501    0  0.00000000000E+00  0.00000000000E+00  0.15377833081E+04  0.15377833081E+04  0.50400000000E-02 0. -1.
         -1   -1    0    0    0  501 -0.00000000000E+00 -0.00000000000E+00 -0.78169378684E+03  0.78169378685E+03  0.50400000000E-02 0.  1.
    8880023    1    1    2    0    0  0.10799740617E+03 -0.83975725634E+03 -0.13459807044E+03  0.10811024633E+04  0.65864270000E+03 0.  0.
    8880022    1    1    2    0    0 -0.10799740617E+03  0.83975725634E+03  0.89068759172E+03  0.12383746317E+04  0.15294330000E+03 0.  0.
<mgrwt>
<rscale>  0 0.10151450E+04</rscale>
<asrwt>0</asrwt>
<pdfrwt beam="1">  1        1 0.23658204E+00 0.10726910E+04</pdfrwt>
<pdfrwt beam="2">  1       -1 0.12026058E+00 0.10726910E+04</pdfrwt>
<totfact> 0.37807444E+00</totfact>
</mgrwt>
</event>
<event>
 4    2  0.3396630E-007  0.1383204E+04  0.7818608E-02  0.8996845E-01
         -1   -1    0    0    0  501 -0.00000000000E+00  0.00000000000E+00  0.94078430142E+03  0.94078430144E+03  0.50400000000E-02 0.  1.
          1   -1    0    0  501    0  0.00000000000E+00 -0.00000000000E+00 -0.39959808460E+04  0.39959808460E+04  0.50400000000E-02 0. -1.
    8880023    1    1    2    0    0  0.11273344843E+04  0.45668377541E+03  0.25530950532E+03  0.14065689674E+04  0.65864270000E+03 0.  0.
    8880022    1    1    2    0    0 -0.11273344843E+04 -0.45668377541E+03 -0.33105060499E+04  0.35301961800E+04  0.15294330000E+03 0.  0.
<mgrwt>
<rscale>  0 0.13420805E+04</rscale>
<asrwt>0</asrwt>
<pdfrwt beam="1">  1        1 0.61476627E+00 0.13832040E+04</pdfrwt>
<pdfrwt beam="2">  1       -1 0.14473605E+00 0.13832040E+04</pdfrwt>
<totfact> 0.36412733E-02</totfact>
</mgrwt>
</event>
<event>
 4    2  0.3396630E-007  0.1128270E+04  0.7818608E-02  0.9230215E-01
         -1   -1    0    0    0  501 -0.00000000000E+00  0.00000000000E+00  0.92860250428E+03  0.92860250429E+03  0.50400000000E-02 0.  1.
          1   -1    0    0  501    0  0.00000000000E+00 -0.00000000000E+00 -0.24137280348E+04  0.24137280349E+04  0.50400000000E-02 0. -1.
    8880023    1    1    2    0    0  0.54385642878E+03  0.73715914355E+03  0.43512902446E+03  0.12092687428E+04  0.65864270000E+03 0.  1.
    8880022    1    1    2    0    0 -0.54385642878E+03 -0.73715914355E+03 -0.19202545550E+04  0.21330617964E+04  0.15294330000E+03 0.  0.
<mgrwt>
<rscale>  0 0.10746931E+04</rscale>
<asrwt>0</asrwt>
<pdfrwt beam="1">  1        1 0.37134277E+00 0.11282702E+04</pdfrwt>
<pdfrwt beam="2">  1       -1 0.14286192E+00 0.11282702E+04</pdfrwt>
<totfact> 0.61568450E-01</totfact>
</mgrwt>
</event>
<event>
 4    2  0.3396630E-007  0.9212092E+03  0.7818608E-02  0.9492807E-01
          1   -1    0    0  501    0  0.00000000000E+00  0.00000000000E+00  0.24817783789E+04  0.24817783789E+04  0.50400000000E-02 0. -1.
         -1   -1    0    0    0  501 -0.00000000000E+00 -0.00000000000E+00 -0.73028548195E+03  0.73028548197E+03  0.50400000000E-02 0.  1.
    8880023    1    1    2    0    0  0.20192545699E+02 -0.64374561701E+03 -0.36770368820E+03  0.99188324257E+03  0.65864270000E+03 0.  0.
    8880022    1    1    2    0    0 -0.20192545699E+02  0.64374561701E+03  0.21191965852E+04  0.22201806183E+04  0.15294330000E+03 0.  0.
<mgrwt>
<rscale>  0 0.84816180E+03</rscale>
<asrwt>0</asrwt>
<pdfrwt beam="1">  1        1 0.38181206E+00 0.92120919E+03</pdfrwt>
<pdfrwt beam="2">  1       -1 0.11235161E+00 0.92120919E+03</pdfrwt>
<totfact> 0.10444227E+00</totfact>
</mgrwt>
</event>
<event>
 4    2  0.3396630E-007  0.6998624E+03  0.7818608E-02  0.9997772E-01
         -1   -1    0    0    0  501 -0.00000000000E+00  0.00000000000E+00  0.77044708613E+03  0.77044708615E+03  0.50400000000E-02 0.  1.
          1   -1    0    0  501    0  0.00000000000E+00 -0.00000000000E+00 -0.90959014214E+03  0.90959014215E+03  0.50400000000E-02 0. -1.
    8880023    1    1    2    0    0 -0.19425379528E+03  0.13513943979E+03  0.57917620125E+03  0.90843408320E+03  0.65864270000E+03 0.  1.
    8880022    1    1    2    0    0  0.19425379528E+03 -0.13513943979E+03 -0.71831925726E+03  0.77160314510E+03  0.15294330000E+03 0.  0.
<mgrwt>
<rscale>  0 0.55748021E+03</rscale>
<asrwt>0</asrwt>
<pdfrwt beam="1">  1        1 0.13993694E+00 0.69986242E+03</pdfrwt>
<pdfrwt beam="2">  1       -1 0.11853032E+00 0.69986242E+03</pdfrwt>
<totfact> 0.11836089E+01</totfact>
</mgrwt>
</event>
<event>
 4    2  0.3396630E-007  0.1068196E+04  0.7818608E-02  0.9297320E-01
          1   -1    0    0  501    0  0.00000000000E+00  0.00000000000E+00  0.71715947838E+03  0.71715947839E+03  0.50400000000E-02 0. -1.
         -1   -1    0    0    0  501 -0.00000000000E+00 -0.00000000000E+00 -0.20262336490E+04  0.20262336490E+04  0.50400000000E-02 0.  1.
    8880023    1    1    2    0    0  0.40434263452E+03  0.73738764940E+03 -0.15248839815E+04  0.18618041988E+04  0.65864270000E+03 0.  1.
    8880022    1    1    2    0    0 -0.40434263452E+03 -0.73738764940E+03  0.21580981081E+03  0.88158892860E+03  0.15294330000E+03 0.  0.
<mgrwt>
<rscale>  0 0.10102996E+04</rscale>
<asrwt>0</asrwt>
<pdfrwt beam="1">  1        1 0.11033223E+00 0.10681965E+04</pdfrwt>
<pdfrwt beam="2">  1       -1 0.31172825E+00 0.10681965E+04</pdfrwt>
<totfact> 0.73154388E-01</totfact>
</mgrwt>
</event>
<event>
 4    2  0.3396630E-007  0.8204517E+03  0.7818608E-02  0.9668204E-01
          1   -1    0    0  501    0  0.00000000000E+00  0.00000000000E+00  0.25271213609E+04  0.25271213609E+04  0.50400000000E-02 0. -1.
         -1   -1    0    0    0  501 -0.00000000000E+00 -0.00000000000E+00 -0.23253245539E+03  0.23253245544E+03  0.50400000000E-02 0.  1.
    8880023    1    1    2    0    0 -0.48913845527E+03 -0.86251357239E+01  0.67987010642E+03  0.10655347903E+04  0.65864270000E+03 0.  1.
    8880022    1    1    2    0    0  0.48913845527E+03  0.86251357239E+01  0.16147187991E+04  0.16941190261E+04  0.15294330000E+03 0.  0.
<mgrwt>
<rscale>  0 0.72941876E+03</rscale>
<asrwt>0</asrwt>
<pdfrwt beam="1">  1        1 0.38878790E+00 0.82045172E+03</pdfrwt>
<pdfrwt beam="2">  1       -1 0.35774224E-01 0.82045172E+03</pdfrwt>
<totfact> 0.10086869E+01</totfact>
</mgrwt>
</event>
<event>
 4    2  0.3396630E-007  0.7914197E+03  0.7818608E-02  0.9729665E-01
          1   -1    0    0  501    0  0.00000000000E+00  0.00000000000E+00  0.48248385555E+03  0.48248385558E+03  0.50400000000E-02 0. -1.
         -1   -1    0    0    0  501 -0.00000000000E+00 -0.00000000000E+00 -0.11486879401E+04  0.11486879401E+04  0.50400000000E-02 0.  1.
    8880023    1    1    2    0    0  0.21643582120E+03  0.38169428916E+03 -0.82200561339E+03  0.11410689856E+04  0.65864270000E+03 0.  1.
    8880022    1    1    2    0    0 -0.21643582120E+03 -0.38169428916E+03  0.15580152886E+03  0.49010281012E+03  0.15294330000E+03 0.  0.
<mgrwt>
<rscale>  0 0.69277696E+03</rscale>
<asrwt>0</asrwt>
<pdfrwt beam="1">  1        1 0.74228286E-01 0.79141974E+03</pdfrwt>
<pdfrwt beam="2">  1       -1 0.17672122E+00 0.79141974E+03</pdfrwt>
<totfact> 0.10490113E+01</totfact>
</mgrwt>
</event>
<event>
 4    2  0.3396630E-007  0.7756121E+03  0.7818608E-02  0.9766247E-01
          1   -1    0    0  501    0  0.00000000000E+00  0.00000000000E+00  0.38044167063E+03  0.38044167067E+03  0.50400000000E-02 0. -1.
         -1   -1    0    0    0  501 -0.00000000000E+00 -0.00000000000E+00 -0.96686583709E+03  0.96686583710E+03  0.50400000000E-02 0.  1.
    8880023    1    1    2    0    0 -0.40732378083E+03 -0.43025910662E+02 -0.36435324229E+03  0.85692904190E+03  0.65864270000E+03 0.  0.
    8880022    1    1    2    0    0  0.40732378083E+03  0.43025910662E+02 -0.22207092416E+03  0.49037846587E+03  0.15294330000E+03 0.  1.
<mgrwt>
<rscale>  0 0.67205805E+03</rscale>
<asrwt>0</asrwt>
<pdfrwt beam="1">  1        1 0.58529488E-01 0.77561208E+03</pdfrwt>
<pdfrwt beam="2">  1       -1 0.14874859E+00 0.77561208E+03</pdfrwt>
<totfact> 0.23397371E+01</totfact>
</mgrwt>
</event>
<event>
 4    2  0.3396630E-007  0.1030825E+04  0.7818608E-02  0.9342296E-01
          1   -1    0    0  501    0  0.00000000000E+00  0.00000000000E+00  0.98956236671E+03  0.98956236672E+03  0.50400000000E-02 0. -1.
         -1   -1    0    0    0  501 -0.00000000000E+00 -0.00000000000E+00 -0.15190667663E+04  0.15190667663E+04  0.50400000000E-02 0.  1.
    8880023    1    1    2    0    0  0.78501012548E+03 -0.11202323508E+03 -0.11094215202E+04  0.15144029907E+04  0.65864270000E+03 0.  0.
    8880022    1    1    2    0    0 -0.78501012548E+03  0.11202323508E+03  0.57991712065E+03  0.99422614236E+03  0.15294330000E+03 0.  0.
<mgrwt>
<rscale>  0 0.96980587E+03</rscale>
<asrwt>0</asrwt>
<pdfrwt beam="1">  1        1 0.15224036E+00 0.10308251E+04</pdfrwt>
<pdfrwt beam="2">  1       -1 0.23370258E+00 0.10308251E+04</pdfrwt>
<totfact> 0.13788461E+00</totfact>
</mgrwt>
</event>
<event>
 4    2  0.3396630E-007  0.1291441E+04  0.7818608E-02  0.9072987E-01
          1   -1    0    0  501    0  0.00000000000E+00  0.00000000000E+00  0.12362838227E+04  0.12362838227E+04  0.50400000000E-02 0. -1.
         -1   -1    0    0    0  501 -0.00000000000E+00 -0.00000000000E+00 -0.12826252229E+04  0.12826252229E+04  0.50400000000E-02 0.  1.
    8880023    1    1    2    0    0  0.10970148067E+04  0.17483792790E+03 -0.38489384700E+03  0.13475768129E+04  0.65864270000E+03 0.  0.
    8880022    1    1    2    0    0 -0.10970148067E+04 -0.17483792790E+03  0.33855244685E+03  0.11713322327E+04  0.15294330000E+03 0.  0.
<mgrwt>
<rscale>  0 0.12466375E+04</rscale>
<asrwt>0</asrwt>
<pdfrwt beam="1">  1        1 0.19019751E+00 0.12914411E+04</pdfrwt>
<pdfrwt beam="2">  1       -1 0.19732696E+00 0.12914411E+04</pdfrwt>
<totfact> 0.15319894E+00</totfact>
</mgrwt>
</event>
<event>
 4    2  0.3396630E-007  0.8830439E+03  0.7818608E-02  0.9553819E-01
         -1   -1    0    0    0  501 -0.00000000000E+00  0.00000000000E+00  0.28759500376E+03  0.28759500380E+03  0.50400000000E-02 0.  1.
          1   -1    0    0  501    0  0.00000000000E+00 -0.00000000000E+00 -0.19320112223E+04  0.19320112223E+04  0.50400000000E-02 0. -1.
    8880023    1    1    2    0    0 -0.23709877888E+03  0.53827548743E+03 -0.98172055864E+03  0.13204324265E+04  0.65864270000E+03 0. -1.
    8880022    1    1    2    0    0  0.23709877888E+03 -0.53827548743E+03 -0.66269565988E+03  0.89917379964E+03  0.15294330000E+03 0.  1.
<mgrwt>
<rscale>  0 0.80429652E+03</rscale>
<asrwt>0</asrwt>
<pdfrwt beam="1">  1        1 0.29723249E+00 0.88304390E+03</pdfrwt>
<pdfrwt beam="2">  1       -1 0.44245386E-01 0.88304390E+03</pdfrwt>
<totfact> 0.17137510E+01</totfact>
</mgrwt>
</event>
<event>
 4    2  0.5357536E-007  0.6741364E+03  0.7818608E-02  0.1012856E+00
          1   -1    0    0  501    0  0.00000000000E+00  0.00000000000E+00  0.11436163434E+04  0.11436163434E+04  0.50400000000E-02 0. -1.
         -1   -1    0    0    0  501 -0.00000000000E+00 -0.00000000000E+00 -0.90558365377E+03  0.90558365378E+03  0.50400000000E-02 0.  1.
    8880023    1    1    2    0    0 -0.14313826176E+03  0.12694740533E+02 -0.76777440886E+03  0.10217325812E+04  0.65864270000E+03 0.  1.
    8880022    1    1    2    0    0  0.14313826176E+03 -0.12694740533E+02  0.10058070985E+04  0.10274674159E+04  0.15294330000E+03 0.  0.
<mgrwt>
<rscale>  0 0.50355099E+03</rscale>
<asrwt>0</asrwt>
<pdfrwt beam="1">  1        1 0.17594098E+00 0.67413643E+03</pdfrwt>
<pdfrwt beam="2">  1       -1 0.13932056E+00 0.67413643E+03</pdfrwt>
<totfact> 0.52459149E+00</totfact>
</mgrwt>
</event>
<event>
 4    2  0.3396630E-007  0.7528335E+03  0.7818608E-02  0.9824027E-01
          1   -1    0    0  501    0  0.00000000000E+00  0.00000000000E+00  0.70990525454E+03  0.70990525456E+03  0.50400000000E-02 0. -1.
         -1   -1    0    0    0  501 -0.00000000000E+00 -0.00000000000E+00 -0.75401490402E+03  0.75401490404E+03  0.50400000000E-02 0.  1.
    8880023    1    1    2    0    0  0.28409472679E+03 -0.22855700409E+03 -0.46625232287E+03  0.88552219213E+03  0.65864270000E+03 0.  0.
    8880022    1    1    2    0    0 -0.28409472679E+03  0.22855700409E+03  0.42214267338E+03  0.57839796647E+03  0.15294330000E+03 0.  0.
<mgrwt>
<rscale>  0 0.64088912E+03</rscale>
<asrwt>0</asrwt>
<pdfrwt beam="1">  1        1 0.10921619E+00 0.75283353E+03</pdfrwt>
<pdfrwt beam="2">  1       -1 0.11600229E+00 0.75283353E+03</pdfrwt>
<totfact> 0.18409983E+01</totfact>
</mgrwt>
</event>
<event>
 4    2  0.3396630E-007  0.8473674E+03  0.7818608E-02  0.9616442E-01
         -1   -1    0    0    0  501 -0.00000000000E+00  0.00000000000E+00  0.29818830711E+03  0.29818830715E+03  0.50400000000E-02 0.  1.
          1   -1    0    0  501    0  0.00000000000E+00 -0.00000000000E+00 -0.23791839289E+04  0.23791839289E+04  0.50400000000E-02 0. -1.
    8880023    1    1    2    0    0  0.51207539255E+02 -0.53065913862E+03 -0.46011926541E+03  0.96423092573E+03  0.65864270000E+03 0.  0.
    8880022    1    1    2    0    0 -0.51207539255E+02  0.53065913862E+03 -0.16208763564E+04  0.17131413104E+04  0.15294330000E+03 0.  0.
<mgrwt>
<rscale>  0 0.76217448E+03</rscale>
<asrwt>0</asrwt>
<pdfrwt beam="1">  1        1 0.36602828E+00 0.84736742E+03</pdfrwt>
<pdfrwt beam="2">  1       -1 0.45875126E-01 0.84736742E+03</pdfrwt>
<totfact> 0.80456869E+00</totfact>
</mgrwt>
</event>
<event>
 4    2  0.3396630E-007  0.7410521E+03  0.7818608E-02  0.9856893E-01
          1   -1    0    0  501    0  0.00000000000E+00  0.00000000000E+00  0.24197664865E+04  0.24197664865E+04  0.50400000000E-02 0. -1.
         -1   -1    0    0    0  501 -0.00000000000E+00 -0.00000000000E+00 -0.34635803970E+03  0.34635803974E+03  0.50400000000E-02 0.  1.
    8880023    1    1    2    0    0  0.50247820033E+02  0.33589162166E+03  0.88208639472E+02  0.74628345504E+03  0.65864270000E+03 0.  1.
    8880022    1    1    2    0    0 -0.50247820033E+02 -0.33589162166E+03  0.19851998074E+04  0.20198410712E+04  0.15294330000E+03 0.  0.
<mgrwt>
<rscale>  0 0.62396704E+03</rscale>
<asrwt>0</asrwt>
<pdfrwt beam="1">  1        1 0.37227177E+00 0.74105211E+03</pdfrwt>
<pdfrwt beam="2">  1       -1 0.53285852E-01 0.74105211E+03</pdfrwt>
<totfact> 0.57864607E+00</totfact>
</mgrwt>
</event>
<event>
 4    2  0.3396630E-007  0.7113354E+03  0.7818608E-02  0.9953075E-01
          1   -1    0    0  501    0  0.00000000000E+00  0.00000000000E+00  0.16695198661E+04  0.16695198661E+04  0.50400000000E-02 0. -1.
         -1   -1    0    0    0  501 -0.00000000000E+00 -0.00000000000E+00 -0.38567843667E+03  0.38567843671E+03  0.50400000000E-02 0.  1.
    8880023    1    1    2    0    0 -0.24494788320E+03 -0.11040117539E+03 -0.23575229959E+02  0.71172598853E+03  0.65864270000E+03 0.  1.
    8880022    1    1    2    0    0  0.24494788320E+03  0.11040117539E+03  0.13074166594E+04  0.13434723143E+04  0.15294330000E+03 0.  0.
<mgrwt>
<rscale>  0 0.57756577E+03</rscale>
<asrwt>0</asrwt>
<pdfrwt beam="1">  1        1 0.25684921E+00 0.71133543E+03</pdfrwt>
<pdfrwt beam="2">  1       -1 0.59335145E-01 0.71133543E+03</pdfrwt>
<totfact> 0.15036715E+01</totfact>
</mgrwt>
</event>
<event>
 4    2  0.9784150E-007  0.9932860E+03  0.7818608E-02  0.9390395E-01
          1   -1    0    0  501    0  0.00000000000E+00  0.00000000000E+00  0.31909792547E+04  0.31909792547E+04  0.50400000000E-02 0. -1.
         -1   -1    0    0    0  501 -0.00000000000E+00 -0.00000000000E+00 -0.22965814537E+04  0.22965814537E+04  0.50400000000E-02 0.  1.
    8880023    1    1    2    0    0 -0.46671345230E+03 -0.57877923822E+03 -0.21402002618E+04  0.23594648164E+04  0.65864270000E+03 0.  1.
    8880022    1    1    2    0    0  0.46671345230E+03  0.57877923822E+03  0.30345980629E+04  0.31280958920E+04  0.15294330000E+03 0.  0.
<mgrwt>
<rscale>  0 0.92870386E+03</rscale>
<asrwt>0</asrwt>
<pdfrwt beam="1">  1        1 0.49091988E+00 0.99328599E+03</pdfrwt>
<pdfrwt beam="2">  1       -1 0.35332022E+00 0.99328599E+03</pdfrwt>
<totfact> 0.67137502E-03</totfact>
</mgrwt>
</event>
<event>
 4    2  0.3396630E-007  0.7908565E+03  0.7818608E-02  0.9730926E-01
          1   -1    0    0  501    0  0.00000000000E+00  0.00000000000E+00  0.88407651395E+03  0.88407651397E+03  0.50400000000E-02 0. -1.
         -1   -1    0    0    0  501 -0.00000000000E+00 -0.00000000000E+00 -0.61898633706E+03  0.61898633708E+03  0.50400000000E-02 0.  1.
    8880023    1    1    2    0    0 -0.21570687615E+03 -0.38093871422E+03 -0.23108608198E+03  0.82392641902E+03  0.65864270000E+03 0.  0.
    8880022    1    1    2    0    0  0.21570687615E+03  0.38093871422E+03  0.49617625888E+03  0.67913643202E+03  0.15294330000E+03 0.  0.
<mgrwt>
<rscale>  0 0.69204925E+03</rscale>
<asrwt>0</asrwt>
<pdfrwt beam="1">  1        1 0.13601177E+00 0.79085648E+03</pdfrwt>
<pdfrwt beam="2">  1       -1 0.95228668E-01 0.79085648E+03</pdfrwt>
<totfact> 0.20438755E+01</totfact>
</mgrwt>
</event>
<event>
 4    2  0.3396630E-007  0.8490531E+03  0.7818608E-02  0.9613341E-01
         -1   -1    0    0    0  501 -0.00000000000E+00  0.00000000000E+00  0.76380272473E+03  0.76380272475E+03  0.50400000000E-02 0.  1.
          1   -1    0    0  501    0  0.00000000000E+00 -0.00000000000E+00 -0.10253697538E+04  0.10253697538E+04  0.50400000000E-02 0. -1.
    8880023    1    1    2    0    0  0.31373293499E+03 -0.43434156866E+03  0.38787744047E+03  0.93345598067E+03  0.65864270000E+03 0.  1.
    8880022    1    1    2    0    0 -0.31373293499E+03  0.43434156866E+03 -0.64944446956E+03  0.85571649793E+03  0.15294330000E+03 0.  0.
<mgrwt>
<rscale>  0 0.76419475E+03</rscale>
<asrwt>0</asrwt>
<pdfrwt beam="1">  1        1 0.15774919E+00 0.84905310E+03</pdfrwt>
<pdfrwt beam="2">  1       -1 0.11750811E+00 0.84905310E+03</pdfrwt>
<totfact> 0.96062494E+00</totfact>
</mgrwt>
</event>
<event>
 4    2  0.3396630E-007  0.6747542E+03  0.7818608E-02  0.1012462E+00
          1   -1    0    0  501    0  0.00000000000E+00  0.00000000000E+00  0.54393135080E+03  0.54393135083E+03  0.50400000000E-02 0. -1.
         -1   -1    0    0    0  501 -0.00000000000E+00 -0.00000000000E+00 -0.56298560465E+03  0.56298560467E+03  0.50400000000E-02 0.  1.
    8880023    1    1    2    0    0  0.11906508190E+03 -0.85478478344E+02 -0.31363010438E+03  0.74408138844E+03  0.65864270000E+03 0.  1.
    8880022    1    1    2    0    0 -0.11906508190E+03  0.85478478344E+02  0.29457585053E+03  0.36283556705E+03  0.15294330000E+03 0.  0.
<mgrwt>
<rscale>  0 0.50507913E+03</rscale>
<asrwt>0</asrwt>
<pdfrwt beam="1">  1        1 0.83681747E-01 0.67475423E+03</pdfrwt>
<pdfrwt beam="2">  1       -1 0.86613170E-01 0.67475423E+03</pdfrwt>
<totfact> 0.53237621E+01</totfact>
</mgrwt>
</event>
<event>
 4    2  0.3396630E-007  0.7568308E+03  0.7818608E-02  0.9813382E-01
         -1   -1    0    0    0  501 -0.00000000000E+00  0.00000000000E+00  0.78440672532E+03  0.78440672534E+03  0.50400000000E-02 0.  1.
          1   -1    0    0  501    0  0.00000000000E+00 -0.00000000000E+00 -0.80895548371E+03  0.80895548372E+03  0.50400000000E-02 0. -1.
    8880023    1    1    2    0    0 -0.15220670492E+03  0.34031716843E+03  0.51830515233E+03  0.91729662234E+03  0.65864270000E+03 0.  1.
    8880022    1    1    2    0    0  0.15220670492E+03 -0.34031716843E+03 -0.54285391072E+03  0.67606558672E+03  0.15294330000E+03 0.  0.
<mgrwt>
<rscale>  0 0.64649291E+03</rscale>
<asrwt>0</asrwt>
<pdfrwt beam="1">  1        1 0.12445469E+00 0.75683080E+03</pdfrwt>
<pdfrwt beam="2">  1       -1 0.12067796E+00 0.75683080E+03</pdfrwt>
<totfact> 0.13638917E+01</totfact>
</mgrwt>
</event>
<event>
 4    2  0.3396630E-007  0.8027422E+03  0.7818608E-02  0.9704898E-01
          1   -1    0    0  501    0  0.00000000000E+00  0.00000000000E+00  0.37112488474E+03  0.37112488477E+03  0.50400000000E-02 0. -1.
         -1   -1    0    0    0  501 -0.00000000000E+00 -0.00000000000E+00 -0.16554871025E+04  0.16554871025E+04  0.50400000000E-02 0.  1.
    8880023    1    1    2    0    0  0.13238011316E+03 -0.43938632009E+03 -0.13163893131E+04  0.15418417113E+04  0.65864270000E+03 0.  0.
    8880022    1    1    2    0    0 -0.13238011316E+03  0.43938632009E+03  0.32027095383E+02  0.48477027600E+03  0.15294330000E+03 0.  0.
<mgrwt>
<rscale>  0 0.70725919E+03</rscale>
<asrwt>0</asrwt>
<pdfrwt beam="1">  1        1 0.57096137E-01 0.80274220E+03</pdfrwt>
<pdfrwt beam="2">  1       -1 0.25469032E+00 0.80274220E+03</pdfrwt>
<totfact> 0.44496950E+00</totfact>
</mgrwt>
</event>
<event>
 4    2  0.3396630E-007  0.8258321E+03  0.7818608E-02  0.9657497E-01
          1   -1    0    0  501    0  0.00000000000E+00  0.00000000000E+00  0.17819009315E+04  0.17819009315E+04  0.50400000000E-02 0. -1.
         -1   -1    0    0    0  501 -0.00000000000E+00 -0.00000000000E+00 -0.98101390399E+03  0.98101390400E+03  0.50400000000E-02 0.  1.
    8880023    1    1    2    0    0  0.40715622779E+03  0.28707531354E+03 -0.75693014463E+03  0.11202418844E+04  0.65864270000E+03 0.  1.
    8880022    1    1    2    0    0 -0.40715622779E+03 -0.28707531354E+03  0.15578171722E+04  0.16426729511E+04  0.15294330000E+03 0.  0.
<mgrwt>
<rscale>  0 0.73604786E+03</rscale>
<asrwt>0</asrwt>
<pdfrwt beam="1">  1        1 0.27413860E+00 0.82583209E+03</pdfrwt>
<pdfrwt beam="2">  1       -1 0.15092522E+00 0.82583209E+03</pdfrwt>
<totfact> 0.14922360E+00</totfact>
</mgrwt>
</event>
<event>
 4    2  0.3396630E-007  0.9919874E+03  0.7818608E-02  0.9392116E-01
         -1   -1    0    0    0  501 -0.00000000000E+00  0.00000000000E+00  0.80968633059E+03  0.80968633061E+03  0.50400000000E-02 0.  1.
          1   -1    0    0  501    0  0.00000000000E+00 -0.00000000000E+00 -0.10843588396E+04  0.10843588396E+04  0.50400000000E-02 0. -1.
    8880023    1    1    2    0    0  0.72004557929E+03 -0.17822221184E+03  0.18357012400E+03  0.10088295147E+04  0.65864270000E+03 0. -1.
    8880022    1    1    2    0    0 -0.72004557929E+03  0.17822221184E+03 -0.45824263301E+03  0.88521565552E+03  0.15294330000E+03 0.  1.
<mgrwt>
<rscale>  0 0.92727317E+03</rscale>
<asrwt>0</asrwt>
<pdfrwt beam="1">  1        1 0.16682444E+00 0.99198740E+03</pdfrwt>
<pdfrwt beam="2">  1       -1 0.12456713E+00 0.99198740E+03</pdfrwt>
<totfact> 0.73814050E+00</totfact>
</mgrwt>
</event>
<event>
 4    2  0.3396630E-007  0.8339585E+03  0.7818608E-02  0.9641679E-01
         -1   -1    0    0    0  501 -0.00000000000E+00  0.00000000000E+00  0.68760926779E+03  0.68760926781E+03  0.50400000000E-02 0.  1.
          1   -1    0    0  501    0  0.00000000000E+00 -0.00000000000E+00 -0.10923896153E+04  0.10923896153E+04  0.50400000000E-02 0. -1.
    8880023    1    1    2    0    0 -0.34923738280E+03  0.37377786798E+03  0.30835476144E+03  0.88913975802E+03  0.65864270000E+03 0.  0.
    8880022    1    1    2    0    0  0.34923738280E+03 -0.37377786798E+03 -0.71313510893E+03  0.89085912508E+03  0.15294330000E+03 0.  0.
<mgrwt>
<rscale>  0 0.74597962E+03</rscale>
<asrwt>0</asrwt>
<pdfrwt beam="1">  1        1 0.16805994E+00 0.83395854E+03</pdfrwt>
<pdfrwt beam="2">  1       -1 0.10578604E+00 0.83395854E+03</pdfrwt>
<totfact> 0.10982743E+01</totfact>
</mgrwt>
</event>
<event>
 4    2  0.3396630E-007  0.1088419E+04  0.7818608E-02  0.9274061E-01
         -1   -1    0    0    0  501 -0.00000000000E+00  0.00000000000E+00  0.85840936377E+03  0.85840936378E+03  0.50400000000E-02 0.  1.
          1   -1    0    0  501    0  0.00000000000E+00 -0.00000000000E+00 -0.16996513961E+04  0.16996513961E+04  0.50400000000E-02 0. -1.
    8880023    1    1    2    0    0  0.57724912245E+03 -0.64624175947E+03  0.28857677549E+03  0.11260247434E+04  0.65864270000E+03 0.  1.
    8880022    1    1    2    0    0 -0.57724912245E+03  0.64624175947E+03 -0.11298188078E+04  0.14320360165E+04  0.15294330000E+03 0.  0.
<mgrwt>
<rscale>  0 0.10320630E+04</rscale>
<asrwt>0</asrwt>
<pdfrwt beam="1">  1        1 0.26148483E+00 0.10884187E+04</pdfrwt>
<pdfrwt beam="2">  1       -1 0.13206298E+00 0.10884187E+04</pdfrwt>
<totfact> 0.23135529E+00</totfact>
</mgrwt>
</event>
<event>
 4    2  0.3396630E-007  0.6726967E+03  0.7818608E-02  0.1013799E+00
          1   -1    0    0  501    0  0.00000000000E+00  0.00000000000E+00  0.10082209625E+04  0.10082209625E+04  0.50400000000E-02 0. -1.
         -1   -1    0    0    0  501 -0.00000000000E+00 -0.00000000000E+00 -0.30797326470E+03  0.30797326474E+03  0.50400000000E-02 0.  1.
    8880023    1    1    2    0    0  0.10282440930E+03  0.90209454746E+02  0.97808015460E+02  0.67976997508E+03  0.65864270000E+03 0.  1.
    8880022    1    1    2    0    0 -0.10282440930E+03 -0.90209454746E+02  0.60243968230E+03  0.63642425213E+03  0.15294330000E+03 0.  0.
<mgrwt>
<rscale>  0 0.49992244E+03</rscale>
<asrwt>0</asrwt>
<pdfrwt beam="1">  1        1 0.15511092E+00 0.67269667E+03</pdfrwt>
<pdfrwt beam="2">  1       -1 0.47380502E-01 0.67269667E+03</pdfrwt>
<totfact> 0.68242000E+01</totfact>
</mgrwt>
</event>
<event>
 4    2  0.3396630E-007  0.7612016E+03  0.7818608E-02  0.9802006E-01
         -1   -1    0    0    0  501 -0.00000000000E+00  0.00000000000E+00  0.69174263209E+03  0.69174263211E+03  0.50400000000E-02 0.  1.
          1   -1    0    0  501    0  0.00000000000E+00 -0.00000000000E+00 -0.87495277239E+03  0.87495277241E+03  0.50400000000E-02 0. -1.
    8880023    1    1    2    0    0 -0.23633026085E+03 -0.29960927396E+03  0.39472392230E+03  0.85745838986E+03  0.65864270000E+03 0.  1.
    8880022    1    1    2    0    0  0.23633026085E+03  0.29960927396E+03 -0.57793406260E+03  0.70923701466E+03  0.15294330000E+03 0. -1.
<mgrwt>
<rscale>  0 0.65254975E+03</rscale>
<asrwt>0</asrwt>
<pdfrwt beam="1">  1        1 0.13460812E+00 0.76120163E+03</pdfrwt>
<pdfrwt beam="2">  1       -1 0.10642194E+00 0.76120163E+03</pdfrwt>
<totfact> 0.16182341E+01</totfact>
</mgrwt>
</event>
<event>
 4    2  0.3396630E-007  0.1187546E+04  0.7818608E-02  0.9169324E-01
          1   -1    0    0  501    0  0.00000000000E+00  0.00000000000E+00  0.20238912336E+04  0.20238912336E+04  0.50400000000E-02 0. -1.
         -1   -1    0    0    0  501 -0.00000000000E+00 -0.00000000000E+00 -0.63657317346E+03  0.63657317348E+03  0.50400000000E-02 0.  1.
    8880023    1    1    2    0    0  0.98149588900E+03 -0.11454783191E+03  0.39445693316E+03  0.12513440232E+04  0.65864270000E+03 0.  0.
    8880022    1    1    2    0    0 -0.98149588900E+03  0.11454783191E+03  0.99286112702E+03  0.14091203840E+04  0.15294330000E+03 0.  0.
<mgrwt>
<rscale>  0 0.11375737E+04</rscale>
<asrwt>0</asrwt>
<pdfrwt beam="1">  1        1 0.31136789E+00 0.11875460E+04</pdfrwt>
<pdfrwt beam="2">  1       -1 0.97934332E-01 0.11875460E+04</pdfrwt>
<totfact> 0.28349424E+00</totfact>
</mgrwt>
</event>
<event>
 4    2  0.3396630E-007  0.6867132E+03  0.7818608E-02  0.1005756E+00
         -1   -1    0    0    0  501 -0.00000000000E+00  0.00000000000E+00  0.25634061728E+03  0.25634061733E+03  0.50400000000E-02 0.  1.
          1   -1    0    0  501    0  0.00000000000E+00 -0.00000000000E+00 -0.28382852121E+04  0.28382852121E+04  0.50400000000E-02 0. -1.
    8880023    1    1    2    0    0  0.11647238521E+03  0.15556039237E+03 -0.22192174500E+03  0.72168159140E+03  0.65864270000E+03 0.  1.
    8880022    1    1    2    0    0 -0.11647238521E+03 -0.15556039237E+03 -0.23600228498E+04  0.23729442381E+04  0.15294330000E+03 0.  0.
<mgrwt>
<rscale>  0 0.53196970E+03</rscale>
<asrwt>0</asrwt>
<pdfrwt beam="1">  1        1 0.43665924E+00 0.68671323E+03</pdfrwt>
<pdfrwt beam="2">  1       -1 0.39437020E-01 0.68671323E+03</pdfrwt>
<totfact> 0.52700432E+00</totfact>
</mgrwt>
</event>
<event>
 4    2  0.3396630E-007  0.1005916E+04  0.7818608E-02  0.9373859E-01
          1   -1    0    0  501    0  0.00000000000E+00  0.00000000000E+00  0.15927890663E+04  0.15927890664E+04  0.50400000000E-02 0. -1.
         -1   -1    0    0    0  501 -0.00000000000E+00 -0.00000000000E+00 -0.85808791596E+03  0.85808791597E+03  0.50400000000E-02 0.  1.
    8880023    1    1    2    0    0  0.71636267014E+03 -0.25471633291E+03 -0.39492022551E+03  0.10806609441E+04  0.65864270000E+03 0.  0.
    8880022    1    1    2    0    0 -0.71636267014E+03  0.25471633291E+03  0.11296213759E+04  0.13702160382E+04  0.15294330000E+03 0.  0.
<mgrwt>
<rscale>  0 0.94258573E+03</rscale>
<asrwt>0</asrwt>
<pdfrwt beam="1">  1        1 0.24504447E+00 0.10059155E+04</pdfrwt>
<pdfrwt beam="2">  1       -1 0.13201353E+00 0.10059155E+04</pdfrwt>
<totfact> 0.27680099E+00</totfact>
</mgrwt>
</event>
<event>
 4    2  0.3396630E-007  0.6860616E+03  0.7818608E-02  0.1006084E+00
          1   -1    0    0  501    0  0.00000000000E+00  0.00000000000E+00  0.49973837166E+03  0.49973837168E+03  0.50400000000E-02 0. -1.
         -1   -1    0    0    0  501 -0.00000000000E+00 -0.00000000000E+00 -0.90409475579E+03  0.90409475581E+03  0.50400000000E-02 0.  1.
    8880023    1    1    2    0    0 -0.17040376465E+03 -0.88503137469E+02 -0.72622113998E+03  0.99903833699E+03  0.65864270000E+03 0.  1.
    8880022    1    1    2    0    0  0.17040376465E+03  0.88503137469E+02  0.32186475585E+03  0.40479479050E+03  0.15294330000E+03 0.  0.
<mgrwt>
<rscale>  0 0.53061273E+03</rscale>
<asrwt>0</asrwt>
<pdfrwt beam="1">  1        1 0.76882827E-01 0.68606155E+03</pdfrwt>
<pdfrwt beam="2">  1       -1 0.13909150E+00 0.68606155E+03</pdfrwt>
<totfact> 0.19546789E+01</totfact>
</mgrwt>
</event>
<event>
 4    2  0.3396630E-007  0.6905163E+03  0.7818608E-02  0.1003908E+00
          1   -1    0    0  501    0  0.00000000000E+00  0.00000000000E+00  0.17128237551E+03  0.17128237558E+03  0.50400000000E-02 0. -1.
         -1   -1    0    0    0  501 -0.00000000000E+00 -0.00000000000E+00 -0.29536685810E+04  0.29536685810E+04  0.50400000000E-02 0.  1.
    8880023    1    1    2    0    0  0.59473362279E+02  0.19865910939E+03 -0.27828907031E+04  0.28672797900E+04  0.65864270000E+03 0.  1.
    8880022    1    1    2    0    0 -0.59473362279E+02 -0.19865910939E+03  0.50449757728E+00  0.25767116660E+03  0.15294330000E+03 0.  0.
<mgrwt>
<rscale>  0 0.53969288E+03</rscale>
<asrwt>0</asrwt>
<pdfrwt beam="1">  1        1 0.26351137E-01 0.69051628E+03</pdfrwt>
<pdfrwt beam="2">  1       -1 0.45441051E+00 0.69051628E+03</pdfrwt>
<totfact> 0.59307691E-01</totfact>
</mgrwt>
</event>
<event>
 4    2  0.3396630E-007  0.6903062E+03  0.7818608E-02  0.1004007E+00
          1   -1    0    0  501    0  0.00000000000E+00  0.00000000000E+00  0.11169425734E+04  0.11169425734E+04  0.50400000000E-02 0. -1.
         -1   -1    0    0    0  501 -0.00000000000E+00 -0.00000000000E+00 -0.65812297520E+03  0.65812297522E+03  0.50400000000E-02 0.  1.
    8880023    1    1    2    0    0 -0.18368731600E+03 -0.94717505857E+02 -0.45433641339E+03  0.82640439179E+03  0.65864270000E+03 0.  1.
    8880022    1    1    2    0    0  0.18368731600E+03  0.94717505857E+02  0.91315601157E+03  0.94866115682E+03  0.15294330000E+03 0. -1.
<mgrwt>
<rscale>  0 0.53927448E+03</rscale>
<asrwt>0</asrwt>
<pdfrwt beam="1">  1        1 0.17183732E+00 0.69030619E+03</pdfrwt>
<pdfrwt beam="2">  1       -1 0.10124969E+00 0.69030619E+03</pdfrwt>
<totfact> 0.11880806E+01</totfact>
</mgrwt>
</event>
<event>
 4    2  0.3396630E-007  0.1154269E+04  0.7818608E-02  0.9202911E-01
          1   -1    0    0  501    0  0.00000000000E+00  0.00000000000E+00  0.17085388887E+04  0.17085388887E+04  0.50400000000E-02 0. -1.
         -1   -1    0    0    0  501 -0.00000000000E+00 -0.00000000000E+00 -0.80608961986E+03  0.80608961988E+03  0.50400000000E-02 0.  1.
    8880023    1    1    2    0    0  0.40075014598E+03  0.85902671773E+03 -0.59085106516E+02  0.11557806182E+04  0.65864270000E+03 0.  0.
    8880022    1    1    2    0    0 -0.40075014598E+03 -0.85902671773E+03  0.96153437537E+03  0.13588478904E+04  0.15294330000E+03 0.  0.
<mgrwt>
<rscale>  0 0.11023436E+04</rscale>
<asrwt>0</asrwt>
<pdfrwt beam="1">  1        1 0.26285213E+00 0.11542694E+04</pdfrwt>
<pdfrwt beam="2">  1       -1 0.12401379E+00 0.11542694E+04</pdfrwt>
<totfact> 0.26521939E+00</totfact>
</mgrwt>
</event>
<event>
 4    2  0.3396630E-007  0.6707478E+03  0.7818608E-02  0.1015132E+00
          1   -1    0    0  501    0  0.00000000000E+00  0.00000000000E+00  0.81522733500E+03  0.81522733502E+03  0.50400000000E-02 0. -1.
         -1   -1    0    0    0  501 -0.00000000000E+00 -0.00000000000E+00 -0.31104256734E+03  0.31104256739E+03  0.50400000000E-02 0.  1.
    8880023    1    1    2    0    0 -0.72525472628E+02  0.10407895244E+03  0.10305084962E+03  0.67861775426E+03  0.65864270000E+03 0.  1.
    8880022    1    1    2    0    0  0.72525472628E+02 -0.10407895244E+03  0.40113391804E+03  0.44765214815E+03  0.15294330000E+03 0.  0.
<mgrwt>
<rscale>  0 0.49484833E+03</rscale>
<asrwt>0</asrwt>
<pdfrwt beam="1">  1        1 0.12541959E+00 0.67074778E+03</pdfrwt>
<pdfrwt beam="2">  1       -1 0.47852702E-01 0.67074778E+03</pdfrwt>
<totfact> 0.95949988E+01</totfact>
</mgrwt>
</event>
<event>
 4    2  0.3396630E-007  0.6991646E+03  0.7818608E-02  0.1000068E+00
         -1   -1    0    0    0  501 -0.00000000000E+00  0.00000000000E+00  0.26914112804E+03  0.26914112808E+03  0.50400000000E-02 0.  1.
          1   -1    0    0  501    0  0.00000000000E+00 -0.00000000000E+00 -0.12913356850E+04  0.12913356850E+04  0.50400000000E-02 0. -1.
    8880023    1    1    2    0    0  0.16446204257E+03  0.16725166907E+03 -0.25573621009E+03  0.74446766194E+03  0.65864270000E+03 0.  0.
    8880022    1    1    2    0    0 -0.16446204257E+03 -0.16725166907E+03 -0.76645834688E+03  0.81600915116E+03  0.15294330000E+03 0.  0.
<mgrwt>
<rscale>  0 0.55620226E+03</rscale>
<asrwt>0</asrwt>
<pdfrwt beam="1">  1        1 0.19866703E+00 0.69916457E+03</pdfrwt>
<pdfrwt beam="2">  1       -1 0.41406328E-01 0.69916457E+03</pdfrwt>
<totfact> 0.54086512E+01</totfact>
</mgrwt>
</event>
<event>
 4    2  0.3396630E-007  0.9474864E+03  0.7818608E-02  0.9453740E-01
          1   -1    0    0  501    0  0.00000000000E+00  0.00000000000E+00  0.13062020328E+04  0.13062020328E+04  0.50400000000E-02 0. -1.
         -1   -1    0    0    0  501 -0.00000000000E+00 -0.00000000000E+00 -0.59506422485E+03  0.59506422487E+03  0.50400000000E-02 0.  1.
    8880023    1    1    2    0    0 -0.43460189903E+03 -0.52444386956E+03  0.64443664918E+02  0.94967540516E+03  0.65864270000E+03 0.  1.
    8880022    1    1    2    0    0  0.43460189903E+03  0.52444386956E+03  0.64669414306E+03  0.95159085254E+03  0.15294330000E+03 0.  0.
<mgrwt>
<rscale>  0 0.87782024E+03</rscale>
<asrwt>0</asrwt>
<pdfrwt beam="1">  1        1 0.20095416E+00 0.94748635E+03</pdfrwt>
<pdfrwt beam="2">  1       -1 0.91548343E-01 0.94748635E+03</pdfrwt>
<totfact> 0.10518510E+01</totfact>
</mgrwt>
</event>
<event>
 4    2  0.3396630E-007  0.6960430E+03  0.7818608E-02  0.1001403E+00
          1   -1    0    0  501    0  0.00000000000E+00  0.00000000000E+00  0.15435932251E+04  0.15435932251E+04  0.50400000000E-02 0. -1.
         -1   -1    0    0    0  501 -0.00000000000E+00 -0.00000000000E+00 -0.52681296613E+03  0.52681296615E+03  0.50400000000E-02 0.  1.
    8880023    1    1    2    0    0  0.48615129703E+02  0.21977766848E+03 -0.27639101303E+03  0.74891111138E+03  0.65864270000E+03 0.  1.
    8880022    1    1    2    0    0 -0.48615129703E+02 -0.21977766848E+03  0.12931712720E+04  0.13214950799E+04  0.15294330000E+03 0.  0.
<mgrwt>
<rscale>  0 0.55039318E+03</rscale>
<asrwt>0</asrwt>
<pdfrwt beam="1">  1        1 0.23747588E+00 0.69604300E+03</pdfrwt>
<pdfrwt beam="2">  1       -1 0.81048149E-01 0.69604300E+03</pdfrwt>
<totfact> 0.97034016E+00</totfact>
</mgrwt>
</event>
<event>
 4    2  0.4405463E-007  0.6785323E+03  0.7818608E-02  0.1010166E+00
          1   -1    0    0  501    0  0.00000000000E+00  0.00000000000E+00  0.15072749361E+04  0.15072749361E+04  0.50400000000E-02 0. -1.
         -1   -1    0    0    0  501 -0.00000000000E+00 -0.00000000000E+00 -0.13588063812E+04  0.13588063812E+04  0.50400000000E-02 0.  1.
    8880023    1    1    2    0    0  0.98980106742E+02 -0.12960999879E+03 -0.12647590241E+04  0.14352774675E+04  0.65864270000E+03 0.  1.
    8880022    1    1    2    0    0 -0.98980106742E+02  0.12960999879E+03  0.14132275791E+04  0.14308038498E+04  0.15294330000E+03 0.  0.
<mgrwt>
<rscale>  0 0.51408569E+03</rscale>
<asrwt>0</asrwt>
<pdfrwt beam="1">  1        1 0.23188845E+00 0.67853225E+03</pdfrwt>
<pdfrwt beam="2">  1       -1 0.20904714E+00 0.67853225E+03</pdfrwt>
<totfact> 0.90387908E-01</totfact>
</mgrwt>
</event>
<event>
 4    2  0.3396630E-007  0.8347439E+03  0.7818608E-02  0.9640172E-01
          1   -1    0    0  501    0  0.00000000000E+00  0.00000000000E+00  0.91388884801E+03  0.91388884802E+03  0.50400000000E-02 0. -1.
         -1   -1    0    0    0  501 -0.00000000000E+00 -0.00000000000E+00 -0.62655589612E+03  0.62655589614E+03  0.50400000000E-02 0.  1.
    8880023    1    1    2    0    0 -0.45440605780E+03 -0.23770215538E+03 -0.15149963722E+03  0.84838053159E+03  0.65864270000E+03 0.  1.
    8880022    1    1    2    0    0  0.45440605780E+03  0.23770215538E+03  0.43883258911E+03  0.69206421257E+03  0.15294330000E+03 0.  0.
<mgrwt>
<rscale>  0 0.74693456E+03</rscale>
<asrwt>0</asrwt>
<pdfrwt beam="1">  1        1 0.14059828E+00 0.83474390E+03</pdfrwt>
<pdfrwt beam="2">  1       -1 0.96393215E-01 0.83474390E+03</pdfrwt>
<totfact> 0.18713821E+01</totfact>
</mgrwt>
</event>
<event>
 4    2  0.3396630E-007  0.6809805E+03  0.7818608E-02  0.1008774E+00
          1   -1    0    0  501    0  0.00000000000E+00  0.00000000000E+00  0.74101372264E+03  0.74101372265E+03  0.50400000000E-02 0. -1.
         -1   -1    0    0    0  501 -0.00000000000E+00 -0.00000000000E+00 -0.28142470102E+03  0.28142470106E+03  0.50400000000E-02 0.  1.
    8880023    1    1    2    0    0  0.68125187845E+02 -0.15900688369E+03  0.36782508572E+03  0.77397010939E+03  0.65864270000E+03 0.  1.
    8880022    1    1    2    0    0 -0.68125187845E+02  0.15900688369E+03  0.91763935903E+02  0.24846831433E+03  0.15294330000E+03 0. -1.
<mgrwt>
<rscale>  0 0.51964659E+03</rscale>
<asrwt>0</asrwt>
<pdfrwt beam="1">  1        1 0.11400211E+00 0.68098050E+03</pdfrwt>
<pdfrwt beam="2">  1       -1 0.43296108E-01 0.68098050E+03</pdfrwt>
<totfact> 0.13413490E+02</totfact>
</mgrwt>
</event>
<event>
 4    2  0.3396630E-007  0.8434875E+03  0.7818608E-02  0.9623639E-01
          1   -1    0    0  501    0  0.00000000000E+00  0.00000000000E+00  0.16826819774E+04  0.16826819774E+04  0.50400000000E-02 0. -1.
         -1   -1    0    0    0  501 -0.00000000000E+00 -0.00000000000E+00 -0.45411395994E+03  0.45411395997E+03  0.50400000000E-02 0.  1.
    8880023    1    1    2    0    0  0.30823283617E+03  0.42737976021E+03  0.59751868579E+02  0.84560122563E+03  0.65864270000E+03 0.  0.
    8880022    1    1    2    0    0 -0.30823283617E+03 -0.42737976021E+03  0.11688161488E+04  0.12911947117E+04  0.15294330000E+03 0. -1.
<mgrwt>
<rscale>  0 0.75751159E+03</rscale>
<asrwt>0</asrwt>
<pdfrwt beam="1">  1        1 0.25887415E+00 0.84348749E+03</pdfrwt>
<pdfrwt beam="2">  1       -1 0.69863686E-01 0.84348749E+03</pdfrwt>
<totfact> 0.10419775E+01</totfact>
</mgrwt>
</event>
<event>
 4    2  0.3396630E-007  0.6915033E+03  0.7818608E-02  0.1003446E+00
          1   -1    0    0  501    0  0.00000000000E+00  0.00000000000E+00  0.15283860449E+04  0.15283860449E+04  0.50400000000E-02 0. -1.
         -1   -1    0    0    0  501 -0.00000000000E+00 -0.00000000000E+00 -0.18012562986E+03  0.18012562993E+03  0.50400000000E-02 0.  1.
    8880023    1    1    2    0    0  0.20993817627E+03  0.17106436530E+02  0.59742573348E+03  0.91383498583E+03  0.65864270000E+03 0.  1.
    8880022    1    1    2    0    0 -0.20993817627E+03 -0.17106436530E+02  0.75083468154E+03  0.79467668900E+03  0.15294330000E+03 0.  0.
<mgrwt>
<rscale>  0 0.54164663E+03</rscale>
<asrwt>0</asrwt>
<pdfrwt beam="1">  1        1 0.23513632E+00 0.69150334E+03</pdfrwt>
<pdfrwt beam="2">  1       -1 0.27711635E-01 0.69150334E+03</pdfrwt>
<totfact> 0.75568169E+01</totfact>
</mgrwt>
</event>
<event>
 4    2  0.3396630E-007  0.7816722E+03  0.7818608E-02  0.9751923E-01
         -1   -1    0    0    0  501 -0.00000000000E+00  0.00000000000E+00  0.18924373579E+03  0.18924373585E+03  0.50400000000E-02 0.  1.
          1   -1    0    0  501    0  0.00000000000E+00 -0.00000000000E+00 -0.28905522890E+04  0.28905522890E+04  0.50400000000E-02 0. -1.
    8880023    1    1    2    0    0 -0.29372352211E+03  0.30154226741E+03 -0.76997553138E+03  0.10972118171E+04  0.65864270000E+03 0.  0.
    8880022    1    1    2    0    0  0.29372352211E+03 -0.30154226741E+03 -0.19313330219E+04  0.19825842077E+04  0.15294330000E+03 0.  0.
<mgrwt>
<rscale>  0 0.68007679E+03</rscale>
<asrwt>0</asrwt>
<pdfrwt beam="1">  1        1 0.44470032E+00 0.78167222E+03</pdfrwt>
<pdfrwt beam="2">  1       -1 0.29114423E-01 0.78167222E+03</pdfrwt>
<totfact> 0.81496627E+00</totfact>
</mgrwt>
</event>
<event>
 4    2  0.3396630E-007  0.6850042E+03  0.7818608E-02  0.1006624E+00
         -1   -1    0    0    0  501 -0.00000000000E+00  0.00000000000E+00  0.15965436511E+04  0.15965436511E+04  0.50400000000E-02 0.  1.
          1   -1    0    0  501    0  0.00000000000E+00 -0.00000000000E+00 -0.15931238921E+03  0.15931238929E+03  0.50400000000E-02 0. -1.
    8880023    1    1    2    0    0  0.10325544699E+03 -0.15734956758E+03  0.13185328822E+04  0.14858532032E+04  0.65864270000E+03 0.  1.
    8880022    1    1    2    0    0 -0.10325544699E+03  0.15734956758E+03  0.11869837974E+03  0.27000283724E+03  0.15294330000E+03 0.  0.
<mgrwt>
<rscale>  0 0.52838854E+03</rscale>
<asrwt>0</asrwt>
<pdfrwt beam="1">  1        1 0.24509598E-01 0.68500422E+03</pdfrwt>
<pdfrwt beam="2">  1       -1 0.24562211E+00 0.68500422E+03</pdfrwt>
<totfact> 0.15516452E+01</totfact>
</mgrwt>
</event>
<event>
 4    2  0.4261162E-007  0.6645023E+03  0.7818608E-02  0.1019955E+00
         -1   -1    0    0    0  501 -0.00000000000E+00  0.00000000000E+00  0.72434783932E+03  0.72434783934E+03  0.50400000000E-02 0.  1.
          1   -1    0    0  501    0  0.00000000000E+00 -0.00000000000E+00 -0.12782798978E+04  0.12782798978E+04  0.50400000000E-02 0. -1.
    8880023    1    1    2    0    0  0.49307468743E+02  0.72950796487E+02  0.56355188406E+03  0.87129442640E+03  0.65864270000E+03 0.  1.
    8880022    1    1    2    0    0 -0.49307468743E+02 -0.72950796487E+02 -0.11174839426E+04  0.11313333108E+04  0.15294330000E+03 0.  0.
<mgrwt>
<rscale>  0 0.47702964E+03</rscale>
<asrwt>0</asrwt>
<pdfrwt beam="1">  1        1 0.19665845E+00 0.66450226E+03</pdfrwt>
<pdfrwt beam="2">  1       -1 0.11143813E+00 0.66450226E+03</pdfrwt>
<totfact> 0.72975830E+00</totfact>
</mgrwt>
</event>
<event>
 4    2  0.3396630E-007  0.6646716E+03  0.7818608E-02  0.1019811E+00
          1   -1    0    0  501    0  0.00000000000E+00  0.00000000000E+00  0.33936911784E+03  0.33936911788E+03  0.50400000000E-02 0. -1.
         -1   -1    0    0    0  501 -0.00000000000E+00 -0.00000000000E+00 -0.81746284838E+03  0.81746284840E+03  0.50400000000E-02 0.  1.
    8880023    1    1    2    0    0  0.40115660462E+02  0.79805086683E+02 -0.63571236950E+03  0.91973830032E+03  0.65864270000E+03 0.  1.
    8880022    1    1    2    0    0 -0.40115660462E+02 -0.79805086683E+02  0.15761863896E+03  0.23709366596E+03  0.15294330000E+03 0.  0.
<mgrwt>
<rscale>  0 0.47755045E+03</rscale>
<asrwt>0</asrwt>
<pdfrwt beam="1">  1        1 0.52210634E-01 0.66467159E+03</pdfrwt>
<pdfrwt beam="2">  1       -1 0.12576351E+00 0.66467159E+03</pdfrwt>
<totfact> 0.42305679E+01</totfact>
</mgrwt>
</event>
<event>
 4    2  0.3396630E-007  0.7572293E+03  0.7818608E-02  0.9812334E-01
          1   -1    0    0  501    0  0.00000000000E+00  0.00000000000E+00  0.55676639511E+03  0.55676639513E+03  0.50400000000E-02 0. -1.
         -1   -1    0    0    0  501 -0.00000000000E+00 -0.00000000000E+00 -0.17558009100E+04  0.17558009100E+04  0.50400000000E-02 0.  1.
    8880023    1    1    2    0    0 -0.86788877278E+02  0.36339186873E+03 -0.15833997457E+04  0.17551498285E+04  0.65864270000E+03 0.  0.
    8880022    1    1    2    0    0  0.86788877278E+02 -0.36339186873E+03  0.38436523088E+03  0.55741747658E+03  0.15294330000E+03 0.  0.
<mgrwt>
<rscale>  0 0.64704806E+03</rscale>
<asrwt>0</asrwt>
<pdfrwt beam="1">  1        1 0.85656369E-01 0.75722927E+03</pdfrwt>
<pdfrwt beam="2">  1       -1 0.27012321E+00 0.75722927E+03</pdfrwt>
<totfact> 0.20577419E+00</totfact>
</mgrwt>
</event>
<event>
 4    2  0.3396630E-007  0.7861636E+03  0.7818608E-02  0.9741553E-01
         -1   -1    0    0    0  501 -0.00000000000E+00  0.00000000000E+00  0.11448558016E+04  0.11448558017E+04  0.50400000000E-02 0.  1.
          1   -1    0    0  501    0  0.00000000000E+00 -0.00000000000E+00 -0.43538150777E+03  0.43538150780E+03  0.50400000000E-02 0. -1.
    8880023    1    1    2    0    0  0.29290264235E+03  0.31376900390E+03  0.79336833652E+03  0.11169093380E+04  0.65864270000E+03 0.  0.
    8880022    1    1    2    0    0 -0.29290264235E+03 -0.31376900390E+03 -0.83894042642E+02  0.46332797144E+03  0.15294330000E+03 0.  0.
<mgrwt>
<rscale>  0 0.68595741E+03</rscale>
<asrwt>0</asrwt>
<pdfrwt beam="1">  1        1 0.66981772E-01 0.78616357E+03</pdfrwt>
<pdfrwt beam="2">  1       -1 0.17613166E+00 0.78616357E+03</pdfrwt>
<totfact> 0.12181871E+01</totfact>
</mgrwt>
</event>
<event>
 4    2  0.3396630E-007  0.7129975E+03  0.7818608E-02  0.9947034E-01
         -1   -1    0    0    0  501 -0.00000000000E+00  0.00000000000E+00  0.19882279927E+03  0.19882279933E+03  0.50400000000E-02 0.  1.
          1   -1    0    0  501    0  0.00000000000E+00 -0.00000000000E+00 -0.16597510542E+04  0.16597510542E+04  0.50400000000E-02 0. -1.
    8880023    1    1    2    0    0  0.21904733343E+03  0.16301387269E+03 -0.56550716857E+03  0.91003506577E+03  0.65864270000E+03 0.  1.
    8880022    1    1    2    0    0 -0.21904733343E+03 -0.16301387269E+03 -0.89542108636E+03  0.94853878776E+03  0.15294330000E+03 0.  0.
<mgrwt>
<rscale>  0 0.58034982E+03</rscale>
<asrwt>0</asrwt>
<pdfrwt beam="1">  1        1 0.25534631E+00 0.71299752E+03</pdfrwt>
<pdfrwt beam="2">  1       -1 0.30588124E-01 0.71299752E+03</pdfrwt>
<totfact> 0.51750333E+01</totfact>
</mgrwt>
</event>
<event>
 4    2  0.3396630E-007  0.7497951E+03  0.7818608E-02  0.9832282E-01
         -1   -1    0    0    0  501 -0.00000000000E+00  0.00000000000E+00  0.29056391600E+03  0.29056391604E+03  0.50400000000E-02 0.  1.
          1   -1    0    0  501    0  0.00000000000E+00 -0.00000000000E+00 -0.36302987671E+04  0.36302987671E+04  0.50400000000E-02 0. -1.
    8880023    1    1    2    0    0  0.27033704155E+03  0.23516029242E+03 -0.22637525992E+03  0.78322311236E+03  0.65864270000E+03 0.  1.
    8880022    1    1    2    0    0 -0.27033704155E+03 -0.23516029242E+03 -0.31133595912E+04  0.31376395708E+04  0.15294330000E+03 0.  0.
<mgrwt>
<rscale>  0 0.63658539E+03</rscale>
<asrwt>0</asrwt>
<pdfrwt beam="1">  1        1 0.55850747E+00 0.74979510E+03</pdfrwt>
<pdfrwt beam="2">  1       -1 0.44702144E-01 0.74979510E+03</pdfrwt>
<totfact> 0.10671182E+00</totfact>
</mgrwt>
</event>
<event>
 4    2  0.3396630E-007  0.8273129E+03  0.7818608E-02  0.9654583E-01
          1   -1    0    0  501    0  0.00000000000E+00  0.00000000000E+00  0.13251575010E+04  0.13251575010E+04  0.50400000000E-02 0. -1.
         -1   -1    0    0    0  501 -0.00000000000E+00 -0.00000000000E+00 -0.83939078005E+03  0.83939078006E+03  0.50400000000E-02 0.  1.
    8880023    1    1    2    0    0 -0.45627484259E+03  0.20603322585E+03 -0.55728753437E+03  0.99750489941E+03  0.65864270000E+03 0.  1.
    8880022    1    1    2    0    0  0.45627484259E+03 -0.20603322585E+03  0.10430542553E+04  0.11670433817E+04  0.15294330000E+03 0.  0.
<mgrwt>
<rscale>  0 0.73786469E+03</rscale>
<asrwt>0</asrwt>
<pdfrwt beam="1">  1        1 0.20387039E+00 0.82731290E+03</pdfrwt>
<pdfrwt beam="2">  1       -1 0.12913704E+00 0.82731290E+03</pdfrwt>
<totfact> 0.45996546E+00</totfact>
</mgrwt>
</event>
<event>
 4    2  0.3396630E-007  0.6979125E+03  0.7818608E-02  0.1000597E+00
         -1   -1    0    0    0  501 -0.00000000000E+00  0.00000000000E+00  0.60441482431E+03  0.60441482433E+03  0.50400000000E-02 0.  1.
          1   -1    0    0  501    0  0.00000000000E+00 -0.00000000000E+00 -0.67878440812E+03  0.67878440814E+03  0.50400000000E-02 0. -1.
    8880023    1    1    2    0    0  0.23080637501E+03  0.64982534044E-02  0.34667543270E+03  0.77927250990E+03  0.65864270000E+03 0.  1.
    8880022    1    1    2    0    0 -0.23080637501E+03 -0.64982534044E-02 -0.42104501650E+03  0.50392672257E+03  0.15294330000E+03 0.  0.
<mgrwt>
<rscale>  0 0.55389074E+03</rscale>
<asrwt>0</asrwt>
<pdfrwt beam="1">  1        1 0.10442837E+00 0.69791245E+03</pdfrwt>
<pdfrwt beam="2">  1       -1 0.92986896E-01 0.69791245E+03</pdfrwt>
<totfact> 0.33025254E+01</totfact>
</mgrwt>
</event>
<event>
 4    2  0.3396630E-007  0.7591736E+03  0.7818608E-02  0.9807252E-01
          1   -1    0    0  501    0  0.00000000000E+00  0.00000000000E+00  0.63131048790E+03  0.63131048792E+03  0.50400000000E-02 0. -1.
         -1   -1    0    0    0  501 -0.00000000000E+00 -0.00000000000E+00 -0.72644465618E+03  0.72644465620E+03  0.50400000000E-02 0.  1.
    8880023    1    1    2    0    0  0.36322368128E+03  0.10297054019E+03 -0.39134168017E+03  0.85410356028E+03  0.65864270000E+03 0.  0.
    8880022    1    1    2    0    0 -0.36322368128E+03 -0.10297054019E+03  0.29620751189E+03  0.50365158384E+03  0.15294330000E+03 0.  1.
<mgrwt>
<rscale>  0 0.64974829E+03</rscale>
<asrwt>0</asrwt>
<pdfrwt beam="1">  1        1 0.97124691E-01 0.75917362E+03</pdfrwt>
<pdfrwt beam="2">  1       -1 0.11176072E+00 0.75917362E+03</pdfrwt>
<totfact> 0.23945937E+01</totfact>
</mgrwt>
</event>
<event>
 4    2  0.3396630E-007  0.7397348E+03  0.7818608E-02  0.9860720E-01
          1   -1    0    0  501    0  0.00000000000E+00  0.00000000000E+00  0.20586122212E+04  0.20586122212E+04  0.50400000000E-02 0. -1.
         -1   -1    0    0    0  501 -0.00000000000E+00 -0.00000000000E+00 -0.41416485834E+03  0.41416485837E+03  0.50400000000E-02 0.  1.
    8880023    1    1    2    0    0 -0.18450230363E+03  0.28170237960E+03 -0.47134524399E+02  0.74123491578E+03  0.65864270000E+03 0.  1.
    8880022    1    1    2    0    0  0.18450230363E+03 -0.28170237960E+03  0.16915818872E+04  0.17315421638E+04  0.15294330000E+03 0.  0.
<mgrwt>
<rscale>  0 0.62203299E+03</rscale>
<asrwt>0</asrwt>
<pdfrwt beam="1">  1        1 0.31670957E+00 0.73973477E+03</pdfrwt>
<pdfrwt beam="2">  1       -1 0.63717670E-01 0.73973477E+03</pdfrwt>
<totfact> 0.71363621E+00</totfact>
</mgrwt>
</event>
<event>
 4    2  0.3396630E-007  0.7233452E+03  0.7818608E-02  0.9911425E-01
         -1   -1    0    0    0  501 -0.00000000000E+00  0.00000000000E+00  0.11037051432E+04  0.11037051432E+04  0.50400000000E-02 0.  1.
          1   -1    0    0  501    0  0.00000000000E+00 -0.00000000000E+00 -0.29945787045E+03  0.29945787049E+03  0.50400000000E-02 0. -1.
    8880023    1    1    2    0    0 -0.21670611785E+03  0.20604975318E+03  0.78394837236E+03  0.10666786297E+04  0.65864270000E+03 0.  1.
    8880022    1    1    2    0    0  0.21670611785E+03 -0.20604975318E+03  0.20298900390E+02  0.33648438399E+03  0.15294330000E+03 0. -1.
<mgrwt>
<rscale>  0 0.59710746E+03</rscale>
<asrwt>0</asrwt>
<pdfrwt beam="1">  1        1 0.46070443E-01 0.72334518E+03</pdfrwt>
<pdfrwt beam="2">  1       -1 0.16980079E+00 0.72334518E+03</pdfrwt>
<totfact> 0.22300342E+01</totfact>
</mgrwt>
</event>
<event>
 4    2  0.3499119E-007  0.7018865E+03  0.7818608E-02  0.9989464E-01
         -1   -1    0    0    0  501 -0.00000000000E+00  0.00000000000E+00  0.96805791227E+03  0.96805791228E+03  0.50400000000E-02 0.  1.
          1   -1    0    0  501    0  0.00000000000E+00 -0.00000000000E+00 -0.11718904168E+04  0.11718904168E+04  0.50400000000E-02 0. -1.
    8880023    1    1    2    0    0  0.21283597558E+03 -0.11634108652E+03  0.81845875578E+03  0.10782019023E+04  0.65864270000E+03 0.  1.
    8880022    1    1    2    0    0 -0.21283597558E+03  0.11634108652E+03 -0.10222912603E+04  0.10617464268E+04  0.15294330000E+03 0.  0.
<mgrwt>
<rscale>  0 0.56114659E+03</rscale>
<asrwt>0</asrwt>
<pdfrwt beam="1">  1        1 0.18029083E+00 0.70188646E+03</pdfrwt>
<pdfrwt beam="2">  1       -1 0.14893199E+00 0.70188646E+03</pdfrwt>
<totfact> 0.41759443E+00</totfact>
</mgrwt>
</event>
<event>
 4    2  0.3396630E-007  0.8266029E+03  0.7818608E-02  0.9655978E-01
          1   -1    0    0  501    0  0.00000000000E+00  0.00000000000E+00  0.11970706917E+04  0.11970706917E+04  0.50400000000E-02 0. -1.
         -1   -1    0    0    0  501 -0.00000000000E+00 -0.00000000000E+00 -0.81714355158E+03  0.81714355160E+03  0.50400000000E-02 0.  1.
    8880023    1    1    2    0    0  0.27515830020E+03 -0.41683345311E+03 -0.51793250298E+03  0.97546219902E+03  0.65864270000E+03 0.  0.
    8880022    1    1    2    0    0 -0.27515830020E+03  0.41683345311E+03  0.89785964309E+03  0.10387520443E+04  0.15294330000E+03 0.  0.
<mgrwt>
<rscale>  0 0.73699404E+03</rscale>
<asrwt>0</asrwt>
<pdfrwt beam="1">  1        1 0.18416472E+00 0.82660294E+03</pdfrwt>
<pdfrwt beam="2">  1       -1 0.12571439E+00 0.82660294E+03</pdfrwt>
<totfact> 0.60757601E+00</totfact>
</mgrwt>
</event>
<event>
 4    2  0.3396630E-007  0.6687971E+03  0.7818608E-02  0.1016540E+00
         -1   -1    0    0    0  501 -0.00000000000E+00  0.00000000000E+00  0.15072315365E+03  0.15072315373E+03  0.50400000000E-02 0.  1.
          1   -1    0    0  501    0  0.00000000000E+00 -0.00000000000E+00 -0.12457507233E+04  0.12457507233E+04  0.50400000000E-02 0. -1.
    8880023    1    1    2    0    0  0.58772786157E+01  0.11595177539E+03 -0.77925535614E+03  0.10269023678E+04  0.65864270000E+03 0.  1.
    8880022    1    1    2    0    0 -0.58772786157E+01 -0.11595177539E+03 -0.31577221352E+03  0.36957150927E+03  0.15294330000E+03 0. -1.
<mgrwt>
<rscale>  0 0.48956055E+03</rscale>
<asrwt>0</asrwt>
<pdfrwt beam="1">  1        1 0.19165395E+00 0.66879710E+03</pdfrwt>
<pdfrwt beam="2">  1       -1 0.23188178E-01 0.66879710E+03</pdfrwt>
<totfact> 0.16131056E+02</totfact>
</mgrwt>
</event>
<event>
 4    2  0.3396630E-007  0.8302826E+03  0.7818608E-02  0.9648783E-01
         -1   -1    0    0    0  501 -0.00000000000E+00  0.00000000000E+00  0.13384358601E+04  0.13384358601E+04  0.50400000000E-02 0.  1.
          1   -1    0    0  501    0  0.00000000000E+00 -0.00000000000E+00 -0.92384109298E+03  0.92384109299E+03  0.50400000000E-02 0. -1.
    8880023    1    1    2    0    0 -0.19710687123E+03  0.46551899566E+03  0.11117971496E+04  0.13876102342E+04  0.65864270000E+03 0.  1.
    8880022    1    1    2    0    0  0.19710687123E+03 -0.46551899566E+03 -0.69720238246E+03  0.87466671889E+03  0.15294330000E+03 0.  0.
<mgrwt>
<rscale>  0 0.74149871E+03</rscale>
<asrwt>0</asrwt>
<pdfrwt beam="1">  1        1 0.14212940E+00 0.83028264E+03</pdfrwt>
<pdfrwt beam="2">  1       -1 0.20591321E+00 0.83028264E+03</pdfrwt>
<totfact> 0.24530627E+00</totfact>
</mgrwt>
</event>
<event>
 4    2  0.3396630E-007  0.7119959E+03  0.7818608E-02  0.9950663E-01
          1   -1    0    0  501    0  0.00000000000E+00  0.00000000000E+00  0.85750465819E+03  0.85750465820E+03  0.50400000000E-02 0. -1.
         -1   -1    0    0    0  501 -0.00000000000E+00 -0.00000000000E+00 -0.33678692073E+03  0.33678692077E+03  0.50400000000E-02 0.  1.
    8880023    1    1    2    0    0 -0.12317617097E+03 -0.24073965919E+03  0.18244250664E+03  0.73499892999E+03  0.65864270000E+03 0.  0.
    8880022    1    1    2    0    0  0.12317617097E+03  0.24073965919E+03  0.33827523082E+03  0.45929264897E+03  0.15294330000E+03 0.  0.
<mgrwt>
<rscale>  0 0.57867545E+03</rscale>
<asrwt>0</asrwt>
<pdfrwt beam="1">  1        1 0.13192380E+00 0.71199590E+03</pdfrwt>
<pdfrwt beam="2">  1       -1 0.51813372E-01 0.71199590E+03</pdfrwt>
<totfact> 0.75780221E+01</totfact>
</mgrwt>
</event>
<event>
 4    2  0.3396630E-007  0.6853480E+03  0.7818608E-02  0.1006447E+00
          1   -1    0    0  501    0  0.00000000000E+00  0.00000000000E+00  0.11239371408E+04  0.11239371408E+04  0.50400000000E-02 0. -1.
         -1   -1    0    0    0  501 -0.00000000000E+00 -0.00000000000E+00 -0.26009631470E+03  0.26009631475E+03  0.50400000000E-02 0.  1.
    8880023    1    1    2    0    0  0.54766141459E+02  0.18136250441E+03  0.26009920737E+03  0.73304399063E+03  0.65864270000E+03 0.  0.
    8880022    1    1    2    0    0 -0.54766141459E+02 -0.18136250441E+03  0.60374161868E+03  0.65098946489E+03  0.15294330000E+03 0.  0.
<mgrwt>
<rscale>  0 0.52911485E+03</rscale>
<asrwt>0</asrwt>
<pdfrwt beam="1">  1        1 0.17291341E+00 0.68534801E+03</pdfrwt>
<pdfrwt beam="2">  1       -1 0.40014817E-01 0.68534801E+03</pdfrwt>
<totfact> 0.76130001E+01</totfact>
</mgrwt>
</event>
<event>
 4    2  0.3396630E-007  0.7767952E+03  0.7818608E-02  0.9763420E-01
         -1   -1    0    0    0  501 -0.00000000000E+00  0.00000000000E+00  0.25068576325E+03  0.25068576330E+03  0.50400000000E-02 0.  1.
          1   -1    0    0  501    0  0.00000000000E+00 -0.00000000000E+00 -0.29758189986E+04  0.29758189986E+04  0.50400000000E-02 0. -1.
    8880023    1    1    2    0    0 -0.39060865634E+03 -0.13048181301E+03 -0.42632175046E+03  0.88609314810E+03  0.65864270000E+03 0.  0.
    8880022    1    1    2    0    0  0.39060865634E+03  0.13048181301E+03 -0.22988114849E+04  0.23404116138E+04  0.15294330000E+03 0.  0.
<mgrwt>
<rscale>  0 0.67363153E+03</rscale>
<asrwt>0</asrwt>
<pdfrwt beam="1">  1        1 0.45781828E+00 0.77679523E+03</pdfrwt>
<pdfrwt beam="2">  1       -1 0.38567043E-01 0.77679523E+03</pdfrwt>
<totfact> 0.43093229E+00</totfact>
</mgrwt>
</event>
<event>
 4    2  0.3396630E-007  0.7590938E+03  0.7818608E-02  0.9807459E-01
          1   -1    0    0  501    0  0.00000000000E+00  0.00000000000E+00  0.15471929401E+04  0.15471929401E+04  0.50400000000E-02 0. -1.
         -1   -1    0    0    0  501 -0.00000000000E+00 -0.00000000000E+00 -0.24975393331E+03  0.24975393336E+03  0.50400000000E-02 0.  1.
    8880023    1    1    2    0    0  0.55494706849E+02  0.37327401306E+03  0.52248569464E+03  0.92152843617E+03  0.65864270000E+03 0.  0.
    8880022    1    1    2    0    0 -0.55494706849E+02 -0.37327401306E+03  0.77495331214E+03  0.87541843728E+03  0.15294330000E+03 0.  0.
<mgrwt>
<rscale>  0 0.64963769E+03</rscale>
<asrwt>0</asrwt>
<pdfrwt beam="1">  1        1 0.23802968E+00 0.75909377E+03</pdfrwt>
<pdfrwt beam="2">  1       -1 0.38423682E-01 0.75909377E+03</pdfrwt>
<totfact> 0.40925457E+01</totfact>
</mgrwt>
</event>
<event>
 4    2  0.3396630E-007  0.9828070E+03  0.7818608E-02  0.9404405E-01
          1   -1    0    0  501    0  0.00000000000E+00  0.00000000000E+00  0.16655134411E+04  0.16655134411E+04  0.50400000000E-02 0. -1.
         -1   -1    0    0    0  501 -0.00000000000E+00 -0.00000000000E+00 -0.57490717477E+03  0.57490717479E+03  0.50400000000E-02 0.  1.
    8880023    1    1    2    0    0 -0.63446556093E+03  0.35993446713E+03  0.81869053810E+02  0.98621099004E+03  0.65864270000E+03 0.  0.
    8880022    1    1    2    0    0  0.63446556093E+03 -0.35993446713E+03  0.10087372125E+04  0.12542096258E+04  0.15294330000E+03 0.  0.
<mgrwt>
<rscale>  0 0.91714036E+03</rscale>
<asrwt>0</asrwt>
<pdfrwt beam="1">  1        1 0.25623284E+00 0.98280699E+03</pdfrwt>
<pdfrwt beam="2">  1       -1 0.88447258E-01 0.98280699E+03</pdfrwt>
<totfact> 0.63755247E+00</totfact>
</mgrwt>
</event>
<event>
 4    2  0.3396630E-007  0.1244645E+04  0.7818608E-02  0.9114901E-01
          1   -1    0    0  501    0  0.00000000000E+00  0.00000000000E+00  0.26033623915E+04  0.26033623916E+04  0.50400000000E-02 0. -1.
         -1   -1    0    0    0  501 -0.00000000000E+00 -0.00000000000E+00 -0.72758996265E+03  0.72758996267E+03  0.50400000000E-02 0.  1.
    8880023    1    1    2    0    0 -0.10516572092E+04  0.96683467648E+02  0.18908626577E+04  0.22637363749E+04  0.65864270000E+03 0.  0.
    8880022    1    1    2    0    0  0.10516572092E+04 -0.96683467648E+02 -0.15090228821E+02  0.10672159793E+04  0.15294330000E+03 0.  0.
<mgrwt>
<rscale>  0 0.11976676E+04</rscale>
<asrwt>0</asrwt>
<pdfrwt beam="1">  1        1 0.40051729E+00 0.12446448E+04</pdfrwt>
<pdfrwt beam="2">  1       -1 0.11193692E+00 0.12446448E+04</pdfrwt>
<totfact> 0.82715889E-01</totfact>
</mgrwt>
</event>
<event>
 4    2  0.3396630E-007  0.8135385E+03  0.7818608E-02  0.9682253E-01
         -1   -1    0    0    0  501 -0.00000000000E+00  0.00000000000E+00  0.57651091758E+03  0.57651091760E+03  0.50400000000E-02 0.  1.
          1   -1    0    0  501    0  0.00000000000E+00 -0.00000000000E+00 -0.20783863329E+04  0.20783863329E+04  0.50400000000E-02 0. -1.
    8880023    1    1    2    0    0  0.30521445676E+03  0.36725853258E+03  0.23523533732E+03  0.84686513953E+03  0.65864270000E+03 0.  1.
    8880022    1    1    2    0    0 -0.30521445676E+03 -0.36725853258E+03 -0.17371107526E+04  0.18080321110E+04  0.15294330000E+03 0.  0.
<mgrwt>
<rscale>  0 0.72083345E+03</rscale>
<asrwt>0</asrwt>
<pdfrwt beam="1">  1        1 0.31975174E+00 0.81353851E+03</pdfrwt>
<pdfrwt beam="2">  1       -1 0.88693988E-01 0.81353851E+03</pdfrwt>
<totfact> 0.34247599E+00</totfact>
</mgrwt>
</event>
<event>
 4    2  0.3396630E-007  0.7145643E+03  0.7818608E-02  0.9941427E-01
          1   -1    0    0  501    0  0.00000000000E+00  0.00000000000E+00  0.16746440426E+04  0.16746440426E+04  0.50400000000E-02 0. -1.
         -1   -1    0    0    0  501 -0.00000000000E+00 -0.00000000000E+00 -0.27021992518E+03  0.27021992523E+03  0.50400000000E-02 0.  1.
    8880023    1    1    2    0    0 -0.25280592531E+03  0.11349481548E+03  0.26471717363E+03  0.76202184830E+03  0.65864270000E+03 0.  1.
    8880022    1    1    2    0    0  0.25280592531E+03 -0.11349481548E+03  0.11397069438E+04  0.11828421195E+04  0.15294330000E+03 0.  0.
<mgrwt>
<rscale>  0 0.58294897E+03</rscale>
<asrwt>0</asrwt>
<pdfrwt beam="1">  1        1 0.25763754E+00 0.71456428E+03</pdfrwt>
<pdfrwt beam="2">  1       -1 0.41572297E-01 0.71456428E+03</pdfrwt>
<totfact> 0.29231959E+01</totfact>
</mgrwt>
</event>
<event>
 4    2  0.3396630E-007  0.6996455E+03  0.7818608E-02  0.9998675E-01
         -1   -1    0    0    0  501 -0.00000000000E+00  0.00000000000E+00  0.95735877666E+03  0.95735877668E+03  0.50400000000E-02 0.  1.
          1   -1    0    0  501    0  0.00000000000E+00 -0.00000000000E+00 -0.44258084403E+03  0.44258084406E+03  0.50400000000E-02 0. -1.
    8880023    1    1    2    0    0  0.94737815942E+02 -0.21614415946E+03  0.75554329679E+03  0.10297326988E+04  0.65864270000E+03 0.  1.
    8880022    1    1    2    0    0 -0.94737815942E+02  0.21614415946E+03 -0.24076536416E+03  0.37020692191E+03  0.15294330000E+03 0.  0.
<mgrwt>
<rscale>  0 0.55708366E+03</rscale>
<asrwt>0</asrwt>
<pdfrwt beam="1">  1        1 0.68089362E-01 0.69964545E+03</pdfrwt>
<pdfrwt beam="2">  1       -1 0.14728596E+00 0.69964545E+03</pdfrwt>
<totfact> 0.19799673E+01</totfact>
</mgrwt>
</event>
<event>
 4    2  0.3396630E-007  0.6962991E+03  0.7818608E-02  0.1001291E+00
          1   -1    0    0  501    0  0.00000000000E+00  0.00000000000E+00  0.44981964455E+03  0.44981964458E+03  0.50400000000E-02 0. -1.
         -1   -1    0    0    0  501 -0.00000000000E+00 -0.00000000000E+00 -0.64619012847E+03  0.64619012849E+03  0.50400000000E-02 0.  1.
    8880023    1    1    2    0    0 -0.13190041408E+03 -0.18336977854E+03 -0.35382460330E+03  0.78104049260E+03  0.65864270000E+03 0.  1.
    8880022    1    1    2    0    0  0.13190041408E+03  0.18336977854E+03  0.15745411938E+03  0.31496928047E+03  0.15294330000E+03 0.  0.
<mgrwt>
<rscale>  0 0.55087566E+03</rscale>
<asrwt>0</asrwt>
<pdfrwt beam="1">  1        1 0.69203022E-01 0.69629907E+03</pdfrwt>
<pdfrwt beam="2">  1       -1 0.99413866E-01 0.69629907E+03</pdfrwt>
<totfact> 0.50763844E+01</totfact>
</mgrwt>
</event>
<event>
 4    2  0.3396630E-007  0.7010330E+03  0.7818608E-02  0.9992943E-01
         -1   -1    0    0    0  501 -0.00000000000E+00  0.00000000000E+00  0.84155796201E+03  0.84155796202E+03  0.50400000000E-02 0.  1.
          1   -1    0    0  501    0  0.00000000000E+00 -0.00000000000E+00 -0.15187095643E+04  0.15187095643E+04  0.50400000000E-02 0. -1.
    8880023    1    1    2    0    0 -0.20759916458E+03 -0.12058026030E+03  0.67816878445E+03  0.97537691114E+03  0.65864270000E+03 0.  1.
    8880022    1    1    2    0    0  0.20759916458E+03  0.12058026030E+03 -0.13553203867E+04  0.13848906152E+04  0.15294330000E+03 0.  0.
<mgrwt>
<rscale>  0 0.55960768E+03</rscale>
<asrwt>0</asrwt>
<pdfrwt beam="1">  1        1 0.23364763E+00 0.70103297E+03</pdfrwt>
<pdfrwt beam="2">  1       -1 0.12947045E+00 0.70103297E+03</pdfrwt>
<totfact> 0.34277626E+00</totfact>
</mgrwt>
</event>
<event>
 4    2  0.3396630E-007  0.6937531E+03  0.7818608E-02  0.1002417E+00
         -1   -1    0    0    0  501 -0.00000000000E+00  0.00000000000E+00  0.31432774163E+03  0.31432774167E+03  0.50400000000E-02 0.  1.
          1   -1    0    0  501    0  0.00000000000E+00 -0.00000000000E+00 -0.14338873779E+04  0.14338873780E+04  0.50400000000E-02 0. -1.
    8880023    1    1    2    0    0  0.19472293024E+03 -0.97806836335E+02 -0.10787674078E+03  0.70209030349E+03  0.65864270000E+03 0.  1.
    8880022    1    1    2    0    0 -0.19472293024E+03  0.97806836335E+02 -0.10116828955E+04  0.10461248161E+04  0.15294330000E+03 0.  0.
<mgrwt>
<rscale>  0 0.54602840E+03</rscale>
<asrwt>0</asrwt>
<pdfrwt beam="1">  1        1 0.22059805E+00 0.69375313E+03</pdfrwt>
<pdfrwt beam="2">  1       -1 0.48358115E-01 0.69375313E+03</pdfrwt>
<totfact> 0.32288427E+01</totfact>
</mgrwt>
</event>
<event>
 4    2  0.3396630E-007  0.7037471E+03  0.7818608E-02  0.9981998E-01
          1   -1    0    0  501    0  0.00000000000E+00  0.00000000000E+00  0.20697378806E+04  0.20697378806E+04  0.50400000000E-02 0. -1.
         -1   -1    0    0    0  501 -0.00000000000E+00 -0.00000000000E+00 -0.22457924587E+03  0.22457924593E+03  0.50400000000E-02 0.  1.
    8880023    1    1    2    0    0  0.20790026605E+03  0.13500858819E+03  0.37862048553E+03  0.79913297882E+03  0.65864270000E+03 0.  1.
    8880022    1    1    2    0    0 -0.20790026605E+03 -0.13500858819E+03  0.14665381492E+04  0.14951841478E+04  0.15294330000E+03 0.  0.
<mgrwt>
<rscale>  0 0.56446695E+03</rscale>
<asrwt>0</asrwt>
<pdfrwt beam="1">  1        1 0.31842122E+00 0.70374715E+03</pdfrwt>
<pdfrwt beam="2">  1       -1 0.34550653E-01 0.70374715E+03</pdfrwt>
<totfact> 0.22235747E+01</totfact>
</mgrwt>
</event>
<event>
 4    2  0.3396630E-007  0.6643365E+03  0.7818608E-02  0.1020097E+00
         -1   -1    0    0    0  501 -0.00000000000E+00  0.00000000000E+00  0.82899287067E+03  0.82899287069E+03  0.50400000000E-02 0.  1.
          1   -1    0    0  501    0  0.00000000000E+00 -0.00000000000E+00 -0.27062963931E+03  0.27062963935E+03  0.50400000000E-02 0. -1.
    8880023    1    1    2    0    0  0.65256397636E+02  0.57222232710E+02  0.62446458980E+03  0.91175600438E+03  0.65864270000E+03 0.  1.
    8880022    1    1    2    0    0 -0.65256397636E+02 -0.57222232710E+02 -0.66101358431E+02  0.18786650566E+03  0.15294330000E+03 0.  0.
<mgrwt>
<rscale>  0 0.47651745E+03</rscale>
<asrwt>0</asrwt>
<pdfrwt beam="1">  1        1 0.41635329E-01 0.66433650E+03</pdfrwt>
<pdfrwt beam="2">  1       -1 0.12753736E+00 0.66433650E+03</pdfrwt>
<totfact> 0.54777605E+01</totfact>
</mgrwt>
</event>
<event>
 4    2  0.3396630E-007  0.7950307E+03  0.7818608E-02  0.9721645E-01
         -1   -1    0    0    0  501 -0.00000000000E+00  0.00000000000E+00  0.50798043137E+03  0.50798043139E+03  0.50400000000E-02 0.  1.
          1   -1    0    0  501    0  0.00000000000E+00 -0.00000000000E+00 -0.84485237781E+03  0.84485237783E+03  0.50400000000E-02 0. -1.
    8880023    1    1    2    0    0 -0.36528580839E+03 -0.25461723148E+03 -0.39565403505E+02  0.79601462537E+03  0.65864270000E+03 0. -1.
    8880022    1    1    2    0    0  0.36528580839E+03  0.25461723148E+03 -0.29730654294E+03  0.55681818385E+03  0.15294330000E+03 0.  0.
<mgrwt>
<rscale>  0 0.69742531E+03</rscale>
<asrwt>0</asrwt>
<pdfrwt beam="1">  1        1 0.12997729E+00 0.79503073E+03</pdfrwt>
<pdfrwt beam="2">  1       -1 0.78150836E-01 0.79503073E+03</pdfrwt>
<totfact> 0.33847749E+01</totfact>
</mgrwt>
</event>
<event>
 4    2  0.3396630E-007  0.8469937E+03  0.7818608E-02  0.9617131E-01
         -1   -1    0    0    0  501 -0.00000000000E+00  0.00000000000E+00  0.18897504960E+04  0.18897504960E+04  0.50400000000E-02 0.  1.
          1   -1    0    0  501    0  0.00000000000E+00 -0.00000000000E+00 -0.27144914165E+03  0.27144914169E+03  0.50400000000E-02 0. -1.
    8880023    1    1    2    0    0 -0.53250996951E+03 -0.46133402583E+01  0.11912188738E+04  0.14616431720E+04  0.65864270000E+03 0.  0.
    8880022    1    1    2    0    0  0.53250996951E+03  0.46133402583E+01  0.42708248047E+03  0.69955646568E+03  0.15294330000E+03 0.  0.
<mgrwt>
<rscale>  0 0.76172615E+03</rscale>
<asrwt>0</asrwt>
<pdfrwt beam="1">  1        1 0.41761406E-01 0.84699372E+03</pdfrwt>
<pdfrwt beam="2">  1       -1 0.29073085E+00 0.84699372E+03</pdfrwt>
<totfact> 0.39085649E+00</totfact>
</mgrwt>
</event>
<event>
 4    2  0.3396630E-007  0.1021491E+04  0.7818608E-02  0.9353966E-01
         -1   -1    0    0    0  501 -0.00000000000E+00  0.00000000000E+00  0.51013387226E+03  0.51013387228E+03  0.50400000000E-02 0.  1.
          1   -1    0    0  501    0  0.00000000000E+00 -0.00000000000E+00 -0.21329380900E+04  0.21329380900E+04  0.50400000000E-02 0. -1.
    8880023    1    1    2    0    0 -0.41291249394E+03 -0.66267415524E+03 -0.24250388638E+03  0.10498819481E+04  0.65864270000E+03 0.  1.
    8880022    1    1    2    0    0  0.41291249394E+03  0.66267415524E+03 -0.13803003314E+04  0.15931900142E+04  0.15294330000E+03 0.  0.
<mgrwt>
<rscale>  0 0.95962945E+03</rscale>
<asrwt>0</asrwt>
<pdfrwt beam="1">  1        1 0.32814432E+00 0.10214911E+04</pdfrwt>
<pdfrwt beam="2">  1       -1 0.78482135E-01 0.10214911E+04</pdfrwt>
<totfact> 0.39729087E+00</totfact>
</mgrwt>
</event>
<event>
 4    2  0.3396630E-007  0.7583261E+03  0.7818608E-02  0.9809461E-01
         -1   -1    0    0    0  501 -0.00000000000E+00  0.00000000000E+00  0.39622675641E+03  0.39622675645E+03  0.50400000000E-02 0.  1.
          1   -1    0    0  501    0  0.00000000000E+00 -0.00000000000E+00 -0.11297974084E+04  0.11297974084E+04  0.50400000000E-02 0. -1.
    8880023    1    1    2    0    0  0.58028591389E+02 -0.37132317245E+03 -0.87846326426E+02  0.76339727478E+03  0.65864270000E+03 0.  1.
    8880022    1    1    2    0    0 -0.58028591389E+02  0.37132317245E+03 -0.64572432552E+03  0.76262689003E+03  0.15294330000E+03 0.  0.
<mgrwt>
<rscale>  0 0.64857300E+03</rscale>
<asrwt>0</asrwt>
<pdfrwt beam="1">  1        1 0.17381498E+00 0.75832607E+03</pdfrwt>
<pdfrwt beam="2">  1       -1 0.60957963E-01 0.75832607E+03</pdfrwt>
<totfact> 0.33740204E+01</totfact>
</mgrwt>
</event>
<event>
 4    2  0.3396630E-007  0.7697616E+03  0.7818608E-02  0.9780461E-01
          1   -1    0    0  501    0  0.00000000000E+00  0.00000000000E+00  0.22124142253E+04  0.22124142253E+04  0.50400000000E-02 0. -1.
         -1   -1    0    0    0  501 -0.00000000000E+00 -0.00000000000E+00 -0.34579819765E+03  0.34579819769E+03  0.50400000000E-02 0.  1.
    8880023    1    1    2    0    0 -0.38942803226E+03  0.84074216063E+02  0.14348065263E+03  0.78301952087E+03  0.65864270000E+03 0.  1.
    8880022    1    1    2    0    0  0.38942803226E+03 -0.84074216063E+02  0.17231353750E+04  0.17751929021E+04  0.15294330000E+03 0.  0.
<mgrwt>
<rscale>  0 0.66421730E+03</rscale>
<asrwt>0</asrwt>
<pdfrwt beam="1">  1        1 0.34037141E+00 0.76976157E+03</pdfrwt>
<pdfrwt beam="2">  1       -1 0.53199724E-01 0.76976157E+03</pdfrwt>
<totfact> 0.79735143E+00</totfact>
</mgrwt>
</event>
<event>
 4    2  0.3396630E-007  0.6745203E+03  0.7818608E-02  0.1012610E+00
          1   -1    0    0  501    0  0.00000000000E+00  0.00000000000E+00  0.33204155910E+03  0.33204155913E+03  0.50400000000E-02 0. -1.
         -1   -1    0    0    0  501 -0.00000000000E+00 -0.00000000000E+00 -0.11986404714E+04  0.11986404714E+04  0.50400000000E-02 0.  1.
    8880023    1    1    2    0    0 -0.13250395194E+03 -0.60084205212E+02 -0.10520398999E+04  0.12497061920E+04  0.65864270000E+03 0.  1.
    8880022    1    1    2    0    0  0.13250395194E+03  0.60084205212E+02  0.18544098757E+03  0.28097583861E+03  0.15294330000E+03 0.  0.
<mgrwt>
<rscale>  0 0.50450243E+03</rscale>
<asrwt>0</asrwt>
<pdfrwt beam="1">  1        1 0.51083317E-01 0.67452029E+03</pdfrwt>
<pdfrwt beam="2">  1       -1 0.18440622E+00 0.67452029E+03</pdfrwt>
<totfact> 0.15405066E+01</totfact>
</mgrwt>
</event>
<event>
 4    2  0.3396630E-007  0.8778138E+03  0.7818608E-02  0.9562629E-01
          1   -1    0    0  501    0  0.00000000000E+00  0.00000000000E+00  0.15026828932E+04  0.15026828932E+04  0.50400000000E-02 0. -1.
         -1   -1    0    0    0  501 -0.00000000000E+00 -0.00000000000E+00 -0.51225867305E+03  0.51225867307E+03  0.50400000000E-02 0.  1.
    8880023    1    1    2    0    0 -0.41955697344E+03 -0.40089760331E+03  0.24963781109E+02  0.87816874172E+03  0.65864270000E+03 0.  1.
    8880022    1    1    2    0    0  0.41955697344E+03  0.40089760331E+03  0.96546043906E+03  0.11367728246E+04  0.15294330000E+03 0.  0.
<mgrwt>
<rscale>  0 0.79819780E+03</rscale>
<asrwt>0</asrwt>
<pdfrwt beam="1">  1        1 0.23118198E+00 0.87781385E+03</pdfrwt>
<pdfrwt beam="2">  1       -1 0.78809027E-01 0.87781385E+03</pdfrwt>
<totfact> 0.10702523E+01</totfact>
</mgrwt>
</event>
<event>
 4    2  0.3396630E-007  0.8908077E+03  0.7818608E-02  0.9540952E-01
          1   -1    0    0  501    0  0.00000000000E+00  0.00000000000E+00  0.30391675598E+04  0.30391675598E+04  0.50400000000E-02 0. -1.
         -1   -1    0    0    0  501 -0.00000000000E+00 -0.00000000000E+00 -0.19505429980E+03  0.19505429986E+03  0.50400000000E-02 0.  1.
    8880023    1    1    2    0    0  0.58052384073E+03 -0.15073246643E+03  0.19813628858E+04  0.21724035761E+04  0.65864270000E+03 0. -1.
    8880022    1    1    2    0    0 -0.58052384073E+03  0.15073246643E+03  0.86275037429E+03  0.10618182836E+04  0.15294330000E+03 0.  1.
<mgrwt>
<rscale>  0 0.81330757E+03</rscale>
<asrwt>0</asrwt>
<pdfrwt beam="1">  1        1 0.46756418E+00 0.89080773E+03</pdfrwt>
<pdfrwt beam="2">  1       -1 0.30008357E-01 0.89080773E+03</pdfrwt>
<totfact> 0.59483595E+00</totfact>
</mgrwt>
</event>
<event>
 4    2  0.3396630E-007  0.6887252E+03  0.7818608E-02  0.1004764E+00
          1   -1    0    0  501    0  0.00000000000E+00  0.00000000000E+00  0.31980462498E+03  0.31980462502E+03  0.50400000000E-02 0. -1.
         -1   -1    0    0    0  501 -0.00000000000E+00 -0.00000000000E+00 -0.69956694283E+03  0.69956694285E+03  0.50400000000E-02 0.  1.
    8880023    1    1    2    0    0 -0.14846255668E+02  0.20077792069E+03 -0.23321767067E+03  0.72714020170E+03  0.65864270000E+03 0.  0.
    8880022    1    1    2    0    0  0.14846255668E+02 -0.20077792069E+03 -0.14654464718E+03  0.29223136618E+03  0.15294330000E+03 0. -1.
<mgrwt>
<rscale>  0 0.53609571E+03</rscale>
<asrwt>0</asrwt>
<pdfrwt beam="1">  1        1 0.49200711E-01 0.68872519E+03</pdfrwt>
<pdfrwt beam="2">  1       -1 0.10762568E+00 0.68872519E+03</pdfrwt>
<totfact> 0.66314637E+01</totfact>
</mgrwt>
</event>
<event>
 4    2  0.3396630E-007  0.6790247E+03  0.7818608E-02  0.1009881E+00
         -1   -1    0    0    0  501 -0.00000000000E+00  0.00000000000E+00  0.53109511839E+03  0.53109511841E+03  0.50400000000E-02 0.  1.
          1   -1    0    0  501    0  0.00000000000E+00 -0.00000000000E+00 -0.48694195312E+03  0.48694195314E+03  0.50400000000E-02 0. -1.
    8880023    1    1    2    0    0 -0.16504143330E+03 -0.50606250431E+01  0.23949217695E+03  0.72002152309E+03  0.65864270000E+03 0.  1.
    8880022    1    1    2    0    0  0.16504143330E+03  0.50606250431E+01 -0.19533901168E+03  0.29801554847E+03  0.15294330000E+03 0.  1.
<mgrwt>
<rscale>  0 0.51522029E+03</rscale>
<asrwt>0</asrwt>
<pdfrwt beam="1">  1        1 0.74914146E-01 0.67902466E+03</pdfrwt>
<pdfrwt beam="2">  1       -1 0.81706942E-01 0.67902466E+03</pdfrwt>
<totfact> 0.70280441E+01</totfact>
</mgrwt>
</event>
<event>
 4    2  0.3396630E-007  0.7576690E+03  0.7818608E-02  0.9811180E-01
          1   -1    0    0  501    0  0.00000000000E+00  0.00000000000E+00  0.48139600269E+03  0.48139600272E+03  0.50400000000E-02 0. -1.
         -1   -1    0    0    0  501 -0.00000000000E+00 -0.00000000000E+00 -0.72833776246E+03  0.72833776248E+03  0.50400000000E-02 0.  1.
    8880023    1    1    2    0    0  0.35638578733E+03 -0.11507087525E+03 -0.48677030453E+02  0.75923105528E+03  0.65864270000E+03 0.  0.
    8880022    1    1    2    0    0 -0.35638578733E+03  0.11507087525E+03 -0.19826472931E+03  0.45050270992E+03  0.15294330000E+03 0.  0.
<mgrwt>
<rscale>  0 0.64766002E+03</rscale>
<asrwt>0</asrwt>
<pdfrwt beam="1">  1        1 0.74060923E-01 0.75766902E+03</pdfrwt>
<pdfrwt beam="2">  1       -1 0.11205196E+00 0.75766902E+03</pdfrwt>
<totfact> 0.34871366E+01</totfact>
</mgrwt>
</event>
<event>
 4    2  0.3396630E-007  0.9853247E+03  0.7818608E-02  0.9401014E-01
         -1   -1    0    0    0  501 -0.00000000000E+00  0.00000000000E+00  0.42693273042E+03  0.42693273045E+03  0.50400000000E-02 0.  1.
          1   -1    0    0  501    0  0.00000000000E+00 -0.00000000000E+00 -0.18605540696E+04  0.18605540696E+04  0.50400000000E-02 0. -1.
    8880023    1    1    2    0    0 -0.48009474855E+03 -0.55368186178E+03 -0.54662480368E+03  0.11267934389E+04  0.65864270000E+03 0.  0.
    8880022    1    1    2    0    0  0.48009474855E+03  0.55368186178E+03 -0.88699653546E+03  0.11606933611E+04  0.15294330000E+03 0.  0.
<mgrwt>
<rscale>  0 0.91992257E+03</rscale>
<asrwt>0</asrwt>
<pdfrwt beam="1">  1        1 0.28623908E+00 0.98532471E+03</pdfrwt>
<pdfrwt beam="2">  1       -1 0.65681960E-01 0.98532471E+03</pdfrwt>
<totfact> 0.88059174E+00</totfact>
</mgrwt>
</event>
<event>
 4    2  0.3396630E-007  0.7702248E+03  0.7818608E-02  0.9779321E-01
         -1   -1    0    0    0  501 -0.00000000000E+00  0.00000000000E+00  0.53181116972E+03  0.53181116974E+03  0.50400000000E-02 0.  1.
          1   -1    0    0  501    0  0.00000000000E+00 -0.00000000000E+00 -0.16368582445E+04  0.16368582445E+04  0.50400000000E-02 0. -1.
    8880023    1    1    2    0    0 -0.13136091509E+03 -0.37706816639E+03  0.19966156497E+03  0.79568275016E+03  0.65864270000E+03 0.  0.
    8880022    1    1    2    0    0  0.13136091509E+03  0.37706816639E+03 -0.13047086398E+04  0.13729866641E+04  0.15294330000E+03 0.  0.
<mgrwt>
<rscale>  0 0.66484193E+03</rscale>
<asrwt>0</asrwt>
<pdfrwt beam="1">  1        1 0.25182434E+00 0.77022484E+03</pdfrwt>
<pdfrwt beam="2">  1       -1 0.81817104E-01 0.77022484E+03</pdfrwt>
<totfact> 0.81257878E+00</totfact>
</mgrwt>
</event>
<event>
 4    2  0.3396630E-007  0.9992588E+03  0.7818608E-02  0.9382528E-01
         -1   -1    0    0    0  501 -0.00000000000E+00  0.00000000000E+00  0.60540863334E+03  0.60540863336E+03  0.50400000000E-02 0.  1.
          1   -1    0    0  501    0  0.00000000000E+00 -0.00000000000E+00 -0.14612829254E+04  0.14612829254E+04  0.50400000000E-02 0. -1.
    8880023    1    1    2    0    0  0.58057993104E+03  0.47711097949E+03 -0.12452461069E+03  0.10069878490E+04  0.65864270000E+03 0.  1.
    8880022    1    1    2    0    0 -0.58057993104E+03 -0.47711097949E+03 -0.73134968136E+03  0.10597037098E+04  0.15294330000E+03 0.  0.
<mgrwt>
<rscale>  0 0.93527612E+03</rscale>
<asrwt>0</asrwt>
<pdfrwt beam="1">  1        1 0.22481276E+00 0.99925880E+03</pdfrwt>
<pdfrwt beam="2">  1       -1 0.93139790E-01 0.99925880E+03</pdfrwt>
<totfact> 0.78330480E+00</totfact>
</mgrwt>
</event>
<event>
 4    2  0.3396630E-007  0.8978438E+03  0.7818608E-02  0.9529502E-01
         -1   -1    0    0    0  501 -0.00000000000E+00  0.00000000000E+00  0.11510828043E+04  0.11510828043E+04  0.50400000000E-02 0.  1.
          1   -1    0    0  501    0  0.00000000000E+00 -0.00000000000E+00 -0.89770888497E+03  0.89770888499E+03  0.50400000000E-02 0. -1.
    8880023    1    1    2    0    0 -0.41020142741E+03  0.45171682567E+03  0.80970317577E+03  0.12090255335E+04  0.65864270000E+03 0.  1.
    8880022    1    1    2    0    0  0.41020142741E+03 -0.45171682567E+03 -0.55632925649E+03  0.83976615571E+03  0.15294330000E+03 0.  0.
<mgrwt>
<rscale>  0 0.82143278E+03</rscale>
<asrwt>0</asrwt>
<pdfrwt beam="1">  1        1 0.13810906E+00 0.89784381E+03</pdfrwt>
<pdfrwt beam="2">  1       -1 0.17708966E+00 0.89784381E+03</pdfrwt>
<totfact> 0.40546660E+00</totfact>
</mgrwt>
</event>
<event>
 4    2  0.3396630E-007  0.6945529E+03  0.7818608E-02  0.1002060E+00
          1   -1    0    0  501    0  0.00000000000E+00  0.00000000000E+00  0.54332494185E+03  0.54332494187E+03  0.50400000000E-02 0. -1.
         -1   -1    0    0    0  501 -0.00000000000E+00 -0.00000000000E+00 -0.72337046125E+03  0.72337046127E+03  0.50400000000E-02 0.  1.
    8880023    1    1    2    0    0  0.79208097218E+02 -0.20571714648E+03 -0.49504495711E+03  0.85292038482E+03  0.65864270000E+03 0.  1.
    8880022    1    1    2    0    0 -0.79208097218E+02  0.20571714648E+03  0.31499943770E+03  0.41377501832E+03  0.15294330000E+03 0.  0.
<mgrwt>
<rscale>  0 0.54756328E+03</rscale>
<asrwt>0</asrwt>
<pdfrwt beam="1">  1        1 0.83588452E-01 0.69455286E+03</pdfrwt>
<pdfrwt beam="2">  1       -1 0.11128776E+00 0.69455286E+03</pdfrwt>
<totfact> 0.30174613E+01</totfact>
</mgrwt>
</event>
<event>
 4    2  0.3396630E-007  0.1563692E+04  0.7818608E-02  0.8865923E-01
         -1   -1    0    0    0  501 -0.00000000000E+00  0.00000000000E+00  0.16644688658E+04  0.16644688658E+04  0.50400000000E-02 0.  1.
          1   -1    0    0  501    0  0.00000000000E+00 -0.00000000000E+00 -0.14797309112E+04  0.14797309112E+04  0.50400000000E-02 0. -1.
    8880023    1    1    2    0    0  0.77986627588E+03  0.11845381180E+04  0.57382036760E+03  0.16656536200E+04  0.65864270000E+03 0.  0.
    8880022    1    1    2    0    0 -0.77986627588E+03 -0.11845381180E+04 -0.38908241297E+03  0.14785461570E+04  0.15294330000E+03 0.  0.
<mgrwt>
<rscale>  0 0.15281863E+04</rscale>
<asrwt>0</asrwt>
<pdfrwt beam="1">  1        1 0.22765091E+00 0.15636918E+04</pdfrwt>
<pdfrwt beam="2">  1       -1 0.25607213E+00 0.15636918E+04</pdfrwt>
<totfact> 0.40399465E-01</totfact>
</mgrwt>
</event>
<event>
 4    2  0.3396630E-007  0.7959331E+03  0.7818608E-02  0.9719659E-01
         -1   -1    0    0    0  501 -0.00000000000E+00  0.00000000000E+00  0.96687680338E+03  0.96687680339E+03  0.50400000000E-02 0.  1.
          1   -1    0    0  501    0  0.00000000000E+00 -0.00000000000E+00 -0.60503075193E+03  0.60503075195E+03  0.50400000000E-02 0. -1.
    8880023    1    1    2    0    0 -0.96982502707E+02  0.43622671821E+03  0.64214519991E+03  0.10226729778E+04  0.65864270000E+03 0.  1.
    8880022    1    1    2    0    0  0.96982502707E+02 -0.43622671821E+03 -0.28029914846E+03  0.54923457753E+03  0.15294330000E+03 0.  0.
<mgrwt>
<rscale>  0 0.69858249E+03</rscale>
<asrwt>0</asrwt>
<pdfrwt beam="1">  1        1 0.93081656E-01 0.79593314E+03</pdfrwt>
<pdfrwt beam="2">  1       -1 0.14875027E+00 0.79593314E+03</pdfrwt>
<totfact> 0.12359507E+01</totfact>
</mgrwt>
</event>
<event>
 4    2  0.3396630E-007  0.1104294E+04  0.7818608E-02  0.9256290E-01
          1   -1    0    0  501    0  0.00000000000E+00  0.00000000000E+00  0.19112439679E+04  0.19112439679E+04  0.50400000000E-02 0. -1.
         -1   -1    0    0    0  501 -0.00000000000E+00 -0.00000000000E+00 -0.91523646485E+03  0.91523646486E+03  0.50400000000E-02 0.  1.
    8880023    1    1    2    0    0  0.77594468951E+03 -0.42844524031E+03 -0.39260111767E+03  0.11720073929E+04  0.65864270000E+03 0.  1.
    8880022    1    1    2    0    0 -0.77594468951E+03  0.42844524031E+03  0.13886086207E+04  0.16544730399E+04  0.15294330000E+03 0.  0.
<mgrwt>
<rscale>  0 0.10490841E+04</rscale>
<asrwt>0</asrwt>
<pdfrwt beam="1">  1        1 0.29403753E+00 0.11042942E+04</pdfrwt>
<pdfrwt beam="2">  1       -1 0.14080561E+00 0.11042942E+04</pdfrwt>
<totfact> 0.14064682E+00</totfact>
</mgrwt>
</event>
<event>
 4    2  0.3396630E-007  0.8259857E+03  0.7818608E-02  0.9657194E-01
          1   -1    0    0  501    0  0.00000000000E+00  0.00000000000E+00  0.14579718193E+04  0.14579718193E+04  0.50400000000E-02 0. -1.
         -1   -1    0    0    0  501 -0.00000000000E+00 -0.00000000000E+00 -0.66636930176E+03  0.66636930178E+03  0.50400000000E-02 0.  1.
    8880023    1    1    2    0    0  0.30729908999E+03  0.39244029757E+03 -0.32844343854E+03  0.88889111619E+03  0.65864270000E+03 0.  1.
    8880022    1    1    2    0    0 -0.30729908999E+03 -0.39244029757E+03  0.11200459561E+04  0.12354500049E+04  0.15294330000E+03 0.  0.
<mgrwt>
<rscale>  0 0.73623644E+03</rscale>
<asrwt>0</asrwt>
<pdfrwt beam="1">  1        1 0.22430335E+00 0.82598567E+03</pdfrwt>
<pdfrwt beam="2">  1       -1 0.10251836E+00 0.82598567E+03</pdfrwt>
<totfact> 0.64749044E+00</totfact>
</mgrwt>
</event>
<event>
 4    2  0.3396630E-007  0.8417958E+03  0.7818608E-02  0.9626803E-01
          1   -1    0    0  501    0  0.00000000000E+00  0.00000000000E+00  0.18173373379E+04  0.18173373379E+04  0.50400000000E-02 0. -1.
         -1   -1    0    0    0  501 -0.00000000000E+00 -0.00000000000E+00 -0.51790124405E+03  0.51790124408E+03  0.50400000000E-02 0.  1.
    8880023    1    1    2    0    0  0.47228520443E+03 -0.22750079076E+03 -0.85892155160E+02  0.84616640958E+03  0.65864270000E+03 0.  1.
    8880022    1    1    2    0    0 -0.47228520443E+03  0.22750079076E+03  0.13853282490E+04  0.14890721724E+04  0.15294330000E+03 0.  0.
<mgrwt>
<rscale>  0 0.75547274E+03</rscale>
<asrwt>0</asrwt>
<pdfrwt beam="1">  1        1 0.27959036E+00 0.84179578E+03</pdfrwt>
<pdfrwt beam="2">  1       -1 0.79677116E-01 0.84179578E+03</pdfrwt>
<totfact> 0.64293797E+00</totfact>
</mgrwt>
</event>
<event>
 4    2  0.3396630E-007  0.7324696E+03  0.7818608E-02  0.9882452E-01
          1   -1    0    0  501    0  0.00000000000E+00  0.00000000000E+00  0.21284152481E+04  0.21284152481E+04  0.50400000000E-02 0. -1.
         -1   -1    0    0    0  501 -0.00000000000E+00 -0.00000000000E+00 -0.15814490730E+03  0.15814490738E+03  0.50400000000E-02 0.  1.
    8880023    1    1    2    0    0 -0.11924359266E+02 -0.32024886301E+03  0.16622866597E+04  0.18165100247E+04  0.65864270000E+03 0.  0.
    8880022    1    1    2    0    0  0.11924359266E+02  0.32024886301E+03  0.30798368113E+03  0.47005013080E+03  0.15294330000E+03 0.  0.
<mgrwt>
<rscale>  0 0.61119340E+03</rscale>
<asrwt>0</asrwt>
<pdfrwt beam="1">  1        1 0.32744850E+00 0.73246961E+03</pdfrwt>
<pdfrwt beam="2">  1       -1 0.24329986E-01 0.73246961E+03</pdfrwt>
<totfact> 0.37190692E+01</totfact>
</mgrwt>
</event>
<event>
 4    2  0.3396630E-007  0.6795520E+03  0.7818608E-02  0.1009578E+00
         -1   -1    0    0    0  501 -0.00000000000E+00  0.00000000000E+00  0.11262613580E+04  0.11262613580E+04  0.50400000000E-02 0.  1.
          1   -1    0    0  501    0  0.00000000000E+00 -0.00000000000E+00 -0.35889122736E+03  0.35889122739E+03  0.50400000000E-02 0. -1.
    8880023    1    1    2    0    0  0.10396651838E+03 -0.13104068523E+03  0.96782567761E+03  0.11825723854E+04  0.65864270000E+03 0.  1.
    8880022    1    1    2    0    0 -0.10396651838E+03  0.13104068523E+03 -0.20045554697E+03  0.30258020004E+03  0.15294330000E+03 0.  0.
<mgrwt>
<rscale>  0 0.51642611E+03</rscale>
<asrwt>0</asrwt>
<pdfrwt beam="1">  1        1 0.55214036E-01 0.67955199E+03</pdfrwt>
<pdfrwt beam="2">  1       -1 0.17327098E+00 0.67955199E+03</pdfrwt>
<totfact> 0.16705004E+01</totfact>
</mgrwt>
</event>
<event>
 4    2  0.3396630E-007  0.8516158E+03  0.7818608E-02  0.9608655E-01
          1   -1    0    0  501    0  0.00000000000E+00  0.00000000000E+00  0.55244869574E+03  0.55244869577E+03  0.50400000000E-02 0. -1.
         -1   -1    0    0    0  501 -0.00000000000E+00 -0.00000000000E+00 -0.13886891818E+04  0.13886891818E+04  0.50400000000E-02 0.  1.
    8880023    1    1    2    0    0  0.30825427149E+03  0.44319142452E+03  0.91915928071E+02  0.85656177755E+03  0.65864270000E+03 0.  0.
    8880022    1    1    2    0    0 -0.30825427149E+03 -0.44319142452E+03 -0.92815641412E+03  0.10845761000E+04  0.15294330000E+03 0.  0.
<mgrwt>
<rscale>  0 0.76725987E+03</rscale>
<asrwt>0</asrwt>
<pdfrwt beam="1">  1        1 0.84992108E-01 0.85161584E+03</pdfrwt>
<pdfrwt beam="2">  1       -1 0.21364449E+00 0.85161584E+03</pdfrwt>
<totfact> 0.47883145E+00</totfact>
</mgrwt>
</event>
<event>
 4    2  0.3396630E-007  0.6733763E+03  0.7818608E-02  0.1013350E+00
         -1   -1    0    0    0  501 -0.00000000000E+00  0.00000000000E+00  0.23493547727E+03  0.23493547733E+03  0.50400000000E-02 0.  1.
          1   -1    0    0  501    0  0.00000000000E+00 -0.00000000000E+00 -0.14274667901E+04  0.14274667901E+04  0.50400000000E-02 0. -1.
    8880023    1    1    2    0    0 -0.10001115071E+03 -0.98097878931E+02 -0.28454282095E+03  0.73102684447E+03  0.65864270000E+03 0.  1.
    8880022    1    1    2    0    0  0.10001115071E+03  0.98097878931E+02 -0.90798849187E+03  0.93137542296E+03  0.15294330000E+03 0.  0.
<mgrwt>
<rscale>  0 0.50164730E+03</rscale>
<asrwt>0</asrwt>
<pdfrwt beam="1">  1        1 0.21961027E+00 0.67337629E+03</pdfrwt>
<pdfrwt beam="2">  1       -1 0.36143920E-01 0.67337629E+03</pdfrwt>
<totfact> 0.55722266E+01</totfact>
</mgrwt>
</event>
<event>
 4    2  0.3396630E-007  0.1021270E+04  0.7818608E-02  0.9354244E-01
          1   -1    0    0  501    0  0.00000000000E+00  0.00000000000E+00  0.16267515329E+04  0.16267515329E+04  0.50400000000E-02 0. -1.
         -1   -1    0    0    0  501 -0.00000000000E+00 -0.00000000000E+00 -0.69036763147E+03  0.69036763148E+03  0.50400000000E-02 0.  1.
    8880023    1    1    2    0    0 -0.39712507688E+03 -0.67191817907E+03  0.11043960713E+04  0.15042218103E+04  0.65864270000E+03 0.  0.
    8880022    1    1    2    0    0  0.39712507688E+03  0.67191817907E+03 -0.16801216987E+03  0.81289735409E+03  0.15294330000E+03 0.  0.
<mgrwt>
<rscale>  0 0.95938820E+03</rscale>
<asrwt>0</asrwt>
<pdfrwt beam="1">  1        1 0.25026947E+00 0.10212701E+04</pdfrwt>
<pdfrwt beam="2">  1       -1 0.10621040E+00 0.10212701E+04</pdfrwt>
<totfact> 0.44516825E+00</totfact>
</mgrwt>
</event>
<event>
 4    2  0.3396630E-007  0.7184689E+03  0.7818608E-02  0.9927801E-01
          1   -1    0    0  501    0  0.00000000000E+00  0.00000000000E+00  0.12718975086E+04  0.12718975086E+04  0.50400000000E-02 0. -1.
         -1   -1    0    0    0  501 -0.00000000000E+00 -0.00000000000E+00 -0.29845405526E+03  0.29845405531E+03  0.50400000000E-02 0.  1.
    8880023    1    1    2    0    0  0.23084048794E+03  0.17058741474E+03  0.22270964275E+03  0.75219491369E+03  0.65864270000E+03 0.  0.
    8880022    1    1    2    0    0 -0.23084048794E+03 -0.17058741474E+03  0.75073381055E+03  0.81815665020E+03  0.15294330000E+03 0.  0.
<mgrwt>
<rscale>  0 0.58932647E+03</rscale>
<asrwt>0</asrwt>
<pdfrwt beam="1">  1        1 0.19567654E+00 0.71846893E+03</pdfrwt>
<pdfrwt beam="2">  1       -1 0.45916008E-01 0.71846893E+03</pdfrwt>
<totfact> 0.46036496E+01</totfact>
</mgrwt>
</event>
<event>
 4    2  0.3396630E-007  0.7956962E+03  0.7818608E-02  0.9720180E-01
          1   -1    0    0  501    0  0.00000000000E+00  0.00000000000E+00  0.13157327190E+04  0.13157327190E+04  0.50400000000E-02 0. -1.
         -1   -1    0    0    0  501 -0.00000000000E+00 -0.00000000000E+00 -0.44455705526E+03  0.44455705529E+03  0.50400000000E-02 0.  1.
    8880023    1    1    2    0    0 -0.22106115808E+03 -0.38788420260E+03  0.30584332027E+02  0.79628374206E+03  0.65864270000E+03 0.  1.
    8880022    1    1    2    0    0  0.22106115808E+03  0.38788420260E+03  0.84059133173E+03  0.96400603226E+03  0.15294330000E+03 0.  0.
<mgrwt>
<rscale>  0 0.69827879E+03</rscale>
<asrwt>0</asrwt>
<pdfrwt beam="1">  1        1 0.20242042E+00 0.79569617E+03</pdfrwt>
<pdfrwt beam="2">  1       -1 0.68393394E-01 0.79569617E+03</pdfrwt>
<totfact> 0.19581808E+01</totfact>
</mgrwt>
</event>
<event>
 4    2  0.3396630E-007  0.6593921E+03  0.7818608E-02  0.1024788E+00
          1   -1    0    0  501    0  0.00000000000E+00  0.00000000000E+00  0.12112943885E+04  0.12112943885E+04  0.50400000000E-02 0. -1.
         -1   -1    0    0    0  501 -0.00000000000E+00 -0.00000000000E+00 -0.19958672874E+03  0.19958672880E+03  0.50400000000E-02 0.  1.
    8880023    1    1    2    0    0  0.27482805695E+02 -0.15246872639E+02  0.38188647604E+03  0.76199426414E+03  0.65864270000E+03 0.  1.
    8880022    1    1    2    0    0 -0.27482805695E+02  0.15246872639E+02  0.62982118370E+03  0.64888685315E+03  0.15294330000E+03 0.  0.
<mgrwt>
<rscale>  0 0.45997661E+03</rscale>
<asrwt>0</asrwt>
<pdfrwt beam="1">  1        1 0.18635298E+00 0.65939213E+03</pdfrwt>
<pdfrwt beam="2">  1       -1 0.30705651E-01 0.65939213E+03</pdfrwt>
<totfact> 0.10557698E+02</totfact>
</mgrwt>
</event>
<event>
 4    2  0.3396630E-007  0.8134084E+03  0.7818608E-02  0.9682520E-01
         -1   -1    0    0    0  501 -0.00000000000E+00  0.00000000000E+00  0.16384841168E+04  0.16384841168E+04  0.50400000000E-02 0.  1.
          1   -1    0    0  501    0  0.00000000000E+00 -0.00000000000E+00 -0.36391147899E+03  0.36391147903E+03  0.50400000000E-02 0. -1.
    8880023    1    1    2    0    0 -0.44748164724E+03  0.16608210208E+03  0.12615086313E+04  0.15010120993E+04  0.65864270000E+03 0.  0.
    8880022    1    1    2    0    0  0.44748164724E+03 -0.16608210208E+03  0.13064006470E+02  0.50138349646E+03  0.15294330000E+03 0.  0.
<mgrwt>
<rscale>  0 0.72067117E+03</rscale>
<asrwt>0</asrwt>
<pdfrwt beam="1">  1        1 0.55986381E-01 0.81340844E+03</pdfrwt>
<pdfrwt beam="2">  1       -1 0.25207448E+00 0.81340844E+03</pdfrwt>
<totfact> 0.47404809E+00</totfact>
</mgrwt>
</event>
<event>
 4    2  0.3396630E-007  0.8356080E+03  0.7818608E-02  0.9638518E-01
          1   -1    0    0  501    0  0.00000000000E+00  0.00000000000E+00  0.12211331091E+04  0.12211331091E+04  0.50400000000E-02 0. -1.
         -1   -1    0    0    0  501 -0.00000000000E+00 -0.00000000000E+00 -0.38998537793E+03  0.38998537796E+03  0.50400000000E-02 0.  1.
    8880023    1    1    2    0    0  0.51395372200E+03  0.16794087426E+02  0.42013425922E+03  0.93528256253E+03  0.65864270000E+03 0.  0.
    8880022    1    1    2    0    0 -0.51395372200E+03 -0.16794087426E+02  0.41101347190E+03  0.67583592449E+03  0.15294330000E+03 0.  1.
<mgrwt>
<rscale>  0 0.74798425E+03</rscale>
<asrwt>0</asrwt>
<pdfrwt beam="1">  1        1 0.18786663E+00 0.83560797E+03</pdfrwt>
<pdfrwt beam="2">  1       -1 0.59997751E-01 0.83560797E+03</pdfrwt>
<totfact> 0.29613191E+01</totfact>
</mgrwt>
</event>
<event>
 4    2  0.3396630E-007  0.1087021E+04  0.7818608E-02  0.9275645E-01
         -1   -1    0    0    0  501 -0.00000000000E+00  0.00000000000E+00  0.12066327528E+04  0.12066327528E+04  0.50400000000E-02 0.  1.
          1   -1    0    0  501    0  0.00000000000E+00 -0.00000000000E+00 -0.28409146413E+04  0.28409146413E+04  0.50400000000E-02 0. -1.
    8880023    1    1    2    0    0 -0.35688402160E+03 -0.78767961395E+03  0.87092247331E+03  0.13928824573E+04  0.65864270000E+03 0.  0.
    8880022    1    1    2    0    0  0.35688402160E+03  0.78767961395E+03 -0.25052043618E+04  0.26546649368E+04  0.15294330000E+03 0. -1.
<mgrwt>
<rscale>  0 0.10305623E+04</rscale>
<asrwt>0</asrwt>
<pdfrwt beam="1">  1        1 0.43706379E+00 0.10870214E+04</pdfrwt>
<pdfrwt beam="2">  1       -1 0.18563581E+00 0.10870214E+04</pdfrwt>
<totfact> 0.14910528E-01</totfact>
</mgrwt>
</event>
<event>
 4    2  0.3396630E-007  0.7800844E+03  0.7818608E-02  0.9755639E-01
          1   -1    0    0  501    0  0.00000000000E+00  0.00000000000E+00  0.11982725244E+04  0.11982725244E+04  0.50400000000E-02 0. -1.
         -1   -1    0    0    0  501 -0.00000000000E+00 -0.00000000000E+00 -0.48414658069E+03  0.48414658071E+03  0.50400000000E-02 0.  1.
    8880023    1    1    2    0    0  0.41697320178E+03  0.29236034656E+02 -0.67444057083E+02  0.78299444687E+03  0.65864270000E+03 0.  1.
    8880022    1    1    2    0    0 -0.41697320178E+03 -0.29236034656E+02  0.78157000082E+03  0.89942465828E+03  0.15294330000E+03 0.  0.
<mgrwt>
<rscale>  0 0.67798535E+03</rscale>
<asrwt>0</asrwt>
<pdfrwt beam="1">  1        1 0.18434962E+00 0.78008436E+03</pdfrwt>
<pdfrwt beam="2">  1       -1 0.74484091E-01 0.78008436E+03</pdfrwt>
<totfact> 0.19970409E+01</totfact>
</mgrwt>
</event>
<event>
 4    2  0.3396630E-007  0.7624949E+03  0.7818608E-02  0.9798691E-01
         -1   -1    0    0    0  501 -0.00000000000E+00  0.00000000000E+00  0.46092465824E+03  0.46092465827E+03  0.50400000000E-02 0.  1.
          1   -1    0    0  501    0  0.00000000000E+00 -0.00000000000E+00 -0.13076137563E+04  0.13076137563E+04  0.50400000000E-02 0. -1.
    8880023    1    1    2    0    0  0.38304553535E+03 -0.29401701862E+02  0.67206082946E+02  0.76545098215E+03  0.65864270000E+03 0.  1.
    8880022    1    1    2    0    0 -0.38304553535E+03  0.29401701862E+02 -0.91389518096E+03  0.10030874324E+04  0.15294330000E+03 0.  0.
<mgrwt>
<rscale>  0 0.65432858E+03</rscale>
<asrwt>0</asrwt>
<pdfrwt beam="1">  1        1 0.20117135E+00 0.76249495E+03</pdfrwt>
<pdfrwt beam="2">  1       -1 0.70911487E-01 0.76249495E+03</pdfrwt>
<totfact> 0.18503697E+01</totfact>
</mgrwt>
</event>
<event>
 4    2  0.3396630E-007  0.7144754E+03  0.7818608E-02  0.9941743E-01
          1   -1    0    0  501    0  0.00000000000E+00  0.00000000000E+00  0.83202589797E+03  0.83202589798E+03  0.50400000000E-02 0. -1.
         -1   -1    0    0    0  501 -0.00000000000E+00 -0.00000000000E+00 -0.64389980494E+03  0.64389980496E+03  0.50400000000E-02 0.  1.
    8880023    1    1    2    0    0 -0.11883231128E+03  0.25008747814E+03 -0.39216125557E+03  0.81502485948E+03  0.65864270000E+03 0.  0.
    8880022    1    1    2    0    0  0.11883231128E+03 -0.25008747814E+03  0.58028734860E+03  0.66090084346E+03  0.15294330000E+03 0.  0.
<mgrwt>
<rscale>  0 0.58280212E+03</rscale>
<asrwt>0</asrwt>
<pdfrwt beam="1">  1        1 0.12800398E+00 0.71447538E+03</pdfrwt>
<pdfrwt beam="2">  1       -1 0.99061509E-01 0.71447538E+03</pdfrwt>
<totfact> 0.20847263E+01</totfact>
</mgrwt>
</event>
<event>
 4    2  0.3396630E-007  0.8100261E+03  0.7818608E-02  0.9689523E-01
          1   -1    0    0  501    0  0.00000000000E+00  0.00000000000E+00  0.18122297673E+04  0.18122297673E+04  0.50400000000E-02 0. -1.
         -1   -1    0    0    0  501 -0.00000000000E+00 -0.00000000000E+00 -0.31821720446E+03  0.31821720450E+03  0.50400000000E-02 0.  1.
    8880023    1    1    2    0    0  0.27907228980E+03 -0.38006671018E+03  0.34760897741E+03  0.88146143113E+03  0.65864270000E+03 0.  0.
    8880022    1    1    2    0    0 -0.27907228980E+03  0.38006671018E+03  0.11464035854E+04  0.12489855407E+04  0.15294330000E+03 0.  0.
<mgrwt>
<rscale>  0 0.71644051E+03</rscale>
<asrwt>0</asrwt>
<pdfrwt beam="1">  1        1 0.27880458E+00 0.81002608E+03</pdfrwt>
<pdfrwt beam="2">  1       -1 0.48956493E-01 0.81002608E+03</pdfrwt>
<totfact> 0.17218784E+01</totfact>
</mgrwt>
</event>
<event>
 4    2  0.3396630E-007  0.1076435E+04  0.7818608E-02  0.9287757E-01
         -1   -1    0    0    0  501 -0.00000000000E+00  0.00000000000E+00  0.18682933037E+04  0.18682933037E+04  0.50400000000E-02 0.  1.
          1   -1    0    0  501    0  0.00000000000E+00 -0.00000000000E+00 -0.93847521113E+03  0.93847521114E+03  0.50400000000E-02 0. -1.
    8880023    1    1    2    0    0  0.45616708345E+03  0.71889808252E+03  0.14435282489E+04  0.18006906655E+04  0.65864270000E+03 0.  1.
    8880022    1    1    2    0    0 -0.45616708345E+03 -0.71889808252E+03 -0.51371015640E+03  0.10060778493E+04  0.15294330000E+03 0.  0.
<mgrwt>
<rscale>  0 0.10191780E+04</rscale>
<asrwt>0</asrwt>
<pdfrwt beam="1">  1        1 0.14438080E+00 0.10764354E+04</pdfrwt>
<pdfrwt beam="2">  1       -1 0.28742973E+00 0.10764354E+04</pdfrwt>
<totfact> 0.67527602E-01</totfact>
</mgrwt>
</event>
<event>
 4    2  0.3396630E-007  0.6714940E+03  0.7818608E-02  0.1014614E+00
          1   -1    0    0  501    0  0.00000000000E+00  0.00000000000E+00  0.50012365290E+03  0.50012365293E+03  0.50400000000E-02 0. -1.
         -1   -1    0    0    0  501 -0.00000000000E+00 -0.00000000000E+00 -0.55737160354E+03  0.55737160357E+03  0.50400000000E-02 0.  1.
    8880023    1    1    2    0    0 -0.11284969336E+03  0.66021839641E+02 -0.30568381460E+03  0.73779857507E+03  0.65864270000E+03 0.  1.
    8880022    1    1    2    0    0  0.11284969336E+03 -0.66021839641E+02  0.24843586395E+03  0.31969668143E+03  0.15294330000E+03 0.  0.
<mgrwt>
<rscale>  0 0.49681436E+03</rscale>
<asrwt>0</asrwt>
<pdfrwt beam="1">  1        1 0.76942100E-01 0.67149396E+03</pdfrwt>
<pdfrwt beam="2">  1       -1 0.85749478E-01 0.67149396E+03</pdfrwt>
<totfact> 0.61126165E+01</totfact>
</mgrwt>
</event>
<event>
 4    2  0.3396630E-007  0.7074752E+03  0.7818608E-02  0.9967499E-01
         -1   -1    0    0    0  501 -0.00000000000E+00  0.00000000000E+00  0.10135474777E+04  0.10135474777E+04  0.50400000000E-02 0.  1.
          1   -1    0    0  501    0  0.00000000000E+00 -0.00000000000E+00 -0.25524898390E+03  0.25524898395E+03  0.50400000000E-02 0. -1.
    8880023    1    1    2    0    0  0.20732681494E+03  0.15403410587E+03  0.60927559027E+03  0.93366903404E+03  0.65864270000E+03 0.  0.
    8880022    1    1    2    0    0 -0.20732681494E+03 -0.15403410587E+03  0.14902290357E+03  0.33512742765E+03  0.15294330000E+03 0.  0.
<mgrwt>
<rscale>  0 0.57098612E+03</rscale>
<asrwt>0</asrwt>
<pdfrwt beam="1">  1        1 0.39269074E-01 0.70747517E+03</pdfrwt>
<pdfrwt beam="2">  1       -1 0.15593038E+00 0.70747517E+03</pdfrwt>
<totfact> 0.34849887E+01</totfact>
</mgrwt>
</event>
<event>
 4    2  0.3396630E-007  0.7098206E+03  0.7818608E-02  0.9958668E-01
          1   -1    0    0  501    0  0.00000000000E+00  0.00000000000E+00  0.26967633337E+04  0.26967633338E+04  0.50400000000E-02 0. -1.
         -1   -1    0    0    0  501 -0.00000000000E+00 -0.00000000000E+00 -0.10614815221E+03  0.10614815233E+03  0.50400000000E-02 0.  1.
    8880023    1    1    2    0    0  0.12924410116E+02 -0.26432563683E+03  0.13504490873E+04  0.15256336475E+04  0.65864270000E+03 0.  0.
    8880022    1    1    2    0    0 -0.12924410116E+02  0.26432563683E+03  0.12401660942E+04  0.12772778386E+04  0.15294330000E+03 0.  0.
<mgrwt>
<rscale>  0 0.57500331E+03</rscale>
<asrwt>0</asrwt>
<pdfrwt beam="1">  1        1 0.41488664E+00 0.70982060E+03</pdfrwt>
<pdfrwt beam="2">  1       -1 0.16330486E-01 0.70982060E+03</pdfrwt>
<totfact> 0.29802829E+01</totfact>
</mgrwt>
</event>
<event>
 4    2  0.3396630E-007  0.8057127E+03  0.7818608E-02  0.9698577E-01
          1   -1    0    0  501    0  0.00000000000E+00  0.00000000000E+00  0.16148268625E+04  0.16148268625E+04  0.50400000000E-02 0. -1.
         -1   -1    0    0    0  501 -0.00000000000E+00 -0.00000000000E+00 -0.30313213775E+03  0.30313213779E+03  0.50400000000E-02 0.  1.
    8880023    1    1    2    0    0  0.33031492764E+03 -0.32596757627E+03  0.43840186717E+03  0.91726180319E+03  0.65864270000E+03 0.  1.
    8880022    1    1    2    0    0 -0.33031492764E+03  0.32596757627E+03  0.87329285759E+03  0.10006971971E+04  0.15294330000E+03 0.  0.
<mgrwt>
<rscale>  0 0.71101557E+03</rscale>
<asrwt>0</asrwt>
<pdfrwt beam="1">  1        1 0.24843490E+00 0.80571274E+03</pdfrwt>
<pdfrwt beam="2">  1       -1 0.46635714E-01 0.80571274E+03</pdfrwt>
<totfact> 0.25643779E+01</totfact>
</mgrwt>
</event>
<event>
 4    2  0.3396630E-007  0.7275378E+03  0.7818608E-02  0.9897860E-01
          1   -1    0    0  501    0  0.00000000000E+00  0.00000000000E+00  0.68933324694E+03  0.68933324696E+03  0.50400000000E-02 0. -1.
         -1   -1    0    0    0  501 -0.00000000000E+00 -0.00000000000E+00 -0.94661526754E+03  0.94661526756E+03  0.50400000000E-02 0.  1.
    8880023    1    1    2    0    0  0.30884346611E+03 -0.10804257101E+02 -0.74326182929E+03  0.10400718108E+04  0.65864270000E+03 0.  0.
    8880022    1    1    2    0    0 -0.30884346611E+03  0.10804257101E+02  0.48597980869E+03  0.59587670369E+03  0.15294330000E+03 0.  0.
<mgrwt>
<rscale>  0 0.60365117E+03</rscale>
<asrwt>0</asrwt>
<pdfrwt beam="1">  1        1 0.10605127E+00 0.72753778E+03</pdfrwt>
<pdfrwt beam="2">  1       -1 0.14563312E+00 0.72753778E+03</pdfrwt>
<totfact> 0.10881982E+01</totfact>
</mgrwt>
</event>
<event>
 4    2  0.3396630E-007  0.7565352E+03  0.7818608E-02  0.9814161E-01
          1   -1    0    0  501    0  0.00000000000E+00  0.00000000000E+00  0.23344391425E+04  0.23344391425E+04  0.50400000000E-02 0. -1.
         -1   -1    0    0    0  501 -0.00000000000E+00 -0.00000000000E+00 -0.15014239834E+03  0.15014239842E+03  0.50400000000E-02 0.  1.
    8880023    1    1    2    0    0 -0.33391690353E+03 -0.16442272152E+03  0.11689743443E+04  0.13924247030E+04  0.65864270000E+03 0.  1.
    8880022    1    1    2    0    0  0.33391690353E+03  0.16442272152E+03  0.10153223999E+04  0.10921568379E+04  0.15294330000E+03 0.  0.
<mgrwt>
<rscale>  0 0.64608070E+03</rscale>
<asrwt>0</asrwt>
<pdfrwt beam="1">  1        1 0.35914447E+00 0.75653522E+03</pdfrwt>
<pdfrwt beam="2">  1       -1 0.23098832E-01 0.75653522E+03</pdfrwt>
<totfact> 0.29430814E+01</totfact>
</mgrwt>
</event>
<event>
 4    2  0.3396630E-007  0.9355566E+03  0.7818608E-02  0.9471207E-01
          1   -1    0    0  501    0  0.00000000000E+00  0.00000000000E+00  0.88127687036E+03  0.88127687037E+03  0.50400000000E-02 0. -1.
         -1   -1    0    0    0  501 -0.00000000000E+00 -0.00000000000E+00 -0.10669556851E+04  0.10669556851E+04  0.50400000000E-02 0.  1.
    8880023    1    1    2    0    0 -0.24668791759E+03  0.61692868748E+03 -0.63588898168E+03  0.11312033139E+04  0.65864270000E+03 0.  0.
    8880022    1    1    2    0    0  0.24668791759E+03 -0.61692868748E+03  0.45021016695E+03  0.81702924156E+03  0.15294330000E+03 0.  0.
<mgrwt>
<rscale>  0 0.86440321E+03</rscale>
<asrwt>0</asrwt>
<pdfrwt beam="1">  1        1 0.13558106E+00 0.93555659E+03</pdfrwt>
<pdfrwt beam="2">  1       -1 0.16414703E+00 0.93555659E+03</pdfrwt>
<totfact> 0.51799278E+00</totfact>
</mgrwt>
</event>
<event>
 4    2  0.3396630E-007  0.6678462E+03  0.7818608E-02  0.1017256E+00
         -1   -1    0    0    0  501 -0.00000000000E+00  0.00000000000E+00  0.40075449600E+03  0.40075449603E+03  0.50400000000E-02 0.  1.
          1   -1    0    0  501    0  0.00000000000E+00 -0.00000000000E+00 -0.64157812045E+03  0.64157812047E+03  0.50400000000E-02 0. -1.
    8880023    1    1    2    0    0 -0.10968417934E+03  0.13333101223E+02  0.77463281907E+02  0.67232369964E+03  0.65864270000E+03 0.  1.
    8880022    1    1    2    0    0  0.10968417934E+03 -0.13333101223E+02 -0.31828690636E+03  0.37000891687E+03  0.15294330000E+03 0.  0.
<mgrwt>
<rscale>  0 0.48689877E+03</rscale>
<asrwt>0</asrwt>
<pdfrwt beam="1">  1        1 0.98704326E-01 0.66784624E+03</pdfrwt>
<pdfrwt beam="2">  1       -1 0.61654538E-01 0.66784624E+03</pdfrwt>
<totfact> 0.84991671E+01</totfact>
</mgrwt>
</event>
<event>
 4    2  0.3396630E-007  0.8822672E+03  0.7818608E-02  0.9555120E-01
         -1   -1    0    0    0  501 -0.00000000000E+00  0.00000000000E+00  0.58871282097E+03  0.58871282099E+03  0.50400000000E-02 0.  1.
          1   -1    0    0  501    0  0.00000000000E+00 -0.00000000000E+00 -0.10391075902E+04  0.10391075902E+04  0.50400000000E-02 0. -1.
    8880023    1    1    2    0    0 -0.58387864226E+03 -0.60587895814E+02 -0.50869652019E+03  0.10184142173E+04  0.65864270000E+03 0. -1.
    8880022    1    1    2    0    0  0.58387864226E+03  0.60587895814E+02  0.58301750983E+02  0.60940619392E+03  0.15294330000E+03 0.  0.
<mgrwt>
<rscale>  0 0.80339227E+03</rscale>
<asrwt>0</asrwt>
<pdfrwt beam="1">  1        1 0.15986271E+00 0.88226718E+03</pdfrwt>
<pdfrwt beam="2">  1       -1 0.90571204E-01 0.88226718E+03</pdfrwt>
<totfact> 0.17052044E+01</totfact>
</mgrwt>
</event>
<event>
 4    2  0.3396630E-007  0.7679069E+03  0.7818608E-02  0.9785051E-01
         -1   -1    0    0    0  501 -0.00000000000E+00  0.00000000000E+00  0.62721687414E+03  0.62721687416E+03  0.50400000000E-02 0.  1.
          1   -1    0    0  501    0  0.00000000000E+00 -0.00000000000E+00 -0.77371150701E+03  0.77371150702E+03  0.50400000000E-02 0. -1.
    8880023    1    1    2    0    0  0.25505645370E+03 -0.30135853688E+03 -0.44067375332E+03  0.88536677453E+03  0.65864270000E+03 0.  0.
    8880022    1    1    2    0    0 -0.25505645370E+03  0.30135853688E+03  0.29417912045E+03  0.51556160664E+03  0.15294330000E+03 0.  0.
<mgrwt>
<rscale>  0 0.66170981E+03</rscale>
<asrwt>0</asrwt>
<pdfrwt beam="1">  1        1 0.11903254E+00 0.76790687E+03</pdfrwt>
<pdfrwt beam="2">  1       -1 0.96494904E-01 0.76790687E+03</pdfrwt>
<totfact> 0.24694135E+01</totfact>
</mgrwt>
</event>
<event>
 4    2  0.3396630E-007  0.1061492E+04  0.7818608E-02  0.9305193E-01
          1   -1    0    0  501    0  0.00000000000E+00  0.00000000000E+00  0.11783873622E+04  0.11783873623E+04  0.50400000000E-02 0. -1.
         -1   -1    0    0    0  501 -0.00000000000E+00 -0.00000000000E+00 -0.93368331774E+03  0.93368331775E+03  0.50400000000E-02 0.  1.
    8880023    1    1    2    0    0  0.80072839351E+03  0.22757033292E+03 -0.30306211613E+03  0.11039071832E+04  0.65864270000E+03 0.  0.
    8880022    1    1    2    0    0 -0.80072839351E+03 -0.22757033292E+03  0.54776616063E+03  0.10081634968E+04  0.15294330000E+03 0.  0.
<mgrwt>
<rscale>  0 0.10030620E+04</rscale>
<asrwt>0</asrwt>
<pdfrwt beam="1">  1        1 0.18129036E+00 0.10614916E+04</pdfrwt>
<pdfrwt beam="2">  1       -1 0.14364359E+00 0.10614916E+04</pdfrwt>
<totfact> 0.43247273E+00</totfact>
</mgrwt>
</event>
<event>
 4    2  0.3396630E-007  0.8767009E+03  0.7818608E-02  0.9564520E-01
         -1   -1    0    0    0  501 -0.00000000000E+00  0.00000000000E+00  0.18989931207E+03  0.18989931214E+03  0.50400000000E-02 0.  1.
          1   -1    0    0  501    0  0.00000000000E+00 -0.00000000000E+00 -0.32589623285E+04  0.32589623285E+04  0.50400000000E-02 0. -1.
    8880023    1    1    2    0    0  0.28566288615E+03  0.50318086377E+03 -0.11987640626E+04  0.14851396400E+04  0.65864270000E+03 0.  0.
    8880022    1    1    2    0    0 -0.28566288615E+03 -0.50318086377E+03 -0.18702989538E+04  0.19637220006E+04  0.15294330000E+03 0.  0.
<mgrwt>
<rscale>  0 0.79689693E+03</rscale>
<asrwt>0</asrwt>
<pdfrwt beam="1">  1        1 0.50137878E+00 0.87670090E+03</pdfrwt>
<pdfrwt beam="2">  1       -1 0.29215281E-01 0.87670090E+03</pdfrwt>
<totfact> 0.43081540E+00</totfact>
</mgrwt>
</event>
<event>
 4    2  0.3396630E-007  0.7078138E+03  0.7818608E-02  0.9966210E-01
         -1   -1    0    0    0  501 -0.00000000000E+00  0.00000000000E+00  0.19295842886E+03  0.19295842892E+03  0.50400000000E-02 0.  1.
          1   -1    0    0  501    0  0.00000000000E+00 -0.00000000000E+00 -0.19222546569E+04  0.19222546569E+04  0.50400000000E-02 0. -1.
    8880023    1    1    2    0    0 -0.22716441895E+03  0.12484604158E+03 -0.54514046671E+03  0.89340838481E+03  0.65864270000E+03 0.  0.
    8880022    1    1    2    0    0  0.22716441895E+03 -0.12484604158E+03 -0.11841557613E+04  0.12218047010E+04  0.15294330000E+03 0.  0.
<mgrwt>
<rscale>  0 0.57157001E+03</rscale>
<asrwt>0</asrwt>
<pdfrwt beam="1">  1        1 0.29573147E+00 0.70781383E+03</pdfrwt>
<pdfrwt beam="2">  1       -1 0.29685913E-01 0.70781383E+03</pdfrwt>
<totfact> 0.36395488E+01</totfact>
</mgrwt>
</event>
<event>
 4    2  0.3396630E-007  0.7381894E+03  0.7818608E-02  0.9865253E-01
          1   -1    0    0  501    0  0.00000000000E+00  0.00000000000E+00  0.41697195544E+03  0.41697195547E+03  0.50400000000E-02 0. -1.
         -1   -1    0    0    0  501 -0.00000000000E+00 -0.00000000000E+00 -0.10588178388E+04  0.10588178388E+04  0.50400000000E-02 0.  1.
    8880023    1    1    2    0    0 -0.23282069197E+03  0.23855380099E+03 -0.78912353531E+03  0.10805737137E+04  0.65864270000E+03 0.  1.
    8880022    1    1    2    0    0  0.23282069197E+03 -0.23855380099E+03  0.14727765192E+03  0.39521608058E+03  0.15294330000E+03 0.  0.
<mgrwt>
<rscale>  0 0.61975234E+03</rscale>
<asrwt>0</asrwt>
<pdfrwt beam="1">  1        1 0.64149532E-01 0.73818940E+03</pdfrwt>
<pdfrwt beam="2">  1       -1 0.16289505E+00 0.73818940E+03</pdfrwt>
<totfact> 0.16222202E+01</totfact>
</mgrwt>
</event>
<event>
 4    2  0.3396630E-007  0.6666080E+03  0.7818608E-02  0.1018221E+00
          1   -1    0    0  501    0  0.00000000000E+00  0.00000000000E+00  0.19189962222E+04  0.19189962222E+04  0.50400000000E-02 0. -1.
         -1   -1    0    0    0  501 -0.00000000000E+00 -0.00000000000E+00 -0.19948631819E+03  0.19948631826E+03  0.50400000000E-02 0.  1.
    8880023    1    1    2    0    0 -0.97405124162E+02  0.32683452969E+02  0.38192252038E+03  0.76826491795E+03  0.65864270000E+03 0.  1.
    8880022    1    1    2    0    0  0.97405124162E+02 -0.32683452969E+02  0.13375873836E+04  0.13502176225E+04  0.15294330000E+03 0.  0.
<mgrwt>
<rscale>  0 0.48334145E+03</rscale>
<asrwt>0</asrwt>
<pdfrwt beam="1">  1        1 0.29523018E+00 0.66660796E+03</pdfrwt>
<pdfrwt beam="2">  1       -1 0.30690203E-01 0.66660796E+03</pdfrwt>
<totfact> 0.34714268E+01</totfact>
</mgrwt>
</event>
<event>
 4    2  0.3575460E-007  0.8880346E+03  0.7818608E-02  0.9545519E-01
          1   -1    0    0  501    0  0.00000000000E+00  0.00000000000E+00  0.13017879332E+04  0.13017879333E+04  0.50400000000E-02 0. -1.
         -1   -1    0    0    0  501 -0.00000000000E+00 -0.00000000000E+00 -0.87004753533E+03  0.87004753534E+03  0.50400000000E-02 0.  1.
    8880023    1    1    2    0    0  0.59436965500E+03  0.38987260285E+02 -0.52713251621E+03  0.10327023720E+04  0.65864270000E+03 0.  0.
    8880022    1    1    2    0    0 -0.59436965500E+03 -0.38987260285E+02  0.95887291414E+03  0.11391330966E+04  0.15294330000E+03 0.  0.
<mgrwt>
<rscale>  0 0.81009461E+03</rscale>
<asrwt>0</asrwt>
<pdfrwt beam="1">  1        1 0.20027507E+00 0.88803463E+03</pdfrwt>
<pdfrwt beam="2">  1       -1 0.13385347E+00 0.88803463E+03</pdfrwt>
<totfact> 0.43252258E+00</totfact>
</mgrwt>
</event>
<event>
 4    2  0.3414010E-007  0.7326910E+03  0.7818608E-02  0.9881773E-01
          1   -1    0    0  501    0  0.00000000000E+00  0.00000000000E+00  0.19857674931E+04  0.19857674931E+04  0.50400000000E-02 0. -1.
         -1   -1    0    0    0  501 -0.00000000000E+00 -0.00000000000E+00 -0.60890067194E+03  0.60890067196E+03  0.50400000000E-02 0.  1.
    8880023    1    1    2    0    0 -0.95345316387E+02  0.30648854647E+03 -0.36381485785E+03  0.81804487379E+03  0.65864270000E+03 0.  1.
    8880022    1    1    2    0    0  0.95345316387E+02 -0.30648854647E+03  0.17406816790E+04  0.17766232913E+04  0.15294330000E+03 0.  0.
<mgrwt>
<rscale>  0 0.61152837E+03</rscale>
<asrwt>0</asrwt>
<pdfrwt beam="1">  1        1 0.30550269E+00 0.73269104E+03</pdfrwt>
<pdfrwt beam="2">  1       -1 0.93677026E-01 0.73269104E+03</pdfrwt>
<totfact> 0.35512665E+00</totfact>
</mgrwt>
</event>
<event>
 4    2  0.3396630E-007  0.7262228E+03  0.7818608E-02  0.9902066E-01
         -1   -1    0    0    0  501 -0.00000000000E+00  0.00000000000E+00  0.10940128028E+03  0.10940128040E+03  0.50400000000E-02 0.  1.
          1   -1    0    0  501    0  0.00000000000E+00 -0.00000000000E+00 -0.29844307702E+04  0.29844307703E+04  0.50400000000E-02 0. -1.
    8880023    1    1    2    0    0  0.49632892334E+02 -0.30187080296E+03 -0.24068615502E+04  0.25140370192E+04  0.65864270000E+03 0.  1.
    8880022    1    1    2    0    0 -0.49632892334E+02  0.30187080296E+03 -0.46816793972E+03  0.57979503144E+03  0.15294330000E+03 0.  1.
<mgrwt>
<rscale>  0 0.60161253E+03</rscale>
<asrwt>0</asrwt>
<pdfrwt beam="1">  1        1 0.45914313E+00 0.72622284E+03</pdfrwt>
<pdfrwt beam="2">  1       -1 0.16830969E-01 0.72622284E+03</pdfrwt>
<totfact> 0.17753471E+01</totfact>
</mgrwt>
</event>
<event>
 4    2  0.3396630E-007  0.7539813E+03  0.7818608E-02  0.9820946E-01
          1   -1    0    0  501    0  0.00000000000E+00  0.00000000000E+00  0.13599687923E+04  0.13599687923E+04  0.50400000000E-02 0. -1.
         -1   -1    0    0    0  501 -0.00000000000E+00 -0.00000000000E+00 -0.42425489444E+03  0.42425489447E+03  0.50400000000E-02 0.  1.
    8880023    1    1    2    0    0  0.34213661612E+03 -0.13274093286E+03 -0.14570290043E+02  0.75412208492E+03  0.65864270000E+03 0.  0.
    8880022    1    1    2    0    0 -0.34213661612E+03  0.13274093286E+03  0.95028418786E+03  0.10301016018E+04  0.15294330000E+03 0.  0.
<mgrwt>
<rscale>  0 0.64250479E+03</rscale>
<asrwt>0</asrwt>
<pdfrwt beam="1">  1        1 0.20922597E+00 0.75398132E+03</pdfrwt>
<pdfrwt beam="2">  1       -1 0.65269983E-01 0.75398132E+03</pdfrwt>
<totfact> 0.20142157E+01</totfact>
</mgrwt>
</event>
<event>
 4    2  0.3396630E-007  0.9516502E+03  0.7818608E-02  0.9447744E-01
         -1   -1    0    0    0  501 -0.00000000000E+00  0.00000000000E+00  0.13703902122E+04  0.13703902122E+04  0.50400000000E-02 0.  1.
          1   -1    0    0  501    0  0.00000000000E+00 -0.00000000000E+00 -0.18894530398E+04  0.18894530398E+04  0.50400000000E-02 0. -1.
    8880023    1    1    2    0    0  0.57452625395E+03  0.37649359686E+03  0.11238006666E+04  0.14726051709E+04  0.65864270000E+03 0.  0.
    8880022    1    1    2    0    0 -0.57452625395E+03 -0.37649359686E+03 -0.16428634942E+04  0.17872380811E+04  0.15294330000E+03 0.  0.
<mgrwt>
<rscale>  0 0.88248578E+03</rscale>
<asrwt>0</asrwt>
<pdfrwt beam="1">  1        1 0.29068509E+00 0.95165017E+03</pdfrwt>
<pdfrwt beam="2">  1       -1 0.21082926E+00 0.95165017E+03</pdfrwt>
<totfact> 0.45879226E-01</totfact>
</mgrwt>
</event>
<event>
 4    2  0.3396630E-007  0.7086098E+03  0.7818608E-02  0.9963200E-01
          1   -1    0    0  501    0  0.00000000000E+00  0.00000000000E+00  0.41732388991E+03  0.41732388994E+03  0.50400000000E-02 0. -1.
         -1   -1    0    0    0  501 -0.00000000000E+00 -0.00000000000E+00 -0.62820451041E+03  0.62820451043E+03  0.50400000000E-02 0.  1.
    8880023    1    1    2    0    0  0.26133679324E+03  0.45496621341E+01 -0.71659094350E+02  0.71222387702E+03  0.65864270000E+03 0.  0.
    8880022    1    1    2    0    0 -0.26133679324E+03 -0.45496621341E+01 -0.13922152615E+03  0.33330452335E+03  0.15294330000E+03 0.  0.
<mgrwt>
<rscale>  0 0.57293719E+03</rscale>
<asrwt>0</asrwt>
<pdfrwt beam="1">  1        1 0.64203675E-01 0.70860978E+03</pdfrwt>
<pdfrwt beam="2">  1       -1 0.96646848E-01 0.70860978E+03</pdfrwt>
<totfact> 0.59755249E+01</totfact>
</mgrwt>
</event>
<event>
 4    2  0.3396630E-007  0.9812998E+03  0.7818608E-02  0.9406443E-01
          1   -1    0    0  501    0  0.00000000000E+00  0.00000000000E+00  0.18118697063E+04  0.18118697063E+04  0.50400000000E-02 0. -1.
         -1   -1    0    0    0  501 -0.00000000000E+00 -0.00000000000E+00 -0.76797296639E+03  0.76797296640E+03  0.50400000000E-02 0.  1.
    8880023    1    1    2    0    0  0.55429125641E+03  0.47106289878E+03 -0.31526322756E+03  0.10306988699E+04  0.65864270000E+03 0.  1.
    8880022    1    1    2    0    0 -0.55429125641E+03 -0.47106289878E+03  0.13591599675E+04  0.15491438028E+04  0.15294330000E+03 0.  0.
<mgrwt>
<rscale>  0 0.91547361E+03</rscale>
<asrwt>0</asrwt>
<pdfrwt beam="1">  1        1 0.27874918E+00 0.98129978E+03</pdfrwt>
<pdfrwt beam="2">  1       -1 0.11814969E+00 0.98129978E+03</pdfrwt>
<totfact> 0.26006146E+00</totfact>
</mgrwt>
</event>
<event>
 4    2  0.3396630E-007  0.7743110E+03  0.7818608E-02  0.9769374E-01
         -1   -1    0    0    0  501 -0.00000000000E+00  0.00000000000E+00  0.54645661382E+03  0.54645661384E+03  0.50400000000E-02 0.  1.
          1   -1    0    0  501    0  0.00000000000E+00 -0.00000000000E+00 -0.11386464003E+04  0.11386464003E+04  0.50400000000E-02 0. -1.
    8880023    1    1    2    0    0  0.29167617023E+03 -0.28402862235E+03 -0.87339439541E+03  0.11672083031E+04  0.65864270000E+03 0.  0.
    8880022    1    1    2    0    0 -0.29167617023E+03  0.28402862235E+03  0.28120460897E+03  0.51789471103E+03  0.15294330000E+03 0.  0.
<mgrwt>
<rscale>  0 0.67032306E+03</rscale>
<asrwt>0</asrwt>
<pdfrwt beam="1">  1        1 0.17517637E+00 0.77431095E+03</pdfrwt>
<pdfrwt beam="2">  1       -1 0.84070248E-01 0.77431095E+03</pdfrwt>
<totfact> 0.17098191E+01</totfact>
</mgrwt>
</event>
<event>
 4    2  0.3396630E-007  0.7739533E+03  0.7818608E-02  0.9770237E-01
          1   -1    0    0  501    0  0.00000000000E+00  0.00000000000E+00  0.33950364285E+04  0.33950364285E+04  0.50400000000E-02 0. -1.
         -1   -1    0    0    0  501 -0.00000000000E+00 -0.00000000000E+00 -0.26508941224E+03  0.26508941229E+03  0.50400000000E-02 0.  1.
    8880023    1    1    2    0    0 -0.93460196501E+02  0.39554858189E+03  0.35514319099E+03  0.85154587741E+03  0.65864270000E+03 0.  0.
    8880022    1    1    2    0    0  0.93460196501E+02 -0.39554858189E+03  0.27748038253E+04  0.28085799634E+04  0.15294330000E+03 0.  0.
<mgrwt>
<rscale>  0 0.66984527E+03</rscale>
<asrwt>0</asrwt>
<pdfrwt beam="1">  1        1 0.52231327E+00 0.77395329E+03</pdfrwt>
<pdfrwt beam="2">  1       -1 0.40782989E-01 0.77395329E+03</pdfrwt>
<totfact> 0.19135933E+00</totfact>
</mgrwt>
</event>
<event>
 4    2  0.3396630E-007  0.7804913E+03  0.7818608E-02  0.9754684E-01
         -1   -1    0    0    0  501 -0.00000000000E+00  0.00000000000E+00  0.38869726528E+03  0.38869726531E+03  0.50400000000E-02 0.  1.
          1   -1    0    0  501    0  0.00000000000E+00 -0.00000000000E+00 -0.14163044910E+04  0.14163044910E+04  0.50400000000E-02 0. -1.
    8880023    1    1    2    0    0 -0.40897851392E+03 -0.89960939786E+02 -0.11446005982E+03  0.78883946852E+03  0.65864270000E+03 0.  1.
    8880022    1    1    2    0    0  0.40897851392E+03  0.89960939786E+02 -0.91314716595E+03  0.10161622878E+04  0.15294330000E+03 0.  0.
<mgrwt>
<rscale>  0 0.67852193E+03</rscale>
<asrwt>0</asrwt>
<pdfrwt beam="1">  1        1 0.21789300E+00 0.78049126E+03</pdfrwt>
<pdfrwt beam="2">  1       -1 0.59799580E-01 0.78049126E+03</pdfrwt>
<totfact> 0.21833612E+01</totfact>
</mgrwt>
</event>
<event>
 4    2  0.3396630E-007  0.7507513E+03  0.7818608E-02  0.9829668E-01
         -1   -1    0    0    0  501 -0.00000000000E+00  0.00000000000E+00  0.12804667260E+03  0.12804667270E+03  0.50400000000E-02 0.  1.
          1   -1    0    0  501    0  0.00000000000E+00 -0.00000000000E+00 -0.35628365593E+04  0.35628365593E+04  0.50400000000E-02 0. -1.
    8880023    1    1    2    0    0 -0.34406655035E+03  0.10693706245E+03 -0.11537592600E+04  0.13765129722E+04  0.65864270000E+03 0.  1.
    8880022    1    1    2    0    0  0.34406655035E+03 -0.10693706245E+03 -0.22810306267E+04  0.23143702598E+04  0.15294330000E+03 0.  0.
<mgrwt>
<rscale>  0 0.63794407E+03</rscale>
<asrwt>0</asrwt>
<pdfrwt beam="1">  1        1 0.54812862E+00 0.75075131E+03</pdfrwt>
<pdfrwt beam="2">  1       -1 0.19699491E-01 0.75075131E+03</pdfrwt>
<totfact> 0.50470773E+00</totfact>
</mgrwt>
</event>
<event>
 4    2  0.3396630E-007  0.7397545E+03  0.7818608E-02  0.9860663E-01
          1   -1    0    0  501    0  0.00000000000E+00  0.00000000000E+00  0.58184298221E+03  0.58184298223E+03  0.50400000000E-02 0. -1.
         -1   -1    0    0    0  501 -0.00000000000E+00 -0.00000000000E+00 -0.10202282114E+04  0.10202282114E+04  0.50400000000E-02 0.  1.
    8880023    1    1    2    0    0 -0.15554674175E+03  0.29871678605E+03 -0.79663330147E+03  0.10871344583E+04  0.65864270000E+03 0.  0.
    8880022    1    1    2    0    0  0.15554674175E+03 -0.29871678605E+03  0.35824807226E+03  0.51493673537E+03  0.15294330000E+03 0.  0.
<mgrwt>
<rscale>  0 0.62206201E+03</rscale>
<asrwt>0</asrwt>
<pdfrwt beam="1">  1        1 0.89514305E-01 0.73975450E+03</pdfrwt>
<pdfrwt beam="2">  1       -1 0.15695819E+00 0.73975450E+03</pdfrwt>
<totfact> 0.11377947E+01</totfact>
</mgrwt>
</event>
<event>
 4    2  0.3396630E-007  0.6839265E+03  0.7818608E-02  0.1007184E+00
          1   -1    0    0  501    0  0.00000000000E+00  0.00000000000E+00  0.63191477982E+03  0.63191477984E+03  0.50400000000E-02 0. -1.
         -1   -1    0    0    0  501 -0.00000000000E+00 -0.00000000000E+00 -0.51506968490E+03  0.51506968492E+03  0.50400000000E-02 0.  1.
    8880023    1    1    2    0    0  0.18340352829E+03  0.17561810191E+02 -0.23344768948E+03  0.72267094957E+03  0.65864270000E+03 0.  1.
    8880022    1    1    2    0    0 -0.18340352829E+03 -0.17561810191E+02  0.35029278440E+03  0.42431351520E+03  0.15294330000E+03 0.  0.
<mgrwt>
<rscale>  0 0.52609161E+03</rscale>
<asrwt>0</asrwt>
<pdfrwt beam="1">  1        1 0.97217658E-01 0.68392651E+03</pdfrwt>
<pdfrwt beam="2">  1       -1 0.79241490E-01 0.68392651E+03</pdfrwt>
<totfact> 0.51962705E+01</totfact>
</mgrwt>
</event>
<event>
 4    2  0.3396630E-007  0.7146214E+03  0.7818608E-02  0.9941224E-01
         -1   -1    0    0    0  501 -0.00000000000E+00  0.00000000000E+00  0.84653103486E+03  0.84653103488E+03  0.50400000000E-02 0.  1.
          1   -1    0    0  501    0  0.00000000000E+00 -0.00000000000E+00 -0.62810824785E+03  0.62810824787E+03  0.50400000000E-02 0. -1.
    8880023    1    1    2    0    0 -0.26331978356E+02  0.27600756052E+03  0.63184075693E+03  0.95389019018E+03  0.65864270000E+03 0.  1.
    8880022    1    1    2    0    0  0.26331978356E+02 -0.27600756052E+03 -0.41341796991E+03  0.52074909257E+03  0.15294330000E+03 0.  0.
<mgrwt>
<rscale>  0 0.58304328E+03</rscale>
<asrwt>0</asrwt>
<pdfrwt beam="1">  1        1 0.96632038E-01 0.71462141E+03</pdfrwt>
<pdfrwt beam="2">  1       -1 0.13023554E+00 0.71462141E+03</pdfrwt>
<totfact> 0.16687336E+01</totfact>
</mgrwt>
</event>
<event>
 4    2  0.3396630E-007  0.6594177E+03  0.7818608E-02  0.1024761E+00
         -1   -1    0    0    0  501 -0.00000000000E+00  0.00000000000E+00  0.58836634615E+03  0.58836634618E+03  0.50400000000E-02 0.  1.
          1   -1    0    0  501    0  0.00000000000E+00 -0.00000000000E+00 -0.74292193462E+03  0.74292193463E+03  0.50400000000E-02 0. -1.
    8880023    1    1    2    0    0 -0.25384071169E+02  0.19421235815E+02  0.38907847701E+03  0.76564600372E+03  0.65864270000E+03 0.  1.
    8880022    1    1    2    0    0  0.25384071169E+02 -0.19421235815E+02 -0.54363406548E+03  0.56564227709E+03  0.15294330000E+03 0.  0.
<mgrwt>
<rscale>  0 0.46006959E+03</rscale>
<asrwt>0</asrwt>
<pdfrwt beam="1">  1        1 0.11429568E+00 0.65941773E+03</pdfrwt>
<pdfrwt beam="2">  1       -1 0.90517900E-01 0.65941773E+03</pdfrwt>
<totfact> 0.30697820E+01</totfact>
</mgrwt>
</event>
<event>
 4    2  0.3396630E-007  0.7018120E+03  0.7818608E-02  0.9989766E-01
         -1   -1    0    0    0  501 -0.00000000000E+00  0.00000000000E+00  0.17445641435E+03  0.17445641442E+03  0.50400000000E-02 0.  1.
          1   -1    0    0  501    0  0.00000000000E+00 -0.00000000000E+00 -0.27601725036E+04  0.27601725037E+04  0.50400000000E-02 0. -1.
    8880023    1    1    2    0    0 -0.11207293582E+03 -0.21487092827E+03 -0.58546011007E+03  0.91394945457E+03  0.65864270000E+03 0.  1.
    8880022    1    1    2    0    0  0.11207293582E+03  0.21487092827E+03 -0.20002559792E+04  0.20206794635E+04  0.15294330000E+03 0.  0.
<mgrwt>
<rscale>  0 0.56101271E+03</rscale>
<asrwt>0</asrwt>
<pdfrwt beam="1">  1        1 0.42464189E+00 0.70181199E+03</pdfrwt>
<pdfrwt beam="2">  1       -1 0.26839450E-01 0.70181199E+03</pdfrwt>
<totfact> 0.11739397E+01</totfact>
</mgrwt>
</event>
<event>
 4    2  0.3396630E-007  0.8877055E+03  0.7818608E-02  0.9546064E-01
          1   -1    0    0  501    0  0.00000000000E+00  0.00000000000E+00  0.15712377247E+04  0.15712377247E+04  0.50400000000E-02 0. -1.
         -1   -1    0    0    0  501 -0.00000000000E+00 -0.00000000000E+00 -0.38022724611E+03  0.38022724615E+03  0.50400000000E-02 0.  1.
    8880023    1    1    2    0    0  0.57483581702E+03  0.15419017940E+03  0.47112332299E+03  0.10049767259E+04  0.65864270000E+03 0.  0.
    8880022    1    1    2    0    0 -0.57483581702E+03 -0.15419017940E+03  0.71988715563E+03  0.94648824494E+03  0.15294330000E+03 0.  0.
<mgrwt>
<rscale>  0 0.80971285E+03</rscale>
<asrwt>0</asrwt>
<pdfrwt beam="1">  1        1 0.24172888E+00 0.88770549E+03</pdfrwt>
<pdfrwt beam="2">  1       -1 0.58496498E-01 0.88770549E+03</pdfrwt>
<totfact> 0.17616505E+01</totfact>
</mgrwt>
</event>
<event>
 4    2  0.3396630E-007  0.7030177E+03  0.7818608E-02  0.9984905E-01
         -1   -1    0    0    0  501 -0.00000000000E+00  0.00000000000E+00  0.42926737024E+03  0.42926737027E+03  0.50400000000E-02 0.  1.
          1   -1    0    0  501    0  0.00000000000E+00 -0.00000000000E+00 -0.17886230625E+04  0.17886230625E+04  0.50400000000E-02 0. -1.
    8880023    1    1    2    0    0 -0.24579536456E+03 -0.28894521325E+01  0.11763660370E+03  0.71279189597E+03  0.65864270000E+03 0.  0.
    8880022    1    1    2    0    0  0.24579536456E+03  0.28894521325E+01 -0.14769922959E+04  0.15050985368E+04  0.15294330000E+03 0.  0.
<mgrwt>
<rscale>  0 0.56317084E+03</rscale>
<asrwt>0</asrwt>
<pdfrwt beam="1">  1        1 0.27517277E+00 0.70301772E+03</pdfrwt>
<pdfrwt beam="2">  1       -1 0.66041135E-01 0.70301772E+03</pdfrwt>
<totfact> 0.10123359E+01</totfact>
</mgrwt>
</event>
<event>
 4    2  0.3396630E-007  0.7000396E+03  0.7818608E-02  0.9997037E-01
         -1   -1    0    0    0  501 -0.00000000000E+00  0.00000000000E+00  0.44632920012E+03  0.44632920015E+03  0.50400000000E-02 0.  1.
          1   -1    0    0  501    0  0.00000000000E+00 -0.00000000000E+00 -0.62362422548E+03  0.62362422550E+03  0.50400000000E-02 0. -1.
    8880023    1    1    2    0    0 -0.33090375137E+02  0.23484097010E+03  0.58125625457E+02  0.70244860934E+03  0.65864270000E+03 0.  1.
    8880022    1    1    2    0    0  0.33090375137E+02 -0.23484097010E+03 -0.23542065082E+03  0.36750481631E+03  0.15294330000E+03 0.  0.
<mgrwt>
<rscale>  0 0.55780353E+03</rscale>
<asrwt>0</asrwt>
<pdfrwt beam="1">  1        1 0.95942190E-01 0.70003961E+03</pdfrwt>
<pdfrwt beam="2">  1       -1 0.68666030E-01 0.70003961E+03</pdfrwt>
<totfact> 0.71174828E+01</totfact>
</mgrwt>
</event>
<event>
 4    2  0.3396630E-007  0.1122168E+04  0.7818608E-02  0.9236767E-01
         -1   -1    0    0    0  501 -0.00000000000E+00  0.00000000000E+00  0.16375034307E+04  0.16375034307E+04  0.50400000000E-02 0.  1.
          1   -1    0    0  501    0  0.00000000000E+00 -0.00000000000E+00 -0.12683781959E+04  0.12683781959E+04  0.50400000000E-02 0. -1.
    8880023    1    1    2    0    0  0.46681271846E+03  0.77944697280E+03  0.12158589125E+04  0.16545618148E+04  0.65864270000E+03 0.  0.
    8880022    1    1    2    0    0 -0.46681271846E+03 -0.77944697280E+03 -0.84673367767E+03  0.12513198118E+04  0.15294330000E+03 0.  0.
<mgrwt>
<rscale>  0 0.10681862E+04</rscale>
<asrwt>0</asrwt>
<pdfrwt beam="1">  1        1 0.19513511E+00 0.11221684E+04</pdfrwt>
<pdfrwt beam="2">  1       -1 0.25192360E+00 0.11221684E+04</pdfrwt>
<totfact> 0.64010394E-01</totfact>
</mgrwt>
</event>
<event>
 4    2  0.3396630E-007  0.8276092E+03  0.7818608E-02  0.9654002E-01
          1   -1    0    0  501    0  0.00000000000E+00  0.00000000000E+00  0.14129639827E+04  0.14129639827E+04  0.50400000000E-02 0. -1.
         -1   -1    0    0    0  501 -0.00000000000E+00 -0.00000000000E+00 -0.90077443726E+03  0.90077443728E+03  0.50400000000E-02 0.  1.
    8880023    1    1    2    0    0 -0.42312210110E+03  0.26850412862E+03 -0.64119045625E+03  0.10469298864E+04  0.65864270000E+03 0.  1.
    8880022    1    1    2    0    0  0.42312210110E+03 -0.26850412862E+03  0.11533800017E+04  0.12668085336E+04  0.15294330000E+03 0.  0.
<mgrwt>
<rscale>  0 0.73822784E+03</rscale>
<asrwt>0</asrwt>
<pdfrwt beam="1">  1        1 0.21737907E+00 0.82760920E+03</pdfrwt>
<pdfrwt beam="2">  1       -1 0.13858068E+00 0.82760920E+03</pdfrwt>
<totfact> 0.33344741E+00</totfact>
</mgrwt>
</event>
<event>
 4    2  0.3396630E-007  0.6903461E+03  0.7818608E-02  0.1003989E+00
         -1   -1    0    0    0  501 -0.00000000000E+00  0.00000000000E+00  0.18879618849E+03  0.18879618855E+03  0.50400000000E-02 0.  1.
          1   -1    0    0  501    0  0.00000000000E+00 -0.00000000000E+00 -0.12433731336E+04  0.12433731336E+04  0.50400000000E-02 0. -1.
    8880023    1    1    2    0    0  0.20678107861E+03  0.30251435223E+01 -0.62373607006E+03  0.93038941165E+03  0.65864270000E+03 0.  1.
    8880022    1    1    2    0    0 -0.20678107861E+03 -0.30251435223E+01 -0.43084087510E+03  0.50177991055E+03  0.15294330000E+03 0.  0.
<mgrwt>
<rscale>  0 0.53935408E+03</rscale>
<asrwt>0</asrwt>
<pdfrwt beam="1">  1        1 0.19128817E+00 0.69034612E+03</pdfrwt>
<pdfrwt beam="2">  1       -1 0.29045568E-01 0.69034612E+03</pdfrwt>
<totfact> 0.10997640E+02</totfact>
</mgrwt>
</event>
<event>
 4    2  0.3396630E-007  0.6696725E+03  0.7818608E-02  0.1015899E+00
         -1   -1    0    0    0  501 -0.00000000000E+00  0.00000000000E+00  0.10290771859E+04  0.10290771859E+04  0.50400000000E-02 0.  1.
          1   -1    0    0  501    0  0.00000000000E+00 -0.00000000000E+00 -0.77018795017E+03  0.77018795019E+03  0.50400000000E-02 0. -1.
    8880023    1    1    2    0    0 -0.12091497927E+03  0.55302346282E+01  0.90416496602E+03  0.11251557704E+04  0.65864270000E+03 0.  1.
    8880022    1    1    2    0    0  0.12091497927E+03 -0.55302346282E+01 -0.64527573031E+03  0.67410936564E+03  0.15294330000E+03 0.  0.
<mgrwt>
<rscale>  0 0.49196104E+03</rscale>
<asrwt>0</asrwt>
<pdfrwt beam="1">  1        1 0.11849045E+00 0.66967247E+03</pdfrwt>
<pdfrwt beam="2">  1       -1 0.15831957E+00 0.66967247E+03</pdfrwt>
<totfact> 0.73909966E+00</totfact>
</mgrwt>
</event>
<event>
 4    2  0.3396630E-007  0.8140629E+03  0.7818608E-02  0.9681175E-01
          1   -1    0    0  501    0  0.00000000000E+00  0.00000000000E+00  0.31044989078E+04  0.31044989078E+04  0.50400000000E-02 0. -1.
         -1   -1    0    0    0  501 -0.00000000000E+00 -0.00000000000E+00 -0.33406596500E+03  0.33406596504E+03  0.50400000000E-02 0.  1.
    8880023    1    1    2    0    0 -0.32353150848E+03 -0.35244238280E+03  0.22574910638E+03  0.84478466811E+03  0.65864270000E+03 0.  0.
    8880022    1    1    2    0    0  0.32353150848E+03  0.35244238280E+03  0.25446838364E+04  0.25937802047E+04  0.15294330000E+03 0.  0.
<mgrwt>
<rscale>  0 0.72148752E+03</rscale>
<asrwt>0</asrwt>
<pdfrwt beam="1">  1        1 0.47761523E+00 0.81406294E+03</pdfrwt>
<pdfrwt beam="2">  1       -1 0.51394762E-01 0.81406294E+03</pdfrwt>
<totfact> 0.20277285E+00</totfact>
</mgrwt>
</event>
<event>
 4    2  0.3396630E-007  0.8476426E+03  0.7818608E-02  0.9615934E-01
         -1   -1    0    0    0  501 -0.00000000000E+00  0.00000000000E+00  0.73822450236E+03  0.73822450238E+03  0.50400000000E-02 0.  1.
          1   -1    0    0  501    0  0.00000000000E+00 -0.00000000000E+00 -0.72555281978E+03  0.72555281980E+03  0.50400000000E-02 0. -1.
    8880023    1    1    2    0    0 -0.40132628552E+02  0.53204992017E+03  0.21246537764E+03  0.87386468540E+03  0.65864270000E+03 0.  0.
    8880022    1    1    2    0    0  0.40132628552E+02 -0.53204992017E+03 -0.19979369506E+03  0.58991263678E+03  0.15294330000E+03 0.  0.
<mgrwt>
<rscale>  0 0.76250449E+03</rscale>
<asrwt>0</asrwt>
<pdfrwt beam="1">  1        1 0.11162351E+00 0.84764258E+03</pdfrwt>
<pdfrwt beam="2">  1       -1 0.11357300E+00 0.84764258E+03</pdfrwt>
<totfact> 0.18541147E+01</totfact>
</mgrwt>
</event>
<event>
 4    2  0.3396630E-007  0.6852168E+03  0.7818608E-02  0.1006514E+00
         -1   -1    0    0    0  501 -0.00000000000E+00  0.00000000000E+00  0.53758746032E+03  0.53758746035E+03  0.50400000000E-02 0.  1.
          1   -1    0    0  501    0  0.00000000000E+00 -0.00000000000E+00 -0.24470883330E+04  0.24470883330E+04  0.50400000000E-02 0. -1.
    8880023    1    1    2    0    0  0.17771739654E+03 -0.64252626364E+02  0.30987307049E+03  0.75202619576E+03  0.65864270000E+03 0.  1.
    8880022    1    1    2    0    0 -0.17771739654E+03  0.64252626364E+02 -0.22193739432E+04  0.22326495976E+04  0.15294330000E+03 0.  0.
<mgrwt>
<rscale>  0 0.52883803E+03</rscale>
<asrwt>0</asrwt>
<pdfrwt beam="1">  1        1 0.37647512E+00 0.68521681E+03</pdfrwt>
<pdfrwt beam="2">  1       -1 0.82705765E-01 0.68521681E+03</pdfrwt>
<totfact> 0.23057749E+00</totfact>
</mgrwt>
</event>
<event>
 4    2  0.3396630E-007  0.1907957E+04  0.7818608E-02  0.8665058E-01
         -1   -1    0    0    0  501 -0.00000000000E+00  0.00000000000E+00  0.83696881215E+03  0.83696881216E+03  0.50400000000E-02 0.  1.
          1   -1    0    0  501    0  0.00000000000E+00 -0.00000000000E+00 -0.44114285155E+04  0.44114285156E+04  0.50400000000E-02 0. -1.
    8880023    1    1    2    0    0 -0.12701437882E+04 -0.12622296168E+04 -0.11405412041E+04  0.22228660087E+04  0.65864270000E+03 0.  0.
    8880022    1    1    2    0    0  0.12701437882E+04  0.12622296168E+04 -0.24339184994E+04  0.30255313191E+04  0.15294330000E+03 0.  0.
<mgrwt>
<rscale>  0 0.18796401E+04</rscale>
<asrwt>0</asrwt>
<pdfrwt beam="1">  1        1 0.67868129E+00 0.19079568E+04</pdfrwt>
<pdfrwt beam="2">  1       -1 0.12876444E+00 0.19079568E+04</pdfrwt>
<totfact> 0.18930379E-02</totfact>
</mgrwt>
</event>
<event>
 4    2  0.3396630E-007  0.6779072E+03  0.7818608E-02  0.1010533E+00
         -1   -1    0    0    0  501 -0.00000000000E+00  0.00000000000E+00  0.76058326250E+03  0.76058326252E+03  0.50400000000E-02 0.  1.
          1   -1    0    0  501    0  0.00000000000E+00 -0.00000000000E+00 -0.39366676477E+03  0.39366676480E+03  0.50400000000E-02 0. -1.
    8880023    1    1    2    0    0 -0.14263971979E+03 -0.73497227852E+02  0.54506781612E+03  0.86986036960E+03  0.65864270000E+03 0.  1.
    8880022    1    1    2    0    0  0.14263971979E+03  0.73497227852E+02 -0.17815131838E+03  0.28438965772E+03  0.15294330000E+03 0.  0.
<mgrwt>
<rscale>  0 0.51263306E+03</rscale>
<asrwt>0</asrwt>
<pdfrwt beam="1">  1        1 0.60564118E-01 0.67790718E+03</pdfrwt>
<pdfrwt beam="2">  1       -1 0.11701281E+00 0.67790718E+03</pdfrwt>
<totfact> 0.41488940E+01</totfact>
</mgrwt>
</event>
<event>
 4    2  0.3396630E-007  0.1385308E+04  0.7818608E-02  0.8995184E-01
          1   -1    0    0  501    0  0.00000000000E+00  0.00000000000E+00  0.18702184305E+04  0.18702184305E+04  0.50400000000E-02 0. -1.
         -1   -1    0    0    0  501 -0.00000000000E+00 -0.00000000000E+00 -0.13907275623E+04  0.13907275624E+04  0.50400000000E-02 0.  1.
    8880023    1    1    2    0    0 -0.11856708858E+04 -0.28187149792E+03 -0.70517479404E+03  0.15544608992E+04  0.65864270000E+03 0.  0.
    8880022    1    1    2    0    0  0.11856708858E+04  0.28187149792E+03  0.11846656622E+04  0.17064850936E+04  0.15294330000E+03 0.  0.
<mgrwt>
<rscale>  0 0.13442608E+04</rscale>
<asrwt>0</asrwt>
<pdfrwt beam="1">  1        1 0.28772591E+00 0.13853076E+04</pdfrwt>
<pdfrwt beam="2">  1       -1 0.21395809E+00 0.13853076E+04</pdfrwt>
<totfact> 0.42248078E-01</totfact>
</mgrwt>
</event>
<event>
 4    2  0.3396630E-007  0.8826442E+03  0.7818608E-02  0.9554488E-01
          1   -1    0    0  501    0  0.00000000000E+00  0.00000000000E+00  0.15643626279E+04  0.15643626279E+04  0.50400000000E-02 0. -1.
         -1   -1    0    0    0  501 -0.00000000000E+00 -0.00000000000E+00 -0.12861907641E+04  0.12861907641E+04  0.50400000000E-02 0.  1.
    8880023    1    1    2    0    0 -0.13568306824E+03 -0.57169984198E+03 -0.10610196219E+04  0.13801534149E+04  0.65864270000E+03 0.  1.
    8880022    1    1    2    0    0  0.13568306824E+03  0.57169984198E+03  0.13391914857E+04  0.14703999771E+04  0.15294330000E+03 0.  0.
<mgrwt>
<rscale>  0 0.80383127E+03</rscale>
<asrwt>0</asrwt>
<pdfrwt beam="1">  1        1 0.24067117E+00 0.88264422E+03</pdfrwt>
<pdfrwt beam="2">  1       -1 0.19787550E+00 0.88264422E+03</pdfrwt>
<totfact> 0.94432708E-01</totfact>
</mgrwt>
</event>
<event>
 4    2  0.3396630E-007  0.6678721E+03  0.7818608E-02  0.1017236E+00
          1   -1    0    0  501    0  0.00000000000E+00  0.00000000000E+00  0.15827332806E+04  0.15827332806E+04  0.50400000000E-02 0. -1.
         -1   -1    0    0    0  501 -0.00000000000E+00 -0.00000000000E+00 -0.44739588507E+03  0.44739588509E+03  0.50400000000E-02 0.  1.
    8880023    1    1    2    0    0  0.96371941253E+02  0.54363275156E+02 -0.18765717291E+03  0.69373506294E+03  0.65864270000E+03 0.  1.
    8880022    1    1    2    0    0 -0.96371941253E+02 -0.54363275156E+02  0.13229945684E+04  0.13363941027E+04  0.15294330000E+03 0.  0.
<mgrwt>
<rscale>  0 0.48697191E+03</rscale>
<asrwt>0</asrwt>
<pdfrwt beam="1">  1        1 0.24349743E+00 0.66787209E+03</pdfrwt>
<pdfrwt beam="2">  1       -1 0.68830135E-01 0.66787209E+03</pdfrwt>
<totfact> 0.12879999E+01</totfact>
</mgrwt>
</event>
<event>
 4    2  0.3396630E-007  0.8077517E+03  0.7818608E-02  0.9694279E-01
          1   -1    0    0  501    0  0.00000000000E+00  0.00000000000E+00  0.72153870904E+03  0.72153870906E+03  0.50400000000E-02 0. -1.
         -1   -1    0    0    0  501 -0.00000000000E+00 -0.00000000000E+00 -0.92257216775E+03  0.92257216776E+03  0.50400000000E-02 0.  1.
    8880023    1    1    2    0    0 -0.17902032628E+03  0.43197714454E+03 -0.60364565705E+03  0.10083902103E+04  0.65864270000E+03 0.  1.
    8880022    1    1    2    0    0  0.17902032628E+03 -0.43197714454E+03  0.40261219834E+03  0.63572066656E+03  0.15294330000E+03 0.  0.
<mgrwt>
<rscale>  0 0.71358420E+03</rscale>
<asrwt>0</asrwt>
<pdfrwt beam="1">  1        1 0.11100596E+00 0.80775166E+03</pdfrwt>
<pdfrwt beam="2">  1       -1 0.14193418E+00 0.80775166E+03</pdfrwt>
<totfact> 0.10757585E+01</totfact>
</mgrwt>
</event>
<event>
 4    2  0.3396630E-007  0.6898761E+03  0.7818608E-02  0.1004212E+00
         -1   -1    0    0    0  501 -0.00000000000E+00  0.00000000000E+00  0.30491417642E+03  0.30491417646E+03  0.50400000000E-02 0.  1.
          1   -1    0    0  501    0  0.00000000000E+00 -0.00000000000E+00 -0.83589764874E+03  0.83589764876E+03  0.50400000000E-02 0. -1.
    8880023    1    1    2    0    0 -0.11283627748E+03  0.17142592346E+03 -0.19208120377E+03  0.71611749584E+03  0.65864270000E+03 0.  1.
    8880022    1    1    2    0    0  0.11283627748E+03 -0.17142592346E+03 -0.33890226856E+03  0.42469432937E+03  0.15294330000E+03 0.  0.
<mgrwt>
<rscale>  0 0.53841509E+03</rscale>
<asrwt>0</asrwt>
<pdfrwt beam="1">  1        1 0.12859964E+00 0.68987613E+03</pdfrwt>
<pdfrwt beam="2">  1       -1 0.46909874E-01 0.68987613E+03</pdfrwt>
<totfact> 0.95491209E+01</totfact>
</mgrwt>
</event>
<event>
 4    2  0.3396630E-007  0.8762760E+03  0.7818608E-02  0.9565243E-01
         -1   -1    0    0    0  501 -0.00000000000E+00  0.00000000000E+00  0.63615438551E+03  0.63615438553E+03  0.50400000000E-02 0.  1.
          1   -1    0    0  501    0  0.00000000000E+00 -0.00000000000E+00 -0.90605595164E+03  0.90605595165E+03  0.50400000000E-02 0. -1.
    8880023    1    1    2    0    0 -0.41145396505E+03 -0.40590029795E+03  0.22732837784E+02  0.87657082168E+03  0.65864270000E+03 0.  0.
    8880022    1    1    2    0    0  0.41145396505E+03  0.40590029795E+03 -0.29263440391E+03  0.66563951551E+03  0.15294330000E+03 0.  0.
<mgrwt>
<rscale>  0 0.79639999E+03</rscale>
<asrwt>0</asrwt>
<pdfrwt beam="1">  1        1 0.13939322E+00 0.87627600E+03</pdfrwt>
<pdfrwt beam="2">  1       -1 0.97869905E-01 0.87627600E+03</pdfrwt>
<totfact> 0.18268656E+01</totfact>
</mgrwt>
</event>
<event>
 4    2  0.3396630E-007  0.8863925E+03  0.7818608E-02  0.9548239E-01
          1   -1    0    0  501    0  0.00000000000E+00  0.00000000000E+00  0.71903221175E+03  0.71903221177E+03  0.50400000000E-02 0. -1.
         -1   -1    0    0    0  501 -0.00000000000E+00 -0.00000000000E+00 -0.20375864335E+04  0.20375864335E+04  0.50400000000E-02 0.  1.
    8880023    1    1    2    0    0  0.39209678516E+03 -0.44513103020E+03 -0.17807903795E+04  0.19891973519E+04  0.65864270000E+03 0.  0.
    8880022    1    1    2    0    0 -0.39209678516E+03  0.44513103020E+03  0.46223615772E+03  0.76742129336E+03  0.15294330000E+03 0.  0.
<mgrwt>
<rscale>  0 0.80818914E+03</rscale>
<asrwt>0</asrwt>
<pdfrwt beam="1">  1        1 0.11062034E+00 0.88639254E+03</pdfrwt>
<pdfrwt beam="2">  1       -1 0.31347483E+00 0.88639254E+03</pdfrwt>
<totfact> 0.72980361E-01</totfact>
</mgrwt>
</event>
<event>
 4    2  0.3396630E-007  0.7250499E+03  0.7818608E-02  0.9905855E-01
         -1   -1    0    0    0  501 -0.00000000000E+00  0.00000000000E+00  0.57332153214E+03  0.57332153216E+03  0.50400000000E-02 0.  1.
          1   -1    0    0  501    0  0.00000000000E+00 -0.00000000000E+00 -0.72690674988E+03  0.72690674989E+03  0.50400000000E-02 0. -1.
    8880023    1    1    2    0    0  0.55275963274E+02 -0.29804656224E+03  0.25536242366E+03  0.76870498831E+03  0.65864270000E+03 0.  1.
    8880022    1    1    2    0    0 -0.55275963274E+02  0.29804656224E+03 -0.40894764139E+03  0.53152329374E+03  0.15294330000E+03 0.  0.
<mgrwt>
<rscale>  0 0.59978366E+03</rscale>
<asrwt>0</asrwt>
<pdfrwt beam="1">  1        1 0.11183181E+00 0.72504992E+03</pdfrwt>
<pdfrwt beam="2">  1       -1 0.88203312E-01 0.72504992E+03</pdfrwt>
<totfact> 0.33352460E+01</totfact>
</mgrwt>
</event>
<event>
 4    2  0.3396630E-007  0.7873418E+03  0.7818608E-02  0.9738865E-01
          1   -1    0    0  501    0  0.00000000000E+00  0.00000000000E+00  0.47962116443E+03  0.47962116446E+03  0.50400000000E-02 0. -1.
         -1   -1    0    0    0  501 -0.00000000000E+00 -0.00000000000E+00 -0.26683739610E+04  0.26683739610E+04  0.50400000000E-02 0.  1.
    8880023    1    1    2    0    0 -0.26399586787E+03 -0.34117893354E+03 -0.24823513010E+04  0.26042225463E+04  0.65864270000E+03 0.  1.
    8880022    1    1    2    0    0  0.26399586787E+03  0.34117893354E+03  0.29359850447E+03  0.54377257910E+03  0.15294330000E+03 0.  0.
<mgrwt>
<rscale>  0 0.68749178E+03</rscale>
<asrwt>0</asrwt>
<pdfrwt beam="1">  1        1 0.73787873E-01 0.78734179E+03</pdfrwt>
<pdfrwt beam="2">  1       -1 0.41051906E+00 0.78734179E+03</pdfrwt>
<totfact> 0.30323885E-01</totfact>
</mgrwt>
</event>
<event>
 4    2  0.3396630E-007  0.6929289E+03  0.7818608E-02  0.1002790E+00
         -1   -1    0    0    0  501 -0.00000000000E+00  0.00000000000E+00  0.42942233241E+03  0.42942233244E+03  0.50400000000E-02 0.  1.
          1   -1    0    0  501    0  0.00000000000E+00 -0.00000000000E+00 -0.10874135250E+04  0.10874135250E+04  0.50400000000E-02 0. -1.
    8880023    1    1    2    0    0  0.10845613339E+03  0.18595021291E+03  0.11281386002E+03  0.70205226859E+03  0.65864270000E+03 0.  1.
    8880022    1    1    2    0    0 -0.10845613339E+03 -0.18595021291E+03 -0.77080505257E+03  0.81478358884E+03  0.15294330000E+03 0.  0.
<mgrwt>
<rscale>  0 0.54443421E+03</rscale>
<asrwt>0</asrwt>
<pdfrwt beam="1">  1        1 0.16729439E+00 0.69292887E+03</pdfrwt>
<pdfrwt beam="2">  1       -1 0.66064974E-01 0.69292887E+03</pdfrwt>
<totfact> 0.31130729E+01</totfact>
</mgrwt>
</event>
<event>
 4    2  0.3396630E-007  0.6676296E+03  0.7818608E-02  0.1017422E+00
          1   -1    0    0  501    0  0.00000000000E+00  0.00000000000E+00  0.52866948231E+03  0.52866948234E+03  0.50400000000E-02 0. -1.
         -1   -1    0    0    0  501 -0.00000000000E+00 -0.00000000000E+00 -0.35455965751E+03  0.35455965755E+03  0.50400000000E-02 0.  1.
    8880023    1    1    2    0    0  0.60880029836E+02  0.90623661443E+02  0.19140077729E+03  0.69452393037E+03  0.65864270000E+03 0.  0.
    8880022    1    1    2    0    0 -0.60880029836E+02 -0.90623661443E+02 -0.17290952492E+02  0.18870520952E+03  0.15294330000E+03 0.  0.
<mgrwt>
<rscale>  0 0.48628394E+03</rscale>
<asrwt>0</asrwt>
<pdfrwt beam="1">  1        1 0.81333767E-01 0.66762956E+03</pdfrwt>
<pdfrwt beam="2">  1       -1 0.54547640E-01 0.66762956E+03</pdfrwt>
<totfact> 0.14216419E+02</totfact>
</mgrwt>
</event>
<event>
 4    2  0.3396630E-007  0.7366861E+03  0.7818608E-02  0.9869708E-01
         -1   -1    0    0    0  501 -0.00000000000E+00  0.00000000000E+00  0.37449789480E+03  0.37449789483E+03  0.50400000000E-02 0.  1.
          1   -1    0    0  501    0  0.00000000000E+00 -0.00000000000E+00 -0.14395377755E+04  0.14395377756E+04  0.50400000000E-02 0. -1.
    8880023    1    1    2    0    0 -0.32472526313E+03  0.58734068896E+02 -0.52962279895E+02  0.73858743336E+03  0.65864270000E+03 0.  1.
    8880022    1    1    2    0    0  0.32472526313E+03 -0.58734068896E+02 -0.10120776009E+04  0.10754482370E+04  0.15294330000E+03 0.  0.
<mgrwt>
<rscale>  0 0.61752116E+03</rscale>
<asrwt>0</asrwt>
<pdfrwt beam="1">  1        1 0.22146735E+00 0.73668609E+03</pdfrwt>
<pdfrwt beam="2">  1       -1 0.57615061E-01 0.73668609E+03</pdfrwt>
<totfact> 0.22758938E+01</totfact>
</mgrwt>
</event>
<event>
 4    2  0.3396630E-007  0.8726484E+03  0.7818608E-02  0.9571449E-01
          1   -1    0    0  501    0  0.00000000000E+00  0.00000000000E+00  0.28811649163E+04  0.28811649163E+04  0.50400000000E-02 0. -1.
         -1   -1    0    0    0  501 -0.00000000000E+00 -0.00000000000E+00 -0.22719140631E+03  0.22719140636E+03  0.50400000000E-02 0.  1.
    8880023    1    1    2    0    0 -0.54817796252E+03  0.16494229413E+03  0.88539325262E+03  0.12431558458E+04  0.65864270000E+03 0.  0.
    8880022    1    1    2    0    0  0.54817796252E+03 -0.16494229413E+03  0.17685802574E+04  0.18652004768E+04  0.15294330000E+03 0.  0.
<mgrwt>
<rscale>  0 0.79215071E+03</rscale>
<asrwt>0</asrwt>
<pdfrwt beam="1">  1        1 0.44325615E+00 0.87264841E+03</pdfrwt>
<pdfrwt beam="2">  1       -1 0.34952523E-01 0.87264841E+03</pdfrwt>
<totfact> 0.59114082E+00</totfact>
</mgrwt>
</event>
<event>
 4    2  0.3396630E-007  0.8528057E+03  0.7818608E-02  0.9606491E-01
         -1   -1    0    0    0  501 -0.00000000000E+00  0.00000000000E+00  0.13698863247E+04  0.13698863248E+04  0.50400000000E-02 0.  1.
          1   -1    0    0  501    0  0.00000000000E+00 -0.00000000000E+00 -0.97144190723E+03  0.97144190724E+03  0.50400000000E-02 0. -1.
    8880023    1    1    2    0    0  0.39428253142E+03  0.37149519199E+03  0.11316227988E+04  0.14169854471E+04  0.65864270000E+03 0.  1.
    8880022    1    1    2    0    0 -0.39428253142E+03 -0.37149519199E+03 -0.73317838127E+03  0.92434278491E+03  0.15294330000E+03 0.  0.
<mgrwt>
<rscale>  0 0.76868046E+03</rscale>
<asrwt>0</asrwt>
<pdfrwt beam="1">  1        1 0.14945260E+00 0.85280572E+03</pdfrwt>
<pdfrwt beam="2">  1       -1 0.21075174E+00 0.85280572E+03</pdfrwt>
<totfact> 0.20775545E+00</totfact>
</mgrwt>
</event>
<event>
 4    2  0.3396630E-007  0.6629590E+03  0.7818608E-02  0.1021311E+00
         -1   -1    0    0    0  501 -0.00000000000E+00  0.00000000000E+00  0.11557509026E+03  0.11557509037E+03  0.50400000000E-02 0.  1.
          1   -1    0    0  501    0  0.00000000000E+00 -0.00000000000E+00 -0.17542466556E+04  0.17542466556E+04  0.50400000000E-02 0. -1.
    8880023    1    1    2    0    0 -0.65827887741E+02 -0.37028506884E+02 -0.93766039968E+03  0.11483560652E+04  0.65864270000E+03 0.  1.
    8880022    1    1    2    0    0  0.65827887741E+02  0.37028506884E+02 -0.70101116568E+03  0.72146568078E+03  0.15294330000E+03 0. -1.
<mgrwt>
<rscale>  0 0.47216555E+03</rscale>
<asrwt>0</asrwt>
<pdfrwt beam="1">  1        1 0.26988408E+00 0.66295899E+03</pdfrwt>
<pdfrwt beam="2">  1       -1 0.17780784E-01 0.66295899E+03</pdfrwt>
<totfact> 0.11258940E+02</totfact>
</mgrwt>
</event>
<event>
 4    2  0.3396630E-007  0.8198551E+03  0.7818608E-02  0.9669403E-01
         -1   -1    0    0    0  501 -0.00000000000E+00  0.00000000000E+00  0.34333602878E+03  0.34333602881E+03  0.50400000000E-02 0.  1.
          1   -1    0    0  501    0  0.00000000000E+00 -0.00000000000E+00 -0.20395721758E+04  0.20395721758E+04  0.50400000000E-02 0. -1.
    8880023    1    1    2    0    0  0.27088325332E+03  0.40617052777E+03 -0.26285731751E+03  0.86096249058E+03  0.65864270000E+03 0.  1.
    8880022    1    1    2    0    0 -0.27088325332E+03 -0.40617052777E+03 -0.14333788295E+04  0.15219457140E+04  0.15294330000E+03 0.  0.
<mgrwt>
<rscale>  0 0.72868094E+03</rscale>
<asrwt>0</asrwt>
<pdfrwt beam="1">  1        1 0.31378033E+00 0.81985513E+03</pdfrwt>
<pdfrwt beam="2">  1       -1 0.52820929E-01 0.81985513E+03</pdfrwt>
<totfact> 0.10477562E+01</totfact>
</mgrwt>
</event>
<event>
 4    2  0.3396630E-007  0.7025799E+03  0.7818608E-02  0.9986662E-01
          1   -1    0    0  501    0  0.00000000000E+00  0.00000000000E+00  0.86198459432E+03  0.86198459434E+03  0.50400000000E-02 0. -1.
         -1   -1    0    0    0  501 -0.00000000000E+00 -0.00000000000E+00 -0.45289500365E+03  0.45289500367E+03  0.50400000000E-02 0.  1.
    8880023    1    1    2    0    0  0.49986395569E+02 -0.23939444627E+03 -0.11953909167E+03  0.71267674394E+03  0.65864270000E+03 0.  1.
    8880022    1    1    2    0    0 -0.49986395569E+02  0.23939444627E+03  0.52862868234E+03  0.60220285408E+03  0.15294330000E+03 0.  0.
<mgrwt>
<rscale>  0 0.56238951E+03</rscale>
<asrwt>0</asrwt>
<pdfrwt beam="1">  1        1 0.13261301E+00 0.70257992E+03</pdfrwt>
<pdfrwt beam="2">  1       -1 0.69676154E-01 0.70257992E+03</pdfrwt>
<totfact> 0.41949714E+01</totfact>
</mgrwt>
</event>
<event>
 4    2  0.3396630E-007  0.7458360E+03  0.7818608E-02  0.9843262E-01
          1   -1    0    0  501    0  0.00000000000E+00  0.00000000000E+00  0.63721907649E+03  0.63721907651E+03  0.50400000000E-02 0. -1.
         -1   -1    0    0    0  501 -0.00000000000E+00 -0.00000000000E+00 -0.56360849736E+03  0.56360849738E+03  0.50400000000E-02 0.  1.
    8880023    1    1    2    0    0 -0.33316585470E+03 -0.10705874083E+03 -0.14641825593E+03  0.76007208386E+03  0.65864270000E+03 0.  1.
    8880022    1    1    2    0    0  0.33316585470E+03  0.10705874083E+03  0.22002883506E+03  0.44075549004E+03  0.15294330000E+03 0.  0.
<mgrwt>
<rscale>  0 0.63091638E+03</rscale>
<asrwt>0</asrwt>
<pdfrwt beam="1">  1        1 0.98033704E-01 0.74583595E+03</pdfrwt>
<pdfrwt beam="2">  1       -1 0.86709000E-01 0.74583595E+03</pdfrwt>
<totfact> 0.42076138E+01</totfact>
</mgrwt>
</event>
<event>
 4    2  0.3396630E-007  0.8402740E+03  0.7818608E-02  0.9629664E-01
         -1   -1    0    0    0  501 -0.00000000000E+00  0.00000000000E+00  0.96305733137E+03  0.96305733138E+03  0.50400000000E-02 0.  1.
          1   -1    0    0  501    0  0.00000000000E+00 -0.00000000000E+00 -0.24661869397E+04  0.24661869397E+04  0.50400000000E-02 0. -1.
    8880023    1    1    2    0    0  0.16831457358E+03  0.49388301354E+03  0.74090999600E+03  0.11202714203E+04  0.65864270000E+03 0.  1.
    8880022    1    1    2    0    0 -0.16831457358E+03 -0.49388301354E+03 -0.22440396044E+04  0.23089728508E+04  0.15294330000E+03 0.  0.
<mgrwt>
<rscale>  0 0.75363567E+03</rscale>
<asrwt>0</asrwt>
<pdfrwt beam="1">  1        1 0.37941337E+00 0.84027402E+03</pdfrwt>
<pdfrwt beam="2">  1       -1 0.14816267E+00 0.84027402E+03</pdfrwt>
<totfact> 0.54109859E-01</totfact>
</mgrwt>
</event>
<event>
 4    2  0.3396630E-007  0.8694496E+03  0.7818608E-02  0.9576971E-01
          1   -1    0    0  501    0  0.00000000000E+00  0.00000000000E+00  0.57613573765E+03  0.57613573767E+03  0.50400000000E-02 0. -1.
         -1   -1    0    0    0  501 -0.00000000000E+00 -0.00000000000E+00 -0.15882985173E+04  0.15882985173E+04  0.50400000000E-02 0.  1.
    8880023    1    1    2    0    0  0.32224373825E+03 -0.46721656127E+03 -0.12563986445E+04  0.15279005538E+04  0.65864270000E+03 0.  1.
    8880022    1    1    2    0    0 -0.32224373825E+03  0.46721656127E+03  0.24423586494E+03  0.63653370115E+03  0.15294330000E+03 0.  0.
<mgrwt>
<rscale>  0 0.78839357E+03</rscale>
<asrwt>0</asrwt>
<pdfrwt beam="1">  1        1 0.88636268E-01 0.86944957E+03</pdfrwt>
<pdfrwt beam="2">  1       -1 0.24435362E+00 0.86944957E+03</pdfrwt>
<totfact> 0.28241473E+00</totfact>
</mgrwt>
</event>
<event>
 4    2  0.3396630E-007  0.7789017E+03  0.7818608E-02  0.9758423E-01
          1   -1    0    0  501    0  0.00000000000E+00  0.00000000000E+00  0.51722216606E+03  0.51722216608E+03  0.50400000000E-02 0. -1.
         -1   -1    0    0    0  501 -0.00000000000E+00 -0.00000000000E+00 -0.11342132749E+04  0.11342132749E+04  0.50400000000E-02 0.  1.
    8880023    1    1    2    0    0  0.35089137248E+03  0.22305362102E+03 -0.84830920465E+03  0.11516581029E+04  0.65864270000E+03 0.  1.
    8880022    1    1    2    0    0 -0.35089137248E+03 -0.22305362102E+03  0.23131809583E+03  0.49977733802E+03  0.15294330000E+03 0.  0.
<mgrwt>
<rscale>  0 0.67642328E+03</rscale>
<asrwt>0</asrwt>
<pdfrwt beam="1">  1        1 0.79572641E-01 0.77890171E+03</pdfrwt>
<pdfrwt beam="2">  1       -1 0.17449435E+00 0.77890171E+03</pdfrwt>
<totfact> 0.99070880E+00</totfact>
</mgrwt>
</event>
<event>
 4    2  0.3396630E-007  0.9060840E+03  0.7818608E-02  0.9516335E-01
          1   -1    0    0  501    0  0.00000000000E+00  0.00000000000E+00  0.27356825932E+04  0.27356825932E+04  0.50400000000E-02 0. -1.
         -1   -1    0    0    0  501 -0.00000000000E+00 -0.00000000000E+00 -0.33366700653E+03  0.33366700657E+03  0.50400000000E-02 0.  1.
    8880023    1    1    2    0    0  0.28087727182E+03  0.55523501940E+03  0.44373488848E+03  0.10089047656E+04  0.65864270000E+03 0.  1.
    8880022    1    1    2    0    0 -0.28087727182E+03 -0.55523501940E+03  0.19582806981E+04  0.20604448341E+04  0.15294330000E+03 0.  0.
<mgrwt>
<rscale>  0 0.83090178E+03</rscale>
<asrwt>0</asrwt>
<pdfrwt beam="1">  1        1 0.42087424E+00 0.90608398E+03</pdfrwt>
<pdfrwt beam="2">  1       -1 0.51333386E-01 0.90608398E+03</pdfrwt>
<totfact> 0.36646945E+00</totfact>
</mgrwt>
</event>
<event>
 4    2  0.3396630E-007  0.6820527E+03  0.7818608E-02  0.1008186E+00
          1   -1    0    0  501    0  0.00000000000E+00  0.00000000000E+00  0.12180662857E+03  0.12180662868E+03  0.50400000000E-02 0. -1.
         -1   -1    0    0    0  501 -0.00000000000E+00 -0.00000000000E+00 -0.25441535027E+04  0.25441535027E+04  0.50400000000E-02 0.  1.
    8880023    1    1    2    0    0 -0.10440548301E+03 -0.14312644005E+03 -0.23056860620E+04  0.24044508948E+04  0.65864270000E+03 0.  1.
    8880022    1    1    2    0    0  0.10440548301E+03  0.14312644005E+03 -0.11666081215E+03  0.26150923661E+03  0.15294330000E+03 0.  0.
<mgrwt>
<rscale>  0 0.52202171E+03</rscale>
<asrwt>0</asrwt>
<pdfrwt beam="1">  1        1 0.18739483E-01 0.68205270E+03</pdfrwt>
<pdfrwt beam="2">  1       -1 0.39140819E+00 0.68205270E+03</pdfrwt>
<totfact> 0.25120718E+00</totfact>
</mgrwt>
</event>
<event>
 4    2  0.3396630E-007  0.7463433E+03  0.7818608E-02  0.9841840E-01
          1   -1    0    0  501    0  0.00000000000E+00  0.00000000000E+00  0.16400822624E+04  0.16400822624E+04  0.50400000000E-02 0. -1.
         -1   -1    0    0    0  501 -0.00000000000E+00 -0.00000000000E+00 -0.23214090766E+03  0.23214090771E+03  0.50400000000E-02 0.  1.
    8880023    1    1    2    0    0 -0.34193212720E+03  0.79376221572E+02  0.53287302173E+03  0.91705072254E+03  0.65864270000E+03 0.  1.
    8880022    1    1    2    0    0  0.34193212720E+03 -0.79376221572E+02  0.87506833305E+03  0.95517244762E+03  0.15294330000E+03 0.  0.
<mgrwt>
<rscale>  0 0.63164691E+03</rscale>
<asrwt>0</asrwt>
<pdfrwt beam="1">  1        1 0.25232036E+00 0.74634333E+03</pdfrwt>
<pdfrwt beam="2">  1       -1 0.35713985E-01 0.74634333E+03</pdfrwt>
<totfact> 0.40427195E+01</totfact>
</mgrwt>
</event>
<event>
 4    2  0.3396630E-007  0.6599089E+03  0.7818608E-02  0.1024250E+00
          1   -1    0    0  501    0  0.00000000000E+00  0.00000000000E+00  0.29199652003E+04  0.29199652003E+04  0.50400000000E-02 0. -1.
         -1   -1    0    0    0  501 -0.00000000000E+00 -0.00000000000E+00 -0.14550745988E+03  0.14550745996E+03  0.50400000000E-02 0.  1.
    8880023    1    1    2    0    0 -0.35462733007E+02  0.20296685601E+02  0.62085006342E+03  0.90605439594E+03  0.65864270000E+03 0.  1.
    8880022    1    1    2    0    0  0.35462733007E+02 -0.20296685601E+02  0.21536076770E+04  0.21594182644E+04  0.15294330000E+03 0.  0.
<mgrwt>
<rscale>  0 0.46183650E+03</rscale>
<asrwt>0</asrwt>
<pdfrwt beam="1">  1        1 0.44922538E+00 0.65990891E+03</pdfrwt>
<pdfrwt beam="2">  1       -1 0.22385765E-01 0.65990891E+03</pdfrwt>
<totfact> 0.12431407E+01</totfact>
</mgrwt>
</event>
<event>
 4    2  0.3396630E-007  0.8346144E+03  0.7818608E-02  0.9640420E-01
         -1   -1    0    0    0  501 -0.00000000000E+00  0.00000000000E+00  0.57913645237E+03  0.57913645239E+03  0.50400000000E-02 0.  1.
          1   -1    0    0  501    0  0.00000000000E+00 -0.00000000000E+00 -0.23423979758E+04  0.23423979758E+04  0.50400000000E-02 0. -1.
    8880023    1    1    2    0    0  0.46352634820E+03 -0.21889339805E+03  0.22349498577E+03  0.86402037598E+03  0.65864270000E+03 0.  1.
    8880022    1    1    2    0    0 -0.46352634820E+03  0.21889339805E+03 -0.19867565092E+04  0.20575140522E+04  0.15294330000E+03 0.  0.
<mgrwt>
<rscale>  0 0.74677716E+03</rscale>
<asrwt>0</asrwt>
<pdfrwt beam="1">  1        1 0.36036892E+00 0.83461440E+03</pdfrwt>
<pdfrwt beam="2">  1       -1 0.89097917E-01 0.83461440E+03</pdfrwt>
<totfact> 0.22433589E+00</totfact>
</mgrwt>
</event>
<event>
 4    2  0.3396630E-007  0.6612737E+03  0.7818608E-02  0.1022888E+00
         -1   -1    0    0    0  501 -0.00000000000E+00  0.00000000000E+00  0.12505239158E+04  0.12505239158E+04  0.50400000000E-02 0.  1.
          1   -1    0    0  501    0  0.00000000000E+00 -0.00000000000E+00 -0.55187436147E+03  0.55187436149E+03  0.50400000000E-02 0. -1.
    8880023    1    1    2    0    0  0.12591200195E+02 -0.57568567040E+02  0.11475868681E+04  0.13244766907E+04  0.65864270000E+03 0.  1.
    8880022    1    1    2    0    0 -0.12591200195E+02  0.57568567040E+02 -0.44893731374E+03  0.47792158658E+03  0.15294330000E+03 0.  0.
<mgrwt>
<rscale>  0 0.46658732E+03</rscale>
<asrwt>0</asrwt>
<pdfrwt beam="1">  1        1 0.84903748E-01 0.66127368E+03</pdfrwt>
<pdfrwt beam="2">  1       -1 0.19238829E+00 0.66127368E+03</pdfrwt>
<totfact> 0.68730752E+00</totfact>
</mgrwt>
</event>
<event>
 4    2  0.3396630E-007  0.1180130E+04  0.7818608E-02  0.9176683E-01
          1   -1    0    0  501    0  0.00000000000E+00  0.00000000000E+00  0.10699268851E+04  0.10699268851E+04  0.50400000000E-02 0. -1.
         -1   -1    0    0    0  501 -0.00000000000E+00 -0.00000000000E+00 -0.17338792230E+04  0.17338792230E+04  0.50400000000E-02 0.  1.
    8880023    1    1    2    0    0 -0.78980067600E+03 -0.57888887525E+03 -0.11949080439E+04  0.16794382624E+04  0.65864270000E+03 0.  0.
    8880022    1    1    2    0    0  0.78980067600E+03  0.57888887525E+03  0.53095570603E+03  0.11243678457E+04  0.15294330000E+03 0.  0.
<mgrwt>
<rscale>  0 0.11297371E+04</rscale>
<asrwt>0</asrwt>
<pdfrwt beam="1">  1        1 0.16460414E+00 0.11801304E+04</pdfrwt>
<pdfrwt beam="2">  1       -1 0.26675065E+00 0.11801304E+04</pdfrwt>
<totfact> 0.71402156E-01</totfact>
</mgrwt>
</event>
<event>
 4    2  0.3396630E-007  0.1063452E+04  0.7818608E-02  0.9302883E-01
          1   -1    0    0  501    0  0.00000000000E+00  0.00000000000E+00  0.12450983750E+04  0.12450983750E+04  0.50400000000E-02 0. -1.
         -1   -1    0    0    0  501 -0.00000000000E+00 -0.00000000000E+00 -0.10927615014E+04  0.10927615014E+04  0.50400000000E-02 0.  1.
    8880023    1    1    2    0    0 -0.68078420714E+03 -0.48337581945E+03 -0.58479607535E+03  0.12136374976E+04  0.65864270000E+03 0.  0.
    8880022    1    1    2    0    0  0.68078420714E+03  0.48337581945E+03  0.73713294901E+03  0.11242223788E+04  0.15294330000E+03 0.  0.
<mgrwt>
<rscale>  0 0.10051790E+04</rscale>
<asrwt>0</asrwt>
<pdfrwt beam="1">  1        1 0.19155360E+00 0.10634517E+04</pdfrwt>
<pdfrwt beam="2">  1       -1 0.16811715E+00 0.10634517E+04</pdfrwt>
<totfact> 0.25069783E+00</totfact>
</mgrwt>
</event>
<event>
 4    2  0.3396630E-007  0.8604137E+03  0.7818608E-02  0.9592828E-01
          1   -1    0    0  501    0  0.00000000000E+00  0.00000000000E+00  0.67101742888E+03  0.67101742890E+03  0.50400000000E-02 0. -1.
         -1   -1    0    0    0  501 -0.00000000000E+00 -0.00000000000E+00 -0.13517610217E+04  0.13517610217E+04  0.50400000000E-02 0.  1.
    8880023    1    1    2    0    0  0.51911375163E+03  0.19241207032E+03 -0.10365587477E+04  0.13471324121E+04  0.65864270000E+03 0.  1.
    8880022    1    1    2    0    0 -0.51911375163E+03 -0.19241207032E+03  0.35581515489E+03  0.67564603854E+03  0.15294330000E+03 0.  0.
<mgrwt>
<rscale>  0 0.77772694E+03</rscale>
<asrwt>0</asrwt>
<pdfrwt beam="1">  1        1 0.10323345E+00 0.86041368E+03</pdfrwt>
<pdfrwt beam="2">  1       -1 0.20796323E+00 0.86041368E+03</pdfrwt>
<totfact> 0.39392375E+00</totfact>
</mgrwt>
</event>
<event>
 4    2  0.3396630E-007  0.7175323E+03  0.7818608E-02  0.9931026E-01
          1   -1    0    0  501    0  0.00000000000E+00  0.00000000000E+00  0.12954449699E+04  0.12954449699E+04  0.50400000000E-02 0. -1.
         -1   -1    0    0    0  501 -0.00000000000E+00 -0.00000000000E+00 -0.46881876973E+03  0.46881876976E+03  0.50400000000E-02 0.  1.
    8880023    1    1    2    0    0  0.22357217944E+03  0.17623262966E+03 -0.15217724127E+03  0.73349204372E+03  0.65864270000E+03 0.  1.
    8880022    1    1    2    0    0 -0.22357217944E+03 -0.17623262966E+03  0.97880344147E+03  0.10307716960E+04  0.15294330000E+03 0.  0.
<mgrwt>
<rscale>  0 0.58780924E+03</rscale>
<asrwt>0</asrwt>
<pdfrwt beam="1">  1        1 0.19929922E+00 0.71753234E+03</pdfrwt>
<pdfrwt beam="2">  1       -1 0.72125966E-01 0.71753234E+03</pdfrwt>
<totfact> 0.18333350E+01</totfact>
</mgrwt>
</event>
<event>
 4    2  0.3396630E-007  0.7046744E+03  0.7818608E-02  0.9978336E-01
          1   -1    0    0  501    0  0.00000000000E+00  0.00000000000E+00  0.29872635736E+03  0.29872635740E+03  0.50400000000E-02 0. -1.
         -1   -1    0    0    0  501 -0.00000000000E+00 -0.00000000000E+00 -0.11982925986E+04  0.11982925986E+04  0.50400000000E-02 0.  1.
    8880023    1    1    2    0    0  0.21043766072E+03 -0.13591110210E+03 -0.96636498346E+03  0.11960047342E+04  0.65864270000E+03 0.  1.
    8880022    1    1    2    0    0 -0.21043766072E+03  0.13591110210E+03  0.66798742265E+02  0.30101422176E+03  0.15294330000E+03 0.  0.
<mgrwt>
<rscale>  0 0.56610463E+03</rscale>
<asrwt>0</asrwt>
<pdfrwt beam="1">  1        1 0.45957902E-01 0.70467442E+03</pdfrwt>
<pdfrwt beam="2">  1       -1 0.18435270E+00 0.70467442E+03</pdfrwt>
<totfact> 0.17624318E+01</totfact>
</mgrwt>
</event>
<event>
 4    2  0.3396630E-007  0.7623362E+03  0.7818608E-02  0.9799097E-01
          1   -1    0    0  501    0  0.00000000000E+00  0.00000000000E+00  0.87295331892E+03  0.87295331893E+03  0.50400000000E-02 0. -1.
         -1   -1    0    0    0  501 -0.00000000000E+00 -0.00000000000E+00 -0.59480201846E+03  0.59480201848E+03  0.50400000000E-02 0.  1.
    8880023    1    1    2    0    0 -0.11096736749E+03  0.36746762929E+03 -0.24533464119E+03  0.80084050076E+03  0.65864270000E+03 0.  0.
    8880022    1    1    2    0    0  0.11096736749E+03 -0.36746762929E+03  0.52348594165E+03  0.66691483665E+03  0.15294330000E+03 0.  0.
<mgrwt>
<rscale>  0 0.65411050E+03</rscale>
<asrwt>0</asrwt>
<pdfrwt beam="1">  1        1 0.13430051E+00 0.76233616E+03</pdfrwt>
<pdfrwt beam="2">  1       -1 0.91508003E-01 0.76233616E+03</pdfrwt>
<totfact> 0.22885213E+01</totfact>
</mgrwt>
</event>
<event>
 4    2  0.3396630E-007  0.7126289E+03  0.7818608E-02  0.9948365E-01
         -1   -1    0    0    0  501 -0.00000000000E+00  0.00000000000E+00  0.37320345354E+03  0.37320345357E+03  0.50400000000E-02 0.  1.
          1   -1    0    0  501    0  0.00000000000E+00 -0.00000000000E+00 -0.15315314876E+04  0.15315314876E+04  0.50400000000E-02 0. -1.
    8880023    1    1    2    0    0  0.26030152059E+03 -0.79201115662E+02 -0.78531869243E+01  0.71267213861E+03  0.65864270000E+03 0.  0.
    8880022    1    1    2    0    0 -0.26030152059E+03  0.79201115662E+02 -0.11504748471E+04  0.11920628025E+04  0.15294330000E+03 0.  0.
<mgrwt>
<rscale>  0 0.57973474E+03</rscale>
<asrwt>0</asrwt>
<pdfrwt beam="1">  1        1 0.23562023E+00 0.71262887E+03</pdfrwt>
<pdfrwt beam="2">  1       -1 0.57415917E-01 0.71262887E+03</pdfrwt>
<totfact> 0.19880870E+01</totfact>
</mgrwt>
</event>
<event>
 4    2  0.3396630E-007  0.8307021E+03  0.7818608E-02  0.9647968E-01
         -1   -1    0    0    0  501 -0.00000000000E+00  0.00000000000E+00  0.50481061744E+03  0.50481061746E+03  0.50400000000E-02 0.  1.
          1   -1    0    0  501    0  0.00000000000E+00 -0.00000000000E+00 -0.19738292892E+04  0.19738292892E+04  0.50400000000E-02 0. -1.
    8880023    1    1    2    0    0 -0.15965058828E+03  0.48038255472E+03  0.86972197673E+02  0.83524252684E+03  0.65864270000E+03 0.  1.
    8880022    1    1    2    0    0  0.15965058828E+03 -0.48038255472E+03 -0.15559908694E+04  0.16433973798E+04  0.15294330000E+03 0.  0.
<mgrwt>
<rscale>  0 0.74201094E+03</rscale>
<asrwt>0</asrwt>
<pdfrwt beam="1">  1        1 0.30366604E+00 0.83070206E+03</pdfrwt>
<pdfrwt beam="2">  1       -1 0.77663173E-01 0.83070206E+03</pdfrwt>
<totfact> 0.53392801E+00</totfact>
</mgrwt>
</event>
<event>
 4    2  0.3396630E-007  0.7259242E+03  0.7818608E-02  0.9903027E-01
          1   -1    0    0  501    0  0.00000000000E+00  0.00000000000E+00  0.25368780009E+03  0.25368780014E+03  0.50400000000E-02 0. -1.
         -1   -1    0    0    0  501 -0.00000000000E+00 -0.00000000000E+00 -0.12914878611E+04  0.12914878611E+04  0.50400000000E-02 0.  1.
    8880023    1    1    2    0    0  0.23845656025E+03  0.19051048053E+03 -0.94455353050E+03  0.11912797121E+04  0.65864270000E+03 0.  1.
    8880022    1    1    2    0    0 -0.23845656025E+03 -0.19051048053E+03 -0.93246530497E+02  0.35389594909E+03  0.15294330000E+03 0. -1.
<mgrwt>
<rscale>  0 0.60114786E+03</rscale>
<asrwt>0</asrwt>
<pdfrwt beam="1">  1        1 0.39028893E-01 0.72592423E+03</pdfrwt>
<pdfrwt beam="2">  1       -1 0.19869044E+00 0.72592423E+03</pdfrwt>
<totfact> 0.17270034E+01</totfact>
</mgrwt>
</event>
<event>
 4    2  0.3396630E-007  0.8648249E+03  0.7818608E-02  0.9585038E-01
         -1   -1    0    0    0  501 -0.00000000000E+00  0.00000000000E+00  0.29634497816E+03  0.29634497820E+03  0.50400000000E-02 0.  1.
          1   -1    0    0  501    0  0.00000000000E+00 -0.00000000000E+00 -0.45166898407E+04  0.45166898407E+04  0.50400000000E-02 0. -1.
    8880023    1    1    2    0    0 -0.54053821298E+03 -0.14808921337E+03 -0.40721032821E+03  0.95589875639E+03  0.65864270000E+03 0.  0.
    8880022    1    1    2    0    0  0.54053821298E+03  0.14808921337E+03 -0.38131345343E+04  0.38571360625E+04  0.15294330000E+03 0.  0.
<mgrwt>
<rscale>  0 0.78294447E+03</rscale>
<asrwt>0</asrwt>
<pdfrwt beam="1">  1        1 0.69487531E+00 0.86482494E+03</pdfrwt>
<pdfrwt beam="2">  1       -1 0.45591538E-01 0.86482494E+03</pdfrwt>
<totfact> 0.16362729E-01</totfact>
</mgrwt>
</event>
<event>
 4    2  0.3396630E-007  0.1067400E+04  0.7818608E-02  0.9298251E-01
          1   -1    0    0  501    0  0.00000000000E+00  0.00000000000E+00  0.15326003824E+04  0.15326003824E+04  0.50400000000E-02 0. -1.
         -1   -1    0    0    0  501 -0.00000000000E+00 -0.00000000000E+00 -0.11167176597E+04  0.11167176597E+04  0.50400000000E-02 0.  1.
    8880023    1    1    2    0    0 -0.82810326249E+03 -0.14062949435E+03 -0.67585978540E+03  0.12633797227E+04  0.65864270000E+03 0.  1.
    8880022    1    1    2    0    0  0.82810326249E+03  0.14062949435E+03  0.10917425081E+04  0.13859383194E+04  0.15294330000E+03 0.  0.
<mgrwt>
<rscale>  0 0.10094400E+04</rscale>
<asrwt>0</asrwt>
<pdfrwt beam="1">  1        1 0.23578467E+00 0.10673996E+04</pdfrwt>
<pdfrwt beam="2">  1       -1 0.17180272E+00 0.10673996E+04</pdfrwt>
<totfact> 0.14775580E+00</totfact>
</mgrwt>
</event>
<event>
 4    2  0.3396630E-007  0.6827077E+03  0.7818608E-02  0.1007832E+00
          1   -1    0    0  501    0  0.00000000000E+00  0.00000000000E+00  0.17393431772E+04  0.17393431772E+04  0.50400000000E-02 0. -1.
         -1   -1    0    0    0  501 -0.00000000000E+00 -0.00000000000E+00 -0.28724410508E+03  0.28724410512E+03  0.50400000000E-02 0.  1.
    8880023    1    1    2    0    0  0.92397149581E+02  0.15408535584E+03  0.14445004567E+03  0.69782200603E+03  0.65864270000E+03 0.  1.
    8880022    1    1    2    0    0 -0.92397149581E+02 -0.15408535584E+03  0.13076490264E+04  0.13287652763E+04  0.15294330000E+03 0.  0.
<mgrwt>
<rscale>  0 0.52345564E+03</rscale>
<asrwt>0</asrwt>
<pdfrwt beam="1">  1        1 0.26759126E+00 0.68270765E+03</pdfrwt>
<pdfrwt beam="2">  1       -1 0.44191401E-01 0.68270765E+03</pdfrwt>
<totfact> 0.23744215E+01</totfact>
</mgrwt>
</event>
<event>
 4    2  0.3396630E-007  0.6947447E+03  0.7818608E-02  0.1001974E+00
         -1   -1    0    0    0  501 -0.00000000000E+00  0.00000000000E+00  0.40166960950E+03  0.40166960953E+03  0.50400000000E-02 0.  1.
          1   -1    0    0  501    0  0.00000000000E+00 -0.00000000000E+00 -0.15543391760E+04  0.15543391760E+04  0.50400000000E-02 0. -1.
    8880023    1    1    2    0    0  0.21746628593E+03  0.39603074656E+02  0.75439014309E+02  0.69882847694E+03  0.65864270000E+03 0.  0.
    8880022    1    1    2    0    0 -0.21746628593E+03 -0.39603074656E+02 -0.12281085808E+04  0.12571803086E+04  0.15294330000E+03 0. -1.
<mgrwt>
<rscale>  0 0.54792977E+03</rscale>
<asrwt>0</asrwt>
<pdfrwt beam="1">  1        1 0.23912910E+00 0.69474470E+03</pdfrwt>
<pdfrwt beam="2">  1       -1 0.61795325E-01 0.69474470E+03</pdfrwt>
<totfact> 0.16645889E+01</totfact>
</mgrwt>
</event>
<event>
 4    2  0.3396630E-007  0.7750986E+03  0.7818608E-02  0.9767479E-01
         -1   -1    0    0    0  501 -0.00000000000E+00  0.00000000000E+00  0.52621033311E+03  0.52621033313E+03  0.50400000000E-02 0.  1.
          1   -1    0    0  501    0  0.00000000000E+00 -0.00000000000E+00 -0.78881761299E+03  0.78881761301E+03  0.50400000000E-02 0. -1.
    8880023    1    1    2    0    0  0.20147841765E+03 -0.35549131669E+03  0.52439083267E+02  0.77687044785E+03  0.65864270000E+03 0.  1.
    8880022    1    1    2    0    0 -0.20147841765E+03  0.35549131669E+03 -0.31504636315E+03  0.53815749829E+03  0.15294330000E+03 0.  0.
<mgrwt>
<rscale>  0 0.67137393E+03</rscale>
<asrwt>0</asrwt>
<pdfrwt beam="1">  1        1 0.12135656E+00 0.77509860E+03</pdfrwt>
<pdfrwt beam="2">  1       -1 0.80955436E-01 0.77509860E+03</pdfrwt>
<totfact> 0.35152599E+01</totfact>
</mgrwt>
</event>
<event>
 4    2  0.3396630E-007  0.7767319E+03  0.7818608E-02  0.9763571E-01
         -1   -1    0    0    0  501 -0.00000000000E+00  0.00000000000E+00  0.15722398298E+04  0.15722398298E+04  0.50400000000E-02 0.  1.
          1   -1    0    0  501    0  0.00000000000E+00 -0.00000000000E+00 -0.33495125722E+03  0.33495125725E+03  0.50400000000E-02 0. -1.
    8880023    1    1    2    0    0 -0.22145007073E+03 -0.34707641559E+03  0.12455782588E+04  0.14679160661E+04  0.65864270000E+03 0.  0.
    8880022    1    1    2    0    0  0.22145007073E+03  0.34707641559E+03 -0.82896862608E+01  0.43927502091E+03  0.15294330000E+03 0.  0.
<mgrwt>
<rscale>  0 0.67354735E+03</rscale>
<asrwt>0</asrwt>
<pdfrwt beam="1">  1        1 0.51530962E-01 0.77673186E+03</pdfrwt>
<pdfrwt beam="2">  1       -1 0.24188305E+00 0.77673186E+03</pdfrwt>
<totfact> 0.61812865E+00</totfact>
</mgrwt>
</event>
<event>
 4    2  0.3396630E-007  0.7006055E+03  0.7818608E-02  0.9994698E-01
          1   -1    0    0  501    0  0.00000000000E+00  0.00000000000E+00  0.23143356444E+04  0.23143356445E+04  0.50400000000E-02 0. -1.
         -1   -1    0    0    0  501 -0.00000000000E+00 -0.00000000000E+00 -0.33200029131E+03  0.33200029135E+03  0.50400000000E-02 0.  1.
    8880023    1    1    2    0    0 -0.56548006511E+02  0.23203500720E+03  0.59974139679E+02  0.70316785002E+03  0.65864270000E+03 0.  1.
    8880022    1    1    2    0    0  0.56548006511E+02 -0.23203500720E+03  0.19223612135E+04  0.19431680858E+04  0.15294330000E+03 0.  0.
<mgrwt>
<rscale>  0 0.55883313E+03</rscale>
<asrwt>0</asrwt>
<pdfrwt beam="1">  1        1 0.35605164E+00 0.70060554E+03</pdfrwt>
<pdfrwt beam="2">  1       -1 0.51076967E-01 0.70060554E+03</pdfrwt>
<totfact> 0.74467136E+00</totfact>
</mgrwt>
</event>
<event>
 4    2  0.3396630E-007  0.8329300E+03  0.7818608E-02  0.9643658E-01
         -1   -1    0    0    0  501 -0.00000000000E+00  0.00000000000E+00  0.30952714616E+03  0.30952714620E+03  0.50400000000E-02 0.  1.
          1   -1    0    0  501    0  0.00000000000E+00 -0.00000000000E+00 -0.22580869217E+04  0.22580869217E+04  0.50400000000E-02 0. -1.
    8880023    1    1    2    0    0 -0.20038415788E+03  0.46883717854E+03 -0.38819281612E+03  0.91894830075E+03  0.65864270000E+03 0.  1.
    8880022    1    1    2    0    0  0.20038415788E+03 -0.46883717854E+03 -0.15603669595E+04  0.16486657672E+04  0.15294330000E+03 0.  0.
<mgrwt>
<rscale>  0 0.74472766E+03</rscale>
<asrwt>0</asrwt>
<pdfrwt beam="1">  1        1 0.34739798E+00 0.83292996E+03</pdfrwt>
<pdfrwt beam="2">  1       -1 0.47619563E-01 0.83292996E+03</pdfrwt>
<totfact> 0.90798766E+00</totfact>
</mgrwt>
</event>
<event>
 4    2  0.3396630E-007  0.1045686E+04  0.7818608E-02  0.9324086E-01
          1   -1    0    0  501    0  0.00000000000E+00  0.00000000000E+00  0.24741519153E+04  0.24741519153E+04  0.50400000000E-02 0. -1.
         -1   -1    0    0    0  501 -0.00000000000E+00 -0.00000000000E+00 -0.46098082955E+03  0.46098082958E+03  0.50400000000E-02 0.  1.
    8880023    1    1    2    0    0  0.35530392034E+03  0.73034725724E+03  0.17998787404E+04  0.20815911410E+04  0.65864270000E+03 0.  0.
    8880022    1    1    2    0    0 -0.35530392034E+03 -0.73034725724E+03  0.21329234538E+03  0.85354160390E+03  0.15294330000E+03 0.  0.
<mgrwt>
<rscale>  0 0.98595378E+03</rscale>
<asrwt>0</asrwt>
<pdfrwt beam="1">  1        1 0.38063875E+00 0.10456855E+04</pdfrwt>
<pdfrwt beam="2">  1       -1 0.70920129E-01 0.10456855E+04</pdfrwt>
<totfact> 0.28694744E+00</totfact>
</mgrwt>
</event>
<event>
 4    2  0.3396630E-007  0.7691608E+03  0.7818608E-02  0.9781944E-01
         -1   -1    0    0    0  501 -0.00000000000E+00  0.00000000000E+00  0.12438486336E+04  0.12438486336E+04  0.50400000000E-02 0.  1.
          1   -1    0    0  501    0  0.00000000000E+00 -0.00000000000E+00 -0.59828861697E+03  0.59828861699E+03  0.50400000000E-02 0. -1.
    8880023    1    1    2    0    0  0.39486025661E+03 -0.43398798899E+02  0.10184356617E+04  0.12762521230E+04  0.65864270000E+03 0.  0.
    8880022    1    1    2    0    0 -0.39486025661E+03  0.43398798899E+02 -0.37287564509E+03  0.56588512766E+03  0.15294330000E+03 0.  0.
<mgrwt>
<rscale>  0 0.66340622E+03</rscale>
<asrwt>0</asrwt>
<pdfrwt beam="1">  1        1 0.92044402E-01 0.76916077E+03</pdfrwt>
<pdfrwt beam="2">  1       -1 0.19136133E+00 0.76916077E+03</pdfrwt>
<totfact> 0.61329795E+00</totfact>
</mgrwt>
</event>
<event>
 4    2  0.4100975E-007  0.8246308E+03  0.7818608E-02  0.9659871E-01
          1   -1    0    0  501    0  0.00000000000E+00  0.00000000000E+00  0.17190901210E+04  0.17190901211E+04  0.50400000000E-02 0. -1.
         -1   -1    0    0    0  501 -0.00000000000E+00 -0.00000000000E+00 -0.60623269994E+03  0.60623269996E+03  0.50400000000E-02 0.  1.
    8880023    1    1    2    0    0  0.40625429165E+02 -0.49452537944E+03 -0.25424839489E+03  0.86293581973E+03  0.65864270000E+03 0.  1.
    8880022    1    1    2    0    0 -0.40625429165E+02  0.49452537944E+03  0.13671058160E+04  0.14623870013E+04  0.15294330000E+03 0. -1.
<mgrwt>
<rscale>  0 0.73457161E+03</rscale>
<asrwt>0</asrwt>
<pdfrwt beam="1">  1        1 0.26447540E+00 0.82463082E+03</pdfrwt>
<pdfrwt beam="2">  1       -1 0.93266571E-01 0.82463082E+03</pdfrwt>
<totfact> 0.53285395E+00</totfact>
</mgrwt>
</event>
<event>
 4    2  0.3396630E-007  0.8780651E+03  0.7818608E-02  0.9562203E-01
         -1   -1    0    0    0  501 -0.00000000000E+00  0.00000000000E+00  0.10336929724E+04  0.10336929724E+04  0.50400000000E-02 0.  1.
          1   -1    0    0  501    0  0.00000000000E+00 -0.00000000000E+00 -0.73119800511E+03  0.73119800513E+03  0.50400000000E-02 0. -1.
    8880023    1    1    2    0    0  0.43910828930E+02 -0.57901637690E+03 -0.28663876846E+03  0.92366666902E+03  0.65864270000E+03 0. -1.
    8880022    1    1    2    0    0 -0.43910828930E+02  0.57901637690E+03  0.58913373569E+03  0.84122430847E+03  0.15294330000E+03 0.  0.
<mgrwt>
<rscale>  0 0.79849134E+03</rscale>
<asrwt>0</asrwt>
<pdfrwt beam="1">  1        1 0.11249200E+00 0.87806511E+03</pdfrwt>
<pdfrwt beam="2">  1       -1 0.15902969E+00 0.87806511E+03</pdfrwt>
<totfact> 0.76937706E+00</totfact>
</mgrwt>
</event>
<event>
 4    2  0.3396630E-007  0.1130068E+04  0.7818608E-02  0.9228295E-01
          1   -1    0    0  501    0  0.00000000000E+00  0.00000000000E+00  0.45620229960E+04  0.45620229960E+04  0.50400000000E-02 0. -1.
         -1   -1    0    0    0  501 -0.00000000000E+00 -0.00000000000E+00 -0.23457305760E+03  0.23457305765E+03  0.50400000000E-02 0.  1.
    8880023    1    1    2    0    0  0.61950825425E+03 -0.67782939735E+03  0.25801144446E+04  0.28167434960E+04  0.65864270000E+03 0. -1.
    8880022    1    1    2    0    0 -0.61950825425E+03  0.67782939735E+03  0.17473354939E+04  0.19798525577E+04  0.15294330000E+03 0.  1.
<mgrwt>
<rscale>  0 0.10766088E+04</rscale>
<asrwt>0</asrwt>
<pdfrwt beam="1">  1        1 0.70184965E+00 0.11300679E+04</pdfrwt>
<pdfrwt beam="2">  1       -1 0.36088165E-01 0.11300679E+04</pdfrwt>
<totfact> 0.21393617E-01</totfact>
</mgrwt>
</event>
<event>
 4    2  0.3396630E-007  0.7327226E+03  0.7818608E-02  0.9881676E-01
         -1   -1    0    0    0  501 -0.00000000000E+00  0.00000000000E+00  0.26288855987E+03  0.26288855991E+03  0.50400000000E-02 0.  1.
          1   -1    0    0  501    0  0.00000000000E+00 -0.00000000000E+00 -0.16373558558E+04  0.16373558558E+04  0.50400000000E-02 0. -1.
    8880023    1    1    2    0    0 -0.29934771807E+03 -0.11603057734E+03 -0.34268560706E+03  0.80889788153E+03  0.65864270000E+03 0.  1.
    8880022    1    1    2    0    0  0.29934771807E+03  0.11603057734E+03 -0.10317816889E+04  0.10913465342E+04  0.15294330000E+03 0.  0.
<mgrwt>
<rscale>  0 0.61157603E+03</rscale>
<asrwt>0</asrwt>
<pdfrwt beam="1">  1        1 0.25190090E+00 0.73272257E+03</pdfrwt>
<pdfrwt beam="2">  1       -1 0.40444395E-01 0.73272257E+03</pdfrwt>
<totfact> 0.32494027E+01</totfact>
</mgrwt>
</event>
<event>
 4    2  0.3396630E-007  0.9211035E+03  0.7818608E-02  0.9492969E-01
          1   -1    0    0  501    0  0.00000000000E+00  0.00000000000E+00  0.15835652615E+04  0.15835652615E+04  0.50400000000E-02 0. -1.
         -1   -1    0    0    0  501 -0.00000000000E+00 -0.00000000000E+00 -0.68223248379E+03  0.68223248381E+03  0.50400000000E-02 0.  1.
    8880023    1    1    2    0    0  0.54229639101E+03 -0.34718293059E+03 -0.23515649776E+03  0.95064722568E+03  0.65864270000E+03 0.  0.
    8880022    1    1    2    0    0 -0.54229639101E+03  0.34718293059E+03  0.11364892754E+04  0.13151505196E+04  0.15294330000E+03 0.  0.
<mgrwt>
<rscale>  0 0.84804165E+03</rscale>
<asrwt>0</asrwt>
<pdfrwt beam="1">  1        1 0.24362542E+00 0.92110345E+03</pdfrwt>
<pdfrwt beam="2">  1       -1 0.10495884E+00 0.92110345E+03</pdfrwt>
<totfact> 0.49616529E+00</totfact>
</mgrwt>
</event>
<event>
 4    2  0.3396630E-007  0.7198469E+03  0.7818608E-02  0.9923104E-01
          1   -1    0    0  501    0  0.00000000000E+00  0.00000000000E+00  0.26403566163E+04  0.26403566163E+04  0.50400000000E-02 0. -1.
         -1   -1    0    0    0  501 -0.00000000000E+00 -0.00000000000E+00 -0.24612586494E+03  0.24612586499E+03  0.50400000000E-02 0.  1.
    8880023    1    1    2    0    0 -0.20659619128E+03  0.20417472044E+03  0.32229624730E+03  0.78870424115E+03  0.65864270000E+03 0.  1.
    8880022    1    1    2    0    0  0.20659619128E+03 -0.20417472044E+03  0.20719345041E+04  0.20977782402E+04  0.15294330000E+03 0.  0.
<mgrwt>
<rscale>  0 0.59154497E+03</rscale>
<asrwt>0</asrwt>
<pdfrwt beam="1">  1        1 0.40620871E+00 0.71984686E+03</pdfrwt>
<pdfrwt beam="2">  1       -1 0.37865517E-01 0.71984686E+03</pdfrwt>
<totfact> 0.77388919E+00</totfact>
</mgrwt>
</event>
<event>
 4    2  0.3396630E-007  0.7507250E+03  0.7818608E-02  0.9829740E-01
         -1   -1    0    0    0  501 -0.00000000000E+00  0.00000000000E+00  0.45569212267E+03  0.45569212270E+03  0.50400000000E-02 0.  1.
          1   -1    0    0  501    0  0.00000000000E+00 -0.00000000000E+00 -0.75567397570E+03  0.75567397572E+03  0.50400000000E-02 0. -1.
    8880023    1    1    2    0    0  0.30555064792E+03 -0.19083148306E+03 -0.61907129965E+02  0.75327322558E+03  0.65864270000E+03 0. -1.
    8880022    1    1    2    0    0 -0.30555064792E+03  0.19083148306E+03 -0.23807472306E+03  0.45809287284E+03  0.15294330000E+03 0.  1.
<mgrwt>
<rscale>  0 0.63790677E+03</rscale>
<asrwt>0</asrwt>
<pdfrwt beam="1">  1        1 0.11625753E+00 0.75072502E+03</pdfrwt>
<pdfrwt beam="2">  1       -1 0.70106481E-01 0.75072502E+03</pdfrwt>
<totfact> 0.50902733E+01</totfact>
</mgrwt>
</event>
<event>
 4    2  0.3396630E-007  0.9713876E+03  0.7818608E-02  0.9419988E-01
         -1   -1    0    0    0  501 -0.00000000000E+00  0.00000000000E+00  0.40872283221E+03  0.40872283224E+03  0.50400000000E-02 0.  1.
          1   -1    0    0  501    0  0.00000000000E+00 -0.00000000000E+00 -0.41817872940E+04  0.41817872940E+04  0.50400000000E-02 0. -1.
    8880023    1    1    2    0    0  0.50432742435E+03 -0.50540830360E+03 -0.26447933519E+03  0.10067488412E+04  0.65864270000E+03 0.  1.
    8880022    1    1    2    0    0 -0.50432742435E+03  0.50540830360E+03 -0.35085851266E+04  0.35837612850E+04  0.15294330000E+03 0.  0.
<mgrwt>
<rscale>  0 0.90448878E+03</rscale>
<asrwt>0</asrwt>
<pdfrwt beam="1">  1        1 0.64335186E+00 0.97138762E+03</pdfrwt>
<pdfrwt beam="2">  1       -1 0.62880439E-01 0.97138762E+03</pdfrwt>
<totfact> 0.18000842E-01</totfact>
</mgrwt>
</event>
<event>
 4    2  0.3396630E-007  0.7250495E+03  0.7818608E-02  0.9905856E-01
          1   -1    0    0  501    0  0.00000000000E+00  0.00000000000E+00  0.99297355601E+03  0.99297355602E+03  0.50400000000E-02 0. -1.
         -1   -1    0    0    0  501 -0.00000000000E+00 -0.00000000000E+00 -0.60540479692E+03  0.60540479694E+03  0.50400000000E-02 0.  1.
    8880023    1    1    2    0    0 -0.30284057486E+03 -0.13196630724E+02 -0.33599242705E+03  0.79911681383E+03  0.65864270000E+03 0.  1.
    8880022    1    1    2    0    0  0.30284057486E+03  0.13196630724E+02  0.72356118613E+03  0.79926153913E+03  0.15294330000E+03 0.  0.
<mgrwt>
<rscale>  0 0.59978299E+03</rscale>
<asrwt>0</asrwt>
<pdfrwt beam="1">  1        1 0.15276516E+00 0.72504950E+03</pdfrwt>
<pdfrwt beam="2">  1       -1 0.93139201E-01 0.72504950E+03</pdfrwt>
<totfact> 0.17717068E+01</totfact>
</mgrwt>
</event>
<event>
 4    2  0.3396630E-007  0.1094275E+04  0.7818608E-02  0.9267458E-01
          1   -1    0    0  501    0  0.00000000000E+00  0.00000000000E+00  0.16560657177E+04  0.16560657177E+04  0.50400000000E-02 0. -1.
         -1   -1    0    0    0  501 -0.00000000000E+00 -0.00000000000E+00 -0.74498955623E+03  0.74498955625E+03  0.50400000000E-02 0.  1.
    8880023    1    1    2    0    0  0.30237622825E+03  0.81987506866E+03 -0.47055267455E+02  0.10952857691E+04  0.65864270000E+03 0.  1.
    8880022    1    1    2    0    0 -0.30237622825E+03 -0.81987506866E+03  0.95813142896E+03  0.13057695049E+04  0.15294330000E+03 0.  0.
<mgrwt>
<rscale>  0 0.10383477E+04</rscale>
<asrwt>0</asrwt>
<pdfrwt beam="1">  1        1 0.25477934E+00 0.10942745E+04</pdfrwt>
<pdfrwt beam="2">  1       -1 0.11461378E+00 0.10942745E+04</pdfrwt>
<totfact> 0.35173478E+00</totfact>
</mgrwt>
</event>
<event>
 4    2  0.3396630E-007  0.6675333E+03  0.7818608E-02  0.1017496E+00
         -1   -1    0    0    0  501 -0.00000000000E+00  0.00000000000E+00  0.11805111515E+04  0.11805111515E+04  0.50400000000E-02 0.  1.
          1   -1    0    0  501    0  0.00000000000E+00 -0.00000000000E+00 -0.38629217156E+03  0.38629217159E+03  0.50400000000E-02 0. -1.
    8880023    1    1    2    0    0 -0.61733065441E+02 -0.89328069487E+02  0.10532628763E+04  0.12469817032E+04  0.65864270000E+03 0.  1.
    8880022    1    1    2    0    0  0.61733065441E+02  0.89328069487E+02 -0.25904389627E+03  0.31982161994E+03  0.15294330000E+03 0.  0.
<mgrwt>
<rscale>  0 0.48600972E+03</rscale>
<asrwt>0</asrwt>
<pdfrwt beam="1">  1        1 0.59429566E-01 0.66753328E+03</pdfrwt>
<pdfrwt beam="2">  1       -1 0.18161710E+00 0.66753328E+03</pdfrwt>
<totfact> 0.13235868E+01</totfact>
</mgrwt>
</event>
<event>
 4    2  0.3396630E-007  0.7348211E+03  0.7818608E-02  0.9875298E-01
          1   -1    0    0  501    0  0.00000000000E+00  0.00000000000E+00  0.12518431288E+04  0.12518431288E+04  0.50400000000E-02 0. -1.
         -1   -1    0    0    0  501 -0.00000000000E+00 -0.00000000000E+00 -0.31811957586E+03  0.31811957590E+03  0.50400000000E-02 0.  1.
    8880023    1    1    2    0    0  0.22602516753E+03  0.23465804556E+03  0.21414257584E+03  0.76538815235E+03  0.65864270000E+03 0.  0.
    8880022    1    1    2    0    0 -0.22602516753E+03 -0.23465804556E+03  0.71958097713E+03  0.80457455240E+03  0.15294330000E+03 0.  0.
<mgrwt>
<rscale>  0 0.61473525E+03</rscale>
<asrwt>0</asrwt>
<pdfrwt beam="1">  1        1 0.19259125E+00 0.73482105E+03</pdfrwt>
<pdfrwt beam="2">  1       -1 0.48941473E-01 0.73482105E+03</pdfrwt>
<totfact> 0.42138189E+01</totfact>
</mgrwt>
</event>
<event>
 4    2  0.3396630E-007  0.1014173E+04  0.7818608E-02  0.9363245E-01
          1   -1    0    0  501    0  0.00000000000E+00  0.00000000000E+00  0.11055429155E+04  0.11055429155E+04  0.50400000000E-02 0. -1.
         -1   -1    0    0    0  501 -0.00000000000E+00 -0.00000000000E+00 -0.12856113160E+04  0.12856113160E+04  0.50400000000E-02 0.  1.
    8880023    1    1    2    0    0  0.65347847682E+03 -0.40951538350E+03  0.68373554646E+03  0.12231277418E+04  0.65864270000E+03 0.  0.
    8880022    1    1    2    0    0 -0.65347847682E+03  0.40951538350E+03 -0.86380394698E+03  0.11680264898E+04  0.15294330000E+03 0.  0.
<mgrwt>
<rscale>  0 0.95163178E+03</rscale>
<asrwt>0</asrwt>
<pdfrwt beam="1">  1        1 0.17008352E+00 0.10141731E+04</pdfrwt>
<pdfrwt beam="2">  1       -1 0.19778636E+00 0.10141731E+04</pdfrwt>
<totfact> 0.19629363E+00</totfact>
</mgrwt>
</event>
<event>
 4    2  0.3396630E-007  0.7037976E+03  0.7818608E-02  0.9981798E-01
          1   -1    0    0  501    0  0.00000000000E+00  0.00000000000E+00  0.60075552917E+03  0.60075552919E+03  0.50400000000E-02 0. -1.
         -1   -1    0    0    0  501 -0.00000000000E+00 -0.00000000000E+00 -0.75177101829E+03  0.75177101831E+03  0.50400000000E-02 0.  1.
    8880023    1    1    2    0    0 -0.16063110786E+03  0.18899334158E+03 -0.52527333053E+03  0.87820448303E+03  0.65864270000E+03 0.  0.
    8880022    1    1    2    0    0  0.16063110786E+03 -0.18899334158E+03  0.37425784141E+03  0.47432206447E+03  0.15294330000E+03 0.  0.
<mgrwt>
<rscale>  0 0.56455632E+03</rscale>
<asrwt>0</asrwt>
<pdfrwt beam="1">  1        1 0.92423928E-01 0.70379759E+03</pdfrwt>
<pdfrwt beam="2">  1       -1 0.11565708E+00 0.70379759E+03</pdfrwt>
<totfact> 0.23856445E+01</totfact>
</mgrwt>
</event>
<event>
 4    2  0.3396630E-007  0.1070705E+04  0.7818608E-02  0.9294396E-01
          1   -1    0    0  501    0  0.00000000000E+00  0.00000000000E+00  0.30421438827E+04  0.30421438827E+04  0.50400000000E-02 0. -1.
         -1   -1    0    0    0  501 -0.00000000000E+00 -0.00000000000E+00 -0.42217098431E+03  0.42217098434E+03  0.50400000000E-02 0.  1.
    8880023    1    1    2    0    0  0.11565492839E+03  0.83619528325E+03  0.50871428072E+03  0.11854109160E+04  0.65864270000E+03 0.  0.
    8880022    1    1    2    0    0 -0.11565492839E+03 -0.83619528325E+03  0.21112586176E+04  0.22789039510E+04  0.15294330000E+03 0.  0.
<mgrwt>
<rscale>  0 0.10130044E+04</rscale>
<asrwt>0</asrwt>
<pdfrwt beam="1">  1        1 0.46802213E+00 0.10707048E+04</pdfrwt>
<pdfrwt beam="2">  1       -1 0.64949383E-01 0.10707048E+04</pdfrwt>
<totfact> 0.13621726E+00</totfact>
</mgrwt>
</event>
<event>
 4    2  0.3396630E-007  0.1131660E+04  0.7818608E-02  0.9226599E-01
         -1   -1    0    0    0  501 -0.00000000000E+00  0.00000000000E+00  0.11977971074E+04  0.11977971074E+04  0.50400000000E-02 0.  1.
          1   -1    0    0  501    0  0.00000000000E+00 -0.00000000000E+00 -0.15438594756E+04  0.15438594756E+04  0.50400000000E-02 0. -1.
    8880023    1    1    2    0    0 -0.75628754974E+03 -0.52428443874E+03 -0.10726304421E+04  0.15592277903E+04  0.65864270000E+03 0.  0.
    8880022    1    1    2    0    0  0.75628754974E+03  0.52428443874E+03  0.72656807391E+03  0.11824287926E+04  0.15294330000E+03 0.  0.
<mgrwt>
<rscale>  0 0.10783053E+04</rscale>
<asrwt>0</asrwt>
<pdfrwt beam="1">  1        1 0.23751684E+00 0.11316604E+04</pdfrwt>
<pdfrwt beam="2">  1       -1 0.18427648E+00 0.11316604E+04</pdfrwt>
<totfact> 0.11695920E+00</totfact>
</mgrwt>
</event>
<event>
 4    2  0.3396630E-007  0.1217222E+04  0.7818608E-02  0.9140561E-01
         -1   -1    0    0    0  501 -0.00000000000E+00  0.00000000000E+00  0.13433826952E+04  0.13433826952E+04  0.50400000000E-02 0.  1.
          1   -1    0    0  501    0  0.00000000000E+00 -0.00000000000E+00 -0.14339636357E+04  0.14339636357E+04  0.50400000000E-02 0. -1.
    8880023    1    1    2    0    0  0.17472455516E+03  0.10086077952E+04  0.76230066996E+03  0.14362210388E+04  0.65864270000E+03 0.  0.
    8880022    1    1    2    0    0 -0.17472455516E+03 -0.10086077952E+04 -0.85288161043E+03  0.13411252921E+04  0.15294330000E+03 0.  0.
<mgrwt>
<rscale>  0 0.11688575E+04</rscale>
<asrwt>0</asrwt>
<pdfrwt beam="1">  1        1 0.22060979E+00 0.12172217E+04</pdfrwt>
<pdfrwt beam="2">  1       -1 0.20667426E+00 0.12172217E+04</pdfrwt>
<totfact> 0.96309742E-01</totfact>
</mgrwt>
</event>
<event>
 4    2  0.3961253E-007  0.7596151E+03  0.7818608E-02  0.9806105E-01
         -1   -1    0    0    0  501 -0.00000000000E+00  0.00000000000E+00  0.86800971763E+03  0.86800971764E+03  0.50400000000E-02 0.  1.
          1   -1    0    0  501    0  0.00000000000E+00 -0.00000000000E+00 -0.10953170074E+04  0.10953170074E+04  0.50400000000E-02 0. -1.
    8880023    1    1    2    0    0  0.20747049532E+03  0.31648208030E+03  0.64740430439E+03  0.99807186775E+03  0.65864270000E+03 0.  1.
    8880022    1    1    2    0    0 -0.20747049532E+03 -0.31648208030E+03 -0.87471159412E+03  0.96525485727E+03  0.15294330000E+03 0.  0.
<mgrwt>
<rscale>  0 0.65035945E+03</rscale>
<asrwt>0</asrwt>
<pdfrwt beam="1">  1        1 0.16851031E+00 0.75961511E+03</pdfrwt>
<pdfrwt beam="2">  1       -1 0.13353996E+00 0.75961511E+03</pdfrwt>
<totfact> 0.62631014E+00</totfact>
</mgrwt>
</event>
<event>
 4    2  0.3726581E-007  0.1295082E+04  0.7818608E-02  0.9069819E-01
          1   -1    0    0  501    0  0.00000000000E+00  0.00000000000E+00  0.28075475531E+04  0.28075475531E+04  0.50400000000E-02 0. -1.
         -1   -1    0    0    0  501 -0.00000000000E+00 -0.00000000000E+00 -0.11847501508E+04  0.11847501509E+04  0.50400000000E-02 0.  1.
    8880023    1    1    2    0    0 -0.99890357662E+03 -0.49559910480E+03 -0.65521997355E+03  0.14513959653E+04  0.65864270000E+03 0.  0.
    8880022    1    1    2    0    0  0.99890357662E+03  0.49559910480E+03  0.22780173758E+04  0.25409017386E+04  0.15294330000E+03 0.  0.
<mgrwt>
<rscale>  0 0.12504381E+04</rscale>
<asrwt>0</asrwt>
<pdfrwt beam="1">  1        1 0.43193039E+00 0.12950819E+04</pdfrwt>
<pdfrwt beam="2">  1       -1 0.18226926E+00 0.12950819E+04</pdfrwt>
<totfact> 0.16083940E-01</totfact>
</mgrwt>
</event>
<event>
 4    2  0.3396630E-007  0.6926480E+03  0.7818608E-02  0.1002919E+00
         -1   -1    0    0    0  501 -0.00000000000E+00  0.00000000000E+00  0.23712085306E+03  0.23712085311E+03  0.50400000000E-02 0.  1.
          1   -1    0    0  501    0  0.00000000000E+00 -0.00000000000E+00 -0.13116863051E+04  0.13116863051E+04  0.50400000000E-02 0. -1.
    8880023    1    1    2    0    0 -0.14294280616E+03 -0.15974468045E+03 -0.34629519392E+03  0.77439110039E+03  0.65864270000E+03 0.  1.
    8880022    1    1    2    0    0  0.14294280616E+03  0.15974468045E+03 -0.72827025812E+03  0.77441605784E+03  0.15294330000E+03 0.  0.
<mgrwt>
<rscale>  0 0.54388802E+03</rscale>
<asrwt>0</asrwt>
<pdfrwt beam="1">  1        1 0.20179789E+00 0.69264797E+03</pdfrwt>
<pdfrwt beam="2">  1       -1 0.36480132E-01 0.69264797E+03</pdfrwt>
<totfact> 0.65842139E+01</totfact>
</mgrwt>
</event>
<event>
 4    2  0.3396630E-007  0.7046389E+03  0.7818608E-02  0.9978475E-01
          1   -1    0    0  501    0  0.00000000000E+00  0.00000000000E+00  0.12890036353E+04  0.12890036353E+04  0.50400000000E-02 0. -1.
         -1   -1    0    0    0  501 -0.00000000000E+00 -0.00000000000E+00 -0.22018048451E+03  0.22018048457E+03  0.50400000000E-02 0.  1.
    8880023    1    1    2    0    0 -0.21304284442E+03 -0.13159969977E+03  0.48391833423E+03  0.85480576449E+03  0.65864270000E+03 0. -1.
    8880022    1    1    2    0    0  0.21304284442E+03  0.13159969977E+03  0.58490481653E+03  0.65437835535E+03  0.15294330000E+03 0.  0.
<mgrwt>
<rscale>  0 0.56604205E+03</rscale>
<asrwt>0</asrwt>
<pdfrwt beam="1">  1        1 0.19830826E+00 0.70463887E+03</pdfrwt>
<pdfrwt beam="2">  1       -1 0.33873920E-01 0.70463887E+03</pdfrwt>
<totfact> 0.77851624E+01</totfact>
</mgrwt>
</event>
<event>
 4    2  0.3396630E-007  0.7366885E+03  0.7818608E-02  0.9869700E-01
          1   -1    0    0  501    0  0.00000000000E+00  0.00000000000E+00  0.12369421456E+04  0.12369421456E+04  0.50400000000E-02 0. -1.
         -1   -1    0    0    0  501 -0.00000000000E+00 -0.00000000000E+00 -0.49849847066E+03  0.49849847068E+03  0.50400000000E-02 0.  1.
    8880023    1    1    2    0    0  0.88135844985E+02  0.31801219865E+03 -0.17072908728E+03  0.75621314004E+03  0.65864270000E+03 0.  1.
    8880022    1    1    2    0    0 -0.88135844985E+02 -0.31801219865E+03  0.90917276222E+03  0.97922747625E+03  0.15294330000E+03 0.  0.
<mgrwt>
<rscale>  0 0.61752469E+03</rscale>
<asrwt>0</asrwt>
<pdfrwt beam="1">  1        1 0.19029879E+00 0.73668846E+03</pdfrwt>
<pdfrwt beam="2">  1       -1 0.76692072E-01 0.73668846E+03</pdfrwt>
<totfact> 0.17715990E+01</totfact>
</mgrwt>
</event>
<event>
 4    2  0.3396630E-007  0.7786888E+03  0.7818608E-02  0.9758926E-01
         -1   -1    0    0    0  501 -0.00000000000E+00  0.00000000000E+00  0.33472780916E+03  0.33472780920E+03  0.50400000000E-02 0.  1.
          1   -1    0    0  501    0  0.00000000000E+00 -0.00000000000E+00 -0.15573937352E+04  0.15573937353E+04  0.50400000000E-02 0. -1.
    8880023    1    1    2    0    0 -0.21922047130E+03 -0.35282907546E+03 -0.24077028428E+03  0.81506227221E+03  0.65864270000E+03 0.  1.
    8880022    1    1    2    0    0  0.21922047130E+03  0.35282907546E+03 -0.98189564180E+03  0.10770592722E+04  0.15294330000E+03 0.  0.
<mgrwt>
<rscale>  0 0.67614160E+03</rscale>
<asrwt>0</asrwt>
<pdfrwt beam="1">  1        1 0.23959903E+00 0.77868876E+03</pdfrwt>
<pdfrwt beam="2">  1       -1 0.51496587E-01 0.77868876E+03</pdfrwt>
<totfact> 0.23340260E+01</totfact>
</mgrwt>
</event>
<event>
 4    2  0.3396630E-007  0.6913228E+03  0.7818608E-02  0.1003530E+00
          1   -1    0    0  501    0  0.00000000000E+00  0.00000000000E+00  0.21275330350E+04  0.21275330350E+04  0.50400000000E-02 0. -1.
         -1   -1    0    0    0  501 -0.00000000000E+00 -0.00000000000E+00 -0.42670569219E+03  0.42670569222E+03  0.50400000000E-02 0.  1.
    8880023    1    1    2    0    0 -0.10274800767E+03  0.18319333428E+03 -0.13138380162E+03  0.70369656841E+03  0.65864270000E+03 0.  1.
    8880022    1    1    2    0    0  0.10274800767E+03 -0.18319333428E+03  0.18322111445E+04  0.18505421589E+04  0.15294330000E+03 0.  0.
<mgrwt>
<rscale>  0 0.54129066E+03</rscale>
<asrwt>0</asrwt>
<pdfrwt beam="1">  1        1 0.32731277E+00 0.69132276E+03</pdfrwt>
<pdfrwt beam="2">  1       -1 0.65647030E-01 0.69132276E+03</pdfrwt>
<totfact> 0.60979801E+00</totfact>
</mgrwt>
</event>
<event>
 4    2  0.3396630E-007  0.7958188E+03  0.7818608E-02  0.9719911E-01
         -1   -1    0    0    0  501 -0.00000000000E+00  0.00000000000E+00  0.54391703247E+03  0.54391703249E+03  0.50400000000E-02 0.  1.
          1   -1    0    0  501    0  0.00000000000E+00 -0.00000000000E+00 -0.12489504333E+04  0.12489504333E+04  0.50400000000E-02 0. -1.
    8880023    1    1    2    0    0  0.29112176589E+03 -0.33877049152E+03  0.15592655852E+03  0.81095044634E+03  0.65864270000E+03 0.  1.
    8880022    1    1    2    0    0 -0.29112176589E+03  0.33877049152E+03 -0.86095995932E+03  0.98191701944E+03  0.15294330000E+03 0.  0.
<mgrwt>
<rscale>  0 0.69843595E+03</rscale>
<asrwt>0</asrwt>
<pdfrwt beam="1">  1        1 0.19214622E+00 0.79581878E+03</pdfrwt>
<pdfrwt beam="2">  1       -1 0.83679544E-01 0.79581878E+03</pdfrwt>
<totfact> 0.14321993E+01</totfact>
</mgrwt>
</event>
<event>
 4    2  0.3396630E-007  0.8226388E+03  0.7818608E-02  0.9663828E-01
         -1   -1    0    0    0  501 -0.00000000000E+00  0.00000000000E+00  0.40129275000E+03  0.40129275003E+03  0.50400000000E-02 0.  1.
          1   -1    0    0  501    0  0.00000000000E+00 -0.00000000000E+00 -0.15447955021E+04  0.15447955021E+04  0.50400000000E-02 0. -1.
    8880023    1    1    2    0    0 -0.48362836212E+03  0.95015354825E+02 -0.16381253006E+03  0.83879023693E+03  0.65864270000E+03 0.  1.
    8880022    1    1    2    0    0  0.48362836212E+03 -0.95015354825E+02 -0.97969022199E+03  0.11072980152E+04  0.15294330000E+03 0.  0.
<mgrwt>
<rscale>  0 0.73211874E+03</rscale>
<asrwt>0</asrwt>
<pdfrwt beam="1">  1        1 0.23766084E+00 0.82263875E+03</pdfrwt>
<pdfrwt beam="2">  1       -1 0.61737347E-01 0.82263875E+03</pdfrwt>
<totfact> 0.16636543E+01</totfact>
</mgrwt>
</event>
<event>
 4    2  0.3396630E-007  0.6766906E+03  0.7818608E-02  0.1011261E+00
         -1   -1    0    0    0  501 -0.00000000000E+00  0.00000000000E+00  0.11028429228E+04  0.11028429228E+04  0.50400000000E-02 0.  1.
          1   -1    0    0  501    0  0.00000000000E+00 -0.00000000000E+00 -0.62418383412E+03  0.62418383414E+03  0.50400000000E-02 0. -1.
    8880023    1    1    2    0    0 -0.14802545930E+03  0.46781175326E+02  0.97392557091E+03  0.11859347532E+04  0.65864270000E+03 0.  1.
    8880022    1    1    2    0    0  0.14802545930E+03 -0.46781175326E+02 -0.49526648227E+03  0.54109200368E+03  0.15294330000E+03 0.  0.
<mgrwt>
<rscale>  0 0.50976475E+03</rscale>
<asrwt>0</asrwt>
<pdfrwt beam="1">  1        1 0.96028284E-01 0.67669064E+03</pdfrwt>
<pdfrwt beam="2">  1       -1 0.16966814E+00 0.67669064E+03</pdfrwt>
<totfact> 0.83418296E+00</totfact>
</mgrwt>
</event>
<event>
 4    2  0.3396630E-007  0.1170622E+04  0.7818608E-02  0.9186222E-01
          1   -1    0    0  501    0  0.00000000000E+00  0.00000000000E+00  0.18182393017E+04  0.18182393017E+04  0.50400000000E-02 0. -1.
         -1   -1    0    0    0  501 -0.00000000000E+00 -0.00000000000E+00 -0.12478993209E+04  0.12478993209E+04  0.50400000000E-02 0.  1.
    8880023    1    1    2    0    0  0.90931154974E+03 -0.33120795161E+03 -0.77347575853E+03  0.14030756063E+04  0.65864270000E+03 0.  0.
    8880022    1    1    2    0    0 -0.90931154974E+03  0.33120795161E+03  0.13438157393E+04  0.16630630162E+04  0.15294330000E+03 0.  0.
<mgrwt>
<rscale>  0 0.11196775E+04</rscale>
<asrwt>0</asrwt>
<pdfrwt beam="1">  1        1 0.27972912E+00 0.11706222E+04</pdfrwt>
<pdfrwt beam="2">  1       -1 0.19198451E+00 0.11706222E+04</pdfrwt>
<totfact> 0.66718345E-01</totfact>
</mgrwt>
</event>
<event>
 4    2  0.3396630E-007  0.1506477E+04  0.7818608E-02  0.8905076E-01
         -1   -1    0    0    0  501 -0.00000000000E+00  0.00000000000E+00  0.22239004334E+04  0.22239004334E+04  0.50400000000E-02 0.  1.
          1   -1    0    0  501    0  0.00000000000E+00 -0.00000000000E+00 -0.20432082539E+04  0.20432082539E+04  0.50400000000E-02 0. -1.
    8880023    1    1    2    0    0 -0.13362757421E+04  0.22367375417E+03 -0.14844471441E+04  0.21149601266E+04  0.65864270000E+03 0.  0.
    8880022    1    1    2    0    0  0.13362757421E+04 -0.22367375417E+03  0.16651393236E+04  0.21521485607E+04  0.15294330000E+03 0.  0.
<mgrwt>
<rscale>  0 0.14693775E+04</rscale>
<asrwt>0</asrwt>
<pdfrwt beam="1">  1        1 0.31433973E+00 0.15064770E+04</pdfrwt>
<pdfrwt beam="2">  1       -1 0.34213853E+00 0.15064770E+04</pdfrwt>
<totfact> 0.46008434E-02</totfact>
</mgrwt>
</event>
<event>
 4    2  0.3396630E-007  0.8480390E+03  0.7818608E-02  0.9615204E-01
         -1   -1    0    0    0  501 -0.00000000000E+00  0.00000000000E+00  0.36911238977E+03  0.36911238980E+03  0.50400000000E-02 0.  1.
          1   -1    0    0  501    0  0.00000000000E+00 -0.00000000000E+00 -0.19148078482E+04  0.19148078482E+04  0.50400000000E-02 0. -1.
    8880023    1    1    2    0    0 -0.12212109561E+03  0.52004465318E+03 -0.26597104096E+03  0.88876926375E+03  0.65864270000E+03 0.  0.
    8880022    1    1    2    0    0  0.12212109561E+03 -0.52004465318E+03 -0.12797244175E+04  0.13951509743E+04  0.15294330000E+03 0.  0.
<mgrwt>
<rscale>  0 0.76297981E+03</rscale>
<asrwt>0</asrwt>
<pdfrwt beam="1">  1        1 0.29458582E+00 0.84803904E+03</pdfrwt>
<pdfrwt beam="2">  1       -1 0.56786523E-01 0.84803904E+03</pdfrwt>
<totfact> 0.10999578E+01</totfact>
</mgrwt>
</event>
<event>
 4    2  0.5120287E-007  0.6946418E+03  0.7818608E-02  0.1002020E+00
         -1   -1    0    0    0  501 -0.00000000000E+00  0.00000000000E+00  0.84101951874E+03  0.84101951876E+03  0.50400000000E-02 0.  1.
          1   -1    0    0  501    0  0.00000000000E+00 -0.00000000000E+00 -0.11181365919E+04  0.11181365919E+04  0.50400000000E-02 0. -1.
    8880023    1    1    2    0    0  0.17948297142E+03  0.12846363246E+03  0.67579138784E+03  0.96913427761E+03  0.65864270000E+03 0.  1.
    8880022    1    1    2    0    0 -0.17948297142E+03 -0.12846363246E+03 -0.95290846100E+03  0.99002183307E+03  0.15294330000E+03 0.  0.
<mgrwt>
<rscale>  0 0.54773330E+03</rscale>
<asrwt>0</asrwt>
<pdfrwt beam="1">  1        1 0.17202101E+00 0.69464181E+03</pdfrwt>
<pdfrwt beam="2">  1       -1 0.12938762E+00 0.69464181E+03</pdfrwt>
<totfact> 0.65900256E+00</totfact>
</mgrwt>
</event>
<event>
 4    2  0.3396630E-007  0.1114103E+04  0.7818608E-02  0.9245514E-01
         -1   -1    0    0    0  501 -0.00000000000E+00  0.00000000000E+00  0.55626854326E+03  0.55626854328E+03  0.50400000000E-02 0.  1.
          1   -1    0    0  501    0  0.00000000000E+00 -0.00000000000E+00 -0.22200709270E+04  0.22200709270E+04  0.50400000000E-02 0. -1.
    8880023    1    1    2    0    0 -0.43631427024E+03 -0.78552276776E+03 -0.14699861914E+04  0.18444743886E+04  0.65864270000E+03 0.  0.
    8880022    1    1    2    0    0  0.43631427024E+03  0.78552276776E+03 -0.19381619238E+03  0.93186508172E+03  0.15294330000E+03 0.  0.
<mgrwt>
<rscale>  0 0.10595750E+04</rscale>
<asrwt>0</asrwt>
<pdfrwt beam="1">  1        1 0.34154937E+00 0.11141034E+04</pdfrwt>
<pdfrwt beam="2">  1       -1 0.85579777E-01 0.11141034E+04</pdfrwt>
<totfact> 0.28453985E+00</totfact>
</mgrwt>
</event>
<event>
 4    2  0.3396630E-007  0.6704895E+03  0.7818608E-02  0.1015314E+00
          1   -1    0    0  501    0  0.00000000000E+00  0.00000000000E+00  0.15095769010E+04  0.15095769010E+04  0.50400000000E-02 0. -1.
         -1   -1    0    0    0  501 -0.00000000000E+00 -0.00000000000E+00 -0.17130612897E+03  0.17130612905E+03  0.50400000000E-02 0.  1.
    8880023    1    1    2    0    0  0.82842849805E+02 -0.94250118143E+02  0.54716572817E+03  0.86541698786E+03  0.65864270000E+03 0.  1.
    8880022    1    1    2    0    0 -0.82842849805E+02  0.94250118143E+02  0.79110504385E+03  0.81546604218E+03  0.15294330000E+03 0.  0.
<mgrwt>
<rscale>  0 0.49416091E+03</rscale>
<asrwt>0</asrwt>
<pdfrwt beam="1">  1        1 0.23224261E+00 0.67048954E+03</pdfrwt>
<pdfrwt beam="2">  1       -1 0.26354788E-01 0.67048954E+03</pdfrwt>
<totfact> 0.85033792E+01</totfact>
</mgrwt>
</event>
<event>
 4    2  0.3396630E-007  0.6647747E+03  0.7818608E-02  0.1019723E+00
          1   -1    0    0  501    0  0.00000000000E+00  0.00000000000E+00  0.62433559462E+03  0.62433559464E+03  0.50400000000E-02 0. -1.
         -1   -1    0    0    0  501 -0.00000000000E+00 -0.00000000000E+00 -0.70884040816E+03  0.70884040817E+03  0.50400000000E-02 0.  1.
    8880023    1    1    2    0    0  0.88303687852E+02  0.17822643425E+02 -0.53220784138E+03  0.85156948078E+03  0.65864270000E+03 0.  0.
    8880022    1    1    2    0    0 -0.88303687852E+02 -0.17822643425E+02  0.44770302784E+03  0.48160652203E+03  0.15294330000E+03 0.  0.
<mgrwt>
<rscale>  0 0.47786637E+03</rscale>
<asrwt>0</asrwt>
<pdfrwt beam="1">  1        1 0.96051630E-01 0.66477469E+03</pdfrwt>
<pdfrwt beam="2">  1       -1 0.10905237E+00 0.66477469E+03</pdfrwt>
<totfact> 0.26056907E+01</totfact>
</mgrwt>
</event>
<event>
 4    2  0.3520682E-007  0.8290592E+03  0.7818608E-02  0.9651166E-01
         -1   -1    0    0    0  501 -0.00000000000E+00  0.00000000000E+00  0.14477121659E+04  0.14477121659E+04  0.50400000000E-02 0.  1.
          1   -1    0    0  501    0  0.00000000000E+00 -0.00000000000E+00 -0.18672113704E+04  0.18672113704E+04  0.50400000000E-02 0. -1.
    8880023    1    1    2    0    0  0.43507669547E+03 -0.25345078182E+03  0.12860045847E+04  0.15300807259E+04  0.65864270000E+03 0.  0.
    8880022    1    1    2    0    0 -0.43507669547E+03  0.25345078182E+03 -0.17055037892E+04  0.17848428104E+04  0.15294330000E+03 0.  0.
<mgrwt>
<rscale>  0 0.74000320E+03</rscale>
<asrwt>0</asrwt>
<pdfrwt beam="1">  1        1 0.28726329E+00 0.82905925E+03</pdfrwt>
<pdfrwt beam="2">  1       -1 0.22272495E+00 0.82905925E+03</pdfrwt>
<totfact> 0.40496224E-01</totfact>
</mgrwt>
</event>
<event>
 4    2  0.3396630E-007  0.1329427E+04  0.7818608E-02  0.9040555E-01
         -1   -1    0    0    0  501 -0.00000000000E+00  0.00000000000E+00  0.17765636183E+04  0.17765636183E+04  0.50400000000E-02 0.  1.
          1   -1    0    0  501    0  0.00000000000E+00 -0.00000000000E+00 -0.12357789371E+04  0.12357789371E+04  0.50400000000E-02 0. -1.
    8880023    1    1    2    0    0  0.93809094301E+03  0.67346294212E+03 -0.52895356756E+03  0.14307931488E+04  0.65864270000E+03 0. -1.
    8880022    1    1    2    0    0 -0.93809094301E+03 -0.67346294212E+03  0.10697382487E+04  0.15815494066E+04  0.15294330000E+03 0.  0.
<mgrwt>
<rscale>  0 0.12862319E+04</rscale>
<asrwt>0</asrwt>
<pdfrwt beam="1">  1        1 0.19011984E+00 0.13294274E+04</pdfrwt>
<pdfrwt beam="2">  1       -1 0.27331748E+00 0.13294274E+04</pdfrwt>
<totfact> 0.47822715E-01</totfact>
</mgrwt>
</event>
<event>
 4    2  0.3396630E-007  0.7400541E+03  0.7818608E-02  0.9859790E-01
         -1   -1    0    0    0  501 -0.00000000000E+00  0.00000000000E+00  0.16885534360E+04  0.16885534360E+04  0.50400000000E-02 0.  1.
          1   -1    0    0  501    0  0.00000000000E+00 -0.00000000000E+00 -0.48588912732E+03  0.48588912735E+03  0.50400000000E-02 0. -1.
    8880023    1    1    2    0    0  0.20373850173E+03  0.26899903941E+03  0.15174429992E+04  0.16882870972E+04  0.65864270000E+03 0.  1.
    8880022    1    1    2    0    0 -0.20373850173E+03 -0.26899903941E+03 -0.31477869053E+03  0.48615546620E+03  0.15294330000E+03 0. -1.
<mgrwt>
<rscale>  0 0.62250264E+03</rscale>
<asrwt>0</asrwt>
<pdfrwt beam="1">  1        1 0.74752173E-01 0.74005410E+03</pdfrwt>
<pdfrwt beam="2">  1       -1 0.25977745E+00 0.74005410E+03</pdfrwt>
<totfact> 0.29034857E+00</totfact>
</mgrwt>
</event>
<event>
 4    2  0.3396630E-007  0.9182179E+03  0.7818608E-02  0.9497397E-01
          1   -1    0    0  501    0  0.00000000000E+00  0.00000000000E+00  0.23693400894E+04  0.23693400894E+04  0.50400000000E-02 0. -1.
         -1   -1    0    0    0  501 -0.00000000000E+00 -0.00000000000E+00 -0.42878566365E+03  0.42878566368E+03  0.50400000000E-02 0.  1.
    8880023    1    1    2    0    0 -0.36451192948E+03  0.52578035086E+03  0.20323139982E+03  0.94043986103E+03  0.65864270000E+03 0.  1.
    8880022    1    1    2    0    0  0.36451192948E+03 -0.52578035086E+03  0.17373230259E+04  0.18576858920E+04  0.15294330000E+03 0.  0.
<mgrwt>
<rscale>  0 0.84476008E+03</rscale>
<asrwt>0</asrwt>
<pdfrwt beam="1">  1        1 0.36451387E+00 0.91821791E+03</pdfrwt>
<pdfrwt beam="2">  1       -1 0.65967023E-01 0.91821791E+03</pdfrwt>
<totfact> 0.39956268E+00</totfact>
</mgrwt>
</event>
<event>
 4    2  0.3396630E-007  0.1460222E+04  0.7818608E-02  0.8938248E-01
          1   -1    0    0  501    0  0.00000000000E+00  0.00000000000E+00  0.14648093639E+04  0.14648093640E+04  0.50400000000E-02 0. -1.
         -1   -1    0    0    0  501 -0.00000000000E+00 -0.00000000000E+00 -0.14344601251E+04  0.14344601252E+04  0.50400000000E-02 0.  1.
    8880023    1    1    2    0    0  0.10640793637E+04  0.75244443875E+03  0.43923831897E+03  0.15248534463E+04  0.65864270000E+03 0.  0.
    8880022    1    1    2    0    0 -0.10640793637E+04 -0.75244443875E+03 -0.40888908016E+03  0.13744160428E+04  0.15294330000E+03 0.  0.
<mgrwt>
<rscale>  0 0.14217161E+04</rscale>
<asrwt>0</asrwt>
<pdfrwt beam="1">  1        1 0.22535529E+00 0.14602218E+04</pdfrwt>
<pdfrwt beam="2">  1       -1 0.22068617E+00 0.14602218E+04</pdfrwt>
<totfact> 0.71662033E-01</totfact>
</mgrwt>
</event>
<event>
 4    2  0.3396630E-007  0.8085496E+03  0.7818608E-02  0.9692606E-01
         -1   -1    0    0    0  501 -0.00000000000E+00  0.00000000000E+00  0.45613369892E+03  0.45613369895E+03  0.50400000000E-02 0.  1.
          1   -1    0    0  501    0  0.00000000000E+00 -0.00000000000E+00 -0.23123326397E+04  0.23123326397E+04  0.50400000000E-02 0. -1.
    8880023    1    1    2    0    0 -0.45145484161E+03 -0.12700706416E+03  0.39622102633E+02  0.80951984882E+03  0.65864270000E+03 0.  0.
    8880022    1    1    2    0    0  0.45145484161E+03  0.12700706416E+03 -0.18958210434E+04  0.19589464898E+04  0.15294330000E+03 0. -1.
<mgrwt>
<rscale>  0 0.71458737E+03</rscale>
<asrwt>0</asrwt>
<pdfrwt beam="1">  1        1 0.35574348E+00 0.80854961E+03</pdfrwt>
<pdfrwt beam="2">  1       -1 0.70174417E-01 0.80854961E+03</pdfrwt>
<totfact> 0.39184501E+00</totfact>
</mgrwt>
</event>
<event>
 4    2  0.3396630E-007  0.7484637E+03  0.7818608E-02  0.9835945E-01
         -1   -1    0    0    0  501 -0.00000000000E+00  0.00000000000E+00  0.19026497839E+03  0.19026497846E+03  0.50400000000E-02 0.  1.
          1   -1    0    0  501    0  0.00000000000E+00 -0.00000000000E+00 -0.20376955084E+04  0.20376955084E+04  0.50400000000E-02 0. -1.
    8880023    1    1    2    0    0 -0.11963586775E+03 -0.33477606656E+03 -0.73042686495E+03  0.10458113438E+04  0.65864270000E+03 0.  1.
    8880022    1    1    2    0    0  0.11963586775E+03  0.33477606656E+03 -0.11170036650E+04  0.11821491430E+04  0.15294330000E+03 0.  0.
<mgrwt>
<rscale>  0 0.63468697E+03</rscale>
<asrwt>0</asrwt>
<pdfrwt beam="1">  1        1 0.31349160E+00 0.74846373E+03</pdfrwt>
<pdfrwt beam="2">  1       -1 0.29271537E-01 0.74846373E+03</pdfrwt>
<totfact> 0.31064140E+01</totfact>
</mgrwt>
</event>
<event>
 4    2  0.3396630E-007  0.8320436E+03  0.7818608E-02  0.9645369E-01
          1   -1    0    0  501    0  0.00000000000E+00  0.00000000000E+00  0.10317340761E+04  0.10317340761E+04  0.50400000000E-02 0. -1.
         -1   -1    0    0    0  501 -0.00000000000E+00 -0.00000000000E+00 -0.59712090399E+03  0.59712090401E+03  0.50400000000E-02 0.  1.
    8880023    1    1    2    0    0  0.47079558322E+03 -0.19193176378E+03 -0.14307159437E+03  0.84425468344E+03  0.65864270000E+03 0.  1.
    8880022    1    1    2    0    0 -0.47079558322E+03  0.19193176378E+03  0.57768476646E+03  0.78460029667E+03  0.15294330000E+03 0.  0.
<mgrwt>
<rscale>  0 0.74364761E+03</rscale>
<asrwt>0</asrwt>
<pdfrwt beam="1">  1        1 0.15872832E+00 0.83204356E+03</pdfrwt>
<pdfrwt beam="2">  1       -1 0.91864754E-01 0.83204356E+03</pdfrwt>
<totfact> 0.16833736E+01</totfact>
</mgrwt>
</event>
<event>
 4    2  0.3396630E-007  0.1341672E+04  0.7818608E-02  0.9030384E-01
         -1   -1    0    0    0  501 -0.00000000000E+00  0.00000000000E+00  0.17212128592E+04  0.17212128592E+04  0.50400000000E-02 0.  1.
          1   -1    0    0  501    0  0.00000000000E+00 -0.00000000000E+00 -0.16872904383E+04  0.16872904383E+04  0.50400000000E-02 0. -1.
    8880023    1    1    2    0    0 -0.79122756269E+03 -0.86036774189E+03  0.11634515570E+04  0.17758669542E+04  0.65864270000E+03 0.  0.
    8880022    1    1    2    0    0  0.79122756269E+03  0.86036774189E+03 -0.11295291361E+04  0.16326363433E+04  0.15294330000E+03 0.  0.
<mgrwt>
<rscale>  0 0.12989683E+04</rscale>
<asrwt>0</asrwt>
<pdfrwt beam="1">  1        1 0.25958314E+00 0.13416721E+04</pdfrwt>
<pdfrwt beam="2">  1       -1 0.26480198E+00 0.13416721E+04</pdfrwt>
<totfact> 0.26148379E-01</totfact>
</mgrwt>
</event>
<event>
 4    2  0.3396630E-007  0.7353024E+03  0.7818608E-02  0.9873848E-01
         -1   -1    0    0    0  501 -0.00000000000E+00  0.00000000000E+00  0.15532086897E+04  0.15532086897E+04  0.50400000000E-02 0.  1.
          1   -1    0    0  501    0  0.00000000000E+00 -0.00000000000E+00 -0.21284933486E+03  0.21284933492E+03  0.50400000000E-02 0. -1.
    8880023    1    1    2    0    0  0.56674380744E+02  0.32194319100E+03  0.11304501660E+04  0.13485500316E+04  0.65864270000E+03 0. -1.
    8880022    1    1    2    0    0 -0.56674380744E+02 -0.32194319100E+03  0.20990918884E+03  0.41750799302E+03  0.15294330000E+03 0.  0.
<mgrwt>
<rscale>  0 0.61545619E+03</rscale>
<asrwt>0</asrwt>
<pdfrwt beam="1">  1        1 0.32746052E-01 0.73530239E+03</pdfrwt>
<pdfrwt beam="2">  1       -1 0.23895518E+00 0.73530239E+03</pdfrwt>
<totfact> 0.11685353E+01</totfact>
</mgrwt>
</event>
<event>
 4    2  0.3396630E-007  0.6848391E+03  0.7818608E-02  0.1006709E+00
          1   -1    0    0  501    0  0.00000000000E+00  0.00000000000E+00  0.44349800847E+03  0.44349800850E+03  0.50400000000E-02 0. -1.
         -1   -1    0    0    0  501 -0.00000000000E+00 -0.00000000000E+00 -0.63727025243E+03  0.63727025245E+03  0.50400000000E-02 0.  1.
    8880023    1    1    2    0    0  0.15692787085E+03 -0.10280081993E+03 -0.37277668410E+03  0.77972240426E+03  0.65864270000E+03 0.  1.
    8880022    1    1    2    0    0 -0.15692787085E+03  0.10280081993E+03  0.17900444014E+03  0.30104585669E+03  0.15294330000E+03 0.  0.
<mgrwt>
<rscale>  0 0.52803858E+03</rscale>
<asrwt>0</asrwt>
<pdfrwt beam="1">  1        1 0.68230463E-01 0.68483908E+03</pdfrwt>
<pdfrwt beam="2">  1       -1 0.98041577E-01 0.68483908E+03</pdfrwt>
<totfact> 0.53447050E+01</totfact>
</mgrwt>
</event>
<event>
 4    2  0.3396630E-007  0.7451574E+03  0.7818608E-02  0.9845171E-01
         -1   -1    0    0    0  501 -0.00000000000E+00  0.00000000000E+00  0.25564933827E+03  0.25564933832E+03  0.50400000000E-02 0.  1.
          1   -1    0    0  501    0  0.00000000000E+00 -0.00000000000E+00 -0.15229548798E+04  0.15229548798E+04  0.50400000000E-02 0. -1.
    8880023    1    1    2    0    0  0.26391355703E+03  0.22759379150E+03 -0.43357483809E+03  0.86211753607E+03  0.65864270000E+03 0.  0.
    8880022    1    1    2    0    0 -0.26391355703E+03 -0.22759379150E+03 -0.83373070348E+03  0.91648668209E+03  0.15294330000E+03 0.  0.
<mgrwt>
<rscale>  0 0.62993744E+03</rscale>
<asrwt>0</asrwt>
<pdfrwt beam="1">  1        1 0.23430075E+00 0.74515737E+03</pdfrwt>
<pdfrwt beam="2">  1       -1 0.39330668E-01 0.74515737E+03</pdfrwt>
<totfact> 0.40820165E+01</totfact>
</mgrwt>
</event>
<event>
 4    2  0.3396630E-007  0.6711813E+03  0.7818608E-02  0.1014830E+00
          1   -1    0    0  501    0  0.00000000000E+00  0.00000000000E+00  0.10975703958E+04  0.10975703958E+04  0.50400000000E-02 0. -1.
         -1   -1    0    0    0  501 -0.00000000000E+00 -0.00000000000E+00 -0.24009281414E+03  0.24009281420E+03  0.50400000000E-02 0.  1.
    8880023    1    1    2    0    0  0.10147470009E+03 -0.79856597789E+02  0.28136951009E+03  0.72777276566E+03  0.65864270000E+03 0.  1.
    8880022    1    1    2    0    0 -0.10147470009E+03  0.79856597789E+02  0.57610807160E+03  0.60989044438E+03  0.15294330000E+03 0.  0.
<mgrwt>
<rscale>  0 0.49599431E+03</rscale>
<asrwt>0</asrwt>
<pdfrwt beam="1">  1        1 0.16885699E+00 0.67118134E+03</pdfrwt>
<pdfrwt beam="2">  1       -1 0.36937355E-01 0.67118134E+03</pdfrwt>
<totfact> 0.92127146E+01</totfact>
</mgrwt>
</event>
<event>
 4    2  0.3396630E-007  0.6997063E+03  0.7818608E-02  0.9998422E-01
          1   -1    0    0  501    0  0.00000000000E+00  0.00000000000E+00  0.14181564847E+04  0.14181564847E+04  0.50400000000E-02 0. -1.
         -1   -1    0    0    0  501 -0.00000000000E+00 -0.00000000000E+00 -0.17203094112E+03  0.17203094120E+03  0.50400000000E-02 0.  1.
    8880023    1    1    2    0    0 -0.18051846349E+03 -0.15228830546E+03  0.80085014668E+03  0.10634612392E+04  0.65864270000E+03 0. -1.
    8880022    1    1    2    0    0  0.18051846349E+03  0.15228830546E+03  0.44527539694E+03  0.52672618672E+03  0.15294330000E+03 0.  1.
<mgrwt>
<rscale>  0 0.55719486E+03</rscale>
<asrwt>0</asrwt>
<pdfrwt beam="1">  1        1 0.21817793E+00 0.69970626E+03</pdfrwt>
<pdfrwt beam="2">  1       -1 0.26466298E-01 0.69970626E+03</pdfrwt>
<totfact> 0.97248576E+01</totfact>
</mgrwt>
</event>
<event>
 4    2  0.3396630E-007  0.6596191E+03  0.7818608E-02  0.1024550E+00
         -1   -1    0    0    0  501 -0.00000000000E+00  0.00000000000E+00  0.10997132789E+04  0.10997132789E+04  0.50400000000E-02 0.  1.
          1   -1    0    0  501    0  0.00000000000E+00 -0.00000000000E+00 -0.31917853853E+03  0.31917853857E+03  0.50400000000E-02 0. -1.
    8880023    1    1    2    0    0  0.34806942285E+02  0.86965929186E+01  0.96983776300E+03  0.11728949854E+04  0.65864270000E+03 0.  1.
    8880022    1    1    2    0    0 -0.34806942285E+02 -0.86965929186E+01 -0.18930302268E+03  0.24599683203E+03  0.15294330000E+03 0.  0.
<mgrwt>
<rscale>  0 0.46079784E+03</rscale>
<asrwt>0</asrwt>
<pdfrwt beam="1">  1        1 0.49104392E-01 0.65961910E+03</pdfrwt>
<pdfrwt beam="2">  1       -1 0.16918665E+00 0.65961910E+03</pdfrwt>
<totfact> 0.20887759E+01</totfact>
</mgrwt>
</event>
<event>
 4    2  0.3396630E-007  0.7336235E+03  0.7818608E-02  0.9878926E-01
          1   -1    0    0  501    0  0.00000000000E+00  0.00000000000E+00  0.36603389933E+04  0.36603389933E+04  0.50400000000E-02 0. -1.
         -1   -1    0    0    0  501 -0.00000000000E+00 -0.00000000000E+00 -0.29285453266E+03  0.29285453271E+03  0.50400000000E-02 0.  1.
    8880023    1    1    2    0    0  0.47737154196E+02 -0.31955349017E+03  0.19291918380E+03  0.75856528177E+03  0.65864270000E+03 0.  0.
    8880022    1    1    2    0    0 -0.47737154196E+02  0.31955349017E+03  0.31745652769E+04  0.31946282443E+04  0.15294330000E+03 0. -1.
<mgrwt>
<rscale>  0 0.61293566E+03</rscale>
<asrwt>0</asrwt>
<pdfrwt beam="1">  1        1 0.56312909E+00 0.73362352E+03</pdfrwt>
<pdfrwt beam="2">  1       -1 0.45054542E-01 0.73362352E+03</pdfrwt>
<totfact> 0.99906618E-01</totfact>
</mgrwt>
</event>
<event>
 4    2  0.3994202E-007  0.6824418E+03  0.7818608E-02  0.1007975E+00
         -1   -1    0    0    0  501 -0.00000000000E+00  0.00000000000E+00  0.11963084596E+04  0.11963084596E+04  0.50400000000E-02 0.  1.
          1   -1    0    0  501    0  0.00000000000E+00 -0.00000000000E+00 -0.16460737442E+04  0.16460737442E+04  0.50400000000E-02 0. -1.
    8880023    1    1    2    0    0 -0.17377480618E+03  0.41459733496E+02  0.10893183821E+04  0.12854342989E+04  0.65864270000E+03 0.  1.
    8880022    1    1    2    0    0  0.17377480618E+03 -0.41459733496E+02 -0.15390836667E+04  0.15569479050E+04  0.15294330000E+03 0.  0.
<mgrwt>
<rscale>  0 0.52287508E+03</rscale>
<asrwt>0</asrwt>
<pdfrwt beam="1">  1        1 0.25324211E+00 0.68244179E+03</pdfrwt>
<pdfrwt beam="2">  1       -1 0.18404746E+00 0.68244179E+03</pdfrwt>
<totfact> 0.10802597E+00</totfact>
</mgrwt>
</event>
<event>
 4    2  0.3396630E-007  0.7007669E+03  0.7818608E-02  0.9994034E-01
          1   -1    0    0  501    0  0.00000000000E+00  0.00000000000E+00  0.86580816612E+03  0.86580816614E+03  0.50400000000E-02 0. -1.
         -1   -1    0    0    0  501 -0.00000000000E+00 -0.00000000000E+00 -0.56997734945E+03  0.56997734947E+03  0.50400000000E-02 0.  1.
    8880023    1    1    2    0    0  0.23662513853E+03 -0.35673840933E+02 -0.31031947594E+03  0.76640228505E+03  0.65864270000E+03 0.  1.
    8880022    1    1    2    0    0 -0.23662513853E+03  0.35673840933E+02  0.60615029261E+03  0.66938323057E+03  0.15294330000E+03 0.  0.
<mgrwt>
<rscale>  0 0.55912589E+03</rscale>
<asrwt>0</asrwt>
<pdfrwt beam="1">  1        1 0.13320126E+00 0.70076693E+03</pdfrwt>
<pdfrwt beam="2">  1       -1 0.87688823E-01 0.70076693E+03</pdfrwt>
<totfact> 0.25656917E+01</totfact>
</mgrwt>
</event>
<event>
 4    2  0.3396630E-007  0.9810177E+03  0.7818608E-02  0.9406825E-01
          1   -1    0    0  501    0  0.00000000000E+00  0.00000000000E+00  0.20402639631E+04  0.20402639631E+04  0.50400000000E-02 0. -1.
         -1   -1    0    0    0  501 -0.00000000000E+00 -0.00000000000E+00 -0.51007148922E+03  0.51007148924E+03  0.50400000000E-02 0.  1.
    8880023    1    1    2    0    0 -0.62285554012E+03  0.37501534035E+03  0.16320954515E+03  0.99450142848E+03  0.65864270000E+03 0.  0.
    8880022    1    1    2    0    0  0.62285554012E+03 -0.37501534035E+03  0.13669829287E+04  0.15558340238E+04  0.15294330000E+03 0.  0.
<mgrwt>
<rscale>  0 0.91516157E+03</rscale>
<asrwt>0</asrwt>
<pdfrwt beam="1">  1        1 0.31388676E+00 0.98101770E+03</pdfrwt>
<pdfrwt beam="2">  1       -1 0.78472537E-01 0.98101770E+03</pdfrwt>
<totfact> 0.46133061E+00</totfact>
</mgrwt>
</event>
<event>
 4    2  0.3396630E-007  0.8941279E+03  0.7818608E-02  0.9535525E-01
          1   -1    0    0  501    0  0.00000000000E+00  0.00000000000E+00  0.98689474287E+03  0.98689474289E+03  0.50400000000E-02 0. -1.
         -1   -1    0    0    0  501 -0.00000000000E+00 -0.00000000000E+00 -0.19605306315E+04  0.19605306315E+04  0.50400000000E-02 0.  1.
    8880023    1    1    2    0    0  0.58285328104E+03  0.16104829059E+03 -0.17418177931E+04  0.19579054956E+04  0.65864270000E+03 0.  1.
    8880022    1    1    2    0    0 -0.58285328104E+03 -0.16104829059E+03  0.76818190447E+03  0.98951987878E+03  0.15294330000E+03 0.  0.
<mgrwt>
<rscale>  0 0.81714641E+03</rscale>
<asrwt>0</asrwt>
<pdfrwt beam="1">  1        1 0.15182996E+00 0.89412790E+03</pdfrwt>
<pdfrwt beam="2">  1       -1 0.30162010E+00 0.89412790E+03</pdfrwt>
<totfact> 0.51570045E-01</totfact>
</mgrwt>
</event>
<event>
 4    2  0.3396630E-007  0.8136336E+03  0.7818608E-02  0.9682057E-01
          1   -1    0    0  501    0  0.00000000000E+00  0.00000000000E+00  0.21586356099E+04  0.21586356099E+04  0.50400000000E-02 0. -1.
         -1   -1    0    0    0  501 -0.00000000000E+00 -0.00000000000E+00 -0.39790898653E+03  0.39790898657E+03  0.50400000000E-02 0.  1.
    8880023    1    1    2    0    0 -0.81135211168E+02  0.47075094666E+03  0.97644938825E+02  0.81947185224E+03  0.65864270000E+03 0.  1.
    8880022    1    1    2    0    0  0.81135211168E+02 -0.47075094666E+03  0.16630816845E+04  0.17370727442E+04  0.15294330000E+03 0. -1.
<mgrwt>
<rscale>  0 0.72095205E+03</rscale>
<asrwt>0</asrwt>
<pdfrwt beam="1">  1        1 0.33209778E+00 0.81363357E+03</pdfrwt>
<pdfrwt beam="2">  1       -1 0.61216769E-01 0.81363357E+03</pdfrwt>
<totfact> 0.65444475E+00</totfact>
</mgrwt>
</event>
<event>
 4    2  0.3396630E-007  0.6940227E+03  0.7818608E-02  0.1002296E+00
          1   -1    0    0  501    0  0.00000000000E+00  0.00000000000E+00  0.54883561336E+03  0.54883561338E+03  0.50400000000E-02 0. -1.
         -1   -1    0    0    0  501 -0.00000000000E+00 -0.00000000000E+00 -0.85548728731E+03  0.85548728732E+03  0.50400000000E-02 0.  1.
    8880023    1    1    2    0    0 -0.21524234139E+02 -0.21770158130E+03 -0.66251606218E+03  0.95947642496E+03  0.65864270000E+03 0.  1.
    8880022    1    1    2    0    0  0.21524234139E+02  0.21770158130E+03  0.35586438822E+03  0.44484647574E+03  0.15294330000E+03 0.  0.
<mgrwt>
<rscale>  0 0.54654703E+03</rscale>
<asrwt>0</asrwt>
<pdfrwt beam="1">  1        1 0.84436248E-01 0.69402268E+03</pdfrwt>
<pdfrwt beam="2">  1       -1 0.13161343E+00 0.69402268E+03</pdfrwt>
<totfact> 0.19751618E+01</totfact>
</mgrwt>
</event>
<event>
 4    2  0.3396630E-007  0.7765016E+03  0.7818608E-02  0.9764120E-01
          1   -1    0    0  501    0  0.00000000000E+00  0.00000000000E+00  0.13825281537E+04  0.13825281538E+04  0.50400000000E-02 0. -1.
         -1   -1    0    0    0  501 -0.00000000000E+00 -0.00000000000E+00 -0.34626069965E+03  0.34626069968E+03  0.50400000000E-02 0.  1.
    8880023    1    1    2    0    0  0.38545120138E+03 -0.14342883071E+03  0.22831063644E+03  0.80937037943E+03  0.65864270000E+03 0.  1.
    8880022    1    1    2    0    0 -0.38545120138E+03  0.14342883071E+03  0.80795681767E+03  0.91941847401E+03  0.15294330000E+03 0.  1.
<mgrwt>
<rscale>  0 0.67324133E+03</rscale>
<asrwt>0</asrwt>
<pdfrwt beam="1">  1        1 0.21269664E+00 0.77650155E+03</pdfrwt>
<pdfrwt beam="2">  1       -1 0.53270876E-01 0.77650155E+03</pdfrwt>
<totfact> 0.28870142E+01</totfact>
</mgrwt>
</event>
<event>
 4    2  0.3396630E-007  0.7680572E+03  0.7818608E-02  0.9784678E-01
         -1   -1    0    0    0  501 -0.00000000000E+00  0.00000000000E+00  0.70079017984E+03  0.70079017986E+03  0.50400000000E-02 0.  1.
          1   -1    0    0  501    0  0.00000000000E+00 -0.00000000000E+00 -0.90327858733E+03  0.90327858734E+03  0.50400000000E-02 0. -1.
    8880023    1    1    2    0    0  0.85296878490E+02  0.38577977117E+03  0.40121658581E+03  0.86653709922E+03  0.65864270000E+03 0.  1.
    8880022    1    1    2    0    0 -0.85296878490E+02 -0.38577977117E+03 -0.60370499330E+03  0.73753166798E+03  0.15294330000E+03 0. -1.
<mgrwt>
<rscale>  0 0.66191339E+03</rscale>
<asrwt>0</asrwt>
<pdfrwt beam="1">  1        1 0.13896594E+00 0.76805716E+03</pdfrwt>
<pdfrwt beam="2">  1       -1 0.10781387E+00 0.76805716E+03</pdfrwt>
<totfact> 0.14868904E+01</totfact>
</mgrwt>
</event>
<event>
 4    2  0.3396630E-007  0.6856822E+03  0.7818608E-02  0.1006276E+00
         -1   -1    0    0    0  501 -0.00000000000E+00  0.00000000000E+00  0.12276358202E+04  0.12276358202E+04  0.50400000000E-02 0.  1.
          1   -1    0    0  501    0  0.00000000000E+00 -0.00000000000E+00 -0.19981532878E+03  0.19981532884E+03  0.50400000000E-02 0. -1.
    8880023    1    1    2    0    0  0.16949393037E+03 -0.87302101496E+02  0.94868323099E+03  0.11705383071E+04  0.65864270000E+03 0.  1.
    8880022    1    1    2    0    0 -0.16949393037E+03  0.87302101496E+02  0.79137260430E+02  0.25691284195E+03  0.15294330000E+03 0.  0.
<mgrwt>
<rscale>  0 0.52981795E+03</rscale>
<asrwt>0</asrwt>
<pdfrwt beam="1">  1        1 0.30740820E-01 0.68568218E+03</pdfrwt>
<pdfrwt beam="2">  1       -1 0.18886705E+00 0.68568218E+03</pdfrwt>
<totfact> 0.27617309E+01</totfact>
</mgrwt>
</event>
<event>
 4    2  0.3396630E-007  0.6775207E+03  0.7818608E-02  0.1010762E+00
          1   -1    0    0  501    0  0.00000000000E+00  0.00000000000E+00  0.61360953622E+03  0.61360953624E+03  0.50400000000E-02 0. -1.
         -1   -1    0    0    0  501 -0.00000000000E+00 -0.00000000000E+00 -0.10751768551E+04  0.10751768551E+04  0.50400000000E-02 0.  1.
    8880023    1    1    2    0    0  0.10614338587E+03  0.11814231872E+03 -0.94190109315E+03  0.11602637206E+04  0.65864270000E+03 0.  1.
    8880022    1    1    2    0    0 -0.10614338587E+03 -0.11814231872E+03  0.48033377423E+03  0.52852267077E+03  0.15294330000E+03 0.  0.
<mgrwt>
<rscale>  0 0.51172772E+03</rscale>
<asrwt>0</asrwt>
<pdfrwt beam="1">  1        1 0.94401467E-01 0.67752065E+03</pdfrwt>
<pdfrwt beam="2">  1       -1 0.16541182E+00 0.67752065E+03</pdfrwt>
<totfact> 0.91878207E+00</totfact>
</mgrwt>
</event>
<event>
 4    2  0.3396630E-007  0.6631226E+03  0.7818608E-02  0.1021163E+00
         -1   -1    0    0    0  501 -0.00000000000E+00  0.00000000000E+00  0.27755652972E+03  0.27755652977E+03  0.50400000000E-02 0.  1.
          1   -1    0    0  501    0  0.00000000000E+00 -0.00000000000E+00 -0.66918617980E+03  0.66918617982E+03  0.50400000000E-02 0. -1.
    8880023    1    1    2    0    0  0.66290894437E+02  0.39075620265E+02 -0.20638873245E+03  0.69449830952E+03  0.65864270000E+03 0.  0.
    8880022    1    1    2    0    0 -0.66290894437E+02 -0.39075620265E+02 -0.18524091763E+03  0.25224440006E+03  0.15294330000E+03 0.  0.
<mgrwt>
<rscale>  0 0.47269171E+03</rscale>
<asrwt>0</asrwt>
<pdfrwt beam="1">  1        1 0.10295172E+00 0.66312261E+03</pdfrwt>
<pdfrwt beam="2">  1       -1 0.42701005E-01 0.66312261E+03</pdfrwt>
<totfact> 0.16071044E+02</totfact>
</mgrwt>
</event>
<event>
 4    2  0.3396630E-007  0.8184819E+03  0.7818608E-02  0.9672173E-01
         -1   -1    0    0    0  501 -0.00000000000E+00  0.00000000000E+00  0.62065140129E+03  0.62065140131E+03  0.50400000000E-02 0.  1.
          1   -1    0    0  501    0  0.00000000000E+00 -0.00000000000E+00 -0.11082327482E+04  0.11082327482E+04  0.50400000000E-02 0. -1.
    8880023    1    1    2    0    0 -0.45076847569E+03  0.18141188422E+03  0.22879315691E+03  0.84985822660E+03  0.65864270000E+03 0.  1.
    8880022    1    1    2    0    0  0.45076847569E+03 -0.18141188422E+03 -0.71637450378E+03  0.87902592288E+03  0.15294330000E+03 0.  0.
<mgrwt>
<rscale>  0 0.72698052E+03</rscale>
<asrwt>0</asrwt>
<pdfrwt beam="1">  1        1 0.17049735E+00 0.81848195E+03</pdfrwt>
<pdfrwt beam="2">  1       -1 0.95484831E-01 0.81848195E+03</pdfrwt>
<totfact> 0.13537441E+01</totfact>
</mgrwt>
</event>
<event>
 4    2  0.3396630E-007  0.7473084E+03  0.7818608E-02  0.9839148E-01
         -1   -1    0    0    0  501 -0.00000000000E+00  0.00000000000E+00  0.13751184210E+03  0.13751184219E+03  0.50400000000E-02 0.  1.
          1   -1    0    0  501    0  0.00000000000E+00 -0.00000000000E+00 -0.23666886203E+04  0.23666886203E+04  0.50400000000E-02 0. -1.
    8880023    1    1    2    0    0  0.20424326539E+03  0.28800065806E+03 -0.13181749113E+04  0.15152739005E+04  0.65864270000E+03 0.  1.
    8880022    1    1    2    0    0 -0.20424326539E+03 -0.28800065806E+03 -0.91100186693E+03  0.98892656202E+03  0.15294330000E+03 0. -1.
<mgrwt>
<rscale>  0 0.63303316E+03</rscale>
<asrwt>0</asrwt>
<pdfrwt beam="1">  1        1 0.36410591E+00 0.74730843E+03</pdfrwt>
<pdfrwt beam="2">  1       -1 0.21155670E-01 0.74730843E+03</pdfrwt>
<totfact> 0.32491056E+01</totfact>
</mgrwt>
</event>
<event>
 4    2  0.3396630E-007  0.1116775E+04  0.7818608E-02  0.9242605E-01
         -1   -1    0    0    0  501 -0.00000000000E+00  0.00000000000E+00  0.45733205915E+03  0.45733205917E+03  0.50400000000E-02 0.  1.
          1   -1    0    0  501    0  0.00000000000E+00 -0.00000000000E+00 -0.22917762767E+04  0.22917762767E+04  0.50400000000E-02 0. -1.
    8880023    1    1    2    0    0 -0.89938616870E+03 -0.66945780928E+02 -0.83628655175E+03  0.13951926824E+04  0.65864270000E+03 0.  1.
    8880022    1    1    2    0    0  0.89938616870E+03  0.66945780928E+02 -0.99815766581E+03  0.13539156535E+04  0.15294330000E+03 0. -1.
<mgrwt>
<rscale>  0 0.10624294E+04</rscale>
<asrwt>0</asrwt>
<pdfrwt beam="1">  1        1 0.35258096E+00 0.11167755E+04</pdfrwt>
<pdfrwt beam="2">  1       -1 0.70358780E-01 0.11167755E+04</pdfrwt>
<totfact> 0.38516313E+00</totfact>
</mgrwt>
</event>
<event>
 4    2  0.3396630E-007  0.6629553E+03  0.7818608E-02  0.1021314E+00
         -1   -1    0    0    0  501 -0.00000000000E+00  0.00000000000E+00  0.20837802563E+03  0.20837802569E+03  0.50400000000E-02 0.  1.
          1   -1    0    0  501    0  0.00000000000E+00 -0.00000000000E+00 -0.10282088668E+04  0.10282088668E+04  0.50400000000E-02 0. -1.
    8880023    1    1    2    0    0 -0.16033876134E+02  0.73772655032E+02 -0.37838756347E+03  0.76333927206E+03  0.65864270000E+03 0.  1.
    8880022    1    1    2    0    0  0.16033876134E+02 -0.73772655032E+02 -0.44144327767E+03  0.47324762042E+03  0.15294330000E+03 0.  0.
<mgrwt>
<rscale>  0 0.47215356E+03</rscale>
<asrwt>0</asrwt>
<pdfrwt beam="1">  1        1 0.15818598E+00 0.66295527E+03</pdfrwt>
<pdfrwt beam="2">  1       -1 0.32058158E-01 0.66295527E+03</pdfrwt>
<totfact> 0.13368139E+02</totfact>
</mgrwt>
</event>
<event>
 4    2  0.3396630E-007  0.8386258E+03  0.7818608E-02  0.9632777E-01
          1   -1    0    0  501    0  0.00000000000E+00  0.00000000000E+00  0.11341556434E+04  0.11341556434E+04  0.50400000000E-02 0. -1.
         -1   -1    0    0    0  501 -0.00000000000E+00 -0.00000000000E+00 -0.78738805094E+03  0.78738805095E+03  0.50400000000E-02 0.  1.
    8880023    1    1    2    0    0 -0.27484145602E+03 -0.44039210911E+03 -0.45509093953E+03  0.95414936211E+03  0.65864270000E+03 0.  1.
    8880022    1    1    2    0    0  0.27484145602E+03  0.44039210911E+03  0.80185853199E+03  0.96739433224E+03  0.15294330000E+03 0.  0.
<mgrwt>
<rscale>  0 0.75164262E+03</rscale>
<asrwt>0</asrwt>
<pdfrwt beam="1">  1        1 0.17448548E+00 0.83862581E+03</pdfrwt>
<pdfrwt beam="2">  1       -1 0.12113662E+00 0.83862581E+03</pdfrwt>
<totfact> 0.73935423E+00</totfact>
</mgrwt>
</event>
<event>
 4    2  0.3396630E-007  0.7084320E+03  0.7818608E-02  0.9963870E-01
          1   -1    0    0  501    0  0.00000000000E+00  0.00000000000E+00  0.17705491320E+04  0.17705491320E+04  0.50400000000E-02 0. -1.
         -1   -1    0    0    0  501 -0.00000000000E+00 -0.00000000000E+00 -0.29069642366E+03  0.29069642370E+03  0.50400000000E-02 0.  1.
    8880023    1    1    2    0    0 -0.26045792198E+03 -0.15079635654E+02  0.18589257939E+03  0.73241517043E+03  0.65864270000E+03 0.  1.
    8880022    1    1    2    0    0  0.26045792198E+03  0.15079635654E+02  0.12939601290E+04  0.13288303853E+04  0.15294330000E+03 0.  0.
<mgrwt>
<rscale>  0 0.57263248E+03</rscale>
<asrwt>0</asrwt>
<pdfrwt beam="1">  1        1 0.27239217E+00 0.70843202E+03</pdfrwt>
<pdfrwt beam="2">  1       -1 0.44722527E-01 0.70843202E+03</pdfrwt>
<totfact> 0.22051112E+01</totfact>
</mgrwt>
</event>
<event>
 4    2  0.3396630E-007  0.6610311E+03  0.7818608E-02  0.1023124E+00
          1   -1    0    0  501    0  0.00000000000E+00  0.00000000000E+00  0.10052583958E+04  0.10052583958E+04  0.50400000000E-02 0. -1.
         -1   -1    0    0    0  501 -0.00000000000E+00 -0.00000000000E+00 -0.51294352470E+03  0.51294352472E+03  0.50400000000E-02 0.  1.
    8880023    1    1    2    0    0  0.85595499885E+01 -0.55485852534E+02 -0.28801090889E+03  0.72104953757E+03  0.65864270000E+03 0.  1.
    8880022    1    1    2    0    0 -0.85595499885E+01  0.55485852534E+02  0.78032577999E+03  0.79715238296E+03  0.15294330000E+03 0.  0.
<mgrwt>
<rscale>  0 0.46575916E+03</rscale>
<asrwt>0</asrwt>
<pdfrwt beam="1">  1        1 0.15465514E+00 0.66103113E+03</pdfrwt>
<pdfrwt beam="2">  1       -1 0.78914389E-01 0.66103113E+03</pdfrwt>
<totfact> 0.25020290E+01</totfact>
</mgrwt>
</event>
<event>
 4    2  0.3396630E-007  0.7603724E+03  0.7818608E-02  0.9804144E-01
         -1   -1    0    0    0  501 -0.00000000000E+00  0.00000000000E+00  0.92282049202E+03  0.92282049204E+03  0.50400000000E-02 0.  1.
          1   -1    0    0  501    0  0.00000000000E+00 -0.00000000000E+00 -0.17935455128E+04  0.17935455128E+04  0.50400000000E-02 0. -1.
    8880023    1    1    2    0    0  0.69393591009E+02 -0.37355123730E+03  0.73601523472E+03  0.10582460155E+04  0.65864270000E+03 0.  1.
    8880022    1    1    2    0    0 -0.69393591009E+02  0.37355123730E+03 -0.16067402555E+04  0.16581199893E+04  0.15294330000E+03 0.  0.
<mgrwt>
<rscale>  0 0.65140610E+03</rscale>
<asrwt>0</asrwt>
<pdfrwt beam="1">  1        1 0.27593008E+00 0.76037241E+03</pdfrwt>
<pdfrwt beam="2">  1       -1 0.14197238E+00 0.76037241E+03</pdfrwt>
<totfact> 0.17456520E+00</totfact>
</mgrwt>
</event>
<event>
 4    2  0.3396630E-007  0.1089009E+04  0.7818608E-02  0.9273393E-01
         -1   -1    0    0    0  501 -0.00000000000E+00  0.00000000000E+00  0.81597456970E+03  0.81597456971E+03  0.50400000000E-02 0.  1.
          1   -1    0    0  501    0  0.00000000000E+00 -0.00000000000E+00 -0.20751067673E+04  0.20751067673E+04  0.50400000000E-02 0. -1.
    8880023    1    1    2    0    0 -0.41212199656E+03  0.76307686207E+03  0.27406898512E+03  0.11229669863E+04  0.65864270000E+03 0.  0.
    8880022    1    1    2    0    0  0.41212199656E+03 -0.76307686207E+03 -0.15332011827E+04  0.17681143507E+04  0.15294330000E+03 0.  0.
<mgrwt>
<rscale>  0 0.10326971E+04</rscale>
<asrwt>0</asrwt>
<pdfrwt beam="1">  1        1 0.31924719E+00 0.10890092E+04</pdfrwt>
<pdfrwt beam="2">  1       -1 0.12553455E+00 0.10890092E+04</pdfrwt>
<totfact> 0.14658033E+00</totfact>
</mgrwt>
</event>
<event>
 4    2  0.3396630E-007  0.1390309E+04  0.7818608E-02  0.8991250E-01
          1   -1    0    0  501    0  0.00000000000E+00  0.00000000000E+00  0.22220007031E+04  0.22220007031E+04  0.50400000000E-02 0. -1.
         -1   -1    0    0    0  501 -0.00000000000E+00 -0.00000000000E+00 -0.14112628446E+04  0.14112628446E+04  0.50400000000E-02 0.  1.
    8880023    1    1    2    0    0 -0.12242694907E+04 -0.17704910414E+02  0.16374009709E+04  0.21480319819E+04  0.65864270000E+03 0.  0.
    8880022    1    1    2    0    0  0.12242694907E+04  0.17704910414E+02 -0.82666311237E+03  0.14852315658E+04  0.15294330000E+03 0.  0.
<mgrwt>
<rscale>  0 0.13494433E+04</rscale>
<asrwt>0</asrwt>
<pdfrwt beam="1">  1        1 0.34184626E+00 0.13903091E+04</pdfrwt>
<pdfrwt beam="2">  1       -1 0.21711736E+00 0.13903091E+04</pdfrwt>
<totfact> 0.23184353E-01</totfact>
</mgrwt>
</event>
<event>
 4    2  0.3396630E-007  0.8062590E+03  0.7818608E-02  0.9697423E-01
          1   -1    0    0  501    0  0.00000000000E+00  0.00000000000E+00  0.59378053892E+03  0.59378053894E+03  0.50400000000E-02 0. -1.
         -1   -1    0    0    0  501 -0.00000000000E+00 -0.00000000000E+00 -0.87320355223E+03  0.87320355225E+03  0.50400000000E-02 0.  1.
    8880023    1    1    2    0    0 -0.24591573234E+03  0.39467552569E+03  0.14487231526E+03  0.81917123484E+03  0.65864270000E+03 0. -1.
    8880022    1    1    2    0    0  0.24591573234E+03 -0.39467552569E+03 -0.42429532857E+03  0.64781285635E+03  0.15294330000E+03 0.  0.
<mgrwt>
<rscale>  0 0.71170447E+03</rscale>
<asrwt>0</asrwt>
<pdfrwt beam="1">  1        1 0.91350852E-01 0.80625897E+03</pdfrwt>
<pdfrwt beam="2">  1       -1 0.13433901E+00 0.80625897E+03</pdfrwt>
<totfact> 0.16559970E+01</totfact>
</mgrwt>
</event>
<event>
 4    2  0.3396630E-007  0.8486308E+03  0.7818608E-02  0.9614116E-01
         -1   -1    0    0    0  501 -0.00000000000E+00  0.00000000000E+00  0.12217971606E+04  0.12217971606E+04  0.50400000000E-02 0.  1.
          1   -1    0    0  501    0  0.00000000000E+00 -0.00000000000E+00 -0.85124467357E+03  0.85124467359E+03  0.50400000000E-02 0. -1.
    8880023    1    1    2    0    0 -0.44430006364E+03 -0.29826406301E+03  0.94710701852E+03  0.12716862461E+04  0.65864270000E+03 0.  0.
    8880022    1    1    2    0    0  0.44430006364E+03  0.29826406301E+03 -0.57655453145E+03  0.80135558810E+03  0.15294330000E+03 0.  0.
<mgrwt>
<rscale>  0 0.76368892E+03</rscale>
<asrwt>0</asrwt>
<pdfrwt beam="1">  1        1 0.13096072E+00 0.84863078E+03</pdfrwt>
<pdfrwt beam="2">  1       -1 0.18796879E+00 0.84863078E+03</pdfrwt>
<totfact> 0.37325928E+00</totfact>
</mgrwt>
</event>
<event>
 4    2  0.3396630E-007  0.7511317E+03  0.7818608E-02  0.9828632E-01
         -1   -1    0    0    0  501 -0.00000000000E+00  0.00000000000E+00  0.81944646254E+03  0.81944646255E+03  0.50400000000E-02 0.  1.
          1   -1    0    0  501    0  0.00000000000E+00 -0.00000000000E+00 -0.87869180372E+03  0.87869180374E+03  0.50400000000E-02 0. -1.
    8880023    1    1    2    0    0 -0.18795065087E+02 -0.36060411046E+03  0.57945069306E+03  0.94866321258E+03  0.65864270000E+03 0.  1.
    8880022    1    1    2    0    0  0.18795065087E+02  0.36060411046E+03 -0.63869603425E+03  0.74947505371E+03  0.15294330000E+03 0.  0.
<mgrwt>
<rscale>  0 0.63848341E+03</rscale>
<asrwt>0</asrwt>
<pdfrwt beam="1">  1        1 0.13518335E+00 0.75113167E+03</pdfrwt>
<pdfrwt beam="2">  1       -1 0.12606869E+00 0.75113167E+03</pdfrwt>
<totfact> 0.10704653E+01</totfact>
</mgrwt>
</event>
<event>
 4    2  0.3396630E-007  0.9954467E+03  0.7818608E-02  0.9387539E-01
          1   -1    0    0  501    0  0.00000000000E+00  0.00000000000E+00  0.32727614724E+04  0.32727614724E+04  0.50400000000E-02 0. -1.
         -1   -1    0    0    0  501 -0.00000000000E+00 -0.00000000000E+00 -0.35080536668E+03  0.35080536671E+03  0.50400000000E-02 0.  1.
    8880023    1    1    2    0    0 -0.64875038654E+03  0.36908924848E+03  0.56083852119E+03  0.11425646548E+04  0.65864270000E+03 0.  1.
    8880022    1    1    2    0    0  0.64875038654E+03 -0.36908924848E+03  0.23611175845E+04  0.24810021842E+04  0.15294330000E+03 0.  0.
<mgrwt>
<rscale>  0 0.93108295E+03</rscale>
<asrwt>0</asrwt>
<pdfrwt beam="1">  1        1 0.50350177E+00 0.99544671E+03</pdfrwt>
<pdfrwt beam="2">  1       -1 0.53970056E-01 0.99544671E+03</pdfrwt>
<totfact> 0.13434109E+00</totfact>
</mgrwt>
</event>
<event>
 4    2  0.3396630E-007  0.6784412E+03  0.7818608E-02  0.1010219E+00
         -1   -1    0    0    0  501 -0.00000000000E+00  0.00000000000E+00  0.78704165544E+03  0.78704165546E+03  0.50400000000E-02 0.  1.
          1   -1    0    0  501    0  0.00000000000E+00 -0.00000000000E+00 -0.82886969317E+03  0.82886969318E+03  0.50400000000E-02 0. -1.
    8880023    1    1    2    0    0 -0.85804075859E+02  0.13823861643E+03  0.61898936574E+03  0.91838461206E+03  0.65864270000E+03 0.  1.
    8880022    1    1    2    0    0  0.85804075859E+02 -0.13823861643E+03 -0.66081740347E+03  0.69752673658E+03  0.15294330000E+03 0.  0.
<mgrwt>
<rscale>  0 0.51387495E+03</rscale>
<asrwt>0</asrwt>
<pdfrwt beam="1">  1        1 0.12751841E+00 0.67844120E+03</pdfrwt>
<pdfrwt beam="2">  1       -1 0.12108333E+00 0.67844120E+03</pdfrwt>
<totfact> 0.13143514E+01</totfact>
</mgrwt>
</event>
<event>
 4    2  0.3396630E-007  0.7053144E+03  0.7818608E-02  0.9975830E-01
         -1   -1    0    0    0  501 -0.00000000000E+00  0.00000000000E+00  0.13695169051E+03  0.13695169061E+03  0.50400000000E-02 0.  1.
          1   -1    0    0  501    0  0.00000000000E+00 -0.00000000000E+00 -0.25177293404E+04  0.25177293404E+04  0.50400000000E-02 0. -1.
    8880023    1    1    2    0    0  0.20927227939E+03 -0.14093726750E+03 -0.89307078080E+03  0.11379999236E+04  0.65864270000E+03 0.  1.
    8880022    1    1    2    0    0 -0.20927227939E+03  0.14093726750E+03 -0.14877068691E+04  0.15166811074E+04  0.15294330000E+03 0.  0.
<mgrwt>
<rscale>  0 0.56722853E+03</rscale>
<asrwt>0</asrwt>
<pdfrwt beam="1">  1        1 0.38734294E+00 0.70531440E+03</pdfrwt>
<pdfrwt beam="2">  1       -1 0.21069493E-01 0.70531440E+03</pdfrwt>
<totfact> 0.25981246E+01</totfact>
</mgrwt>
</event>
<event>
 4    2  0.3396630E-007  0.7972962E+03  0.7818608E-02  0.9716673E-01
          1   -1    0    0  501    0  0.00000000000E+00  0.00000000000E+00  0.15330735762E+04  0.15330735762E+04  0.50400000000E-02 0. -1.
         -1   -1    0    0    0  501 -0.00000000000E+00 -0.00000000000E+00 -0.80762776293E+03  0.80762776294E+03  0.50400000000E-02 0.  1.
    8880023    1    1    2    0    0  0.17067122712E+03  0.41562278683E+03 -0.55743564180E+03  0.97283897419E+03  0.65864270000E+03 0.  1.
    8880022    1    1    2    0    0 -0.17067122712E+03 -0.41562278683E+03  0.12828814550E+04  0.13678623649E+04  0.15294330000E+03 0.  0.
<mgrwt>
<rscale>  0 0.70032705E+03</rscale>
<asrwt>0</asrwt>
<pdfrwt beam="1">  1        1 0.23585747E+00 0.79729617E+03</pdfrwt>
<pdfrwt beam="2">  1       -1 0.12425043E+00 0.79729617E+03</pdfrwt>
<totfact> 0.36510277E+00</totfact>
</mgrwt>
</event>
<event>
 4    2  0.3396630E-007  0.6792229E+03  0.7818608E-02  0.1009767E+00
         -1   -1    0    0    0  501 -0.00000000000E+00  0.00000000000E+00  0.11299205742E+03  0.11299205753E+03  0.50400000000E-02 0.  1.
          1   -1    0    0  501    0  0.00000000000E+00 -0.00000000000E+00 -0.20549529220E+04  0.20549529220E+04  0.50400000000E-02 0. -1.
    8880023    1    1    2    0    0 -0.12126187442E+03  0.11326567349E+03 -0.10709774115E+04  0.12682020253E+04  0.65864270000E+03 0.  1.
    8880022    1    1    2    0    0  0.12126187442E+03 -0.11326567349E+03 -0.87098345311E+03  0.89974295417E+03  0.15294330000E+03 0. -1.
<mgrwt>
<rscale>  0 0.51567473E+03</rscale>
<asrwt>0</asrwt>
<pdfrwt beam="1">  1        1 0.31614658E+00 0.67922291E+03</pdfrwt>
<pdfrwt beam="2">  1       -1 0.17383395E-01 0.67922291E+03</pdfrwt>
<totfact> 0.73491990E+01</totfact>
</mgrwt>
</event>
<event>
 4    2  0.3396630E-007  0.1143725E+04  0.7818608E-02  0.9213868E-01
         -1   -1    0    0    0  501 -0.00000000000E+00  0.00000000000E+00  0.14487514156E+04  0.14487514156E+04  0.50400000000E-02 0.  1.
          1   -1    0    0  501    0  0.00000000000E+00 -0.00000000000E+00 -0.92582274014E+03  0.92582274016E+03  0.50400000000E-02 0. -1.
    8880023    1    1    2    0    0 -0.79562670404E+03 -0.49119621795E+03 -0.22724840744E+03  0.11660821676E+04  0.65864270000E+03 0.  0.
    8880022    1    1    2    0    0  0.79562670404E+03  0.49119621795E+03  0.75017708292E+03  0.12084919882E+04  0.15294330000E+03 0.  0.
<mgrwt>
<rscale>  0 0.10911431E+04</rscale>
<asrwt>0</asrwt>
<pdfrwt beam="1">  1        1 0.14243427E+00 0.11437245E+04</pdfrwt>
<pdfrwt beam="2">  1       -1 0.22288483E+00 0.11437245E+04</pdfrwt>
<totfact> 0.18029797E+00</totfact>
</mgrwt>
</event>
<event>
 4    2  0.3396630E-007  0.7446162E+03  0.7818608E-02  0.9846699E-01
          1   -1    0    0  501    0  0.00000000000E+00  0.00000000000E+00  0.37659118175E+03  0.37659118179E+03  0.50400000000E-02 0. -1.
         -1   -1    0    0    0  501 -0.00000000000E+00 -0.00000000000E+00 -0.12902365455E+04  0.12902365455E+04  0.50400000000E-02 0.  1.
    8880023    1    1    2    0    0  0.39262231868E+02  0.34511089957E+03 -0.10290087970E+04  0.12701623386E+04  0.65864270000E+03 0.  1.
    8880022    1    1    2    0    0 -0.39262231868E+02 -0.34511089957E+03  0.11536343324E+03  0.39666538870E+03  0.15294330000E+03 0.  0.
<mgrwt>
<rscale>  0 0.62915514E+03</rscale>
<asrwt>0</asrwt>
<pdfrwt beam="1">  1        1 0.57937106E-01 0.74461618E+03</pdfrwt>
<pdfrwt beam="2">  1       -1 0.19849793E+00 0.74461618E+03</pdfrwt>
<totfact> 0.10339317E+01</totfact>
</mgrwt>
</event>
<event>
 4    2  0.3396630E-007  0.8740938E+03  0.7818608E-02  0.9568969E-01
          1   -1    0    0  501    0  0.00000000000E+00  0.00000000000E+00  0.21895820749E+04  0.21895820749E+04  0.50400000000E-02 0. -1.
         -1   -1    0    0    0  501 -0.00000000000E+00 -0.00000000000E+00 -0.64593349328E+03  0.64593349330E+03  0.50400000000E-02 0.  1.
    8880023    1    1    2    0    0 -0.55029468759E+03  0.16554598258E+03 -0.27961461436E+03  0.91772776703E+03  0.65864270000E+03 0.  0.
    8880022    1    1    2    0    0  0.55029468759E+03 -0.16554598258E+03  0.18232631960E+04  0.19177878012E+04  0.15294330000E+03 0.  0.
<mgrwt>
<rscale>  0 0.79384522E+03</rscale>
<asrwt>0</asrwt>
<pdfrwt beam="1">  1        1 0.33685877E+00 0.87409377E+03</pdfrwt>
<pdfrwt beam="2">  1       -1 0.99374385E-01 0.87409377E+03</pdfrwt>
<totfact> 0.22134617E+00</totfact>
</mgrwt>
</event>
<event>
 4    2  0.3396630E-007  0.7779660E+03  0.7818608E-02  0.9760637E-01
         -1   -1    0    0    0  501 -0.00000000000E+00  0.00000000000E+00  0.84458845779E+03  0.84458845781E+03  0.50400000000E-02 0.  1.
          1   -1    0    0  501    0  0.00000000000E+00 -0.00000000000E+00 -0.48263882260E+03  0.48263882263E+03  0.50400000000E-02 0. -1.
    8880023    1    1    2    0    0 -0.29406822785E+03  0.29145281655E+03  0.41658688086E+03  0.88248269245E+03  0.65864270000E+03 0. -1.
    8880022    1    1    2    0    0  0.29406822785E+03 -0.29145281655E+03 -0.54637245667E+02  0.44474458798E+03  0.15294330000E+03 0.  0.
<mgrwt>
<rscale>  0 0.67518466E+03</rscale>
<asrwt>0</asrwt>
<pdfrwt beam="1">  1        1 0.74252127E-01 0.77796598E+03</pdfrwt>
<pdfrwt beam="2">  1       -1 0.12993669E+00 0.77796598E+03</pdfrwt>
<totfact> 0.24150991E+01</totfact>
</mgrwt>
</event>
<event>
 4    2  0.3396630E-007  0.9470553E+03  0.7818608E-02  0.9454364E-01
         -1   -1    0    0    0  501 -0.00000000000E+00  0.00000000000E+00  0.93249182129E+03  0.93249182131E+03  0.50400000000E-02 0.  1.
          1   -1    0    0  501    0  0.00000000000E+00 -0.00000000000E+00 -0.14776331059E+04  0.14776331059E+04  0.50400000000E-02 0. -1.
    8880023    1    1    2    0    0 -0.62834262679E+03 -0.26132173498E+03  0.56225046027E+03  0.11013806300E+04  0.65864270000E+03 0.  1.
    8880022    1    1    2    0    0  0.62834262679E+03  0.26132173498E+03 -0.11073917449E+04  0.13087442972E+04  0.15294330000E+03 0.  0.
<mgrwt>
<rscale>  0 0.87733674E+03</rscale>
<asrwt>0</asrwt>
<pdfrwt beam="1">  1        1 0.22732817E+00 0.94705528E+03</pdfrwt>
<pdfrwt beam="2">  1       -1 0.14346028E+00 0.94705528E+03</pdfrwt>
<totfact> 0.26985456E+00</totfact>
</mgrwt>
</event>
<event>
 4    2  0.3396630E-007  0.7383368E+03  0.7818608E-02  0.9864819E-01
         -1   -1    0    0    0  501 -0.00000000000E+00  0.00000000000E+00  0.32827535860E+03  0.32827535864E+03  0.50400000000E-02 0.  1.
          1   -1    0    0  501    0  0.00000000000E+00 -0.00000000000E+00 -0.10425090333E+04  0.10425090333E+04  0.50400000000E-02 0. -1.
    8880023    1    1    2    0    0  0.31465513416E+03  0.11100961448E+03 -0.25115860232E+03  0.77988578506E+03  0.65864270000E+03 0.  1.
    8880022    1    1    2    0    0 -0.31465513416E+03 -0.11100961448E+03 -0.46307507238E+03  0.59089860690E+03  0.15294330000E+03 0.  0.
<mgrwt>
<rscale>  0 0.61997039E+03</rscale>
<asrwt>0</asrwt>
<pdfrwt beam="1">  1        1 0.16038600E+00 0.73833678E+03</pdfrwt>
<pdfrwt beam="2">  1       -1 0.50503902E-01 0.73833678E+03</pdfrwt>
<totfact> 0.56587816E+01</totfact>
</mgrwt>
</event>
<event>
 4    2  0.3396630E-007  0.8749189E+03  0.7818608E-02  0.9567557E-01
          1   -1    0    0  501    0  0.00000000000E+00  0.00000000000E+00  0.14524070342E+04  0.14524070342E+04  0.50400000000E-02 0. -1.
         -1   -1    0    0    0  501 -0.00000000000E+00 -0.00000000000E+00 -0.37729987243E+03  0.37729987247E+03  0.50400000000E-02 0.  1.
    8880023    1    1    2    0    0 -0.69141722950E+02 -0.57174494742E+03  0.53531922995E+03  0.10256947631E+04  0.65864270000E+03 0.  0.
    8880022    1    1    2    0    0  0.69141722950E+02  0.57174494742E+03  0.53978793186E+03  0.80401214366E+03  0.15294330000E+03 0.  0.
<mgrwt>
<rscale>  0 0.79481171E+03</rscale>
<asrwt>0</asrwt>
<pdfrwt beam="1">  1        1 0.22344723E+00 0.87491889E+03</pdfrwt>
<pdfrwt beam="2">  1       -1 0.58046135E-01 0.87491889E+03</pdfrwt>
<totfact> 0.21615640E+01</totfact>
</mgrwt>
</event>
<event>
 4    2  0.3396630E-007  0.7029681E+03  0.7818608E-02  0.9985104E-01
         -1   -1    0    0    0  501 -0.00000000000E+00  0.00000000000E+00  0.28328555691E+03  0.28328555696E+03  0.50400000000E-02 0.  1.
          1   -1    0    0  501    0  0.00000000000E+00 -0.00000000000E+00 -0.17350028740E+04  0.17350028740E+04  0.50400000000E-02 0. -1.
    8880023    1    1    2    0    0  0.24539750206E+03  0.11575924942E+02 -0.19617586651E+03  0.72982813930E+03  0.65864270000E+03 0.  1.
    8880022    1    1    2    0    0 -0.24539750206E+03 -0.11575924942E+02 -0.12555414506E+04  0.12884602917E+04  0.15294330000E+03 0.  0.
<mgrwt>
<rscale>  0 0.56308240E+03</rscale>
<asrwt>0</asrwt>
<pdfrwt beam="1">  1        1 0.26692351E+00 0.70296809E+03</pdfrwt>
<pdfrwt beam="2">  1       -1 0.43582394E-01 0.70296809E+03</pdfrwt>
<totfact> 0.24452583E+01</totfact>
</mgrwt>
</event>
<event>
 4    2  0.3396630E-007  0.8185080E+03  0.7818608E-02  0.9672120E-01
          1   -1    0    0  501    0  0.00000000000E+00  0.00000000000E+00  0.47154308297E+03  0.47154308299E+03  0.50400000000E-02 0. -1.
         -1   -1    0    0    0  501 -0.00000000000E+00 -0.00000000000E+00 -0.11426173148E+04  0.11426173148E+04  0.50400000000E-02 0.  1.
    8880023    1    1    2    0    0 -0.46269661430E+03  0.14851574574E+03 -0.73580129482E+03  0.11006174791E+04  0.65864270000E+03 0.  0.
    8880022    1    1    2    0    0  0.46269661430E+03 -0.14851574574E+03  0.64727063000E+02  0.51354291867E+03  0.15294330000E+03 0.  0.
<mgrwt>
<rscale>  0 0.72701277E+03</rscale>
<asrwt>0</asrwt>
<pdfrwt beam="1">  1        1 0.72545090E-01 0.81850797E+03</pdfrwt>
<pdfrwt beam="2">  1       -1 0.17578728E+00 0.81850797E+03</pdfrwt>
<totfact> 0.10959039E+01</totfact>
</mgrwt>
</event>
<event>
 4    2  0.3396630E-007  0.8086630E+03  0.7818608E-02  0.9692369E-01
         -1   -1    0    0    0  501 -0.00000000000E+00  0.00000000000E+00  0.10265923459E+04  0.10265923459E+04  0.50400000000E-02 0.  1.
          1   -1    0    0  501    0  0.00000000000E+00 -0.00000000000E+00 -0.53169780699E+03  0.53169780702E+03  0.50400000000E-02 0. -1.
    8880023    1    1    2    0    0 -0.27285839773E+03 -0.38167253862E+03  0.65375976071E+03  0.10398738688E+04  0.65864270000E+03 0.  0.
    8880022    1    1    2    0    0  0.27285839773E+03  0.38167253862E+03 -0.15886522182E+03  0.51841628415E+03  0.15294330000E+03 0.  0.
<mgrwt>
<rscale>  0 0.71472982E+03</rscale>
<asrwt>0</asrwt>
<pdfrwt beam="1">  1        1 0.81799663E-01 0.80866299E+03</pdfrwt>
<pdfrwt beam="2">  1       -1 0.15793728E+00 0.80866299E+03</pdfrwt>
<totfact> 0.12598953E+01</totfact>
</mgrwt>
</event>
<event>
 4    2  0.3396630E-007  0.9839771E+03  0.7818608E-02  0.9402827E-01
          1   -1    0    0  501    0  0.00000000000E+00  0.00000000000E+00  0.14175599316E+04  0.14175599316E+04  0.50400000000E-02 0. -1.
         -1   -1    0    0    0  501 -0.00000000000E+00 -0.00000000000E+00 -0.73895153588E+03  0.73895153590E+03  0.50400000000E-02 0.  1.
    8880023    1    1    2    0    0 -0.22282779055E+03 -0.69623880794E+03 -0.19923868686E+03  0.10039456970E+04  0.65864270000E+03 0.  1.
    8880022    1    1    2    0    0  0.22282779055E+03  0.69623880794E+03  0.87784708258E+03  0.11525657705E+04  0.15294330000E+03 0.  0.
<mgrwt>
<rscale>  0 0.91843370E+03</rscale>
<asrwt>0</asrwt>
<pdfrwt beam="1">  1        1 0.21808614E+00 0.98397709E+03</pdfrwt>
<pdfrwt beam="2">  1       -1 0.11368485E+00 0.98397709E+03</pdfrwt>
<totfact> 0.53049411E+00</totfact>
</mgrwt>
</event>
<event>
 4    2  0.3396630E-007  0.8302779E+03  0.7818608E-02  0.9648792E-01
         -1   -1    0    0    0  501 -0.00000000000E+00  0.00000000000E+00  0.11241744831E+04  0.11241744831E+04  0.50400000000E-02 0.  1.
          1   -1    0    0  501    0  0.00000000000E+00 -0.00000000000E+00 -0.79277723381E+03  0.79277723383E+03  0.50400000000E-02 0. -1.
    8880023    1    1    2    0    0  0.50318284460E+03  0.48560968123E+02  0.84187881001E+03  0.11824217859E+04  0.65864270000E+03 0.  1.
    8880022    1    1    2    0    0 -0.50318284460E+03 -0.48560968123E+02 -0.51048156073E+03  0.73452993104E+03  0.15294330000E+03 0.  0.
<mgrwt>
<rscale>  0 0.74149289E+03</rscale>
<asrwt>0</asrwt>
<pdfrwt beam="1">  1        1 0.12196573E+00 0.83027787E+03</pdfrwt>
<pdfrwt beam="2">  1       -1 0.17294992E+00 0.83027787E+03</pdfrwt>
<totfact> 0.53758899E+00</totfact>
</mgrwt>
</event>
<event>
 4    2  0.3396630E-007  0.6683815E+03  0.7818608E-02  0.1016851E+00
          1   -1    0    0  501    0  0.00000000000E+00  0.00000000000E+00  0.95859226149E+03  0.95859226150E+03  0.50400000000E-02 0. -1.
         -1   -1    0    0    0  501 -0.00000000000E+00 -0.00000000000E+00 -0.64765904774E+03  0.64765904776E+03  0.50400000000E-02 0.  1.
    8880023    1    1    2    0    0 -0.97393081740E+02  0.58636109352E+02 -0.46047906485E+03  0.81164942008E+03  0.65864270000E+03 0.  0.
    8880022    1    1    2    0    0  0.97393081740E+02 -0.58636109352E+02  0.77141227860E+03  0.79460188918E+03  0.15294330000E+03 0. -1.
<mgrwt>
<rscale>  0 0.48840427E+03</rscale>
<asrwt>0</asrwt>
<pdfrwt beam="1">  1        1 0.14747573E+00 0.66838149E+03</pdfrwt>
<pdfrwt beam="2">  1       -1 0.99639855E-01 0.66838149E+03</pdfrwt>
<totfact> 0.16322524E+01</totfact>
</mgrwt>
</event>
<event>
 4    2  0.3396630E-007  0.8133402E+03  0.7818608E-02  0.9682661E-01
         -1   -1    0    0    0  501 -0.00000000000E+00  0.00000000000E+00  0.56730764294E+03  0.56730764296E+03  0.50400000000E-02 0.  1.
          1   -1    0    0  501    0  0.00000000000E+00 -0.00000000000E+00 -0.88625029654E+03  0.88625029656E+03  0.50400000000E-02 0. -1.
    8880023    1    1    2    0    0 -0.47596175391E+03 -0.34241798155E+02  0.74089658188E+02  0.81670776636E+03  0.65864270000E+03 0. -1.
    8880022    1    1    2    0    0  0.47596175391E+03  0.34241798155E+02 -0.39303231179E+03  0.63685017316E+03  0.15294330000E+03 0.  0.
<mgrwt>
<rscale>  0 0.72058602E+03</rscale>
<asrwt>0</asrwt>
<pdfrwt beam="1">  1        1 0.13634620E+00 0.81334021E+03</pdfrwt>
<pdfrwt beam="2">  1       -1 0.87278099E-01 0.81334021E+03</pdfrwt>
<totfact> 0.24624437E+01</totfact>
</mgrwt>
</event>
<event>
 4    2  0.3396630E-007  0.7205302E+03  0.7818608E-02  0.9920796E-01
          1   -1    0    0  501    0  0.00000000000E+00  0.00000000000E+00  0.34765114345E+04  0.34765114345E+04  0.50400000000E-02 0. -1.
         -1   -1    0    0    0  501 -0.00000000000E+00 -0.00000000000E+00 -0.11511257284E+03  0.11511257295E+03  0.50400000000E-02 0.  1.
    8880023    1    1    2    0    0 -0.17354056227E+03 -0.23502605723E+03  0.11592870365E+04  0.13649579531E+04  0.65864270000E+03 0.  0.
    8880022    1    1    2    0    0  0.17354056227E+03  0.23502605723E+03  0.22021118251E+04  0.22266660544E+04  0.15294330000E+03 0.  0.
<mgrwt>
<rscale>  0 0.59263926E+03</rscale>
<asrwt>0</asrwt>
<pdfrwt beam="1">  1        1 0.53484794E+00 0.72053021E+03</pdfrwt>
<pdfrwt beam="2">  1       -1 0.17709626E-01 0.72053021E+03</pdfrwt>
<totfact> 0.70634314E+00</totfact>
</mgrwt>
</event>
<event>
 4    2  0.3396630E-007  0.7287912E+03  0.7818608E-02  0.9893890E-01
          1   -1    0    0  501    0  0.00000000000E+00  0.00000000000E+00  0.15356566782E+04  0.15356566782E+04  0.50400000000E-02 0. -1.
         -1   -1    0    0    0  501 -0.00000000000E+00 -0.00000000000E+00 -0.46272790763E+03  0.46272790765E+03  0.50400000000E-02 0.  1.
    8880023    1    1    2    0    0  0.15547524655E+02 -0.31158420694E+03 -0.13525390747E+03  0.74123563682E+03  0.65864270000E+03 0.  1.
    8880022    1    1    2    0    0 -0.15547524655E+02  0.31158420694E+03  0.12081826780E+04  0.12571489490E+04  0.15294330000E+03 0.  0.
<mgrwt>
<rscale>  0 0.60558331E+03</rscale>
<asrwt>0</asrwt>
<pdfrwt beam="1">  1        1 0.23625488E+00 0.72879123E+03</pdfrwt>
<pdfrwt beam="2">  1       -1 0.71188907E-01 0.72879123E+03</pdfrwt>
<totfact> 0.12818593E+01</totfact>
</mgrwt>
</event>
<event>
 4    2  0.3396630E-007  0.9162767E+03  0.7818608E-02  0.9500392E-01
          1   -1    0    0  501    0  0.00000000000E+00  0.00000000000E+00  0.10011242728E+04  0.10011242728E+04  0.50400000000E-02 0. -1.
         -1   -1    0    0    0  501 -0.00000000000E+00 -0.00000000000E+00 -0.84841207608E+03  0.84841207610E+03  0.50400000000E-02 0.  1.
    8880023    1    1    2    0    0  0.26933875852E+03 -0.57724290133E+03 -0.39292600917E+03  0.99697231101E+03  0.65864270000E+03 0.  0.
    8880022    1    1    2    0    0 -0.26933875852E+03  0.57724290133E+03  0.54563820589E+03  0.85256403790E+03  0.15294330000E+03 0.  0.
<mgrwt>
<rscale>  0 0.84254945E+03</rscale>
<asrwt>0</asrwt>
<pdfrwt beam="1">  1        1 0.15401912E+00 0.91627667E+03</pdfrwt>
<pdfrwt beam="2">  1       -1 0.13052494E+00 0.91627667E+03</pdfrwt>
<totfact> 0.76704639E+00</totfact>
</mgrwt>
</event>
<event>
 4    2  0.3396630E-007  0.1191860E+04  0.7818608E-02  0.9165076E-01
          1   -1    0    0  501    0  0.00000000000E+00  0.00000000000E+00  0.23803308847E+04  0.23803308847E+04  0.50400000000E-02 0. -1.
         -1   -1    0    0    0  501 -0.00000000000E+00 -0.00000000000E+00 -0.62334024210E+03  0.62334024212E+03  0.50400000000E-02 0.  1.
    8880023    1    1    2    0    0  0.19768442991E+03  0.97346838436E+03  0.29206357390E+03  0.12271231261E+04  0.65864270000E+03 0.  0.
    8880022    1    1    2    0    0 -0.19768442991E+03 -0.97346838436E+03  0.14649270687E+04  0.17765480007E+04  0.15294330000E+03 0.  0.
<mgrwt>
<rscale>  0 0.11421288E+04</rscale>
<asrwt>0</asrwt>
<pdfrwt beam="1">  1        1 0.36620475E+00 0.11918599E+04</pdfrwt>
<pdfrwt beam="2">  1       -1 0.95898500E-01 0.11918599E+04</pdfrwt>
<totfact> 0.17017547E+00</totfact>
</mgrwt>
</event>
<event>
 4    2  0.3396630E-007  0.7704917E+03  0.7818608E-02  0.9778665E-01
         -1   -1    0    0    0  501 -0.00000000000E+00  0.00000000000E+00  0.21339086727E+04  0.21339086727E+04  0.50400000000E-02 0.  1.
          1   -1    0    0  501    0  0.00000000000E+00 -0.00000000000E+00 -0.11296492125E+04  0.11296492125E+04  0.50400000000E-02 0. -1.
    8880023    1    1    2    0    0 -0.38398655861E+03 -0.11136266705E+03  0.20196471763E+04  0.21616272213E+04  0.65864270000E+03 0.  1.
    8880022    1    1    2    0    0  0.38398655861E+03  0.11136266705E+03 -0.10153877161E+04  0.11019306638E+04  0.15294330000E+03 0.  0.
<mgrwt>
<rscale>  0 0.66520151E+03</rscale>
<asrwt>0</asrwt>
<pdfrwt beam="1">  1        1 0.17379219E+00 0.77049174E+03</pdfrwt>
<pdfrwt beam="2">  1       -1 0.32829364E+00 0.77049174E+03</pdfrwt>
<totfact> 0.27735754E-01</totfact>
</mgrwt>
</event>
<event>
 4    2  0.3396630E-007  0.6932258E+03  0.7818608E-02  0.1002656E+00
         -1   -1    0    0    0  501 -0.00000000000E+00  0.00000000000E+00  0.25501887312E+03  0.25501887317E+03  0.50400000000E-02 0.  1.
          1   -1    0    0  501    0  0.00000000000E+00 -0.00000000000E+00 -0.90055467498E+03  0.90055467500E+03  0.50400000000E-02 0. -1.
    8880023    1    1    2    0    0 -0.20958434012E+03 -0.53162189592E+02 -0.45238154685E+03  0.82777477868E+03  0.65864270000E+03 0.  0.
    8880022    1    1    2    0    0  0.20958434012E+03  0.53162189592E+02 -0.19315425502E+03  0.32779876948E+03  0.15294330000E+03 0. -1.
<mgrwt>
<rscale>  0 0.54500997E+03</rscale>
<asrwt>0</asrwt>
<pdfrwt beam="1">  1        1 0.13854687E+00 0.69322581E+03</pdfrwt>
<pdfrwt beam="2">  1       -1 0.39233673E-01 0.69322581E+03</pdfrwt>
<totfact> 0.11724120E+02</totfact>
</mgrwt>
</event>
<event>
 4    2  0.3396630E-007  0.7802159E+03  0.7818608E-02  0.9755330E-01
         -1   -1    0    0    0  501 -0.00000000000E+00  0.00000000000E+00  0.26869762708E+03  0.26869762712E+03  0.50400000000E-02 0.  1.
          1   -1    0    0  501    0  0.00000000000E+00 -0.00000000000E+00 -0.14547139618E+04  0.14547139618E+04  0.50400000000E-02 0. -1.
    8880023    1    1    2    0    0  0.41340369418E+03  0.63435470430E+02 -0.58394465057E+03  0.97454001173E+03  0.65864270000E+03 0.  0.
    8880022    1    1    2    0    0 -0.41340369418E+03 -0.63435470430E+02 -0.60207168417E+03  0.74887157722E+03  0.15294330000E+03 0.  0.
<mgrwt>
<rscale>  0 0.67815889E+03</rscale>
<asrwt>0</asrwt>
<pdfrwt beam="1">  1        1 0.22380214E+00 0.78021592E+03</pdfrwt>
<pdfrwt beam="2">  1       -1 0.41338097E-01 0.78021592E+03</pdfrwt>
<totfact> 0.41361480E+01</totfact>
</mgrwt>
</event>
<event>
 4    2  0.3396630E-007  0.1024555E+04  0.7818608E-02  0.9350114E-01
          1   -1    0    0  501    0  0.00000000000E+00  0.00000000000E+00  0.16516355963E+04  0.16516355963E+04  0.50400000000E-02 0. -1.
         -1   -1    0    0    0  501 -0.00000000000E+00 -0.00000000000E+00 -0.59936470792E+03  0.59936470794E+03  0.50400000000E-02 0.  1.
    8880023    1    1    2    0    0 -0.75097424500E+03 -0.22790428327E+03  0.13378607198E+03  0.10332529208E+04  0.65864270000E+03 0.  1.
    8880022    1    1    2    0    0  0.75097424500E+03  0.22790428327E+03  0.91848481641E+03  0.12177473835E+04  0.15294330000E+03 0. -1.
<mgrwt>
<rscale>  0 0.96297288E+03</rscale>
<asrwt>0</asrwt>
<pdfrwt beam="1">  1        1 0.25409779E+00 0.10245550E+04</pdfrwt>
<pdfrwt beam="2">  1       -1 0.92209955E-01 0.10245550E+04</pdfrwt>
<totfact> 0.59116137E+00</totfact>
</mgrwt>
</event>
<event>
 4    2  0.3396630E-007  0.6630775E+03  0.7818608E-02  0.1021204E+00
         -1   -1    0    0    0  501 -0.00000000000E+00  0.00000000000E+00  0.41215397464E+03  0.41215397467E+03  0.50400000000E-02 0.  1.
          1   -1    0    0  501    0  0.00000000000E+00 -0.00000000000E+00 -0.67799109936E+03  0.67799109938E+03  0.50400000000E-02 0. -1.
    8880023    1    1    2    0    0  0.62592708606E+02  0.44087630116E+02  0.11471216317E+03  0.67292692987E+03  0.65864270000E+03 0.  1.
    8880022    1    1    2    0    0 -0.62592708606E+02 -0.44087630116E+02 -0.38054928789E+03  0.41721814418E+03  0.15294330000E+03 0.  0.
<mgrwt>
<rscale>  0 0.47254691E+03</rscale>
<asrwt>0</asrwt>
<pdfrwt beam="1">  1        1 0.10430632E+00 0.66307750E+03</pdfrwt>
<pdfrwt beam="2">  1       -1 0.63408304E-01 0.66307750E+03</pdfrwt>
<totfact> 0.74125757E+01</totfact>
</mgrwt>
</event>
<event>
 4    2  0.3396630E-007  0.6668698E+03  0.7818608E-02  0.1018014E+00
          1   -1    0    0  501    0  0.00000000000E+00  0.00000000000E+00  0.29230742271E+03  0.29230742275E+03  0.50400000000E-02 0. -1.
         -1   -1    0    0    0  501 -0.00000000000E+00 -0.00000000000E+00 -0.62551820866E+03  0.62551820868E+03  0.50400000000E-02 0.  1.
    8880023    1    1    2    0    0  0.81991184258E+02 -0.64672594463E+02 -0.29256648812E+03  0.72822417908E+03  0.65864270000E+03 0.  1.
    8880022    1    1    2    0    0 -0.81991184258E+02  0.64672594463E+02 -0.40644297842E+02  0.18960145235E+03  0.15294330000E+03 0. -1.
<mgrwt>
<rscale>  0 0.48410259E+03</rscale>
<asrwt>0</asrwt>
<pdfrwt beam="1">  1        1 0.44970373E-01 0.66686978E+03</pdfrwt>
<pdfrwt beam="2">  1       -1 0.96233570E-01 0.66686978E+03</pdfrwt>
<totfact> 0.96430307E+01</totfact>
</mgrwt>
</event>
<event>
 4    2  0.3396630E-007  0.7396756E+03  0.7818608E-02  0.9860893E-01
          1   -1    0    0  501    0  0.00000000000E+00  0.00000000000E+00  0.12444564762E+04  0.12444564762E+04  0.50400000000E-02 0. -1.
         -1   -1    0    0    0  501 -0.00000000000E+00 -0.00000000000E+00 -0.52270928933E+03  0.52270928936E+03  0.50400000000E-02 0.  1.
    8880023    1    1    2    0    0  0.27954829385E+03 -0.18751664849E+03 -0.20652857226E+03  0.76796744689E+03  0.65864270000E+03 0.  0.
    8880022    1    1    2    0    0 -0.27954829385E+03  0.18751664849E+03  0.92827575916E+03  0.99919831871E+03  0.15294330000E+03 0.  0.
<mgrwt>
<rscale>  0 0.62194585E+03</rscale>
<asrwt>0</asrwt>
<pdfrwt beam="1">  1        1 0.19145484E+00 0.73967557E+03</pdfrwt>
<pdfrwt beam="2">  1       -1 0.80416815E-01 0.73967557E+03</pdfrwt>
<totfact> 0.15824822E+01</totfact>
</mgrwt>
</event>
<event>
 4    2  0.3396630E-007  0.8170360E+03  0.7818608E-02  0.9675103E-01
         -1   -1    0    0    0  501 -0.00000000000E+00  0.00000000000E+00  0.14763301859E+04  0.14763301859E+04  0.50400000000E-02 0.  1.
          1   -1    0    0  501    0  0.00000000000E+00 -0.00000000000E+00 -0.82320915271E+03  0.82320915272E+03  0.50400000000E-02 0. -1.
    8880023    1    1    2    0    0  0.47878380657E+03 -0.67109145689E+02  0.12643422600E+04  0.15053601322E+04  0.65864270000E+03 0.  1.
    8880022    1    1    2    0    0 -0.47878380657E+03  0.67109145689E+02 -0.61122122679E+03  0.79417920646E+03  0.15294330000E+03 0.  0.
<mgrwt>
<rscale>  0 0.72518667E+03</rscale>
<asrwt>0</asrwt>
<pdfrwt beam="1">  1        1 0.12664756E+00 0.81703597E+03</pdfrwt>
<pdfrwt beam="2">  1       -1 0.22712772E+00 0.81703597E+03</pdfrwt>
<totfact> 0.21495136E+00</totfact>
</mgrwt>
</event>
<event>
 4    2  0.3396630E-007  0.6662895E+03  0.7818608E-02  0.1018475E+00
          1   -1    0    0  501    0  0.00000000000E+00  0.00000000000E+00  0.46532060089E+03  0.46532060092E+03  0.50400000000E-02 0. -1.
         -1   -1    0    0    0  501 -0.00000000000E+00 -0.00000000000E+00 -0.64462244704E+03  0.64462244706E+03  0.50400000000E-02 0.  1.
    8880023    1    1    2    0    0  0.10023684804E+03  0.91684956051E+01 -0.43480447179E+03  0.79561084832E+03  0.65864270000E+03 0.  1.
    8880022    1    1    2    0    0 -0.10023684804E+03 -0.91684956051E+01  0.25550262564E+03  0.31433219966E+03  0.15294330000E+03 0.  0.
<mgrwt>
<rscale>  0 0.48240890E+03</rscale>
<asrwt>0</asrwt>
<pdfrwt beam="1">  1        1 0.71587785E-01 0.66628950E+03</pdfrwt>
<pdfrwt beam="2">  1       -1 0.99172685E-01 0.66628950E+03</pdfrwt>
<totfact> 0.48898560E+01</totfact>
</mgrwt>
</event>
<event>
 4    2  0.3396630E-007  0.7535104E+03  0.7818608E-02  0.9822208E-01
          1   -1    0    0  501    0  0.00000000000E+00  0.00000000000E+00  0.65408576964E+03  0.65408576966E+03  0.50400000000E-02 0. -1.
         -1   -1    0    0    0  501 -0.00000000000E+00 -0.00000000000E+00 -0.85925610391E+03  0.85925610392E+03  0.50400000000E-02 0.  1.
    8880023    1    1    2    0    0  0.19933857141E+03  0.30697207772E+03 -0.59277456305E+03  0.95872812174E+03  0.65864270000E+03 0.  0.
    8880022    1    1    2    0    0 -0.19933857141E+03 -0.30697207772E+03  0.38760422879E+03  0.55461375185E+03  0.15294330000E+03 0.  0.
<mgrwt>
<rscale>  0 0.64184257E+03</rscale>
<asrwt>0</asrwt>
<pdfrwt beam="1">  1        1 0.10062858E+00 0.75351040E+03</pdfrwt>
<pdfrwt beam="2">  1       -1 0.13219325E+00 0.75351040E+03</pdfrwt>
<totfact> 0.15073297E+01</totfact>
</mgrwt>
</event>
<event>
 4    2  0.3396630E-007  0.6603336E+03  0.7818608E-02  0.1023817E+00
         -1   -1    0    0    0  501 -0.00000000000E+00  0.00000000000E+00  0.19072541071E+03  0.19072541077E+03  0.50400000000E-02 0.  1.
          1   -1    0    0  501    0  0.00000000000E+00 -0.00000000000E+00 -0.92513379971E+03  0.92513379972E+03  0.50400000000E-02 0. -1.
    8880023    1    1    2    0    0  0.43447739335E+02  0.18507484044E+02 -0.48421674059E+03  0.81884448533E+03  0.65864270000E+03 0.  1.
    8880022    1    1    2    0    0 -0.43447739335E+02 -0.18507484044E+02 -0.25019164841E+03  0.29701472517E+03  0.15294330000E+03 0.  0.
<mgrwt>
<rscale>  0 0.46333907E+03</rscale>
<asrwt>0</asrwt>
<pdfrwt beam="1">  1        1 0.14232828E+00 0.66033358E+03</pdfrwt>
<pdfrwt beam="2">  1       -1 0.29342371E-01 0.66033358E+03</pdfrwt>
<totfact> 0.18781397E+02</totfact>
</mgrwt>
</event>
<event>
 4    2  0.3396630E-007  0.6811560E+03  0.7818608E-02  0.1008677E+00
         -1   -1    0    0    0  501 -0.00000000000E+00  0.00000000000E+00  0.34374845727E+03  0.34374845731E+03  0.50400000000E-02 0.  1.
          1   -1    0    0  501    0  0.00000000000E+00 -0.00000000000E+00 -0.10408549606E+04  0.10408549606E+04  0.50400000000E-02 0. -1.
    8880023    1    1    2    0    0 -0.11891064540E+03  0.12658425375E+03 -0.33697103362E+02  0.68198901452E+03  0.65864270000E+03 0.  1.
    8880022    1    1    2    0    0  0.11891064540E+03 -0.12658425375E+03 -0.66340940000E+03  0.70261440343E+03  0.15294330000E+03 0.  0.
<mgrwt>
<rscale>  0 0.52003781E+03</rscale>
<asrwt>0</asrwt>
<pdfrwt beam="1">  1        1 0.16013153E+00 0.68115602E+03</pdfrwt>
<pdfrwt beam="2">  1       -1 0.52884379E-01 0.68115602E+03</pdfrwt>
<totfact> 0.52291580E+01</totfact>
</mgrwt>
</event>
<event>
 4    2  0.3396630E-007  0.7830735E+03  0.7818608E-02  0.9748666E-01
          1   -1    0    0  501    0  0.00000000000E+00  0.00000000000E+00  0.50772482622E+03  0.50772482625E+03  0.50400000000E-02 0. -1.
         -1   -1    0    0    0  501 -0.00000000000E+00 -0.00000000000E+00 -0.80637495687E+03  0.80637495689E+03  0.50400000000E-02 0.  1.
    8880023    1    1    2    0    0 -0.24270975648E+03  0.34711075589E+03 -0.35590316569E+03  0.86015764390E+03  0.65864270000E+03 0. -1.
    8880022    1    1    2    0    0  0.24270975648E+03 -0.34711075589E+03  0.57253035037E+02  0.45394213924E+03  0.15294330000E+03 0.  0.
<mgrwt>
<rscale>  0 0.68191701E+03</rscale>
<asrwt>0</asrwt>
<pdfrwt beam="1">  1        1 0.78111512E-01 0.78307350E+03</pdfrwt>
<pdfrwt beam="2">  1       -1 0.12405769E+00 0.78307350E+03</pdfrwt>
<totfact> 0.25274446E+01</totfact>
</mgrwt>
</event>
<event>
 4    2  0.3396630E-007  0.7348941E+03  0.7818608E-02  0.9875078E-01
          1   -1    0    0  501    0  0.00000000000E+00  0.00000000000E+00  0.12381031076E+04  0.12381031076E+04  0.50400000000E-02 0. -1.
         -1   -1    0    0    0  501 -0.00000000000E+00 -0.00000000000E+00 -0.39408520428E+03  0.39408520432E+03  0.50400000000E-02 0.  1.
    8880023    1    1    2    0    0  0.60048907361E+02 -0.32039548294E+03  0.22514746085E+02  0.73523891139E+03  0.65864270000E+03 0.  0.
    8880022    1    1    2    0    0 -0.60048907361E+02  0.32039548294E+03  0.82150315719E+03  0.89694940050E+03  0.15294330000E+03 0.  0.
<mgrwt>
<rscale>  0 0.61484475E+03</rscale>
<asrwt>0</asrwt>
<pdfrwt beam="1">  1        1 0.19047740E+00 0.73489410E+03</pdfrwt>
<pdfrwt beam="2">  1       -1 0.60628494E-01 0.73489410E+03</pdfrwt>
<totfact> 0.28521955E+01</totfact>
</mgrwt>
</event>
<event>
 4    2  0.3396630E-007  0.6951675E+03  0.7818608E-02  0.1001787E+00
         -1   -1    0    0    0  501 -0.00000000000E+00  0.00000000000E+00  0.67332770983E+03  0.67332770985E+03  0.50400000000E-02 0.  1.
          1   -1    0    0  501    0  0.00000000000E+00 -0.00000000000E+00 -0.10261398731E+04  0.10261398731E+04  0.50400000000E-02 0. -1.
    8880023    1    1    2    0    0 -0.21526832630E+03  0.55742799567E+02  0.46627608391E+03  0.83706111169E+03  0.65864270000E+03 0.  1.
    8880022    1    1    2    0    0  0.21526832630E+03 -0.55742799567E+02 -0.81908824720E+03  0.86240647129E+03  0.15294330000E+03 0.  0.
<mgrwt>
<rscale>  0 0.54873528E+03</rscale>
<asrwt>0</asrwt>
<pdfrwt beam="1">  1        1 0.15786767E+00 0.69516755E+03</pdfrwt>
<pdfrwt beam="2">  1       -1 0.10358888E+00 0.69516755E+03</pdfrwt>
<totfact> 0.13183672E+01</totfact>
</mgrwt>
</event>
<event>
 4    2  0.3396630E-007  0.7835350E+03  0.7818608E-02  0.9747598E-01
          1   -1    0    0  501    0  0.00000000000E+00  0.00000000000E+00  0.13837902242E+04  0.13837902243E+04  0.50400000000E-02 0. -1.
         -1   -1    0    0    0  501 -0.00000000000E+00 -0.00000000000E+00 -0.35441102241E+03  0.35441102245E+03  0.50400000000E-02 0.  1.
    8880023    1    1    2    0    0  0.31192578806E+03  0.28778321196E+03  0.22373319899E+03  0.81485190368E+03  0.65864270000E+03 0.  0.
    8880022    1    1    2    0    0 -0.31192578806E+03 -0.28778321196E+03  0.80564600284E+03  0.92334934302E+03  0.15294330000E+03 0.  1.
<mgrwt>
<rscale>  0 0.68252195E+03</rscale>
<asrwt>0</asrwt>
<pdfrwt beam="1">  1        1 0.21289080E+00 0.78353499E+03</pdfrwt>
<pdfrwt beam="2">  1       -1 0.54524773E-01 0.78353499E+03</pdfrwt>
<totfact> 0.27527590E+01</totfact>
</mgrwt>
</event>
<event>
 4    2  0.3396630E-007  0.6872992E+03  0.7818608E-02  0.1005464E+00
          1   -1    0    0  501    0  0.00000000000E+00  0.00000000000E+00  0.24755757224E+04  0.24755757224E+04  0.50400000000E-02 0. -1.
         -1   -1    0    0    0  501 -0.00000000000E+00 -0.00000000000E+00 -0.81368606543E+03  0.81368606545E+03  0.50400000000E-02 0.  1.
    8880023    1    1    2    0    0 -0.10365643105E+03 -0.16680931520E+03 -0.66070377217E+03  0.95336754935E+03  0.65864270000E+03 0.  1.
    8880022    1    1    2    0    0  0.10365643105E+03  0.16680931520E+03  0.23225934292E+04  0.23358942385E+04  0.15294330000E+03 0.  0.
<mgrwt>
<rscale>  0 0.53318112E+03</rscale>
<asrwt>0</asrwt>
<pdfrwt beam="1">  1        1 0.38085779E+00 0.68729921E+03</pdfrwt>
<pdfrwt beam="2">  1       -1 0.12518247E+00 0.68729921E+03</pdfrwt>
<totfact> 0.85142698E-01</totfact>
</mgrwt>
</event>
<event>
 4    2  0.3396630E-007  0.7455066E+03  0.7818608E-02  0.9844188E-01
          1   -1    0    0  501    0  0.00000000000E+00  0.00000000000E+00  0.15582806225E+04  0.15582806225E+04  0.50400000000E-02 0. -1.
         -1   -1    0    0    0  501 -0.00000000000E+00 -0.00000000000E+00 -0.27433114186E+03  0.27433114190E+03  0.50400000000E-02 0.  1.
    8880023    1    1    2    0    0  0.33372771832E+03 -0.10293530122E+03  0.34947906301E+03  0.82335635539E+03  0.65864270000E+03 0.  1.
    8880022    1    1    2    0    0 -0.33372771832E+03  0.10293530122E+03  0.93447041766E+03  0.10092554091E+04  0.15294330000E+03 0.  0.
<mgrwt>
<rscale>  0 0.63044150E+03</rscale>
<asrwt>0</asrwt>
<pdfrwt beam="1">  1        1 0.23973548E+00 0.74550659E+03</pdfrwt>
<pdfrwt beam="2">  1       -1 0.42204791E-01 0.74550659E+03</pdfrwt>
<totfact> 0.33952919E+01</totfact>
</mgrwt>
</event>
<event>
 4    2  0.3396630E-007  0.1075584E+04  0.7818608E-02  0.9288740E-01
         -1   -1    0    0    0  501 -0.00000000000E+00  0.00000000000E+00  0.10464712254E+04  0.10464712254E+04  0.50400000000E-02 0.  1.
          1   -1    0    0  501    0  0.00000000000E+00 -0.00000000000E+00 -0.25963932748E+04  0.25963932748E+04  0.50400000000E-02 0. -1.
    8880023    1    1    2    0    0 -0.25732567200E+03  0.81046521083E+03  0.66557738557E+03  0.12648611868E+04  0.65864270000E+03 0.  1.
    8880022    1    1    2    0    0  0.25732567200E+03 -0.81046521083E+03 -0.22154994349E+04  0.23780033134E+04  0.15294330000E+03 0.  0.
<mgrwt>
<rscale>  0 0.10182611E+04</rscale>
<asrwt>0</asrwt>
<pdfrwt beam="1">  1        1 0.39944512E+00 0.10755838E+04</pdfrwt>
<pdfrwt beam="2">  1       -1 0.16099557E+00 0.10755838E+04</pdfrwt>
<totfact> 0.33565100E-01</totfact>
</mgrwt>
</event>
<event>
 4    2  0.3396630E-007  0.1398900E+04  0.7818608E-02  0.8984538E-01
          1   -1    0    0  501    0  0.00000000000E+00  0.00000000000E+00  0.35435546303E+04  0.35435546303E+04  0.50400000000E-02 0. -1.
         -1   -1    0    0    0  501 -0.00000000000E+00 -0.00000000000E+00 -0.70187017391E+03  0.70187017393E+03  0.50400000000E-02 0.  1.
    8880023    1    1    2    0    0 -0.96473144849E+02  0.12303671310E+04  0.32187439393E+03  0.14354524292E+04  0.65864270000E+03 0.  0.
    8880022    1    1    2    0    0  0.96473144849E+02 -0.12303671310E+04  0.25198100625E+04  0.28099723751E+04  0.15294330000E+03 0.  0.
<mgrwt>
<rscale>  0 0.13583408E+04</rscale>
<asrwt>0</asrwt>
<pdfrwt beam="1">  1        1 0.54516225E+00 0.13988998E+04</pdfrwt>
<pdfrwt beam="2">  1       -1 0.10798003E+00 0.13988998E+04</pdfrwt>
<totfact> 0.17947824E-01</totfact>
</mgrwt>
</event>
<event>
 4    2  0.3396630E-007  0.6941941E+03  0.7818608E-02  0.1002220E+00
         -1   -1    0    0    0  501 -0.00000000000E+00  0.00000000000E+00  0.43793925779E+03  0.43793925782E+03  0.50400000000E-02 0.  1.
          1   -1    0    0  501    0  0.00000000000E+00 -0.00000000000E+00 -0.87623696896E+03  0.87623696898E+03  0.50400000000E-02 0. -1.
    8880023    1    1    2    0    0 -0.19471471371E+02  0.21844028186E+03  0.11123702501E+03  0.70304991070E+03  0.65864270000E+03 0.  1.
    8880022    1    1    2    0    0  0.19471471371E+02 -0.21844028186E+03 -0.54953473618E+03  0.61112631610E+03  0.15294330000E+03 0.  0.
<mgrwt>
<rscale>  0 0.54687623E+03</rscale>
<asrwt>0</asrwt>
<pdfrwt beam="1">  1        1 0.13480569E+00 0.69419414E+03</pdfrwt>
<pdfrwt beam="2">  1       -1 0.67375271E-01 0.69419414E+03</pdfrwt>
<totfact> 0.43750065E+01</totfact>
</mgrwt>
</event>
<event>
 4    2  0.3396630E-007  0.7873999E+03  0.7818608E-02  0.9738733E-01
          1   -1    0    0  501    0  0.00000000000E+00  0.00000000000E+00  0.28885080826E+04  0.28885080826E+04  0.50400000000E-02 0. -1.
         -1   -1    0    0    0  501 -0.00000000000E+00 -0.00000000000E+00 -0.20210017252E+03  0.20210017258E+03  0.50400000000E-02 0.  1.
    8880023    1    1    2    0    0  0.32184938237E+03  0.28740450396E+03  0.70464891405E+03  0.10566592034E+04  0.65864270000E+03 0.  0.
    8880022    1    1    2    0    0 -0.32184938237E+03 -0.28740450396E+03  0.19817589960E+04  0.20339490518E+04  0.15294330000E+03 0.  0.
<mgrwt>
<rscale>  0 0.68756735E+03</rscale>
<asrwt>0</asrwt>
<pdfrwt beam="1">  1        1 0.44438583E+00 0.78739989E+03</pdfrwt>
<pdfrwt beam="2">  1       -1 0.31092336E-01 0.78739989E+03</pdfrwt>
<totfact> 0.72835004E+00</totfact>
</mgrwt>
</event>
<event>
 4    2  0.3396630E-007  0.9996835E+03  0.7818608E-02  0.9381972E-01
         -1   -1    0    0    0  501 -0.00000000000E+00  0.00000000000E+00  0.13582783443E+04  0.13582783444E+04  0.50400000000E-02 0.  1.
          1   -1    0    0  501    0  0.00000000000E+00 -0.00000000000E+00 -0.11119892553E+04  0.11119892553E+04  0.50400000000E-02 0. -1.
    8880023    1    1    2    0    0 -0.74986868468E+03  0.57041780334E+02  0.98618219756E+03  0.14042515238E+04  0.65864270000E+03 0.  0.
    8880022    1    1    2    0    0  0.74986868468E+03 -0.57041780334E+02 -0.73989310847E+03  0.10660160758E+04  0.15294330000E+03 0.  0.
<mgrwt>
<rscale>  0 0.93574290E+03</rscale>
<asrwt>0</asrwt>
<pdfrwt beam="1">  1        1 0.17107527E+00 0.99968346E+03</pdfrwt>
<pdfrwt beam="2">  1       -1 0.20896590E+00 0.99968346E+03</pdfrwt>
<totfact> 0.16310302E+00</totfact>
</mgrwt>
</event>
<event>
 4    2  0.3396630E-007  0.7961135E+03  0.7818608E-02  0.9719263E-01
         -1   -1    0    0    0  501 -0.00000000000E+00  0.00000000000E+00  0.47211789854E+03  0.47211789857E+03  0.50400000000E-02 0.  1.
          1   -1    0    0  501    0  0.00000000000E+00 -0.00000000000E+00 -0.90700000885E+03  0.90700000886E+03  0.50400000000E-02 0. -1.
    8880023    1    1    2    0    0  0.31121738602E+03  0.32113899633E+03 -0.43349942828E+03  0.90648688734E+03  0.65864270000E+03 0. -1.
    8880022    1    1    2    0    0 -0.31121738602E+03 -0.32113899633E+03 -0.13826820228E+01  0.47263102009E+03  0.15294330000E+03 0.  0.
<mgrwt>
<rscale>  0 0.69881358E+03</rscale>
<asrwt>0</asrwt>
<pdfrwt beam="1">  1        1 0.13953846E+00 0.79611351E+03</pdfrwt>
<pdfrwt beam="2">  1       -1 0.72633523E-01 0.79611351E+03</pdfrwt>
<totfact> 0.35038141E+01</totfact>
</mgrwt>
</event>
<event>
 4    2  0.3396630E-007  0.7689889E+03  0.7818608E-02  0.9782368E-01
         -1   -1    0    0    0  501 -0.00000000000E+00  0.00000000000E+00  0.10998113303E+04  0.10998113303E+04  0.50400000000E-02 0.  1.
          1   -1    0    0  501    0  0.00000000000E+00 -0.00000000000E+00 -0.50659541781E+03  0.50659541784E+03  0.50400000000E-02 0. -1.
    8880023    1    1    2    0    0  0.10064608050E+03 -0.38393246621E+03  0.82017449691E+03  0.11242909694E+04  0.65864270000E+03 0.  0.
    8880022    1    1    2    0    0 -0.10064608050E+03  0.38393246621E+03 -0.22695858441E+03  0.48211577881E+03  0.15294330000E+03 0.  0.
<mgrwt>
<rscale>  0 0.66317404E+03</rscale>
<asrwt>0</asrwt>
<pdfrwt beam="1">  1        1 0.77937757E-01 0.76898893E+03</pdfrwt>
<pdfrwt beam="2">  1       -1 0.16920174E+00 0.76898893E+03</pdfrwt>
<totfact> 0.11154359E+01</totfact>
</mgrwt>
</event>
<event>
 4    2  0.3396630E-007  0.7054779E+03  0.7818608E-02  0.9975193E-01
          1   -1    0    0  501    0  0.00000000000E+00  0.00000000000E+00  0.46735476369E+03  0.46735476372E+03  0.50400000000E-02 0. -1.
         -1   -1    0    0    0  501 -0.00000000000E+00 -0.00000000000E+00 -0.62852964864E+03  0.62852964866E+03  0.50400000000E-02 0.  1.
    8880023    1    1    2    0    0  0.28471625990E+02  0.25115390501E+03 -0.30345691019E+03  0.76797475225E+03  0.65864270000E+03 0.  1.
    8880022    1    1    2    0    0 -0.28471625990E+02 -0.25115390501E+03  0.14228202524E+03  0.32790966013E+03  0.15294330000E+03 0.  0.
<mgrwt>
<rscale>  0 0.56751491E+03</rscale>
<asrwt>0</asrwt>
<pdfrwt beam="1">  1        1 0.71900733E-01 0.70547794E+03</pdfrwt>
<pdfrwt beam="2">  1       -1 0.96696869E-01 0.70547794E+03</pdfrwt>
<totfact> 0.51282870E+01</totfact>
</mgrwt>
</event>
<event>
 4    2  0.3396630E-007  0.1147621E+04  0.7818608E-02  0.9209801E-01
         -1   -1    0    0    0  501 -0.00000000000E+00  0.00000000000E+00  0.44988529975E+03  0.44988529977E+03  0.50400000000E-02 0.  1.
          1   -1    0    0  501    0  0.00000000000E+00 -0.00000000000E+00 -0.28058208211E+04  0.28058208211E+04  0.50400000000E-02 0. -1.
    8880023    1    1    2    0    0 -0.93783505575E+03 -0.60733734428E+02 -0.18511195060E+04  0.21779983494E+04  0.65864270000E+03 0. -1.
    8880022    1    1    2    0    0  0.93783505575E+03  0.60733734428E+02 -0.50481601535E+03  0.10777077715E+04  0.15294330000E+03 0.  0.
<mgrwt>
<rscale>  0 0.10952838E+04</rscale>
<asrwt>0</asrwt>
<pdfrwt beam="1">  1        1 0.43166473E+00 0.11476207E+04</pdfrwt>
<pdfrwt beam="2">  1       -1 0.69213125E-01 0.11476207E+04</pdfrwt>
<totfact> 0.17486658E+00</totfact>
</mgrwt>
</event>
<event>
 4    2  0.3396630E-007  0.7750018E+03  0.7818608E-02  0.9767712E-01
         -1   -1    0    0    0  501 -0.00000000000E+00  0.00000000000E+00  0.78960040374E+03  0.78960040376E+03  0.50400000000E-02 0.  1.
          1   -1    0    0  501    0  0.00000000000E+00 -0.00000000000E+00 -0.66089153160E+03  0.66089153162E+03  0.50400000000E-02 0. -1.
    8880023    1    1    2    0    0 -0.30967187061E+03 -0.26630979944E+03  0.46140264314E+03  0.90195353654E+03  0.65864270000E+03 0.  1.
    8880022    1    1    2    0    0  0.30967187061E+03  0.26630979944E+03 -0.33269377101E+03  0.54853839884E+03  0.15294330000E+03 0.  0.
<mgrwt>
<rscale>  0 0.67124487E+03</rscale>
<asrwt>0</asrwt>
<pdfrwt beam="1">  1        1 0.10167562E+00 0.77500180E+03</pdfrwt>
<pdfrwt beam="2">  1       -1 0.12147699E+00 0.77500180E+03</pdfrwt>
<totfact> 0.18282256E+01</totfact>
</mgrwt>
</event>
<event>
 4    2  0.3396630E-007  0.7202503E+03  0.7818608E-02  0.9921740E-01
          1   -1    0    0  501    0  0.00000000000E+00  0.00000000000E+00  0.29170343282E+03  0.29170343287E+03  0.50400000000E-02 0. -1.
         -1   -1    0    0    0  501 -0.00000000000E+00 -0.00000000000E+00 -0.12284460024E+04  0.12284460024E+04  0.50400000000E-02 0.  1.
    8880023    1    1    2    0    0  0.28978303596E+03 -0.31243240891E+02 -0.94827719077E+03  0.11907939305E+04  0.65864270000E+03 0.  1.
    8880022    1    1    2    0    0 -0.28978303596E+03  0.31243240891E+02  0.11534621219E+02  0.32935550479E+03  0.15294330000E+03 0.  0.
<mgrwt>
<rscale>  0 0.59219156E+03</rscale>
<asrwt>0</asrwt>
<pdfrwt beam="1">  1        1 0.44877452E-01 0.72025034E+03</pdfrwt>
<pdfrwt beam="2">  1       -1 0.18899169E+00 0.72025034E+03</pdfrwt>
<totfact> 0.16834768E+01</totfact>
</mgrwt>
</event>
<event>
 4    2  0.3396630E-007  0.8822251E+03  0.7818608E-02  0.9555190E-01
         -1   -1    0    0    0  501 -0.00000000000E+00  0.00000000000E+00  0.72022229689E+03  0.72022229691E+03  0.50400000000E-02 0.  1.
          1   -1    0    0  501    0  0.00000000000E+00 -0.00000000000E+00 -0.90970180954E+03  0.90970180955E+03  0.50400000000E-02 0. -1.
    8880023    1    1    2    0    0 -0.12698896287E+03 -0.57304862867E+03  0.20584151328E+03  0.90592045035E+03  0.65864270000E+03 0.  1.
    8880022    1    1    2    0    0  0.12698896287E+03  0.57304862867E+03 -0.39532102593E+03  0.72400365611E+03  0.15294330000E+03 0.  0.
<mgrwt>
<rscale>  0 0.80334328E+03</rscale>
<asrwt>0</asrwt>
<pdfrwt beam="1">  1        1 0.13995412E+00 0.88222510E+03</pdfrwt>
<pdfrwt beam="2">  1       -1 0.11080343E+00 0.88222510E+03</pdfrwt>
<totfact> 0.13594655E+01</totfact>
</mgrwt>
</event>
<event>
 4    2  0.3396630E-007  0.8479025E+03  0.7818608E-02  0.9615456E-01
         -1   -1    0    0    0  501 -0.00000000000E+00  0.00000000000E+00  0.12704371869E+04  0.12704371869E+04  0.50400000000E-02 0.  1.
          1   -1    0    0  501    0  0.00000000000E+00 -0.00000000000E+00 -0.85402418941E+03  0.85402418942E+03  0.50400000000E-02 0. -1.
    8880023    1    1    2    0    0 -0.50578196893E+03 -0.17121038247E+03  0.10051796967E+04  0.13150379554E+04  0.65864270000E+03 0.  1.
    8880022    1    1    2    0    0  0.50578196893E+03  0.17121038247E+03 -0.58876669925E+03  0.80942342091E+03  0.15294330000E+03 0.  0.
<mgrwt>
<rscale>  0 0.76281610E+03</rscale>
<asrwt>0</asrwt>
<pdfrwt beam="1">  1        1 0.13138834E+00 0.84790247E+03</pdfrwt>
<pdfrwt beam="2">  1       -1 0.19545187E+00 0.84790247E+03</pdfrwt>
<totfact> 0.32930191E+00</totfact>
</mgrwt>
</event>
<event>
 4    2  0.3396630E-007  0.7398266E+03  0.7818608E-02  0.9860453E-01
          1   -1    0    0  501    0  0.00000000000E+00  0.00000000000E+00  0.99016646843E+03  0.99016646844E+03  0.50400000000E-02 0. -1.
         -1   -1    0    0    0  501 -0.00000000000E+00 -0.00000000000E+00 -0.84806959452E+03  0.84806959453E+03  0.50400000000E-02 0.  1.
    8880023    1    1    2    0    0 -0.27547135121E+03  0.19403275452E+03 -0.63664980149E+03  0.97604628536E+03  0.65864270000E+03 0.  1.
    8880022    1    1    2    0    0  0.27547135121E+03 -0.19403275452E+03  0.77874667540E+03  0.86218977761E+03  0.15294330000E+03 0.  0.
<mgrwt>
<rscale>  0 0.62216808E+03</rscale>
<asrwt>0</asrwt>
<pdfrwt beam="1">  1        1 0.15233330E+00 0.73982659E+03</pdfrwt>
<pdfrwt beam="2">  1       -1 0.13047225E+00 0.73982659E+03</pdfrwt>
<totfact> 0.80122971E+00</totfact>
</mgrwt>
</event>
<event>
 4    2  0.3396630E-007  0.7631532E+03  0.7818608E-02  0.9797012E-01
          1   -1    0    0  501    0  0.00000000000E+00  0.00000000000E+00  0.18280503191E+03  0.18280503198E+03  0.50400000000E-02 0. -1.
         -1   -1    0    0    0  501 -0.00000000000E+00 -0.00000000000E+00 -0.26905112197E+04  0.26905112197E+04  0.50400000000E-02 0.  1.
    8880023    1    1    2    0    0 -0.37182424949E+03 -0.10168237236E+03 -0.22710242722E+04  0.23958201161E+04  0.65864270000E+03 0.  1.
    8880022    1    1    2    0    0  0.37182424949E+03  0.10168237236E+03 -0.23668191560E+03  0.47749613563E+03  0.15294330000E+03 0.  0.
<mgrwt>
<rscale>  0 0.65523165E+03</rscale>
<asrwt>0</asrwt>
<pdfrwt beam="1">  1        1 0.28123853E-01 0.76315318E+03</pdfrwt>
<pdfrwt beam="2">  1       -1 0.41392478E+00 0.76315318E+03</pdfrwt>
<totfact> 0.10216066E+00</totfact>
</mgrwt>
</event>
<event>
 4    2  0.3396630E-007  0.6607497E+03  0.7818608E-02  0.1023401E+00
          1   -1    0    0  501    0  0.00000000000E+00  0.00000000000E+00  0.32431117759E+03  0.32431117763E+03  0.50400000000E-02 0. -1.
         -1   -1    0    0    0  501 -0.00000000000E+00 -0.00000000000E+00 -0.14461919706E+04  0.14461919706E+04  0.50400000000E-02 0.  1.
    8880023    1    1    2    0    0  0.50593611215E+02 -0.14840235158E+02 -0.13428708066E+04  0.14966269259E+04  0.65864270000E+03 0.  1.
    8880022    1    1    2    0    0 -0.50593611215E+02  0.14840235158E+02  0.22099001351E+03  0.27387622233E+03  0.15294330000E+03 0.  0.
<mgrwt>
<rscale>  0 0.46478971E+03</rscale>
<asrwt>0</asrwt>
<pdfrwt beam="1">  1        1 0.49894028E-01 0.66074969E+03</pdfrwt>
<pdfrwt beam="2">  1       -1 0.22249107E+00 0.66074969E+03</pdfrwt>
<totfact> 0.87694876E+00</totfact>
</mgrwt>
</event>
<event>
 4    2  0.3396630E-007  0.8329131E+03  0.7818608E-02  0.9643691E-01
         -1   -1    0    0    0  501 -0.00000000000E+00  0.00000000000E+00  0.10278927245E+04  0.10278927245E+04  0.50400000000E-02 0.  1.
          1   -1    0    0  501    0  0.00000000000E+00 -0.00000000000E+00 -0.84418274566E+03  0.84418274568E+03  0.50400000000E-02 0. -1.
    8880023    1    1    2    0    0 -0.89116425230E+02  0.50198836792E+03  0.73131152282E+03  0.11084046231E+04  0.65864270000E+03 0.  1.
    8880022    1    1    2    0    0  0.89116425230E+02 -0.50198836792E+03 -0.54760154398E+03  0.76367084713E+03  0.15294330000E+03 0.  0.
<mgrwt>
<rscale>  0 0.74470715E+03</rscale>
<asrwt>0</asrwt>
<pdfrwt beam="1">  1        1 0.12987427E+00 0.83291312E+03</pdfrwt>
<pdfrwt beam="2">  1       -1 0.15813734E+00 0.83291312E+03</pdfrwt>
<totfact> 0.62535375E+00</totfact>
</mgrwt>
</event>
<event>
 4    2  0.3396630E-007  0.7609970E+03  0.7818608E-02  0.9802533E-01
         -1   -1    0    0    0  501 -0.00000000000E+00  0.00000000000E+00  0.50925552908E+03  0.50925552910E+03  0.50400000000E-02 0.  1.
          1   -1    0    0  501    0  0.00000000000E+00 -0.00000000000E+00 -0.87980919125E+03  0.87980919126E+03  0.50400000000E-02 0. -1.
    8880023    1    1    2    0    0  0.32538555834E+03  0.19857100871E+03  0.96513089710E+02  0.76709268659E+03  0.65864270000E+03 0.  0.
    8880022    1    1    2    0    0 -0.32538555834E+03 -0.19857100871E+03 -0.46706675188E+03  0.62197203378E+03  0.15294330000E+03 0.  0.
<mgrwt>
<rscale>  0 0.65226774E+03</rscale>
<asrwt>0</asrwt>
<pdfrwt beam="1">  1        1 0.13535526E+00 0.76099699E+03</pdfrwt>
<pdfrwt beam="2">  1       -1 0.78347004E-01 0.76099699E+03</pdfrwt>
<totfact> 0.31594937E+01</totfact>
</mgrwt>
</event>
<event>
 4    2  0.3396630E-007  0.7313816E+03  0.7818608E-02  0.9885803E-01
         -1   -1    0    0    0  501 -0.00000000000E+00  0.00000000000E+00  0.38686167613E+03  0.38686167616E+03  0.50400000000E-02 0.  1.
          1   -1    0    0  501    0  0.00000000000E+00 -0.00000000000E+00 -0.21402385064E+04  0.21402385064E+04  0.50400000000E-02 0. -1.
    8880023    1    1    2    0    0  0.19221183116E+03 -0.25330516044E+03  0.72974177466E+01  0.73141804115E+03  0.65864270000E+03 0.  1.
    8880022    1    1    2    0    0 -0.19221183116E+03  0.25330516044E+03 -0.17606742480E+04  0.17956821414E+04  0.15294330000E+03 0.  0.
<mgrwt>
<rscale>  0 0.60954314E+03</rscale>
<asrwt>0</asrwt>
<pdfrwt beam="1">  1        1 0.32926746E+00 0.73138164E+03</pdfrwt>
<pdfrwt beam="2">  1       -1 0.59517182E-01 0.73138164E+03</pdfrwt>
<totfact> 0.72141770E+00</totfact>
</mgrwt>
</event>
<event>
 4    2  0.3396630E-007  0.1289249E+04  0.7818608E-02  0.9074900E-01
         -1   -1    0    0    0  501 -0.00000000000E+00  0.00000000000E+00  0.91765763449E+03  0.91765763450E+03  0.50400000000E-02 0.  1.
          1   -1    0    0  501    0  0.00000000000E+00 -0.00000000000E+00 -0.18462475259E+04  0.18462475259E+04  0.50400000000E-02 0. -1.
    8880023    1    1    2    0    0 -0.25799517918E+03  0.10778640722E+04  0.31479816403E+02  0.12896331477E+04  0.65864270000E+03 0.  0.
    8880022    1    1    2    0    0  0.25799517918E+03 -0.10778640722E+04 -0.96006970784E+03  0.14742720127E+04  0.15294330000E+03 0.  0.
<mgrwt>
<rscale>  0 0.12443485E+04</rscale>
<asrwt>0</asrwt>
<pdfrwt beam="1">  1        1 0.28403808E+00 0.12892489E+04</pdfrwt>
<pdfrwt beam="2">  1       -1 0.14117810E+00 0.12892489E+04</pdfrwt>
<totfact> 0.15108122E+00</totfact>
</mgrwt>
</event>
<event>
 4    2  0.3396630E-007  0.6981502E+03  0.7818608E-02  0.1000496E+00
          1   -1    0    0  501    0  0.00000000000E+00  0.00000000000E+00  0.15828114910E+04  0.15828114910E+04  0.50400000000E-02 0. -1.
         -1   -1    0    0    0  501 -0.00000000000E+00 -0.00000000000E+00 -0.17443371907E+03  0.17443371915E+03  0.50400000000E-02 0.  1.
    8880023    1    1    2    0    0 -0.19209719247E+03 -0.12923692824E+03  0.66666070889E+03  0.96532389487E+03  0.65864270000E+03 0.  0.
    8880022    1    1    2    0    0  0.19209719247E+03  0.12923692824E+03  0.74171706300E+03  0.79192131524E+03  0.15294330000E+03 0.  0.
<mgrwt>
<rscale>  0 0.55433154E+03</rscale>
<asrwt>0</asrwt>
<pdfrwt beam="1">  1        1 0.24350946E+00 0.69815021E+03</pdfrwt>
<pdfrwt beam="2">  1       -1 0.26835957E-01 0.69815021E+03</pdfrwt>
<totfact> 0.73290499E+01</totfact>
</mgrwt>
</event>
<event>
 4    2  0.3396630E-007  0.9435343E+03  0.7818608E-02  0.9459479E-01
         -1   -1    0    0    0  501 -0.00000000000E+00  0.00000000000E+00  0.12389513289E+04  0.12389513289E+04  0.50400000000E-02 0.  1.
          1   -1    0    0  501    0  0.00000000000E+00 -0.00000000000E+00 -0.15699023174E+04  0.15699023174E+04  0.50400000000E-02 0. -1.
    8880023    1    1    2    0    0 -0.10289781139E+03  0.66772655567E+03  0.95858469985E+03  0.13450433249E+04  0.65864270000E+03 0.  1.
    8880022    1    1    2    0    0  0.10289781139E+03 -0.66772655567E+03 -0.12895356883E+04  0.14638103214E+04  0.15294330000E+03 0.  0.
<mgrwt>
<rscale>  0 0.87338380E+03</rscale>
<asrwt>0</asrwt>
<pdfrwt beam="1">  1        1 0.24152344E+00 0.94353427E+03</pdfrwt>
<pdfrwt beam="2">  1       -1 0.19060790E+00 0.94353427E+03</pdfrwt>
<totfact> 0.10408071E+00</totfact>
</mgrwt>
</event>
<event>
 4    2  0.3396630E-007  0.8718370E+03  0.7818608E-02  0.9572845E-01
          1   -1    0    0  501    0  0.00000000000E+00  0.00000000000E+00  0.11338682320E+04  0.11338682321E+04  0.50400000000E-02 0. -1.
         -1   -1    0    0    0  501 -0.00000000000E+00 -0.00000000000E+00 -0.12818979450E+04  0.12818979450E+04  0.50400000000E-02 0.  1.
    8880023    1    1    2    0    0  0.16753855874E+03 -0.54609564918E+03 -0.10327961213E+04  0.13515796910E+04  0.65864270000E+03 0.  1.
    8880022    1    1    2    0    0 -0.16753855874E+03  0.54609564918E+03  0.88476640836E+03  0.10641864860E+04  0.15294330000E+03 0.  0.
<mgrwt>
<rscale>  0 0.79119865E+03</rscale>
<asrwt>0</asrwt>
<pdfrwt beam="1">  1        1 0.17444127E+00 0.87183704E+03</pdfrwt>
<pdfrwt beam="2">  1       -1 0.19721507E+00 0.87183704E+03</pdfrwt>
<totfact> 0.19254795E+00</totfact>
</mgrwt>
</event>
<event>
 4    2  0.3396630E-007  0.7506821E+03  0.7818608E-02  0.9829857E-01
          1   -1    0    0  501    0  0.00000000000E+00  0.00000000000E+00  0.41292014143E+03  0.41292014146E+03  0.50400000000E-02 0. -1.
         -1   -1    0    0    0  501 -0.00000000000E+00 -0.00000000000E+00 -0.94416145410E+03  0.94416145411E+03  0.50400000000E-02 0.  1.
    8880023    1    1    2    0    0 -0.30142051182E+03 -0.19712726236E+03 -0.72565345368E+02  0.75418128996E+03  0.65864270000E+03 0. -1.
    8880022    1    1    2    0    0  0.30142051182E+03  0.19712726236E+03 -0.45867596730E+03  0.60290030561E+03  0.15294330000E+03 0.  0.
<mgrwt>
<rscale>  0 0.63784593E+03</rscale>
<asrwt>0</asrwt>
<pdfrwt beam="1">  1        1 0.63526176E-01 0.75068215E+03</pdfrwt>
<pdfrwt beam="2">  1       -1 0.14525561E+00 0.75068215E+03</pdfrwt>
<totfact> 0.22415023E+01</totfact>
</mgrwt>
</event>
<event>
 4    2  0.3396630E-007  0.7822900E+03  0.7818608E-02  0.9750485E-01
          1   -1    0    0  501    0  0.00000000000E+00  0.00000000000E+00  0.59726758595E+03  0.59726758597E+03  0.50400000000E-02 0. -1.
         -1   -1    0    0    0  501 -0.00000000000E+00 -0.00000000000E+00 -0.98232006534E+03  0.98232006535E+03  0.50400000000E-02 0.  1.
    8880023    1    1    2    0    0  0.71498180582E+02 -0.41599938329E+03 -0.68487290772E+03  0.10397252439E+04  0.65864270000E+03 0.  1.
    8880022    1    1    2    0    0 -0.71498180582E+02  0.41599938329E+03  0.29982042834E+03  0.53986240746E+03  0.15294330000E+03 0.  0.
<mgrwt>
<rscale>  0 0.68088874E+03</rscale>
<asrwt>0</asrwt>
<pdfrwt beam="1">  1        1 0.91887321E-01 0.78229002E+03</pdfrwt>
<pdfrwt beam="2">  1       -1 0.15112616E+00 0.78229002E+03</pdfrwt>
<totfact> 0.12086159E+01</totfact>
</mgrwt>
</event>
<event>
 4    2  0.3396630E-007  0.6731079E+03  0.7818608E-02  0.1013526E+00
         -1   -1    0    0    0  501 -0.00000000000E+00  0.00000000000E+00  0.16916797279E+03  0.16916797287E+03  0.50400000000E-02 0.  1.
          1   -1    0    0  501    0  0.00000000000E+00 -0.00000000000E+00 -0.20145387787E+04  0.20145387787E+04  0.50400000000E-02 0. -1.
    8880023    1    1    2    0    0  0.69649964833E+02 -0.12005363978E+03 -0.54234463887E+03  0.86441419910E+03  0.65864270000E+03 0.  1.
    8880022    1    1    2    0    0 -0.69649964833E+02  0.12005363978E+03 -0.13030261670E+04  0.13192925525E+04  0.15294330000E+03 0.  0.
<mgrwt>
<rscale>  0 0.50096867E+03</rscale>
<asrwt>0</asrwt>
<pdfrwt beam="1">  1        1 0.30992903E+00 0.67310787E+03</pdfrwt>
<pdfrwt beam="2">  1       -1 0.26025843E-01 0.67310787E+03</pdfrwt>
<totfact> 0.39818399E+01</totfact>
</mgrwt>
</event>
<event>
 4    2  0.3396630E-007  0.8602701E+03  0.7818608E-02  0.9593083E-01
          1   -1    0    0  501    0  0.00000000000E+00  0.00000000000E+00  0.55617274409E+03  0.55617274412E+03  0.50400000000E-02 0. -1.
         -1   -1    0    0    0  501 -0.00000000000E+00 -0.00000000000E+00 -0.24422857113E+04  0.24422857113E+04  0.50400000000E-02 0.  1.
    8880023    1    1    2    0    0 -0.15305083940E+03  0.53181754775E+03 -0.21870951080E+04  0.23502020512E+04  0.65864270000E+03 0.  1.
    8880022    1    1    2    0    0  0.15305083940E+03 -0.53181754775E+03  0.30098214082E+03  0.64825640425E+03  0.15294330000E+03 0.  0.
<mgrwt>
<rscale>  0 0.77755680E+03</rscale>
<asrwt>0</asrwt>
<pdfrwt beam="1">  1        1 0.85565039E-01 0.86027011E+03</pdfrwt>
<pdfrwt beam="2">  1       -1 0.37573626E+00 0.86027011E+03</pdfrwt>
<totfact> 0.41826253E-01</totfact>
</mgrwt>
</event>
<event>
 4    2  0.3396630E-007  0.8268931E+03  0.7818608E-02  0.9655408E-01
          1   -1    0    0  501    0  0.00000000000E+00  0.00000000000E+00  0.70003505542E+03  0.70003505544E+03  0.50400000000E-02 0. -1.
         -1   -1    0    0    0  501 -0.00000000000E+00 -0.00000000000E+00 -0.84622655389E+03  0.84622655391E+03  0.50400000000E-02 0.  1.
    8880023    1    1    2    0    0  0.42751512724E+03  0.25917726393E+03  0.27866657386E+03  0.87258655949E+03  0.65864270000E+03 0. -1.
    8880022    1    1    2    0    0 -0.42751512724E+03 -0.25917726393E+03 -0.42485807234E+03  0.67367504986E+03  0.15294330000E+03 0.  0.
<mgrwt>
<rscale>  0 0.73735000E+03</rscale>
<asrwt>0</asrwt>
<pdfrwt beam="1">  1        1 0.10769770E+00 0.82689313E+03</pdfrwt>
<pdfrwt beam="2">  1       -1 0.13018870E+00 0.82689313E+03</pdfrwt>
<totfact> 0.14035457E+01</totfact>
</mgrwt>
</event>
<event>
 4    2  0.3396630E-007  0.6698194E+03  0.7818608E-02  0.1015793E+00
         -1   -1    0    0    0  501 -0.00000000000E+00  0.00000000000E+00  0.21635903549E+03  0.21635903555E+03  0.50400000000E-02 0.  1.
          1   -1    0    0  501    0  0.00000000000E+00 -0.00000000000E+00 -0.86605832151E+03  0.86605832152E+03  0.50400000000E-02 0. -1.
    8880023    1    1    2    0    0  0.71618722733E+02  0.98583140781E+02 -0.51611558355E+03  0.84559646342E+03  0.65864270000E+03 0.  0.
    8880022    1    1    2    0    0 -0.71618722733E+02 -0.98583140781E+02 -0.13358370246E+03  0.23682089365E+03  0.15294330000E+03 0. -1.
<mgrwt>
<rscale>  0 0.49235957E+03</rscale>
<asrwt>0</asrwt>
<pdfrwt beam="1">  1        1 0.13323974E+00 0.66981944E+03</pdfrwt>
<pdfrwt beam="2">  1       -1 0.33286006E-01 0.66981944E+03</pdfrwt>
<totfact> 0.16814186E+02</totfact>
</mgrwt>
</event>
<event>
 4    2  0.3396630E-007  0.9207149E+03  0.7818608E-02  0.9493564E-01
         -1   -1    0    0    0  501 -0.00000000000E+00  0.00000000000E+00  0.58234722693E+03  0.58234722695E+03  0.50400000000E-02 0.  1.
          1   -1    0    0  501    0  0.00000000000E+00 -0.00000000000E+00 -0.31241828172E+04  0.31241828172E+04  0.50400000000E-02 0. -1.
    8880023    1    1    2    0    0 -0.46138569547E+03 -0.44836253455E+03  0.15159261365E+03  0.93311105939E+03  0.65864270000E+03 0.  0.
    8880022    1    1    2    0    0  0.46138569547E+03  0.44836253455E+03 -0.26934282039E+04  0.27734189848E+04  0.15294330000E+03 0.  0.
<mgrwt>
<rscale>  0 0.84760008E+03</rscale>
<asrwt>0</asrwt>
<pdfrwt beam="1">  1        1 0.48064350E+00 0.92071490E+03</pdfrwt>
<pdfrwt beam="2">  1       -1 0.89591883E-01 0.92071490E+03</pdfrwt>
<totfact> 0.61787126E-01</totfact>
</mgrwt>
</event>
<event>
 4    2  0.3396630E-007  0.1055331E+04  0.7818608E-02  0.9312500E-01
         -1   -1    0    0    0  501 -0.00000000000E+00  0.00000000000E+00  0.38679239975E+03  0.38679239978E+03  0.50400000000E-02 0.  1.
          1   -1    0    0  501    0  0.00000000000E+00 -0.00000000000E+00 -0.24558534274E+04  0.24558534274E+04  0.50400000000E-02 0. -1.
    8880023    1    1    2    0    0 -0.30184273603E+02 -0.82401566035E+03 -0.14803377667E+04  0.18179997274E+04  0.65864270000E+03 0.  0.
    8880022    1    1    2    0    0  0.30184273603E+02  0.82401566035E+03 -0.58872326093E+03  0.10246460998E+04  0.15294330000E+03 0.  0.
<mgrwt>
<rscale>  0 0.99640154E+03</rscale>
<asrwt>0</asrwt>
<pdfrwt beam="1">  1        1 0.37782360E+00 0.10553308E+04</pdfrwt>
<pdfrwt beam="2">  1       -1 0.59506524E-01 0.10553308E+04</pdfrwt>
<totfact> 0.42059636E+00</totfact>
</mgrwt>
</event>
<event>
 4    2  0.3396630E-007  0.6787454E+03  0.7818608E-02  0.1010042E+00
          1   -1    0    0  501    0  0.00000000000E+00  0.00000000000E+00  0.16910849208E+04  0.16910849208E+04  0.50400000000E-02 0. -1.
         -1   -1    0    0    0  501 -0.00000000000E+00 -0.00000000000E+00 -0.41850287770E+03  0.41850287773E+03  0.50400000000E-02 0.  1.
    8880023    1    1    2    0    0  0.13490743445E+03 -0.93193797883E+02 -0.12839343842E+03  0.69078229648E+03  0.65864270000E+03 0.  1.
    8880022    1    1    2    0    0 -0.13490743445E+03  0.93193797883E+02  0.14009754815E+04  0.14188055020E+04  0.15294330000E+03 0.  0.
<mgrwt>
<rscale>  0 0.51457783E+03</rscale>
<asrwt>0</asrwt>
<pdfrwt beam="1">  1        1 0.26016691E+00 0.67874539E+03</pdfrwt>
<pdfrwt beam="2">  1       -1 0.64385059E-01 0.67874539E+03</pdfrwt>
<totfact> 0.12433252E+01</totfact>
</mgrwt>
</event>
<event>
 4    2  0.3396630E-007  0.9263900E+03  0.7818608E-02  0.9484930E-01
          1   -1    0    0  501    0  0.00000000000E+00  0.00000000000E+00  0.54526969831E+03  0.54526969833E+03  0.50400000000E-02 0. -1.
         -1   -1    0    0    0  501 -0.00000000000E+00 -0.00000000000E+00 -0.24457209005E+04  0.24457209005E+04  0.50400000000E-02 0.  1.
    8880023    1    1    2    0    0  0.65073563701E+03 -0.30517384837E+02 -0.20978750330E+04  0.22933115881E+04  0.65864270000E+03 0.  1.
    8880022    1    1    2    0    0 -0.65073563701E+03  0.30517384837E+02  0.19742383074E+03  0.69767901073E+03  0.15294330000E+03 0.  0.
<mgrwt>
<rscale>  0 0.85404047E+03</rscale>
<asrwt>0</asrwt>
<pdfrwt beam="1">  1        1 0.83887647E-01 0.92638998E+03</pdfrwt>
<pdfrwt beam="2">  1       -1 0.37626475E+00 0.92638998E+03</pdfrwt>
<totfact> 0.42180536E-01</totfact>
</mgrwt>
</event>
<event>
 4    2  0.3396630E-007  0.8020926E+03  0.7818608E-02  0.9706290E-01
          1   -1    0    0  501    0  0.00000000000E+00  0.00000000000E+00  0.26578743108E+04  0.26578743108E+04  0.50400000000E-02 0. -1.
         -1   -1    0    0    0  501 -0.00000000000E+00 -0.00000000000E+00 -0.25375107695E+03  0.25375107700E+03  0.50400000000E-02 0.  1.
    8880023    1    1    2    0    0 -0.14530394977E+03 -0.43408416955E+03  0.49521695283E+03  0.94265176004E+03  0.65864270000E+03 0.  0.
    8880022    1    1    2    0    0  0.14530394977E+03  0.43408416955E+03  0.19089062810E+04  0.19689736278E+04  0.15294330000E+03 0.  0.
<mgrwt>
<rscale>  0 0.70643544E+03</rscale>
<asrwt>0</asrwt>
<pdfrwt beam="1">  1        1 0.40890374E+00 0.80209258E+03</pdfrwt>
<pdfrwt beam="2">  1       -1 0.39038627E-01 0.80209258E+03</pdfrwt>
<totfact> 0.70242918E+00</totfact>
</mgrwt>
</event>
<event>
 4    2  0.3396630E-007  0.7276813E+03  0.7818608E-02  0.9897403E-01
         -1   -1    0    0    0  501 -0.00000000000E+00  0.00000000000E+00  0.11236290137E+04  0.11236290137E+04  0.50400000000E-02 0.  1.
          1   -1    0    0  501    0  0.00000000000E+00 -0.00000000000E+00 -0.10328890450E+04  0.10328890450E+04  0.50400000000E-02 0. -1.
    8880023    1    1    2    0    0  0.11574487307E+03  0.28690252482E+03  0.96962209875E+03  0.12123065433E+04  0.65864270000E+03 0.  1.
    8880022    1    1    2    0    0 -0.11574487307E+03 -0.28690252482E+03 -0.87888213004E+03  0.94421151545E+03  0.15294330000E+03 0.  0.
<mgrwt>
<rscale>  0 0.60387302E+03</rscale>
<asrwt>0</asrwt>
<pdfrwt beam="1">  1        1 0.15890601E+00 0.72768135E+03</pdfrwt>
<pdfrwt beam="2">  1       -1 0.17286600E+00 0.72768135E+03</pdfrwt>
<totfact> 0.34891858E+00</totfact>
</mgrwt>
</event>
<event>
 4    2  0.3396630E-007  0.1070877E+04  0.7818608E-02  0.9294196E-01
         -1   -1    0    0    0  501 -0.00000000000E+00  0.00000000000E+00  0.62092759775E+03  0.62092759777E+03  0.50400000000E-02 0.  1.
          1   -1    0    0  501    0  0.00000000000E+00 -0.00000000000E+00 -0.25467677694E+04  0.25467677694E+04  0.50400000000E-02 0. -1.
    8880023    1    1    2    0    0 -0.26139717956E+03 -0.80289388164E+03 -0.20380611545E+04  0.23022750805E+04  0.65864270000E+03 0. -1.
    8880022    1    1    2    0    0  0.26139717956E+03  0.80289388164E+03  0.11222098279E+03  0.86542028671E+03  0.15294330000E+03 0.  0.
<mgrwt>
<rscale>  0 0.10131899E+04</rscale>
<asrwt>0</asrwt>
<pdfrwt beam="1">  1        1 0.39181042E+00 0.10708769E+04</pdfrwt>
<pdfrwt beam="2">  1       -1 0.95527324E-01 0.10708769E+04</pdfrwt>
<totfact> 0.13406903E+00</totfact>
</mgrwt>
</event>
<event>
 4    2  0.3396630E-007  0.6657636E+03  0.7818608E-02  0.1018901E+00
          1   -1    0    0  501    0  0.00000000000E+00  0.00000000000E+00  0.18726769309E+03  0.18726769316E+03  0.50400000000E-02 0. -1.
         -1   -1    0    0    0  501 -0.00000000000E+00 -0.00000000000E+00 -0.18669468043E+04  0.18669468043E+04  0.50400000000E-02 0.  1.
    8880023    1    1    2    0    0 -0.96739136876E+02  0.85134876747E+01 -0.17401975196E+04  0.18632038411E+04  0.65864270000E+03 0.  1.
    8880022    1    1    2    0    0  0.96739136876E+02 -0.85134876747E+01  0.60518408378E+02  0.19101065636E+03  0.15294330000E+03 0.  0.
<mgrwt>
<rscale>  0 0.48085223E+03</rscale>
<asrwt>0</asrwt>
<pdfrwt beam="1">  1        1 0.28810416E-01 0.66576358E+03</pdfrwt>
<pdfrwt beam="2">  1       -1 0.28722257E+00 0.66576358E+03</pdfrwt>
<totfact> 0.68266818E+00</totfact>
</mgrwt>
</event>
<event>
 4    2  0.3396630E-007  0.7813641E+03  0.7818608E-02  0.9752642E-01
          1   -1    0    0  501    0  0.00000000000E+00  0.00000000000E+00  0.19149025461E+04  0.19149025461E+04  0.50400000000E-02 0. -1.
         -1   -1    0    0    0  501 -0.00000000000E+00 -0.00000000000E+00 -0.87846561846E+03  0.87846561847E+03  0.50400000000E-02 0.  1.
    8880023    1    1    2    0    0  0.66103896900E+02 -0.41515052852E+03 -0.66999074759E+03  0.10292800856E+04  0.65864270000E+03 0.  1.
    8880022    1    1    2    0    0 -0.66103896900E+02  0.41515052852E+03  0.17064276752E+04  0.17640880789E+04  0.15294330000E+03 0.  0.
<mgrwt>
<rscale>  0 0.67967150E+03</rscale>
<asrwt>0</asrwt>
<pdfrwt beam="1">  1        1 0.29460039E+00 0.78136412E+03</pdfrwt>
<pdfrwt beam="2">  1       -1 0.13514856E+00 0.78136412E+03</pdfrwt>
<totfact> 0.16381876E+00</totfact>
</mgrwt>
</event>
<event>
 4    2  0.3396630E-007  0.7010062E+03  0.7818608E-02  0.9993053E-01
         -1   -1    0    0    0  501 -0.00000000000E+00  0.00000000000E+00  0.34150237611E+03  0.34150237615E+03  0.50400000000E-02 0.  1.
          1   -1    0    0  501    0  0.00000000000E+00 -0.00000000000E+00 -0.13716833254E+04  0.13716833254E+04  0.50400000000E-02 0. -1.
    8880023    1    1    2    0    0  0.21869830786E+03 -0.98845720017E+02 -0.61653297153E+02  0.70371212974E+03  0.65864270000E+03 0.  1.
    8880022    1    1    2    0    0 -0.21869830786E+03  0.98845720017E+02 -0.96852765212E+03  0.10094735718E+04  0.15294330000E+03 0.  0.
<mgrwt>
<rscale>  0 0.55955918E+03</rscale>
<asrwt>0</asrwt>
<pdfrwt beam="1">  1        1 0.21102820E+00 0.70100616E+03</pdfrwt>
<pdfrwt beam="2">  1       -1 0.52538828E-01 0.70100616E+03</pdfrwt>
<totfact> 0.30443344E+01</totfact>
</mgrwt>
</event>
<event>
 4    2  0.3396630E-007  0.7414937E+03  0.7818608E-02  0.9855617E-01
         -1   -1    0    0    0  501 -0.00000000000E+00  0.00000000000E+00  0.28483565852E+03  0.28483565856E+03  0.50400000000E-02 0.  1.
          1   -1    0    0  501    0  0.00000000000E+00 -0.00000000000E+00 -0.21693234794E+04  0.21693234794E+04  0.50400000000E-02 0. -1.
    8880023    1    1    2    0    0 -0.33976003271E+03 -0.23785977866E+02 -0.25757703001E+03  0.78495782385E+03  0.65864270000E+03 0.  1.
    8880022    1    1    2    0    0  0.33976003271E+03  0.23785977866E+02 -0.16269107909E+04  0.16692013142E+04  0.15294330000E+03 0.  0.
<mgrwt>
<rscale>  0 0.62461328E+03</rscale>
<asrwt>0</asrwt>
<pdfrwt beam="1">  1        1 0.33374206E+00 0.74149367E+03</pdfrwt>
<pdfrwt beam="2">  1       -1 0.43820872E-01 0.74149367E+03</pdfrwt>
<totfact> 0.12332705E+01</totfact>
</mgrwt>
</event>
<event>
 4    2  0.3396630E-007  0.8119080E+03  0.7818608E-02  0.9685616E-01
          1   -1    0    0  501    0  0.00000000000E+00  0.00000000000E+00  0.33476712941E+04  0.33476712941E+04  0.50400000000E-02 0. -1.
         -1   -1    0    0    0  501 -0.00000000000E+00 -0.00000000000E+00 -0.13541136025E+03  0.13541136035E+03  0.50400000000E-02 0.  1.
    8880023    1    1    2    0    0  0.16825568795E+03 -0.44393069445E+03  0.15812308547E+04  0.17774942082E+04  0.65864270000E+03 0.  1.
    8880022    1    1    2    0    0 -0.16825568795E+03  0.44393069445E+03  0.16310290791E+04  0.17055884462E+04  0.15294330000E+03 0. -1.
<mgrwt>
<rscale>  0 0.71879692E+03</rscale>
<asrwt>0</asrwt>
<pdfrwt beam="1">  1        1 0.51502629E+00 0.81190803E+03</pdfrwt>
<pdfrwt beam="2">  1       -1 0.20832519E-01 0.81190803E+03</pdfrwt>
<totfact> 0.66547063E+00</totfact>
</mgrwt>
</event>
<event>
 4    2  0.3396630E-007  0.7194715E+03  0.7818608E-02  0.9924378E-01
         -1   -1    0    0    0  501 -0.00000000000E+00  0.00000000000E+00  0.60923373516E+03  0.60923373518E+03  0.50400000000E-02 0.  1.
          1   -1    0    0  501    0  0.00000000000E+00 -0.00000000000E+00 -0.13817544837E+04  0.13817544837E+04  0.50400000000E-02 0. -1.
    8880023    1    1    2    0    0 -0.28901826367E+03 -0.17247494077E+02  0.36536405537E+03  0.80692634856E+03  0.65864270000E+03 0.  0.
    8880022    1    1    2    0    0  0.28901826367E+03  0.17247494077E+02 -0.11378848039E+04  0.11840618704E+04  0.15294330000E+03 0.  0.
<mgrwt>
<rscale>  0 0.59094222E+03</rscale>
<asrwt>0</asrwt>
<pdfrwt beam="1">  1        1 0.21257761E+00 0.71947150E+03</pdfrwt>
<pdfrwt beam="2">  1       -1 0.93728267E-01 0.71947150E+03</pdfrwt>
<totfact> 0.91018375E+00</totfact>
</mgrwt>
</event>
<event>
 4    2  0.3396630E-007  0.6680532E+03  0.7818608E-02  0.1017099E+00
         -1   -1    0    0    0  501 -0.00000000000E+00  0.00000000000E+00  0.10846504613E+04  0.10846504613E+04  0.50400000000E-02 0.  1.
          1   -1    0    0  501    0  0.00000000000E+00 -0.00000000000E+00 -0.43637881635E+03  0.43637881638E+03  0.50400000000E-02 0. -1.
    8880023    1    1    2    0    0 -0.72690541330E+02 -0.84858753506E+02  0.95204038156E+03  0.11630460082E+04  0.65864270000E+03 0.  0.
    8880022    1    1    2    0    0  0.72690541330E+02  0.84858753506E+02 -0.30376873663E+03  0.35798326946E+03  0.15294330000E+03 0. -1.
<mgrwt>
<rscale>  0 0.48748323E+03</rscale>
<asrwt>0</asrwt>
<pdfrwt beam="1">  1        1 0.67135203E-01 0.66805324E+03</pdfrwt>
<pdfrwt beam="2">  1       -1 0.16686930E+00 0.66805324E+03</pdfrwt>
<totfact> 0.14385891E+01</totfact>
</mgrwt>
</event>
<event>
 4    2  0.3396630E-007  0.6958510E+03  0.7818608E-02  0.1001487E+00
         -1   -1    0    0    0  501 -0.00000000000E+00  0.00000000000E+00  0.74888789358E+02  0.74888789528E+02  0.50400000000E-02 0.  1.
          1   -1    0    0  501    0  0.00000000000E+00 -0.00000000000E+00 -0.48464023523E+04  0.48464023523E+04  0.50400000000E-02 0. -1.
    8880023    1    1    2    0    0  0.72232964677E+02 -0.21255770412E+03 -0.16875316518E+04  0.18253689109E+04  0.65864270000E+03 0.  1.
    8880022    1    1    2    0    0 -0.72232964677E+02  0.21255770412E+03 -0.30839819111E+04  0.30959222309E+04  0.15294330000E+03 0.  0.
<mgrwt>
<rscale>  0 0.55003065E+03</rscale>
<asrwt>0</asrwt>
<pdfrwt beam="1">  1        1 0.74560012E+00 0.69585098E+03</pdfrwt>
<pdfrwt beam="2">  1       -1 0.11521356E-01 0.69585098E+03</pdfrwt>
<totfact> 0.78256480E-01</totfact>
</mgrwt>
</event>
<event>
 4    2  0.3396630E-007  0.8066630E+03  0.7818608E-02  0.9696570E-01
          1   -1    0    0  501    0  0.00000000000E+00  0.00000000000E+00  0.85429269462E+03  0.85429269464E+03  0.50400000000E-02 0. -1.
         -1   -1    0    0    0  501 -0.00000000000E+00 -0.00000000000E+00 -0.85883343117E+03  0.85883343119E+03  0.50400000000E-02 0.  1.
    8880023    1    1    2    0    0  0.26736730971E+03 -0.38132615694E+03 -0.55263359414E+03  0.97780826950E+03  0.65864270000E+03 0.  0.
    8880022    1    1    2    0    0 -0.26736730971E+03  0.38132615694E+03  0.54809285759E+03  0.73531785632E+03  0.15294330000E+03 0. -1.
<mgrwt>
<rscale>  0 0.71221362E+03</rscale>
<asrwt>0</asrwt>
<pdfrwt beam="1">  1        1 0.13142964E+00 0.80666295E+03</pdfrwt>
<pdfrwt beam="2">  1       -1 0.13212822E+00 0.80666295E+03</pdfrwt>
<totfact> 0.98977912E+00</totfact>
</mgrwt>
</event>
<event>
 4    2  0.3396630E-007  0.8494342E+03  0.7818608E-02  0.9612642E-01
         -1   -1    0    0    0  501 -0.00000000000E+00  0.00000000000E+00  0.11019112710E+04  0.11019112711E+04  0.50400000000E-02 0.  1.
          1   -1    0    0  501    0  0.00000000000E+00 -0.00000000000E+00 -0.53713010313E+03  0.53713010315E+03  0.50400000000E-02 0. -1.
    8880023    1    1    2    0    0 -0.25596246965E+03 -0.47139308054E+03  0.65677096236E+03  0.10737255355E+04  0.65864270000E+03 0.  0.
    8880022    1    1    2    0    0  0.25596246965E+03  0.47139308054E+03 -0.91989794437E+02  0.56531583875E+03  0.15294330000E+03 0.  0.
<mgrwt>
<rscale>  0 0.76465101E+03</rscale>
<asrwt>0</asrwt>
<pdfrwt beam="1">  1        1 0.82635401E-01 0.84943418E+03</pdfrwt>
<pdfrwt beam="2">  1       -1 0.16952481E+00 0.84943418E+03</pdfrwt>
<totfact> 0.10133082E+01</totfact>
</mgrwt>
</event>
<event>
 4    2  0.3396630E-007  0.6887249E+03  0.7818608E-02  0.1004765E+00
         -1   -1    0    0    0  501 -0.00000000000E+00  0.00000000000E+00  0.13502244214E+04  0.13502244214E+04  0.50400000000E-02 0.  1.
          1   -1    0    0  501    0  0.00000000000E+00 -0.00000000000E+00 -0.11373790669E+04  0.11373790670E+04  0.50400000000E-02 0. -1.
    8880023    1    1    2    0    0  0.83768914628E+02  0.18306963427E+03  0.12461543488E+04  0.14238126946E+04  0.65864270000E+03 0.  1.
    8880022    1    1    2    0    0 -0.83768914628E+02 -0.18306963427E+03 -0.10333089943E+04  0.10637907937E+04  0.15294330000E+03 0.  0.
<mgrwt>
<rscale>  0 0.53609503E+03</rscale>
<asrwt>0</asrwt>
<pdfrwt beam="1">  1        1 0.17498139E+00 0.68872486E+03</pdfrwt>
<pdfrwt beam="2">  1       -1 0.20772683E+00 0.68872486E+03</pdfrwt>
<totfact> 0.16770050E+00</totfact>
</mgrwt>
</event>
<event>
 4    2  0.3396630E-007  0.8924883E+03  0.7818608E-02  0.9538199E-01
          1   -1    0    0  501    0  0.00000000000E+00  0.00000000000E+00  0.90138499139E+03  0.90138499140E+03  0.50400000000E-02 0. -1.
         -1   -1    0    0    0  501 -0.00000000000E+00 -0.00000000000E+00 -0.90054012543E+03  0.90054012545E+03  0.50400000000E-02 0.  1.
    8880023    1    1    2    0    0  0.59278285655E+03 -0.10645993289E+03 -0.48261491146E+03  0.10146194318E+04  0.65864270000E+03 0.  1.
    8880022    1    1    2    0    0 -0.59278285655E+03  0.10645993289E+03  0.48345977742E+03  0.78730568506E+03  0.15294330000E+03 0.  0.
<mgrwt>
<rscale>  0 0.81525179E+03</rscale>
<asrwt>0</asrwt>
<pdfrwt beam="1">  1        1 0.13867461E+00 0.89248834E+03</pdfrwt>
<pdfrwt beam="2">  1       -1 0.13854463E+00 0.89248834E+03</pdfrwt>
<totfact> 0.79294074E+00</totfact>
</mgrwt>
</event>
<event>
 4    2  0.3396630E-007  0.9943824E+03  0.7818608E-02  0.9388944E-01
          1   -1    0    0  501    0  0.00000000000E+00  0.00000000000E+00  0.10121221570E+04  0.10121221571E+04  0.50400000000E-02 0. -1.
         -1   -1    0    0    0  501 -0.00000000000E+00 -0.00000000000E+00 -0.85606864829E+03  0.85606864831E+03  0.50400000000E-02 0.  1.
    8880023    1    1    2    0    0 -0.46215853765E+03  0.58429063278E+03 -0.22205047099E+03  0.10188732381E+04  0.65864270000E+03 0.  0.
    8880022    1    1    2    0    0  0.46215853765E+03 -0.58429063278E+03  0.37810397974E+03  0.84931756722E+03  0.15294330000E+03 0.  0.
<mgrwt>
<rscale>  0 0.92991125E+03</rscale>
<asrwt>0</asrwt>
<pdfrwt beam="1">  1        1 0.15571110E+00 0.99438235E+03</pdfrwt>
<pdfrwt beam="2">  1       -1 0.13170287E+00 0.99438235E+03</pdfrwt>
<totfact> 0.72871272E+00</totfact>
</mgrwt>
</event>
<event>
 4    2  0.3396630E-007  0.7409890E+03  0.7818608E-02  0.9857076E-01
          1   -1    0    0  501    0  0.00000000000E+00  0.00000000000E+00  0.90650895620E+03  0.90650895622E+03  0.50400000000E-02 0. -1.
         -1   -1    0    0    0  501 -0.00000000000E+00 -0.00000000000E+00 -0.39291250569E+03  0.39291250572E+03  0.50400000000E-02 0.  1.
    8880023    1    1    2    0    0  0.33929973537E+03  0.11409248098E+02  0.10798567791E+03  0.74881612847E+03  0.65864270000E+03 0.  1.
    8880022    1    1    2    0    0 -0.33929973537E+03 -0.11409248098E+02  0.40561077261E+03  0.55060533346E+03  0.15294330000E+03 0. -1.
<mgrwt>
<rscale>  0 0.62387458E+03</rscale>
<asrwt>0</asrwt>
<pdfrwt beam="1">  1        1 0.13946292E+00 0.74098899E+03</pdfrwt>
<pdfrwt beam="2">  1       -1 0.60448078E-01 0.74098899E+03</pdfrwt>
<totfact> 0.51092366E+01</totfact>
</mgrwt>
</event>
<event>
 4    2  0.3681975E-007  0.6812654E+03  0.7818608E-02  0.1008617E+00
          1   -1    0    0  501    0  0.00000000000E+00  0.00000000000E+00  0.15455310204E+04  0.15455310204E+04  0.50400000000E-02 0. -1.
         -1   -1    0    0    0  501 -0.00000000000E+00 -0.00000000000E+00 -0.12752489073E+04  0.12752489073E+04  0.50400000000E-02 0.  1.
    8880023    1    1    2    0    0  0.61338167071E+02  0.16294143670E+03 -0.11743639995E+04  0.13576646464E+04  0.65864270000E+03 0.  1.
    8880022    1    1    2    0    0 -0.61338167071E+02 -0.16294143670E+03  0.14446461126E+04  0.14631152813E+04  0.15294330000E+03 0.  0.
<mgrwt>
<rscale>  0 0.52028103E+03</rscale>
<asrwt>0</asrwt>
<pdfrwt beam="1">  1        1 0.23777400E+00 0.68126536E+03</pdfrwt>
<pdfrwt beam="2">  1       -1 0.19619214E+00 0.68126536E+03</pdfrwt>
<totfact> 0.10402551E+00</totfact>
</mgrwt>
</event>
<event>
 4    2  0.3396630E-007  0.8942296E+03  0.7818608E-02  0.9535359E-01
          1   -1    0    0  501    0  0.00000000000E+00  0.00000000000E+00  0.15302793397E+04  0.15302793397E+04  0.50400000000E-02 0. -1.
         -1   -1    0    0    0  501 -0.00000000000E+00 -0.00000000000E+00 -0.61491414037E+03  0.61491414039E+03  0.50400000000E-02 0.  1.
    8880023    1    1    2    0    0  0.48648077942E+03 -0.35940623919E+03 -0.15375738469E+03  0.90735215497E+03  0.65864270000E+03 0.  1.
    8880022    1    1    2    0    0 -0.48648077942E+03  0.35940623919E+03  0.10691225840E+04  0.12378413251E+04  0.15294330000E+03 0.  0.
<mgrwt>
<rscale>  0 0.81726387E+03</rscale>
<asrwt>0</asrwt>
<pdfrwt beam="1">  1        1 0.23542759E+00 0.89422961E+03</pdfrwt>
<pdfrwt beam="2">  1       -1 0.94602177E-01 0.89422961E+03</pdfrwt>
<totfact> 0.68670080E+00</totfact>
</mgrwt>
</event>
<event>
 4    2  0.3396630E-007  0.7730095E+03  0.7818608E-02  0.9772522E-01
          1   -1    0    0  501    0  0.00000000000E+00  0.00000000000E+00  0.78247443217E+03  0.78247443219E+03  0.50400000000E-02 0. -1.
         -1   -1    0    0    0  501 -0.00000000000E+00 -0.00000000000E+00 -0.64236462762E+03  0.64236462764E+03  0.50400000000E-02 0.  1.
    8880023    1    1    2    0    0  0.26807266478E+03 -0.30310158781E+03 -0.27968571397E+03  0.82205099051E+03  0.65864270000E+03 0.  1.
    8880022    1    1    2    0    0 -0.26807266478E+03  0.30310158781E+03  0.41979551852E+03  0.60278806932E+03  0.15294330000E+03 0.  0.
<mgrwt>
<rscale>  0 0.66858275E+03</rscale>
<asrwt>0</asrwt>
<pdfrwt beam="1">  1        1 0.12038068E+00 0.77300953E+03</pdfrwt>
<pdfrwt beam="2">  1       -1 0.98825328E-01 0.77300953E+03</pdfrwt>
<totfact> 0.22972581E+01</totfact>
</mgrwt>
</event>
<event>
 4    2  0.3396630E-007  0.7032400E+03  0.7818608E-02  0.9984017E-01
          1   -1    0    0  501    0  0.00000000000E+00  0.00000000000E+00  0.15333064438E+04  0.15333064438E+04  0.50400000000E-02 0. -1.
         -1   -1    0    0    0  501 -0.00000000000E+00 -0.00000000000E+00 -0.41369680374E+03  0.41369680377E+03  0.50400000000E-02 0.  1.
    8880023    1    1    2    0    0 -0.51335528424E+01  0.24639397533E+03 -0.84641029808E+02  0.70831536383E+03  0.65864270000E+03 0.  0.
    8880022    1    1    2    0    0  0.51335528424E+01 -0.24639397533E+03  0.12042506699E+04  0.12386878838E+04  0.15294330000E+03 0.  0.
<mgrwt>
<rscale>  0 0.56356662E+03</rscale>
<asrwt>0</asrwt>
<pdfrwt beam="1">  1        1 0.23589329E+00 0.70324004E+03</pdfrwt>
<pdfrwt beam="2">  1       -1 0.63645664E-01 0.70324004E+03</pdfrwt>
<totfact> 0.16202279E+01</totfact>
</mgrwt>
</event>
<event>
 4    2  0.3396630E-007  0.1333409E+04  0.7818608E-02  0.9037233E-01
         -1   -1    0    0    0  501 -0.00000000000E+00  0.00000000000E+00  0.67816372736E+03  0.67816372738E+03  0.50400000000E-02 0.  1.
          1   -1    0    0  501    0  0.00000000000E+00 -0.00000000000E+00 -0.26106196677E+04  0.26106196677E+04  0.50400000000E-02 0. -1.
    8880023    1    1    2    0    0 -0.92061405929E+03  0.70472609678E+03 -0.46457855512E+03  0.14120242766E+04  0.65864270000E+03 0.  0.
    8880022    1    1    2    0    0  0.92061405929E+03 -0.70472609678E+03 -0.14678773852E+04  0.18767591185E+04  0.15294330000E+03 0.  0.
<mgrwt>
<rscale>  0 0.12903747E+04</rscale>
<asrwt>0</asrwt>
<pdfrwt beam="1">  1        1 0.40163379E+00 0.13334089E+04</pdfrwt>
<pdfrwt beam="2">  1       -1 0.10433288E+00 0.13334089E+04</pdfrwt>
<totfact> 0.95511875E-01</totfact>
</mgrwt>
</event>
<event>
 4    2  0.3396630E-007  0.1150272E+04  0.7818608E-02  0.9207046E-01
          1   -1    0    0  501    0  0.00000000000E+00  0.00000000000E+00  0.18095870908E+04  0.18095870909E+04  0.50400000000E-02 0. -1.
         -1   -1    0    0    0  501 -0.00000000000E+00 -0.00000000000E+00 -0.12084507913E+04  0.12084507913E+04  0.50400000000E-02 0.  1.
    8880023    1    1    2    0    0  0.57892742609E+00 -0.94303516247E+03 -0.74270856886E+03  0.13692121374E+04  0.65864270000E+03 0.  0.
    8880022    1    1    2    0    0 -0.57892742609E+00  0.94303516247E+03  0.13438448685E+04  0.16488257447E+04  0.15294330000E+03 0.  0.
<mgrwt>
<rscale>  0 0.10981000E+04</rscale>
<asrwt>0</asrwt>
<pdfrwt beam="1">  1        1 0.27839801E+00 0.11502721E+04</pdfrwt>
<pdfrwt beam="2">  1       -1 0.18591551E+00 0.11502721E+04</pdfrwt>
<totfact> 0.74829067E-01</totfact>
</mgrwt>
</event>
<event>
 4    2  0.3396630E-007  0.1222755E+04  0.7818608E-02  0.9135314E-01
         -1   -1    0    0    0  501 -0.00000000000E+00  0.00000000000E+00  0.10088926786E+04  0.10088926786E+04  0.50400000000E-02 0.  1.
          1   -1    0    0  501    0  0.00000000000E+00 -0.00000000000E+00 -0.21019860948E+04  0.21019860949E+04  0.50400000000E-02 0. -1.
    8880023    1    1    2    0    0 -0.86920115632E+03  0.55299976773E+03  0.40345232141E+03  0.12875959674E+04  0.65864270000E+03 0.  0.
    8880022    1    1    2    0    0  0.86920115632E+03 -0.55299976773E+03 -0.14965457376E+04  0.18232828061E+04  0.15294330000E+03 0.  0.
<mgrwt>
<rscale>  0 0.11746780E+04</rscale>
<asrwt>0</asrwt>
<pdfrwt beam="1">  1        1 0.32338247E+00 0.12227549E+04</pdfrwt>
<pdfrwt beam="2">  1       -1 0.15521426E+00 0.12227549E+04</pdfrwt>
<totfact> 0.79179162E-01</totfact>
</mgrwt>
</event>
<event>
 4    2  0.3396630E-007  0.6879039E+03  0.7818608E-02  0.1005165E+00
         -1   -1    0    0    0  501 -0.00000000000E+00  0.00000000000E+00  0.73638259926E+03  0.73638259928E+03  0.50400000000E-02 0.  1.
          1   -1    0    0  501    0  0.00000000000E+00 -0.00000000000E+00 -0.73077033039E+03  0.73077033041E+03  0.50400000000E-02 0. -1.
    8880023    1    1    2    0    0 -0.19373120103E+03  0.43241614943E+02  0.54157150720E+03  0.87550643583E+03  0.65864270000E+03 0.  1.
    8880022    1    1    2    0    0  0.19373120103E+03 -0.43241614943E+02 -0.53595923833E+03  0.59164649385E+03  0.15294330000E+03 0.  0.
<mgrwt>
<rscale>  0 0.53442280E+03</rscale>
<asrwt>0</asrwt>
<pdfrwt beam="1">  1        1 0.11242621E+00 0.68790393E+03</pdfrwt>
<pdfrwt beam="2">  1       -1 0.11328963E+00 0.68790393E+03</pdfrwt>
<totfact> 0.18783345E+01</totfact>
</mgrwt>
</event>
<event>
 4    2  0.3396630E-007  0.9011921E+03  0.7818608E-02  0.9524121E-01
         -1   -1    0    0    0  501 -0.00000000000E+00  0.00000000000E+00  0.34035963909E+03  0.34035963913E+03  0.50400000000E-02 0.  1.
          1   -1    0    0  501    0  0.00000000000E+00 -0.00000000000E+00 -0.17508343972E+04  0.17508343972E+04  0.50400000000E-02 0. -1.
    8880023    1    1    2    0    0 -0.26951501935E+03 -0.55290019022E+03 -0.71627753901E+03  0.11511736121E+04  0.65864270000E+03 0. -1.
    8880022    1    1    2    0    0  0.26951501935E+03  0.55290019022E+03 -0.69419721914E+03  0.94002042429E+03  0.15294330000E+03 0.  1.
<mgrwt>
<rscale>  0 0.82528628E+03</rscale>
<asrwt>0</asrwt>
<pdfrwt beam="1">  1        1 0.26935913E+00 0.90119208E+03</pdfrwt>
<pdfrwt beam="2">  1       -1 0.52363023E-01 0.90119208E+03</pdfrwt>
<totfact> 0.16475186E+01</totfact>
</mgrwt>
</event>
<event>
 4    2  0.3396630E-007  0.7360254E+03  0.7818608E-02  0.9871680E-01
          1   -1    0    0  501    0  0.00000000000E+00  0.00000000000E+00  0.12197656588E+04  0.12197656589E+04  0.50400000000E-02 0. -1.
         -1   -1    0    0    0  501 -0.00000000000E+00 -0.00000000000E+00 -0.47494037991E+03  0.47494037993E+03  0.50400000000E-02 0.  1.
    8880023    1    1    2    0    0  0.15253528508E+03  0.29095737042E+03 -0.13034656112E+03  0.74747818487E+03  0.65864270000E+03 0.  1.
    8880022    1    1    2    0    0 -0.15253528508E+03 -0.29095737042E+03  0.87517184005E+03  0.94722785391E+03  0.15294330000E+03 0.  0.
<mgrwt>
<rscale>  0 0.61653657E+03</rscale>
<asrwt>0</asrwt>
<pdfrwt beam="1">  1        1 0.18765626E+00 0.73602541E+03</pdfrwt>
<pdfrwt beam="2">  1       -1 0.73067750E-01 0.73602541E+03</pdfrwt>
<totfact> 0.20161817E+01</totfact>
</mgrwt>
</event>
<event>
 4    2  0.3396630E-007  0.6726930E+03  0.7818608E-02  0.1013802E+00
          1   -1    0    0  501    0  0.00000000000E+00  0.00000000000E+00  0.15615789294E+04  0.15615789294E+04  0.50400000000E-02 0. -1.
         -1   -1    0    0    0  501 -0.00000000000E+00 -0.00000000000E+00 -0.37381573651E+03  0.37381573654E+03  0.50400000000E-02 0.  1.
    8880023    1    1    2    0    0 -0.13300509189E+03  0.31863564704E+02 -0.55814700422E+02  0.67500453945E+03  0.65864270000E+03 0.  1.
    8880022    1    1    2    0    0  0.13300509189E+03 -0.31863564704E+02  0.12435778933E+04  0.12603901265E+04  0.15294330000E+03 0.  0.
<mgrwt>
<rscale>  0 0.49991302E+03</rscale>
<asrwt>0</asrwt>
<pdfrwt beam="1">  1        1 0.24024291E+00 0.67269298E+03</pdfrwt>
<pdfrwt beam="2">  1       -1 0.57510113E-01 0.67269298E+03</pdfrwt>
<totfact> 0.19017794E+01</totfact>
</mgrwt>
</event>
<event>
 4    2  0.3396630E-007  0.9769865E+03  0.7818608E-02  0.9412306E-01
          1   -1    0    0  501    0  0.00000000000E+00  0.00000000000E+00  0.20605397228E+04  0.20605397228E+04  0.50400000000E-02 0. -1.
         -1   -1    0    0    0  501 -0.00000000000E+00 -0.00000000000E+00 -0.37725371911E+03  0.37725371914E+03  0.50400000000E-02 0.  1.
    8880023    1    1    2    0    0  0.28443631314E+03 -0.66316538461E+03  0.12346935327E+04  0.15744747282E+04  0.65864270000E+03 0.  0.
    8880022    1    1    2    0    0 -0.28443631314E+03  0.66316538461E+03  0.44859247097E+03  0.86331871381E+03  0.15294330000E+03 0.  0.
<mgrwt>
<rscale>  0 0.91069857E+03</rscale>
<asrwt>0</asrwt>
<pdfrwt beam="1">  1        1 0.31700612E+00 0.97698646E+03</pdfrwt>
<pdfrwt beam="2">  1       -1 0.58039033E-01 0.97698646E+03</pdfrwt>
<totfact> 0.82746623E+00</totfact>
</mgrwt>
</event>
<event>
 4    2  0.3463490E-007  0.7970929E+03  0.7818608E-02  0.9717117E-01
         -1   -1    0    0    0  501 -0.00000000000E+00  0.00000000000E+00  0.10821615709E+04  0.10821615709E+04  0.50400000000E-02 0.  1.
          1   -1    0    0  501    0  0.00000000000E+00 -0.00000000000E+00 -0.11595273001E+04  0.11595273001E+04  0.50400000000E-02 0. -1.
    8880023    1    1    2    0    0 -0.38839780997E+03  0.22515325673E+03  0.87140728775E+03  0.11809774406E+04  0.65864270000E+03 0.  1.
    8880022    1    1    2    0    0  0.38839780997E+03 -0.22515325673E+03 -0.94877301695E+03  0.10607114304E+04  0.15294330000E+03 0.  0.
<mgrwt>
<rscale>  0 0.70006710E+03</rscale>
<asrwt>0</asrwt>
<pdfrwt beam="1">  1        1 0.17838881E+00 0.79709288E+03</pdfrwt>
<pdfrwt beam="2">  1       -1 0.16648640E+00 0.79709288E+03</pdfrwt>
<totfact> 0.30881802E+00</totfact>
</mgrwt>
</event>
<event>
 4    2  0.3396630E-007  0.7695679E+03  0.7818608E-02  0.9780939E-01
          1   -1    0    0  501    0  0.00000000000E+00  0.00000000000E+00  0.27193657656E+04  0.27193657656E+04  0.50400000000E-02 0. -1.
         -1   -1    0    0    0  501 -0.00000000000E+00 -0.00000000000E+00 -0.79176949935E+03  0.79176949937E+03  0.50400000000E-02 0.  1.
    8880023    1    1    2    0    0  0.34584573015E+03  0.19701578354E+03 -0.58244709928E+03  0.96513176186E+03  0.65864270000E+03 0.  1.
    8880022    1    1    2    0    0 -0.34584573015E+03 -0.19701578354E+03  0.25100433656E+04  0.25460035032E+04  0.15294330000E+03 0.  0.
<mgrwt>
<rscale>  0 0.66395592E+03</rscale>
<asrwt>0</asrwt>
<pdfrwt beam="1">  1        1 0.41836397E+00 0.76956786E+03</pdfrwt>
<pdfrwt beam="2">  1       -1 0.12181069E+00 0.76956786E+03</pdfrwt>
<totfact> 0.60713916E-01</totfact>
</mgrwt>
</event>
<event>
 4    2  0.3396630E-007  0.8545333E+03  0.7818608E-02  0.9603363E-01
         -1   -1    0    0    0  501 -0.00000000000E+00  0.00000000000E+00  0.10015580466E+04  0.10015580466E+04  0.50400000000E-02 0.  1.
          1   -1    0    0  501    0  0.00000000000E+00 -0.00000000000E+00 -0.90217215913E+03  0.90217215914E+03  0.50400000000E-02 0. -1.
    8880023    1    1    2    0    0  0.53283925254E+03 -0.11180030112E+03  0.68085748813E+03  0.10926088512E+04  0.65864270000E+03 0.  1.
    8880022    1    1    2    0    0 -0.53283925254E+03  0.11180030112E+03 -0.58147160066E+03  0.81112135453E+03  0.15294330000E+03 0.  0.
<mgrwt>
<rscale>  0 0.77074022E+03</rscale>
<asrwt>0</asrwt>
<pdfrwt beam="1">  1        1 0.13879572E+00 0.85453331E+03</pdfrwt>
<pdfrwt beam="2">  1       -1 0.15408585E+00 0.85453331E+03</pdfrwt>
<totfact> 0.59945658E+00</totfact>
</mgrwt>
</event>
<event>
 4    2  0.3396630E-007  0.8425193E+03  0.7818608E-02  0.9625448E-01
         -1   -1    0    0    0  501 -0.00000000000E+00  0.00000000000E+00  0.76013690669E+03  0.76013690671E+03  0.50400000000E-02 0.  1.
          1   -1    0    0  501    0  0.00000000000E+00 -0.00000000000E+00 -0.16792183058E+04  0.16792183058E+04  0.50400000000E-02 0. -1.
    8880023    1    1    2    0    0  0.46863614081E+03 -0.23750515026E+03  0.45699166411E+03  0.95847802072E+03  0.65864270000E+03 0.  1.
    8880022    1    1    2    0    0 -0.46863614081E+03  0.23750515026E+03 -0.13760730632E+04  0.14808771918E+04  0.15294330000E+03 0.  0.
<mgrwt>
<rscale>  0 0.75634514E+03</rscale>
<asrwt>0</asrwt>
<pdfrwt beam="1">  1        1 0.25834128E+00 0.84251928E+03</pdfrwt>
<pdfrwt beam="2">  1       -1 0.11694414E+00 0.84251928E+03</pdfrwt>
<totfact> 0.33447716E+00</totfact>
</mgrwt>
</event>
<event>
 4    2  0.3396630E-007  0.9051423E+03  0.7818608E-02  0.9517826E-01
          1   -1    0    0  501    0  0.00000000000E+00  0.00000000000E+00  0.23749567412E+04  0.23749567412E+04  0.50400000000E-02 0. -1.
         -1   -1    0    0    0  501 -0.00000000000E+00 -0.00000000000E+00 -0.49038574003E+03  0.49038574006E+03  0.50400000000E-02 0.  1.
    8880023    1    1    2    0    0 -0.61302764545E+03 -0.98333383905E+02  0.32200528853E+02  0.90571487169E+03  0.65864270000E+03 0.  1.
    8880022    1    1    2    0    0  0.61302764545E+03  0.98333383905E+02  0.18523704723E+04  0.19596276096E+04  0.15294330000E+03 0.  0.
<mgrwt>
<rscale>  0 0.82982211E+03</rscale>
<asrwt>0</asrwt>
<pdfrwt beam="1">  1        1 0.36537796E+00 0.90514228E+03</pdfrwt>
<pdfrwt beam="2">  1       -1 0.75443960E-01 0.90514228E+03</pdfrwt>
<totfact> 0.30103850E+00</totfact>
</mgrwt>
</event>
<event>
 4    2  0.3396630E-007  0.1466049E+04  0.7818608E-02  0.8933990E-01
         -1   -1    0    0    0  501 -0.00000000000E+00  0.00000000000E+00  0.15335353106E+04  0.15335353106E+04  0.50400000000E-02 0.  1.
          1   -1    0    0  501    0  0.00000000000E+00 -0.00000000000E+00 -0.12952433713E+04  0.12952433713E+04  0.50400000000E-02 0. -1.
    8880023    1    1    2    0    0  0.10713664116E+04 -0.75343437059E+03 -0.93447876477E+02  0.14690241831E+04  0.65864270000E+03 0.  0.
    8880022    1    1    2    0    0 -0.10713664116E+04  0.75343437059E+03  0.33173981571E+03  0.13597544988E+04  0.15294330000E+03 0.  0.
<mgrwt>
<rscale>  0 0.14277267E+04</rscale>
<asrwt>0</asrwt>
<pdfrwt beam="1">  1        1 0.19926821E+00 0.14660490E+04</pdfrwt>
<pdfrwt beam="2">  1       -1 0.23592851E+00 0.14660490E+04</pdfrwt>
<totfact> 0.74795041E-01</totfact>
</mgrwt>
</event>
<event>
 4    2  0.3396630E-007  0.7305065E+03  0.7818608E-02  0.9888517E-01
         -1   -1    0    0    0  501 -0.00000000000E+00  0.00000000000E+00  0.36201375246E+03  0.36201375249E+03  0.50400000000E-02 0.  1.
          1   -1    0    0  501    0  0.00000000000E+00 -0.00000000000E+00 -0.89417889955E+03  0.89417889957E+03  0.50400000000E-02 0. -1.
    8880023    1    1    2    0    0 -0.31370163748E+03  0.37693749997E+02 -0.16636597934E+03  0.74921117283E+03  0.65864270000E+03 0.  0.
    8880022    1    1    2    0    0  0.31370163748E+03 -0.37693749997E+02 -0.36579916775E+03  0.50698147923E+03  0.15294330000E+03 0.  0.
<mgrwt>
<rscale>  0 0.60821025E+03</rscale>
<asrwt>0</asrwt>
<pdfrwt beam="1">  1        1 0.13756598E+00 0.73050650E+03</pdfrwt>
<pdfrwt beam="2">  1       -1 0.55694424E-01 0.73050650E+03</pdfrwt>
<totfact> 0.61426007E+01</totfact>
</mgrwt>
</event>
<event>
 4    2  0.3396630E-007  0.7648386E+03  0.7818608E-02  0.9792738E-01
         -1   -1    0    0    0  501 -0.00000000000E+00  0.00000000000E+00  0.47633082245E+03  0.47633082248E+03  0.50400000000E-02 0.  1.
          1   -1    0    0  501    0  0.00000000000E+00 -0.00000000000E+00 -0.17414124710E+04  0.17414124710E+04  0.50400000000E-02 0. -1.
    8880023    1    1    2    0    0  0.22533181282E+03 -0.31684929634E+03  0.11714005846E+03  0.77375700450E+03  0.65864270000E+03 0.  1.
    8880022    1    1    2    0    0 -0.22533181282E+03  0.31684929634E+03 -0.13822217070E+04  0.14439862890E+04  0.15294330000E+03 0.  0.
<mgrwt>
<rscale>  0 0.65753717E+03</rscale>
<asrwt>0</asrwt>
<pdfrwt beam="1">  1        1 0.26790961E+00 0.76483862E+03</pdfrwt>
<pdfrwt beam="2">  1       -1 0.73281666E-01 0.76483862E+03</pdfrwt>
<totfact> 0.87182852E+00</totfact>
</mgrwt>
</event>
<event>
 4    2  0.3396630E-007  0.8247546E+03  0.7818608E-02  0.9659626E-01
          1   -1    0    0  501    0  0.00000000000E+00  0.00000000000E+00  0.33420119430E+04  0.33420119430E+04  0.50400000000E-02 0. -1.
         -1   -1    0    0    0  501 -0.00000000000E+00 -0.00000000000E+00 -0.19612501484E+03  0.19612501491E+03  0.50400000000E-02 0.  1.
    8880023    1    1    2    0    0  0.18733515636E+03 -0.45969063201E+03  0.85054049905E+03  0.11847528370E+04  0.65864270000E+03 0.  1.
    8880022    1    1    2    0    0 -0.18733515636E+03  0.45969063201E+03  0.22953464291E+04  0.23533841209E+04  0.15294330000E+03 0.  0.
<mgrwt>
<rscale>  0 0.73472382E+03</rscale>
<asrwt>0</asrwt>
<pdfrwt beam="1">  1        1 0.51415564E+00 0.82475460E+03</pdfrwt>
<pdfrwt beam="2">  1       -1 0.30173081E-01 0.82475460E+03</pdfrwt>
<totfact> 0.35594282E+00</totfact>
</mgrwt>
</event>
<event>
 4    2  0.3396630E-007  0.9182551E+03  0.7818608E-02  0.9497340E-01
          1   -1    0    0  501    0  0.00000000000E+00  0.00000000000E+00  0.25774400630E+04  0.25774400630E+04  0.50400000000E-02 0. -1.
         -1   -1    0    0    0  501 -0.00000000000E+00 -0.00000000000E+00 -0.46124558093E+03  0.46124558096E+03  0.50400000000E-02 0.  1.
    8880023    1    1    2    0    0 -0.43034414847E+03 -0.47348291369E+03  0.21919161029E+04  0.23764866009E+04  0.65864270000E+03 0.  0.
    8880022    1    1    2    0    0  0.43034414847E+03  0.47348291369E+03 -0.75721620924E+02  0.66219904301E+03  0.15294330000E+03 0.  0.
<mgrwt>
<rscale>  0 0.84480236E+03</rscale>
<asrwt>0</asrwt>
<pdfrwt beam="1">  1        1 0.39652925E+00 0.91825506E+03</pdfrwt>
<pdfrwt beam="2">  1       -1 0.70960857E-01 0.91825506E+03</pdfrwt>
<totfact> 0.24795248E+00</totfact>
</mgrwt>
</event>
<event>
 4    2  0.3396630E-007  0.1218009E+04  0.7818608E-02  0.9139812E-01
         -1   -1    0    0    0  501 -0.00000000000E+00  0.00000000000E+00  0.25355496007E+04  0.25355496007E+04  0.50400000000E-02 0.  1.
          1   -1    0    0  501    0  0.00000000000E+00 -0.00000000000E+00 -0.11779165324E+04  0.11779165324E+04  0.50400000000E-02 0. -1.
    8880023    1    1    2    0    0 -0.21158580228E+03  0.10024807110E+04  0.21078264958E+04  0.24344360477E+04  0.65864270000E+03 0.  1.
    8880022    1    1    2    0    0  0.21158580228E+03 -0.10024807110E+04 -0.75019342754E+03  0.12790300854E+04  0.15294330000E+03 0.  0.
<mgrwt>
<rscale>  0 0.11696862E+04</rscale>
<asrwt>0</asrwt>
<pdfrwt beam="1">  1        1 0.18121793E+00 0.12180092E+04</pdfrwt>
<pdfrwt beam="2">  1       -1 0.39008455E+00 0.12180092E+04</pdfrwt>
<totfact> 0.91601173E-02</totfact>
</mgrwt>
</event>
<event>
 4    2  0.3396630E-007  0.1067337E+04  0.7818608E-02  0.9298324E-01
         -1   -1    0    0    0  501 -0.00000000000E+00  0.00000000000E+00  0.11623581732E+04  0.11623581732E+04  0.50400000000E-02 0.  1.
          1   -1    0    0  501    0  0.00000000000E+00 -0.00000000000E+00 -0.12585670281E+04  0.12585670281E+04  0.50400000000E-02 0. -1.
    8880023    1    1    2    0    0 -0.71236387949E+03  0.44490020677E+03  0.68129084631E+03  0.12662408595E+04  0.65864270000E+03 0.  1.
    8880022    1    1    2    0    0  0.71236387949E+03 -0.44490020677E+03 -0.77749970118E+03  0.11546843418E+04  0.15294330000E+03 0.  0.
<mgrwt>
<rscale>  0 0.10093727E+04</rscale>
<asrwt>0</asrwt>
<pdfrwt beam="1">  1        1 0.19362570E+00 0.10673372E+04</pdfrwt>
<pdfrwt beam="2">  1       -1 0.17882433E+00 0.10673372E+04</pdfrwt>
<totfact> 0.20468811E+00</totfact>
</mgrwt>
</event>
<event>
 4    2  0.3396630E-007  0.7786222E+03  0.7818608E-02  0.9759084E-01
         -1   -1    0    0    0  501 -0.00000000000E+00  0.00000000000E+00  0.48848075612E+03  0.48848075614E+03  0.50400000000E-02 0.  1.
          1   -1    0    0  501    0  0.00000000000E+00 -0.00000000000E+00 -0.13636400946E+04  0.13636400946E+04  0.50400000000E-02 0. -1.
    8880023    1    1    2    0    0  0.34234573196E+03 -0.23503551544E+03  0.96359016800E+02  0.78456201800E+03  0.65864270000E+03 0.  0.
    8880022    1    1    2    0    0 -0.34234573196E+03  0.23503551544E+03 -0.97151835529E+03  0.10675588328E+04  0.15294330000E+03 0.  0.
<mgrwt>
<rscale>  0 0.67605352E+03</rscale>
<asrwt>0</asrwt>
<pdfrwt beam="1">  1        1 0.20979078E+00 0.77862218E+03</pdfrwt>
<pdfrwt beam="2">  1       -1 0.75150886E-01 0.77862218E+03</pdfrwt>
<totfact> 0.14954568E+01</totfact>
</mgrwt>
</event>
<event>
 4    2  0.3396630E-007  0.6865617E+03  0.7818608E-02  0.1005832E+00
         -1   -1    0    0    0  501 -0.00000000000E+00  0.00000000000E+00  0.24822168811E+03  0.24822168816E+03  0.50400000000E-02 0.  1.
          1   -1    0    0  501    0  0.00000000000E+00 -0.00000000000E+00 -0.18240902664E+04  0.18240902664E+04  0.50400000000E-02 0. -1.
    8880023    1    1    2    0    0 -0.18157292915E+03  0.67735001578E+02 -0.26104932144E+03  0.73451597228E+03  0.65864270000E+03 0.  0.
    8880022    1    1    2    0    0  0.18157292915E+03 -0.67735001578E+02 -0.13148192568E+04  0.13377959823E+04  0.15294330000E+03 0.  0.
<mgrwt>
<rscale>  0 0.53165509E+03</rscale>
<asrwt>0</asrwt>
<pdfrwt beam="1">  1        1 0.28062926E+00 0.68656170E+03</pdfrwt>
<pdfrwt beam="2">  1       -1 0.38187953E-01 0.68656170E+03</pdfrwt>
<totfact> 0.27185003E+01</totfact>
</mgrwt>
</event>
<event>
 4    2  0.3396630E-007  0.8089755E+03  0.7818608E-02  0.9691715E-01
         -1   -1    0    0    0  501 -0.00000000000E+00  0.00000000000E+00  0.31789101421E+03  0.31789101425E+03  0.50400000000E-02 0.  1.
          1   -1    0    0  501    0  0.00000000000E+00 -0.00000000000E+00 -0.32174844299E+04  0.32174844299E+04  0.50400000000E-02 0. -1.
    8880023    1    1    2    0    0  0.25016345055E+03 -0.39755426947E+03 -0.25966610504E+03  0.84962806070E+03  0.65864270000E+03 0.  1.
    8880022    1    1    2    0    0 -0.25016345055E+03  0.39755426947E+03 -0.26399273107E+04  0.26857473835E+04  0.15294330000E+03 0.  0.
<mgrwt>
<rscale>  0 0.71512231E+03</rscale>
<asrwt>0</asrwt>
<pdfrwt beam="1">  1        1 0.49499758E+00 0.80897550E+03</pdfrwt>
<pdfrwt beam="2">  1       -1 0.48906312E-01 0.80897550E+03</pdfrwt>
<totfact> 0.18426101E+00</totfact>
</mgrwt>
</event>
<event>
 4    2  0.3396630E-007  0.7914474E+03  0.7818608E-02  0.9729603E-01
          1   -1    0    0  501    0  0.00000000000E+00  0.00000000000E+00  0.28748038766E+04  0.28748038766E+04  0.50400000000E-02 0. -1.
         -1   -1    0    0    0  501 -0.00000000000E+00 -0.00000000000E+00 -0.20016763329E+03  0.20016763335E+03  0.50400000000E-02 0.  1.
    8880023    1    1    2    0    0  0.43866472394E+03  0.12328393926E+02  0.73383622161E+03  0.10793074334E+04  0.65864270000E+03 0.  1.
    8880022    1    1    2    0    0 -0.43866472394E+03 -0.12328393926E+02  0.19408000217E+04  0.19956640766E+04  0.15294330000E+03 0.  0.
<mgrwt>
<rscale>  0 0.69281264E+03</rscale>
<asrwt>0</asrwt>
<pdfrwt beam="1">  1        1 0.44227752E+00 0.79144737E+03</pdfrwt>
<pdfrwt beam="2">  1       -1 0.30795021E-01 0.79144737E+03</pdfrwt>
<totfact> 0.75694851E+00</totfact>
</mgrwt>
</event>
<event>
 4    2  0.3396630E-007  0.8296611E+03  0.7818608E-02  0.9649992E-01
          1   -1    0    0  501    0  0.00000000000E+00  0.00000000000E+00  0.14651225611E+04  0.14651225611E+04  0.50400000000E-02 0. -1.
         -1   -1    0    0    0  501 -0.00000000000E+00 -0.00000000000E+00 -0.70582471749E+03  0.70582471751E+03  0.50400000000E-02 0.  1.
    8880023    1    1    2    0    0 -0.41680046442E+03  0.28426172555E+03 -0.38229915233E+03  0.91350435351E+03  0.65864270000E+03 0.  0.
    8880022    1    1    2    0    0  0.41680046442E+03 -0.28426172555E+03  0.11415969959E+04  0.12574429251E+04  0.15294330000E+03 0.  0.
<mgrwt>
<rscale>  0 0.74073921E+03</rscale>
<asrwt>0</asrwt>
<pdfrwt beam="1">  1        1 0.22540347E+00 0.82966111E+03</pdfrwt>
<pdfrwt beam="2">  1       -1 0.10858842E+00 0.82966111E+03</pdfrwt>
<totfact> 0.55959642E+00</totfact>
</mgrwt>
</event>
<event>
 4    2  0.3396630E-007  0.9644671E+03  0.7818608E-02  0.9429598E-01
          1   -1    0    0  501    0  0.00000000000E+00  0.00000000000E+00  0.71179422373E+03  0.71179422375E+03  0.50400000000E-02 0. -1.
         -1   -1    0    0    0  501 -0.00000000000E+00 -0.00000000000E+00 -0.15552864724E+04  0.15552864724E+04  0.50400000000E-02 0.  1.
    8880023    1    1    2    0    0  0.33358172506E+02 -0.70375696142E+03 -0.11349858925E+04  0.14894260004E+04  0.65864270000E+03 0.  0.
    8880022    1    1    2    0    0 -0.33358172506E+02  0.70375696142E+03  0.29149364378E+03  0.77765469574E+03  0.15294330000E+03 0.  0.
<mgrwt>
<rscale>  0 0.89679430E+03</rscale>
<asrwt>0</asrwt>
<pdfrwt beam="1">  1        1 0.10950680E+00 0.96446712E+03</pdfrwt>
<pdfrwt beam="2">  1       -1 0.23927484E+00 0.96446712E+03</pdfrwt>
<totfact> 0.22021769E+00</totfact>
</mgrwt>
</event>
<event>
 4    2  0.3396630E-007  0.8803005E+03  0.7818608E-02  0.9558426E-01
         -1   -1    0    0    0  501 -0.00000000000E+00  0.00000000000E+00  0.84423370533E+03  0.84423370534E+03  0.50400000000E-02 0.  1.
          1   -1    0    0  501    0  0.00000000000E+00 -0.00000000000E+00 -0.26030872545E+04  0.26030872545E+04  0.50400000000E-02 0. -1.
    8880023    1    1    2    0    0 -0.55568185489E+03 -0.17982344874E+03  0.56520012258E+03  0.10461262741E+04  0.65864270000E+03 0.  1.
    8880022    1    1    2    0    0  0.55568185489E+03  0.17982344874E+03 -0.23240536717E+04  0.24011946857E+04  0.15294330000E+03 0.  0.
<mgrwt>
<rscale>  0 0.80110043E+03</rscale>
<asrwt>0</asrwt>
<pdfrwt beam="1">  1        1 0.40047496E+00 0.88030052E+03</pdfrwt>
<pdfrwt beam="2">  1       -1 0.12988211E+00 0.88030052E+03</pdfrwt>
<totfact> 0.60854514E-01</totfact>
</mgrwt>
</event>
<event>
 4    2  0.3396630E-007  0.1072797E+04  0.7818608E-02  0.9291966E-01
         -1   -1    0    0    0  501 -0.00000000000E+00  0.00000000000E+00  0.83994867934E+03  0.83994867936E+03  0.50400000000E-02 0.  1.
          1   -1    0    0  501    0  0.00000000000E+00 -0.00000000000E+00 -0.11981860610E+04  0.11981860610E+04  0.50400000000E-02 0. -1.
    8880023    1    1    2    0    0  0.83397236973E+03 -0.14687659438E+03 -0.46841751255E+03  0.11706014778E+04  0.65864270000E+03 0.  0.
    8880022    1    1    2    0    0 -0.83397236973E+03  0.14687659438E+03  0.11018013088E+03  0.86753326260E+03  0.15294330000E+03 0.  0.
<mgrwt>
<rscale>  0 0.10152590E+04</rscale>
<asrwt>0</asrwt>
<pdfrwt beam="1">  1        1 0.18433632E+00 0.10727967E+04</pdfrwt>
<pdfrwt beam="2">  1       -1 0.12922287E+00 0.10727967E+04</pdfrwt>
<totfact> 0.54921155E+00</totfact>
</mgrwt>
</event>
<event>
 4    2  0.3396630E-007  0.7680029E+03  0.7818608E-02  0.9784813E-01
          1   -1    0    0  501    0  0.00000000000E+00  0.00000000000E+00  0.53935945088E+03  0.53935945090E+03  0.50400000000E-02 0. -1.
         -1   -1    0    0    0  501 -0.00000000000E+00 -0.00000000000E+00 -0.98847973311E+03  0.98847973312E+03  0.50400000000E-02 0.  1.
    8880023    1    1    2    0    0  0.29186959563E+03  0.26613968403E+03 -0.69694969998E+03  0.10370955997E+04  0.65864270000E+03 0.  1.
    8880022    1    1    2    0    0 -0.29186959563E+03 -0.26613968403E+03  0.24782941775E+03  0.49074358436E+03  0.15294330000E+03 0.  0.
<mgrwt>
<rscale>  0 0.66183985E+03</rscale>
<asrwt>0</asrwt>
<pdfrwt beam="1">  1        1 0.82978377E-01 0.76800286E+03</pdfrwt>
<pdfrwt beam="2">  1       -1 0.15207381E+00 0.76800286E+03</pdfrwt>
<totfact> 0.13756450E+01</totfact>
</mgrwt>
</event>
<event>
 4    2  0.3396630E-007  0.1071796E+04  0.7818608E-02  0.9293127E-01
         -1   -1    0    0    0  501 -0.00000000000E+00  0.00000000000E+00  0.84000287478E+03  0.84000287480E+03  0.50400000000E-02 0.  1.
          1   -1    0    0  501    0  0.00000000000E+00 -0.00000000000E+00 -0.15528345278E+04  0.15528345278E+04  0.50400000000E-02 0. -1.
    8880023    1    1    2    0    0  0.42653771887E+03  0.73006945555E+03  0.25182493583E+03  0.11009822161E+04  0.65864270000E+03 0.  1.
    8880022    1    1    2    0    0 -0.42653771887E+03 -0.73006945555E+03 -0.96465658886E+03  0.12918551865E+04  0.15294330000E+03 0.  0.
<mgrwt>
<rscale>  0 0.10141802E+04</rscale>
<asrwt>0</asrwt>
<pdfrwt beam="1">  1        1 0.23889762E+00 0.10717957E+04</pdfrwt>
<pdfrwt beam="2">  1       -1 0.12923121E+00 0.10717957E+04</pdfrwt>
<totfact> 0.30857916E+00</totfact>
</mgrwt>
</event>
<event>
 4    2  0.3396630E-007  0.9428241E+03  0.7818608E-02  0.9460515E-01
         -1   -1    0    0    0  501 -0.00000000000E+00  0.00000000000E+00  0.10433910966E+04  0.10433910966E+04  0.50400000000E-02 0.  1.
          1   -1    0    0  501    0  0.00000000000E+00 -0.00000000000E+00 -0.91236720222E+03  0.91236720224E+03  0.50400000000E-02 0. -1.
    8880023    1    1    2    0    0 -0.17142181973E+03 -0.65247352316E+03  0.60225784483E+03  0.11187635392E+04  0.65864270000E+03 0.  0.
    8880022    1    1    2    0    0  0.17142181973E+03  0.65247352316E+03 -0.47123395042E+03  0.83699475969E+03  0.15294330000E+03 0.  0.
<mgrwt>
<rscale>  0 0.87258576E+03</rscale>
<asrwt>0</asrwt>
<pdfrwt beam="1">  1        1 0.14036419E+00 0.94282413E+03</pdfrwt>
<pdfrwt beam="2">  1       -1 0.16052171E+00 0.94282413E+03</pdfrwt>
<totfact> 0.51958274E+00</totfact>
</mgrwt>
</event>
<event>
 4    2  0.3396630E-007  0.6803524E+03  0.7818608E-02  0.1009125E+00
          1   -1    0    0  501    0  0.00000000000E+00  0.00000000000E+00  0.11750865260E+04  0.11750865260E+04  0.50400000000E-02 0. -1.
         -1   -1    0    0    0  501 -0.00000000000E+00 -0.00000000000E+00 -0.20238080986E+03  0.20238080993E+03  0.50400000000E-02 0.  1.
    8880023    1    1    2    0    0  0.15426357516E+03  0.72607879572E+02  0.47551730814E+03  0.83005787232E+03  0.65864270000E+03 0.  1.
    8880022    1    1    2    0    0 -0.15426357516E+03 -0.72607879572E+02  0.49718840800E+03  0.54740946362E+03  0.15294330000E+03 0. -1.
<mgrwt>
<rscale>  0 0.51823865E+03</rscale>
<asrwt>0</asrwt>
<pdfrwt beam="1">  1        1 0.18078255E+00 0.68035238E+03</pdfrwt>
<pdfrwt beam="2">  1       -1 0.31135508E-01 0.68035238E+03</pdfrwt>
<totfact> 0.10923184E+02</totfact>
</mgrwt>
</event>
<event>
 4    2  0.3396630E-007  0.7214930E+03  0.7818608E-02  0.9917566E-01
          1   -1    0    0  501    0  0.00000000000E+00  0.00000000000E+00  0.12448653756E+04  0.12448653756E+04  0.50400000000E-02 0. -1.
         -1   -1    0    0    0  501 -0.00000000000E+00 -0.00000000000E+00 -0.15249661043E+04  0.15249661043E+04  0.50400000000E-02 0.  1.
    8880023    1    1    2    0    0  0.16988326063E+03  0.24058598173E+03 -0.14145032866E+04  0.15878827699E+04  0.65864270000E+03 0.  0.
    8880022    1    1    2    0    0 -0.16988326063E+03 -0.24058598173E+03  0.11344025579E+04  0.11819487100E+04  0.15294330000E+03 0.  0.
<mgrwt>
<rscale>  0 0.59417457E+03</rscale>
<asrwt>0</asrwt>
<pdfrwt beam="1">  1        1 0.19151775E+00 0.72149300E+03</pdfrwt>
<pdfrwt beam="2">  1       -1 0.23461017E+00 0.72149300E+03</pdfrwt>
<totfact> 0.92387395E-01</totfact>
</mgrwt>
</event>
<event>
 4    2  0.3396630E-007  0.6786282E+03  0.7818608E-02  0.1010111E+00
         -1   -1    0    0    0  501 -0.00000000000E+00  0.00000000000E+00  0.60047783526E+03  0.60047783529E+03  0.50400000000E-02 0.  1.
          1   -1    0    0  501    0  0.00000000000E+00 -0.00000000000E+00 -0.91542586657E+03  0.91542586658E+03  0.50400000000E-02 0. -1.
    8880023    1    1    2    0    0  0.32796662960E+02  0.16015733523E+03  0.38554952499E+03  0.78050280948E+03  0.65864270000E+03 0.  1.
    8880022    1    1    2    0    0 -0.32796662960E+02 -0.16015733523E+03 -0.70049755630E+03  0.73540089238E+03  0.15294330000E+03 0.  0.
<mgrwt>
<rscale>  0 0.51430737E+03</rscale>
<asrwt>0</asrwt>
<pdfrwt beam="1">  1        1 0.14083475E+00 0.67862817E+03</pdfrwt>
<pdfrwt beam="2">  1       -1 0.92381205E-01 0.67862817E+03</pdfrwt>
<totfact> 0.20901514E+01</totfact>
</mgrwt>
</event>
<event>
 4    2  0.3396630E-007  0.7598386E+03  0.7818608E-02  0.9805525E-01
          1   -1    0    0  501    0  0.00000000000E+00  0.00000000000E+00  0.11671466600E+04  0.11671466600E+04  0.50400000000E-02 0. -1.
         -1   -1    0    0    0  501 -0.00000000000E+00 -0.00000000000E+00 -0.34858470207E+03  0.34858470211E+03  0.50400000000E-02 0.  1.
    8880023    1    1    2    0    0  0.39017459757E+02  0.37685832363E+03  0.22005625384E+03  0.79106227275E+03  0.65864270000E+03 0.  0.
    8880022    1    1    2    0    0 -0.39017459757E+02 -0.37685832363E+03  0.59850570411E+03  0.72466908939E+03  0.15294330000E+03 0.  0.
<mgrwt>
<rscale>  0 0.65066860E+03</rscale>
<asrwt>0</asrwt>
<pdfrwt beam="1">  1        1 0.17956103E+00 0.75983864E+03</pdfrwt>
<pdfrwt beam="2">  1       -1 0.53628415E-01 0.75983864E+03</pdfrwt>
<totfact> 0.40652489E+01</totfact>
</mgrwt>
</event>
<event>
 4    2  0.3396630E-007  0.6867638E+03  0.7818608E-02  0.1005730E+00
          1   -1    0    0  501    0  0.00000000000E+00  0.00000000000E+00  0.12092659695E+04  0.12092659695E+04  0.50400000000E-02 0. -1.
         -1   -1    0    0    0  501 -0.00000000000E+00 -0.00000000000E+00 -0.32061980099E+03  0.32061980103E+03  0.50400000000E-02 0.  1.
    8880023    1    1    2    0    0 -0.88055128431E+02  0.17343766277E+03  0.88607392561E+02  0.69245635587E+03  0.65864270000E+03 0.  1.
    8880022    1    1    2    0    0  0.88055128431E+02 -0.17343766277E+03  0.80003877598E+03  0.83742941470E+03  0.15294330000E+03 0.  0.
<mgrwt>
<rscale>  0 0.53207459E+03</rscale>
<asrwt>0</asrwt>
<pdfrwt beam="1">  1        1 0.18604092E+00 0.68676381E+03</pdfrwt>
<pdfrwt beam="2">  1       -1 0.49326123E-01 0.68676381E+03</pdfrwt>
<totfact> 0.44788858E+01</totfact>
</mgrwt>
</event>
<event>
 4    2  0.3396630E-007  0.1255146E+04  0.7818608E-02  0.9105295E-01
          1   -1    0    0  501    0  0.00000000000E+00  0.00000000000E+00  0.20463508338E+04  0.20463508338E+04  0.50400000000E-02 0. -1.
         -1   -1    0    0    0  501 -0.00000000000E+00 -0.00000000000E+00 -0.14715802887E+04  0.14715802887E+04  0.50400000000E-02 0.  1.
    8880023    1    1    2    0    0 -0.44553867040E+03  0.97112164379E+03 -0.10027420374E+04  0.16065129174E+04  0.65864270000E+03 0.  0.
    8880022    1    1    2    0    0  0.44553867040E+03 -0.97112164379E+03  0.15775125825E+04  0.19114182051E+04  0.15294330000E+03 0.  0.
<mgrwt>
<rscale>  0 0.12086770E+04</rscale>
<asrwt>0</asrwt>
<pdfrwt beam="1">  1        1 0.31482320E+00 0.12551463E+04</pdfrwt>
<pdfrwt beam="2">  1       -1 0.22639697E+00 0.12551463E+04</pdfrwt>
<totfact> 0.26935919E-01</totfact>
</mgrwt>
</event>
<event>
 4    2  0.3396630E-007  0.7498880E+03  0.7818608E-02  0.9832027E-01
         -1   -1    0    0    0  501 -0.00000000000E+00  0.00000000000E+00  0.11272967519E+04  0.11272967519E+04  0.50400000000E-02 0.  1.
          1   -1    0    0  501    0  0.00000000000E+00 -0.00000000000E+00 -0.44599133969E+03  0.44599133971E+03  0.50400000000E-02 0. -1.
    8880023    1    1    2    0    0  0.30825174575E+03  0.18303744200E+03  0.86297636250E+03  0.11432673582E+04  0.65864270000E+03 0.  0.
    8880022    1    1    2    0    0 -0.30825174575E+03 -0.18303744200E+03 -0.18167095030E+03  0.43002073337E+03  0.15294330000E+03 0.  0.
<mgrwt>
<rscale>  0 0.63671761E+03</rscale>
<asrwt>0</asrwt>
<pdfrwt beam="1">  1        1 0.68614053E-01 0.74988803E+03</pdfrwt>
<pdfrwt beam="2">  1       -1 0.17343027E+00 0.74988803E+03</pdfrwt>
<totfact> 0.12387889E+01</totfact>
</mgrwt>
</event>
<event>
 4    2  0.3396630E-007  0.6750435E+03  0.7818608E-02  0.1012279E+00
         -1   -1    0    0    0  501 -0.00000000000E+00  0.00000000000E+00  0.18893160605E+03  0.18893160611E+03  0.50400000000E-02 0.  1.
          1   -1    0    0  501    0  0.00000000000E+00 -0.00000000000E+00 -0.10503198307E+04  0.10503198307E+04  0.50400000000E-02 0. -1.
    8880023    1    1    2    0    0  0.65759909603E+02 -0.13247333702E+03 -0.60903306932E+03  0.90917822044E+03  0.65864270000E+03 0.  1.
    8880022    1    1    2    0    0 -0.65759909603E+02  0.13247333702E+03 -0.25235515530E+03  0.33007321636E+03  0.15294330000E+03 0.  1.
<mgrwt>
<rscale>  0 0.50578901E+03</rscale>
<asrwt>0</asrwt>
<pdfrwt beam="1">  1        1 0.16158766E+00 0.67504352E+03</pdfrwt>
<pdfrwt beam="2">  1       -1 0.29066402E-01 0.67504352E+03</pdfrwt>
<totfact> 0.15241670E+02</totfact>
</mgrwt>
</event>
<event>
 4    2  0.3396630E-007  0.1156843E+04  0.7818608E-02  0.9200260E-01
          1   -1    0    0  501    0  0.00000000000E+00  0.00000000000E+00  0.11555258558E+04  0.11555258559E+04  0.50400000000E-02 0. -1.
         -1   -1    0    0    0  501 -0.00000000000E+00 -0.00000000000E+00 -0.13574791544E+04  0.13574791544E+04  0.50400000000E-02 0.  1.
    8880023    1    1    2    0    0  0.41301685929E+03  0.85667521584E+03 -0.77474894380E+03  0.13923079701E+04  0.65864270000E+03 0.  0.
    8880022    1    1    2    0    0 -0.41301685929E+03 -0.85667521584E+03  0.57279564526E+03  0.11206970401E+04  0.15294330000E+03 0.  0.
<mgrwt>
<rscale>  0 0.11050744E+04</rscale>
<asrwt>0</asrwt>
<pdfrwt beam="1">  1        1 0.17777321E+00 0.11568429E+04</pdfrwt>
<pdfrwt beam="2">  1       -1 0.20884295E+00 0.11568429E+04</pdfrwt>
<totfact> 0.14863183E+00</totfact>
</mgrwt>
</event>
<event>
 4    2  0.3396630E-007  0.8267715E+03  0.7818608E-02  0.9655647E-01
         -1   -1    0    0    0  501 -0.00000000000E+00  0.00000000000E+00  0.13789195273E+04  0.13789195273E+04  0.50400000000E-02 0.  1.
          1   -1    0    0  501    0  0.00000000000E+00 -0.00000000000E+00 -0.76052416667E+03  0.76052416669E+03  0.50400000000E-02 0. -1.
    8880023    1    1    2    0    0  0.40513232105E+03 -0.29258971397E+03 -0.45635807291E+03  0.94435895466E+03  0.65864270000E+03 0. -1.
    8880022    1    1    2    0    0 -0.40513232105E+03  0.29258971397E+03  0.10747534335E+04  0.11950847393E+04  0.15294330000E+03 0.  0.
<mgrwt>
<rscale>  0 0.73720084E+03</rscale>
<asrwt>0</asrwt>
<pdfrwt beam="1">  1        1 0.11700372E+00 0.82677152E+03</pdfrwt>
<pdfrwt beam="2">  1       -1 0.21214146E+00 0.82677152E+03</pdfrwt>
<totfact> 0.30629801E+00</totfact>
</mgrwt>
</event>
<event>
 4    2  0.3396630E-007  0.7410577E+03  0.7818608E-02  0.9856877E-01
         -1   -1    0    0    0  501 -0.00000000000E+00  0.00000000000E+00  0.72110958785E+03  0.72110958787E+03  0.50400000000E-02 0.  1.
          1   -1    0    0  501    0  0.00000000000E+00 -0.00000000000E+00 -0.87283198131E+03  0.87283198132E+03  0.50400000000E-02 0. -1.
    8880023    1    1    2    0    0  0.33957274911E+03 -0.68280636438E+01  0.46398545123E+03  0.87432773009E+03  0.65864270000E+03 0.  1.
    8880022    1    1    2    0    0 -0.33957274911E+03  0.68280636438E+01 -0.61570784469E+03  0.71961383910E+03  0.15294330000E+03 0.  0.
<mgrwt>
<rscale>  0 0.62397519E+03</rscale>
<asrwt>0</asrwt>
<pdfrwt beam="1">  1        1 0.13428184E+00 0.74105768E+03</pdfrwt>
<pdfrwt beam="2">  1       -1 0.11093994E+00 0.74105768E+03</pdfrwt>
<totfact> 0.14773505E+01</totfact>
</mgrwt>
</event>
<event>
 4    2  0.3396630E-007  0.1187494E+04  0.7818608E-02  0.9169376E-01
         -1   -1    0    0    0  501 -0.00000000000E+00  0.00000000000E+00  0.13856734283E+04  0.13856734283E+04  0.50400000000E-02 0.  1.
          1   -1    0    0  501    0  0.00000000000E+00 -0.00000000000E+00 -0.11299535748E+04  0.11299535748E+04  0.50400000000E-02 0. -1.
    8880023    1    1    2    0    0 -0.65428212393E+03  0.74043737124E+03  0.74564362992E+03  0.14021865880E+04  0.65864270000E+03 0.  1.
    8880022    1    1    2    0    0  0.65428212393E+03 -0.74043737124E+03 -0.48992377636E+03  0.11134404151E+04  0.15294330000E+03 0. -1.
<mgrwt>
<rscale>  0 0.11375191E+04</rscale>
<asrwt>0</asrwt>
<pdfrwt beam="1">  1        1 0.17383901E+00 0.11874943E+04</pdfrwt>
<pdfrwt beam="2">  1       -1 0.21318053E+00 0.11874943E+04</pdfrwt>
<totfact> 0.14461091E+00</totfact>
</mgrwt>
</event>
<event>
 4    2  0.3396630E-007  0.1040893E+04  0.7818608E-02  0.9329910E-01
          1   -1    0    0  501    0  0.00000000000E+00  0.00000000000E+00  0.11002596336E+04  0.11002596336E+04  0.50400000000E-02 0. -1.
         -1   -1    0    0    0  501 -0.00000000000E+00 -0.00000000000E+00 -0.12406737358E+04  0.12406737358E+04  0.50400000000E-02 0.  1.
    8880023    1    1    2    0    0 -0.53772102982E+03  0.60042067316E+03 -0.77997780640E+03  0.13007015320E+04  0.65864270000E+03 0.  0.
    8880022    1    1    2    0    0  0.53772102982E+03 -0.60042067316E+03  0.63956370426E+03  0.10402318374E+04  0.15294330000E+03 0.  0.
<mgrwt>
<rscale>  0 0.98075346E+03</rscale>
<asrwt>0</asrwt>
<pdfrwt beam="1">  1        1 0.16927071E+00 0.10408934E+04</pdfrwt>
<pdfrwt beam="2">  1       -1 0.19087288E+00 0.10408934E+04</pdfrwt>
<totfact> 0.22054091E+00</totfact>
</mgrwt>
</event>
<event>
 4    2  0.3396630E-007  0.6790490E+03  0.7818608E-02  0.1009867E+00
         -1   -1    0    0    0  501 -0.00000000000E+00  0.00000000000E+00  0.50059948610E+03  0.50059948612E+03  0.50400000000E-02 0.  1.
          1   -1    0    0  501    0  0.00000000000E+00 -0.00000000000E+00 -0.84092898387E+03  0.84092898388E+03  0.50400000000E-02 0. -1.
    8880023    1    1    2    0    0 -0.10125937822E+03  0.13055216120E+03  0.23908528498E+03  0.71990923610E+03  0.65864270000E+03 0.  0.
    8880022    1    1    2    0    0  0.10125937822E+03 -0.13055216120E+03 -0.57941478275E+03  0.62161923390E+03  0.15294330000E+03 0.  0.
<mgrwt>
<rscale>  0 0.51527613E+03</rscale>
<asrwt>0</asrwt>
<pdfrwt beam="1">  1        1 0.12937369E+00 0.67904899E+03</pdfrwt>
<pdfrwt beam="2">  1       -1 0.77015306E-01 0.67904899E+03</pdfrwt>
<totfact> 0.35603041E+01</totfact>
</mgrwt>
</event>
<event>
 4    2  0.3396630E-007  0.6978551E+03  0.7818608E-02  0.1000622E+00
         -1   -1    0    0    0  501 -0.00000000000E+00  0.00000000000E+00  0.97295885631E+03  0.97295885633E+03  0.50400000000E-02 0.  1.
          1   -1    0    0  501    0  0.00000000000E+00 -0.00000000000E+00 -0.75781162751E+03  0.75781162752E+03  0.50400000000E-02 0. -1.
    8880023    1    1    2    0    0 -0.20090900836E+03 -0.11325660752E+03  0.81332487379E+03  0.10716804773E+04  0.65864270000E+03 0.  1.
    8880022    1    1    2    0    0  0.20090900836E+03  0.11325660752E+03 -0.59817764499E+03  0.65909000657E+03  0.15294330000E+03 0.  0.
<mgrwt>
<rscale>  0 0.55378422E+03</rscale>
<asrwt>0</asrwt>
<pdfrwt beam="1">  1        1 0.11658640E+00 0.69785507E+03</pdfrwt>
<pdfrwt beam="2">  1       -1 0.14968598E+00 0.69785507E+03</pdfrwt>
<totfact> 0.87884290E+00</totfact>
</mgrwt>
</event>
<event>
 4    2  0.3396630E-007  0.6796223E+03  0.7818608E-02  0.1009538E+00
         -1   -1    0    0    0  501 -0.00000000000E+00  0.00000000000E+00  0.82687311635E+03  0.82687311636E+03  0.50400000000E-02 0.  1.
          1   -1    0    0  501    0  0.00000000000E+00 -0.00000000000E+00 -0.50875424463E+03  0.50875424466E+03  0.50400000000E-02 0. -1.
    8880023    1    1    2    0    0  0.10393273307E+03  0.13143155618E+03  0.64550627833E+03  0.93731789090E+03  0.65864270000E+03 0.  1.
    8880022    1    1    2    0    0 -0.10393273307E+03 -0.13143155618E+03 -0.32738740662E+03  0.39830947013E+03  0.15294330000E+03 0.  0.
<mgrwt>
<rscale>  0 0.51658619E+03</rscale>
<asrwt>0</asrwt>
<pdfrwt beam="1">  1        1 0.78269884E-01 0.67962230E+03</pdfrwt>
<pdfrwt beam="2">  1       -1 0.12721125E+00 0.67962230E+03</pdfrwt>
<totfact> 0.23939146E+01</totfact>
</mgrwt>
</event>
<event>
 4    2  0.3396630E-007  0.7003546E+03  0.7818608E-02  0.9995733E-01
          1   -1    0    0  501    0  0.00000000000E+00  0.00000000000E+00  0.10260732041E+04  0.10260732041E+04  0.50400000000E-02 0. -1.
         -1   -1    0    0    0  501 -0.00000000000E+00 -0.00000000000E+00 -0.47151180045E+03  0.47151180048E+03  0.50400000000E-02 0.  1.
    8880023    1    1    2    0    0  0.12312672135E+03 -0.20377985030E+03 -0.16917078973E+03  0.72049661988E+03  0.65864270000E+03 0.  0.
    8880022    1    1    2    0    0 -0.12312672135E+03  0.20377985030E+03  0.72373219339E+03  0.77708838472E+03  0.15294330000E+03 0.  0.
<mgrwt>
<rscale>  0 0.55837724E+03</rscale>
<asrwt>0</asrwt>
<pdfrwt beam="1">  1        1 0.15785741E+00 0.70035464E+03</pdfrwt>
<pdfrwt beam="2">  1       -1 0.72540278E-01 0.70035464E+03</pdfrwt>
<totfact> 0.28604366E+01</totfact>
</mgrwt>
</event>
<event>
 4    2  0.3396630E-007  0.7089538E+03  0.7818608E-02  0.9961906E-01
          1   -1    0    0  501    0  0.00000000000E+00  0.00000000000E+00  0.84373888394E+02  0.84373888544E+02  0.50400000000E-02 0. -1.
         -1   -1    0    0    0  501 -0.00000000000E+00 -0.00000000000E+00 -0.30770385057E+04  0.30770385057E+04  0.50400000000E-02 0.  1.
    8880023    1    1    2    0    0  0.22537963456E+03  0.13419894519E+03 -0.22508418505E+04  0.23598526604E+04  0.65864270000E+03 0.  1.
    8880022    1    1    2    0    0 -0.22537963456E+03 -0.13419894519E+03 -0.74182276682E+03  0.80155973386E+03  0.15294330000E+03 0. -1.
<mgrwt>
<rscale>  0 0.57352593E+03</rscale>
<asrwt>0</asrwt>
<pdfrwt beam="1">  1        1 0.12980601E-01 0.70895384E+03</pdfrwt>
<pdfrwt beam="2">  1       -1 0.47339045E+00 0.70895384E+03</pdfrwt>
<totfact> 0.11233189E+00</totfact>
</mgrwt>
</event>
<event>
 4    2  0.3396630E-007  0.9940822E+03  0.7818608E-02  0.9389341E-01
          1   -1    0    0  501    0  0.00000000000E+00  0.00000000000E+00  0.63929615707E+03  0.63929615709E+03  0.50400000000E-02 0. -1.
         -1   -1    0    0    0  501 -0.00000000000E+00 -0.00000000000E+00 -0.12712204037E+04  0.12712204037E+04  0.50400000000E-02 0.  1.
    8880023    1    1    2    0    0 -0.30223578298E+03 -0.68047240143E+03 -0.57469068880E+03  0.11482459456E+04  0.65864270000E+03 0.  0.
    8880022    1    1    2    0    0  0.30223578298E+03  0.68047240143E+03 -0.57233557852E+02  0.76227061519E+03  0.15294330000E+03 0.  0.
<mgrwt>
<rscale>  0 0.92958071E+03</rscale>
<asrwt>0</asrwt>
<pdfrwt beam="1">  1        1 0.98353255E-01 0.99408217E+03</pdfrwt>
<pdfrwt beam="2">  1       -1 0.19557237E+00 0.99408217E+03</pdfrwt>
<totfact> 0.50652752E+00</totfact>
</mgrwt>
</event>
<event>
 4    2  0.3396630E-007  0.7566946E+03  0.7818608E-02  0.9813741E-01
         -1   -1    0    0    0  501 -0.00000000000E+00  0.00000000000E+00  0.86775843479E+03  0.86775843480E+03  0.50400000000E-02 0.  1.
          1   -1    0    0  501    0  0.00000000000E+00 -0.00000000000E+00 -0.49071587799E+03  0.49071587801E+03  0.50400000000E-02 0. -1.
    8880023    1    1    2    0    0 -0.37247610609E+03 -0.61687665105E+01  0.53413008217E+03  0.92621900986E+03  0.65864270000E+03 0.  1.
    8880022    1    1    2    0    0  0.37247610609E+03  0.61687665105E+01 -0.15708752537E+03  0.43225530295E+03  0.15294330000E+03 0. -1.
<mgrwt>
<rscale>  0 0.64630300E+03</rscale>
<asrwt>0</asrwt>
<pdfrwt beam="1">  1        1 0.75494752E-01 0.75669459E+03</pdfrwt>
<pdfrwt beam="2">  1       -1 0.13350130E+00 0.75669459E+03</pdfrwt>
<totfact> 0.22093286E+01</totfact>
</mgrwt>
</event>
<event>
 4    2  0.3396630E-007  0.8539890E+03  0.7818608E-02  0.9604347E-01
          1   -1    0    0  501    0  0.00000000000E+00  0.00000000000E+00  0.99396865690E+03  0.99396865691E+03  0.50400000000E-02 0. -1.
         -1   -1    0    0    0  501 -0.00000000000E+00 -0.00000000000E+00 -0.13836849258E+04  0.13836849258E+04  0.50400000000E-02 0.  1.
    8880023    1    1    2    0    0 -0.54349432170E+03 -0.10046405441E+02 -0.11488728869E+04  0.14315048462E+04  0.65864270000E+03 0.  1.
    8880022    1    1    2    0    0  0.54349432170E+03  0.10046405441E+02  0.75915661803E+03  0.94614873656E+03  0.15294330000E+03 0.  0.
<mgrwt>
<rscale>  0 0.77009161E+03</rscale>
<asrwt>0</asrwt>
<pdfrwt beam="1">  1        1 0.15291826E+00 0.85398900E+03</pdfrwt>
<pdfrwt beam="2">  1       -1 0.21287460E+00 0.85398900E+03</pdfrwt>
<totfact> 0.19298200E+00</totfact>
</mgrwt>
</event>
<event>
 4    2  0.3396630E-007  0.1240948E+04  0.7818608E-02  0.9118310E-01
         -1   -1    0    0    0  501 -0.00000000000E+00  0.00000000000E+00  0.36688984276E+04  0.36688984276E+04  0.50400000000E-02 0.  1.
          1   -1    0    0  501    0  0.00000000000E+00 -0.00000000000E+00 -0.74608353524E+03  0.74608353526E+03  0.50400000000E-02 0. -1.
    8880023    1    1    2    0    0 -0.62158688745E+02  0.10498942680E+04  0.30985019546E+04  0.33377636593E+04  0.65864270000E+03 0.  0.
    8880022    1    1    2    0    0  0.62158688745E+02 -0.10498942680E+04 -0.17568706227E+03  0.10772183035E+04  0.15294330000E+03 0.  0.
<mgrwt>
<rscale>  0 0.11937890E+04</rscale>
<asrwt>0</asrwt>
<pdfrwt beam="1">  1        1 0.11478208E+00 0.12409480E+04</pdfrwt>
<pdfrwt beam="2">  1       -1 0.56444592E+00 0.12409480E+04</pdfrwt>
<totfact> 0.15029647E-02</totfact>
</mgrwt>
</event>
<event>
 4    2  0.3396630E-007  0.8182667E+03  0.7818608E-02  0.9672608E-01
          1   -1    0    0  501    0  0.00000000000E+00  0.00000000000E+00  0.91261092957E+03  0.91261092959E+03  0.50400000000E-02 0. -1.
         -1   -1    0    0    0  501 -0.00000000000E+00 -0.00000000000E+00 -0.15480698046E+04  0.15480698046E+04  0.50400000000E-02 0.  1.
    8880023    1    1    2    0    0 -0.45907372250E+03 -0.15811860202E+03 -0.13528274399E+04  0.15810447380E+04  0.65864270000E+03 0.  0.
    8880022    1    1    2    0    0  0.45907372250E+03  0.15811860202E+03  0.71736856488E+03  0.87963599624E+03  0.15294330000E+03 0.  0.
<mgrwt>
<rscale>  0 0.72671370E+03</rscale>
<asrwt>0</asrwt>
<pdfrwt beam="1">  1        1 0.14040168E+00 0.81826669E+03</pdfrwt>
<pdfrwt beam="2">  1       -1 0.23816459E+00 0.81826669E+03</pdfrwt>
<totfact> 0.15330856E+00</totfact>
</mgrwt>
</event>
<event>
 4    2  0.3396630E-007  0.6638302E+03  0.7818608E-02  0.1020536E+00
          1   -1    0    0  501    0  0.00000000000E+00  0.00000000000E+00  0.16171727999E+03  0.16171728007E+03  0.50400000000E-02 0. -1.
         -1   -1    0    0    0  501 -0.00000000000E+00 -0.00000000000E+00 -0.18165212786E+04  0.18165212786E+04  0.50400000000E-02 0.  1.
    8880023    1    1    2    0    0 -0.82518075455E+02 -0.71512838308E+01 -0.16763262455E+04  0.18029809376E+04  0.65864270000E+03 0.  1.
    8880022    1    1    2    0    0  0.82518075455E+02  0.71512838308E+01  0.21522246862E+02  0.17525762112E+03  0.15294330000E+03 0.  0.
<mgrwt>
<rscale>  0 0.47493818E+03</rscale>
<asrwt>0</asrwt>
<pdfrwt beam="1">  1        1 0.24879583E-01 0.66383023E+03</pdfrwt>
<pdfrwt beam="2">  1       -1 0.27946480E+00 0.66383023E+03</pdfrwt>
<totfact> 0.92624681E+00</totfact>
</mgrwt>
</event>
<event>
 4    2  0.3396630E-007  0.7624164E+03  0.7818608E-02  0.9798891E-01
          1   -1    0    0  501    0  0.00000000000E+00  0.00000000000E+00  0.11265527315E+04  0.11265527315E+04  0.50400000000E-02 0. -1.
         -1   -1    0    0    0  501 -0.00000000000E+00 -0.00000000000E+00 -0.56050086566E+03  0.56050086568E+03  0.50400000000E-02 0.  1.
    8880023    1    1    2    0    0 -0.29488950234E+03 -0.24598536776E+03 -0.22465121253E+03  0.79482513379E+03  0.65864270000E+03 0.  1.
    8880022    1    1    2    0    0  0.29488950234E+03  0.24598536776E+03  0.79070307836E+03  0.89222846339E+03  0.15294330000E+03 0.  0.
<mgrwt>
<rscale>  0 0.65422077E+03</rscale>
<asrwt>0</asrwt>
<pdfrwt beam="1">  1        1 0.17331580E+00 0.76241644E+03</pdfrwt>
<pdfrwt beam="2">  1       -1 0.86230904E-01 0.76241644E+03</pdfrwt>
<totfact> 0.16545830E+01</totfact>
</mgrwt>
</event>
<event>
 4    2  0.3396630E-007  0.1061251E+04  0.7818608E-02  0.9305477E-01
          1   -1    0    0  501    0  0.00000000000E+00  0.00000000000E+00  0.11832333591E+04  0.11832333591E+04  0.50400000000E-02 0. -1.
         -1   -1    0    0    0  501 -0.00000000000E+00 -0.00000000000E+00 -0.10235888196E+04  0.10235888196E+04  0.50400000000E-02 0.  1.
    8880023    1    1    2    0    0  0.82454800592E+03 -0.11208852425E+03 -0.46147062918E+03  0.11572418067E+04  0.65864270000E+03 0.  1.
    8880022    1    1    2    0    0 -0.82454800592E+03  0.11208852425E+03  0.62111516868E+03  0.10495803719E+04  0.15294330000E+03 0. -1.
<mgrwt>
<rscale>  0 0.10028019E+04</rscale>
<asrwt>0</asrwt>
<pdfrwt beam="1">  1        1 0.18203590E+00 0.10612509E+04</pdfrwt>
<pdfrwt beam="2">  1       -1 0.15747520E+00 0.10612509E+04</pdfrwt>
<totfact> 0.33446087E+00</totfact>
</mgrwt>
</event>
<event>
 4    2  0.3396630E-007  0.6869464E+03  0.7818608E-02  0.1005639E+00
         -1   -1    0    0    0  501 -0.00000000000E+00  0.00000000000E+00  0.10113260595E+04  0.10113260595E+04  0.50400000000E-02 0.  1.
          1   -1    0    0  501    0  0.00000000000E+00 -0.00000000000E+00 -0.52645274149E+03  0.52645274151E+03  0.50400000000E-02 0. -1.
    8880023    1    1    2    0    0  0.16641422587E+03 -0.10193848497E+03  0.85220378010E+03  0.10945988481E+04  0.65864270000E+03 0.  1.
    8880022    1    1    2    0    0 -0.16641422587E+03  0.10193848497E+03 -0.36733046206E+03  0.44317995291E+03  0.15294330000E+03 0.  0.
<mgrwt>
<rscale>  0 0.53245272E+03</rscale>
<asrwt>0</asrwt>
<pdfrwt beam="1">  1        1 0.80992730E-01 0.68694640E+03</pdfrwt>
<pdfrwt beam="2">  1       -1 0.15558862E+00 0.68694640E+03</pdfrwt>
<totfact> 0.13505162E+01</totfact>
</mgrwt>
</event>
<event>
 4    2  0.3396630E-007  0.7898360E+03  0.7818608E-02  0.9733220E-01
         -1   -1    0    0    0  501 -0.00000000000E+00  0.00000000000E+00  0.10435519092E+04  0.10435519092E+04  0.50400000000E-02 0.  1.
          1   -1    0    0  501    0  0.00000000000E+00 -0.00000000000E+00 -0.18037949127E+04  0.18037949127E+04  0.50400000000E-02 0. -1.
    8880023    1    1    2    0    0  0.28851602244E+03 -0.32678616545E+03  0.85697481885E+03  0.11654384323E+04  0.65864270000E+03 0.  1.
    8880022    1    1    2    0    0 -0.28851602244E+03  0.32678616545E+03 -0.16172178224E+04  0.16819083896E+04  0.15294330000E+03 0.  0.
<mgrwt>
<rscale>  0 0.69072898E+03</rscale>
<asrwt>0</asrwt>
<pdfrwt beam="1">  1        1 0.27750691E+00 0.78983600E+03</pdfrwt>
<pdfrwt beam="2">  1       -1 0.16054645E+00 0.78983600E+03</pdfrwt>
<totfact> 0.12262525E+00</totfact>
</mgrwt>
</event>
<event>
 4    2  0.3396630E-007  0.1650039E+04  0.7818608E-02  0.8810366E-01
         -1   -1    0    0    0  501 -0.00000000000E+00  0.00000000000E+00  0.19563291335E+04  0.19563291335E+04  0.50400000000E-02 0.  1.
          1   -1    0    0  501    0  0.00000000000E+00 -0.00000000000E+00 -0.14325181389E+04  0.14325181389E+04  0.50400000000E-02 0. -1.
    8880023    1    1    2    0    0  0.14970311679E+04 -0.21843867106E+03  0.81544660381E+03  0.18405382747E+04  0.65864270000E+03 0.  0.
    8880022    1    1    2    0    0 -0.14970311679E+04  0.21843867106E+03 -0.29163560925E+03  0.15483089977E+04  0.15294330000E+03 0.  0.
<mgrwt>
<rscale>  0 0.16166798E+04</rscale>
<asrwt>0</asrwt>
<pdfrwt beam="1">  1        1 0.22038741E+00 0.16500388E+04</pdfrwt>
<pdfrwt beam="2">  1       -1 0.30097371E+00 0.16500388E+04</pdfrwt>
<totfact> 0.22084684E-01</totfact>
</mgrwt>
</event>
<event>
 4    2  0.3396630E-007  0.7354777E+03  0.7818608E-02  0.9873322E-01
         -1   -1    0    0    0  501 -0.00000000000E+00  0.00000000000E+00  0.63886733195E+03  0.63886733197E+03  0.50400000000E-02 0.  1.
          1   -1    0    0  501    0  0.00000000000E+00 -0.00000000000E+00 -0.24580127059E+04  0.24580127059E+04  0.50400000000E-02 0. -1.
    8880023    1    1    2    0    0 -0.27950072936E+03 -0.17028367374E+03  0.40770088788E+03  0.84092057146E+03  0.65864270000E+03 0.  1.
    8880022    1    1    2    0    0  0.27950072936E+03  0.17028367374E+03 -0.22268462619E+04  0.22559594665E+04  0.15294330000E+03 0.  0.
<mgrwt>
<rscale>  0 0.61571836E+03</rscale>
<asrwt>0</asrwt>
<pdfrwt beam="1">  1        1 0.37815580E+00 0.73547766E+03</pdfrwt>
<pdfrwt beam="2">  1       -1 0.98287283E-01 0.73547766E+03</pdfrwt>
<totfact> 0.15336815E+00</totfact>
</mgrwt>
</event>
<event>
 4    2  0.3396630E-007  0.8878979E+03  0.7818608E-02  0.9545745E-01
         -1   -1    0    0    0  501 -0.00000000000E+00  0.00000000000E+00  0.19732216186E+03  0.19732216193E+03  0.50400000000E-02 0.  1.
          1   -1    0    0  501    0  0.00000000000E+00 -0.00000000000E+00 -0.43368992213E+04  0.43368992213E+04  0.50400000000E-02 0. -1.
    8880023    1    1    2    0    0 -0.63363851859E+02  0.59206210085E+03 -0.10098163445E+04  0.13446530277E+04  0.65864270000E+03 0.  0.
    8880022    1    1    2    0    0  0.63363851859E+02 -0.59206210085E+03 -0.31297607149E+04  0.31895683556E+04  0.15294330000E+03 0.  0.
<mgrwt>
<rscale>  0 0.80993606E+03</rscale>
<asrwt>0</asrwt>
<pdfrwt beam="1">  1        1 0.66721519E+00 0.88789792E+03</pdfrwt>
<pdfrwt beam="2">  1       -1 0.30357259E-01 0.88789792E+03</pdfrwt>
<totfact> 0.50940743E-01</totfact>
</mgrwt>
</event>
<event>
 4    2  0.3396630E-007  0.6794154E+03  0.7818608E-02  0.1009656E+00
         -1   -1    0    0    0  501 -0.00000000000E+00  0.00000000000E+00  0.43049218425E+03  0.43049218428E+03  0.50400000000E-02 0.  1.
          1   -1    0    0  501    0  0.00000000000E+00 -0.00000000000E+00 -0.82879989297E+03  0.82879989299E+03  0.50400000000E-02 0. -1.
    8880023    1    1    2    0    0  0.98892830699E+02 -0.13422086411E+03  0.12349925759E+03  0.69054855384E+03  0.65864270000E+03 0.  1.
    8880022    1    1    2    0    0 -0.98892830699E+02  0.13422086411E+03 -0.52180696631E+03  0.56874352342E+03  0.15294330000E+03 0.  0.
<mgrwt>
<rscale>  0 0.51611461E+03</rscale>
<asrwt>0</asrwt>
<pdfrwt beam="1">  1        1 0.12750768E+00 0.67941537E+03</pdfrwt>
<pdfrwt beam="2">  1       -1 0.66229567E-01 0.67941537E+03</pdfrwt>
<totfact> 0.49691959E+01</totfact>
</mgrwt>
</event>
<event>
 4    2  0.3396630E-007  0.1092201E+04  0.7818608E-02  0.9269789E-01
          1   -1    0    0  501    0  0.00000000000E+00  0.00000000000E+00  0.10284963489E+04  0.10284963489E+04  0.50400000000E-02 0. -1.
         -1   -1    0    0    0  501 -0.00000000000E+00 -0.00000000000E+00 -0.12773138706E+04  0.12773138706E+04  0.50400000000E-02 0.  1.
    8880023    1    1    2    0    0 -0.48951503980E+02 -0.86988309228E+03 -0.71547558795E+03  0.13056831037E+04  0.65864270000E+03 0.  1.
    8880022    1    1    2    0    0  0.48951503980E+02  0.86988309228E+03  0.46665806631E+03  0.10001271158E+04  0.15294330000E+03 0.  0.
<mgrwt>
<rscale>  0 0.10361232E+04</rscale>
<asrwt>0</asrwt>
<pdfrwt beam="1">  1        1 0.15823021E+00 0.10922010E+04</pdfrwt>
<pdfrwt beam="2">  1       -1 0.19650983E+00 0.10922010E+04</pdfrwt>
<totfact> 0.22713434E+00</totfact>
</mgrwt>
</event>
<event>
 4    2  0.3396630E-007  0.7025293E+03  0.7818608E-02  0.9986866E-01
          1   -1    0    0  501    0  0.00000000000E+00  0.00000000000E+00  0.21951159025E+04  0.21951159025E+04  0.50400000000E-02 0. -1.
         -1   -1    0    0    0  501 -0.00000000000E+00 -0.00000000000E+00 -0.15941537574E+03  0.15941537582E+03  0.50400000000E-02 0.  1.
    8880023    1    1    2    0    0 -0.55384428883E+02 -0.23805409565E+03  0.71370395075E+03  0.10014592967E+04  0.65864270000E+03 0.  1.
    8880022    1    1    2    0    0  0.55384428883E+02  0.23805409565E+03  0.13219965760E+04  0.13530719816E+04  0.15294330000E+03 0.  0.
<mgrwt>
<rscale>  0 0.56229897E+03</rscale>
<asrwt>0</asrwt>
<pdfrwt beam="1">  1        1 0.33771013E+00 0.70252928E+03</pdfrwt>
<pdfrwt beam="2">  1       -1 0.24525443E-01 0.70252928E+03</pdfrwt>
<totfact> 0.33235526E+01</totfact>
</mgrwt>
</event>
<event>
 4    2  0.3396630E-007  0.8462255E+03  0.7818608E-02  0.9618551E-01
         -1   -1    0    0    0  501 -0.00000000000E+00  0.00000000000E+00  0.86310449607E+03  0.86310449608E+03  0.50400000000E-02 0.  1.
          1   -1    0    0  501    0  0.00000000000E+00 -0.00000000000E+00 -0.12307390163E+04  0.12307390163E+04  0.50400000000E-02 0. -1.
    8880023    1    1    2    0    0  0.19954272211E+03 -0.49241257279E+03  0.55943493372E+03  0.10144284554E+04  0.65864270000E+03 0.  0.
    8880022    1    1    2    0    0 -0.19954272211E+03  0.49241257279E+03 -0.92706945392E+03  0.10794150570E+04  0.15294330000E+03 0.  0.
<mgrwt>
<rscale>  0 0.76080404E+03</rscale>
<asrwt>0</asrwt>
<pdfrwt beam="1">  1        1 0.18934447E+00 0.84622553E+03</pdfrwt>
<pdfrwt beam="2">  1       -1 0.13278531E+00 0.84622553E+03</pdfrwt>
<totfact> 0.49916316E+00</totfact>
</mgrwt>
</event>
<event>
 4    2  0.3396630E-007  0.6824404E+03  0.7818608E-02  0.1007976E+00
          1   -1    0    0  501    0  0.00000000000E+00  0.00000000000E+00  0.90962655782E+03  0.90962655783E+03  0.50400000000E-02 0. -1.
         -1   -1    0    0    0  501 -0.00000000000E+00 -0.00000000000E+00 -0.15044585062E+04  0.15044585062E+04  0.50400000000E-02 0.  1.
    8880023    1    1    2    0    0 -0.14077183085E+03  0.10999076321E+03 -0.14095715752E+04  0.15660833018E+04  0.65864270000E+03 0.  1.
    8880022    1    1    2    0    0  0.14077183085E+03 -0.10999076321E+03  0.81473962678E+03  0.84800176227E+03  0.15294330000E+03 0.  0.
<mgrwt>
<rscale>  0 0.52287201E+03</rscale>
<asrwt>0</asrwt>
<pdfrwt beam="1">  1        1 0.13994255E+00 0.68244039E+03</pdfrwt>
<pdfrwt beam="2">  1       -1 0.23145516E+00 0.68244039E+03</pdfrwt>
<totfact> 0.17483601E+00</totfact>
</mgrwt>
</event>
<event>
 4    2  0.3396630E-007  0.8054080E+03  0.7818608E-02  0.9699223E-01
          1   -1    0    0  501    0  0.00000000000E+00  0.00000000000E+00  0.15997445464E+04  0.15997445464E+04  0.50400000000E-02 0. -1.
         -1   -1    0    0    0  501 -0.00000000000E+00 -0.00000000000E+00 -0.51555199410E+03  0.51555199412E+03  0.50400000000E-02 0.  1.
    8880023    1    1    2    0    0 -0.46030268919E+03 -0.54710525643E+02 -0.12152119256E+03  0.81452404126E+03  0.65864270000E+03 0.  0.
    8880022    1    1    2    0    0  0.46030268919E+03  0.54710525643E+02  0.12057137448E+04  0.13007724993E+04  0.15294330000E+03 0.  0.
<mgrwt>
<rscale>  0 0.71063096E+03</rscale>
<asrwt>0</asrwt>
<pdfrwt beam="1">  1        1 0.24611454E+00 0.80540798E+03</pdfrwt>
<pdfrwt beam="2">  1       -1 0.79315692E-01 0.80540798E+03</pdfrwt>
<totfact> 0.91511782E+00</totfact>
</mgrwt>
</event>
<event>
 4    2  0.3396630E-007  0.6652565E+03  0.7818608E-02  0.1019319E+00
          1   -1    0    0  501    0  0.00000000000E+00  0.00000000000E+00  0.17567104075E+04  0.17567104075E+04  0.50400000000E-02 0. -1.
         -1   -1    0    0    0  501 -0.00000000000E+00 -0.00000000000E+00 -0.12799956153E+03  0.12799956163E+03  0.50400000000E-02 0.  1.
    8880023    1    1    2    0    0  0.65991893825E+02  0.66341025642E+02  0.81779210880E+03  0.10542059577E+04  0.65864270000E+03 0.  1.
    8880022    1    1    2    0    0 -0.65991893825E+02 -0.66341025642E+02  0.81091873712E+03  0.83050401141E+03  0.15294330000E+03 0.  0.
<mgrwt>
<rscale>  0 0.47933112E+03</rscale>
<asrwt>0</asrwt>
<pdfrwt beam="1">  1        1 0.27026313E+00 0.66525654E+03</pdfrwt>
<pdfrwt beam="2">  1       -1 0.19692241E-01 0.66525654E+03</pdfrwt>
<totfact> 0.94722008E+01</totfact>
</mgrwt>
</event>
<event>
 4    2  0.3396630E-007  0.8400878E+03  0.7818608E-02  0.9630015E-01
         -1   -1    0    0    0  501 -0.00000000000E+00  0.00000000000E+00  0.21725448323E+04  0.21725448324E+04  0.50400000000E-02 0.  1.
          1   -1    0    0  501    0  0.00000000000E+00 -0.00000000000E+00 -0.22450000286E+03  0.22450000292E+03  0.50400000000E-02 0. -1.
    8880023    1    1    2    0    0 -0.47391134442E+03  0.21758975738E+03  0.13397592877E+04  0.15813609393E+04  0.65864270000E+03 0. -1.
    8880022    1    1    2    0    0  0.47391134442E+03 -0.21758975738E+03  0.60828554176E+03  0.81568389601E+03  0.15294330000E+03 0.  1.
<mgrwt>
<rscale>  0 0.75341063E+03</rscale>
<asrwt>0</asrwt>
<pdfrwt beam="1">  1        1 0.34538464E-01 0.84008778E+03</pdfrwt>
<pdfrwt beam="2">  1       -1 0.33423765E+00 0.84008778E+03</pdfrwt>
<totfact> 0.26263461E+00</totfact>
</mgrwt>
</event>
<event>
 4    2  0.3396630E-007  0.8396557E+03  0.7818608E-02  0.9630830E-01
          1   -1    0    0  501    0  0.00000000000E+00  0.00000000000E+00  0.85199798009E+03  0.85199798011E+03  0.50400000000E-02 0. -1.
         -1   -1    0    0    0  501 -0.00000000000E+00 -0.00000000000E+00 -0.60600839117E+03  0.60600839119E+03  0.50400000000E-02 0.  1.
    8880023    1    1    2    0    0  0.10273309847E+03  0.51054625668E+03  0.34231215838E+03  0.90675211043E+03  0.65864270000E+03 0. -1.
    8880022    1    1    2    0    0 -0.10273309847E+03 -0.51054625668E+03 -0.96322569449E+02  0.55125426087E+03  0.15294330000E+03 0.  0.
<mgrwt>
<rscale>  0 0.75288845E+03</rscale>
<asrwt>0</asrwt>
<pdfrwt beam="1">  1        1 0.13107661E+00 0.83965575E+03</pdfrwt>
<pdfrwt beam="2">  1       -1 0.93232060E-01 0.83965575E+03</pdfrwt>
<totfact> 0.22669248E+01</totfact>
</mgrwt>
</event>
<event>
 4    2  0.3396630E-007  0.1030666E+04  0.7818608E-02  0.9342493E-01
         -1   -1    0    0    0  501 -0.00000000000E+00  0.00000000000E+00  0.43538713266E+03  0.43538713269E+03  0.50400000000E-02 0.  1.
          1   -1    0    0  501    0  0.00000000000E+00 -0.00000000000E+00 -0.23730453704E+04  0.23730453704E+04  0.50400000000E-02 0. -1.
    8880023    1    1    2    0    0 -0.42215547292E+03 -0.67100443441E+03 -0.46873106495E+03  0.11322460916E+04  0.65864270000E+03 0.  1.
    8880022    1    1    2    0    0  0.42215547292E+03  0.67100443441E+03 -0.14689271728E+04  0.16761864116E+04  0.15294330000E+03 0.  0.
<mgrwt>
<rscale>  0 0.96963267E+03</rscale>
<asrwt>0</asrwt>
<pdfrwt beam="1">  1        1 0.36508389E+00 0.10306660E+04</pdfrwt>
<pdfrwt beam="2">  1       -1 0.66982637E-01 0.10306660E+04</pdfrwt>
<totfact> 0.37908986E+00</totfact>
</mgrwt>
</event>
<event>
 4    2  0.3396630E-007  0.8141283E+03  0.7818608E-02  0.9681041E-01
          1   -1    0    0  501    0  0.00000000000E+00  0.00000000000E+00  0.24358306782E+04  0.24358306782E+04  0.50400000000E-02 0. -1.
         -1   -1    0    0    0  501 -0.00000000000E+00 -0.00000000000E+00 -0.61072657174E+03  0.61072657176E+03  0.50400000000E-02 0.  1.
    8880023    1    1    2    0    0 -0.18910887236E+03 -0.43958225930E+03 -0.29638205589E+03  0.86639901755E+03  0.65864270000E+03 0.  1.
    8880022    1    1    2    0    0  0.18910887236E+03  0.43958225930E+03  0.21214861623E+04  0.21801582324E+04  0.15294330000E+03 0.  0.
<mgrwt>
<rscale>  0 0.72156904E+03</rscale>
<asrwt>0</asrwt>
<pdfrwt beam="1">  1        1 0.37474317E+00 0.81412833E+03</pdfrwt>
<pdfrwt beam="2">  1       -1 0.93957936E-01 0.81412833E+03</pdfrwt>
<totfact> 0.17297376E+00</totfact>
</mgrwt>
</event>
<event>
 4    2  0.3396630E-007  0.7953780E+03  0.7818608E-02  0.9720880E-01
         -1   -1    0    0    0  501 -0.00000000000E+00  0.00000000000E+00  0.19537375227E+03  0.19537375234E+03  0.50400000000E-02 0.  1.
          1   -1    0    0  501    0  0.00000000000E+00 -0.00000000000E+00 -0.33355741068E+04  0.33355741068E+04  0.50400000000E-02 0. -1.
    8880023    1    1    2    0    0  0.40958646322E+03  0.17622403222E+03 -0.74497295614E+03  0.10897756154E+04  0.65864270000E+03 0.  1.
    8880022    1    1    2    0    0 -0.40958646322E+03 -0.17622403222E+03 -0.23952273984E+04  0.24411722437E+04  0.15294330000E+03 0.  0.
<mgrwt>
<rscale>  0 0.69787085E+03</rscale>
<asrwt>0</asrwt>
<pdfrwt beam="1">  1        1 0.51316520E+00 0.79537801E+03</pdfrwt>
<pdfrwt beam="2">  1       -1 0.30057503E-01 0.79537801E+03</pdfrwt>
<totfact> 0.36428739E+00</totfact>
</mgrwt>
</event>
<event>
 4    2  0.3396630E-007  0.7301474E+03  0.7818608E-02  0.9889636E-01
         -1   -1    0    0    0  501 -0.00000000000E+00  0.00000000000E+00  0.86701500663E+03  0.86701500664E+03  0.50400000000E-02 0.  1.
          1   -1    0    0  501    0  0.00000000000E+00 -0.00000000000E+00 -0.19546508072E+04  0.19546508072E+04  0.50400000000E-02 0. -1.
    8880023    1    1    2    0    0 -0.25335051342E+03 -0.18739937181E+03  0.69314616855E+03  0.10067605596E+04  0.65864270000E+03 0.  1.
    8880022    1    1    2    0    0  0.25335051342E+03  0.18739937181E+03 -0.17807819692E+04  0.18149052542E+04  0.15294330000E+03 0.  0.
<mgrwt>
<rscale>  0 0.60766188E+03</rscale>
<asrwt>0</asrwt>
<pdfrwt beam="1">  1        1 0.30071551E+00 0.73014739E+03</pdfrwt>
<pdfrwt beam="2">  1       -1 0.13338692E+00 0.73014739E+03</pdfrwt>
<totfact> 0.16096762E+00</totfact>
</mgrwt>
</event>
<event>
 4    2  0.3396630E-007  0.1094467E+04  0.7818608E-02  0.9267242E-01
         -1   -1    0    0    0  501 -0.00000000000E+00  0.00000000000E+00  0.22692398273E+04  0.22692398273E+04  0.50400000000E-02 0.  1.
          1   -1    0    0  501    0  0.00000000000E+00 -0.00000000000E+00 -0.75113578515E+03  0.75113578516E+03  0.50400000000E-02 0. -1.
    8880023    1    1    2    0    0  0.75842972959E+03  0.43454754497E+03  0.17849209243E+04  0.20937526443E+04  0.65864270000E+03 0.  0.
    8880022    1    1    2    0    0 -0.75842972959E+03 -0.43454754497E+03 -0.26681688207E+03  0.92662296817E+03  0.15294330000E+03 0.  0.
<mgrwt>
<rscale>  0 0.10385539E+04</rscale>
<asrwt>0</asrwt>
<pdfrwt beam="1">  1        1 0.11555935E+00 0.10944667E+04</pdfrwt>
<pdfrwt beam="2">  1       -1 0.34911381E+00 0.10944667E+04</pdfrwt>
<totfact> 0.38703905E-01</totfact>
</mgrwt>
</event>
<event>
 4    2  0.3396630E-007  0.6621709E+03  0.7818608E-02  0.1022035E+00
         -1   -1    0    0    0  501 -0.00000000000E+00  0.00000000000E+00  0.10835680237E+03  0.10835680248E+03  0.50400000000E-02 0.  1.
          1   -1    0    0  501    0  0.00000000000E+00 -0.00000000000E+00 -0.43834507606E+04  0.43834507606E+04  0.50400000000E-02 0. -1.
    8880023    1    1    2    0    0  0.64616861862E+02 -0.22016938862E+02 -0.92528873003E+03  0.11378178785E+04  0.65864270000E+03 0.  1.
    8880022    1    1    2    0    0 -0.64616861862E+02  0.22016938862E+02 -0.33498052282E+04  0.33539896846E+04  0.15294330000E+03 0.  0.
<mgrwt>
<rscale>  0 0.46959400E+03</rscale>
<asrwt>0</asrwt>
<pdfrwt beam="1">  1        1 0.67437690E+00 0.66217089E+03</pdfrwt>
<pdfrwt beam="2">  1       -1 0.16670281E-01 0.66217089E+03</pdfrwt>
<totfact> 0.13331295E+00</totfact>
</mgrwt>
</event>
<event>
 4    2  0.3396630E-007  0.7081110E+03  0.7818608E-02  0.9965084E-01
         -1   -1    0    0    0  501 -0.00000000000E+00  0.00000000000E+00  0.34784207277E+03  0.34784207281E+03  0.50400000000E-02 0.  1.
          1   -1    0    0  501    0  0.00000000000E+00 -0.00000000000E+00 -0.14772379774E+04  0.14772379774E+04  0.50400000000E-02 0. -1.
    8880023    1    1    2    0    0 -0.25990514373E+03  0.77616349019E+01 -0.56251477659E+02  0.71034172179E+03  0.65864270000E+03 0.  1.
    8880022    1    1    2    0    0  0.25990514373E+03 -0.77616349019E+01 -0.10731444269E+04  0.11147383284E+04  0.15294330000E+03 0.  0.
<mgrwt>
<rscale>  0 0.57208123E+03</rscale>
<asrwt>0</asrwt>
<pdfrwt beam="1">  1        1 0.22726738E+00 0.70811096E+03</pdfrwt>
<pdfrwt beam="2">  1       -1 0.53514166E-01 0.70811096E+03</pdfrwt>
<totfact> 0.24825076E+01</totfact>
</mgrwt>
</event>
<event>
 4    2  0.3396630E-007  0.6670603E+03  0.7818608E-02  0.1017864E+00
          1   -1    0    0  501    0  0.00000000000E+00  0.00000000000E+00  0.56662784340E+03  0.56662784343E+03  0.50400000000E-02 0. -1.
         -1   -1    0    0    0  501 -0.00000000000E+00 -0.00000000000E+00 -0.49505036596E+03  0.49505036599E+03  0.50400000000E-02 0.  1.
    8880023    1    1    2    0    0  0.83581500787E+02  0.64601728274E+02 -0.23154385292E+03  0.70610340083E+03  0.65864270000E+03 0.  1.
    8880022    1    1    2    0    0 -0.83581500787E+02 -0.64601728274E+02  0.30312133036E+03  0.35557480859E+03  0.15294330000E+03 0.  0.
<mgrwt>
<rscale>  0 0.48465339E+03</rscale>
<asrwt>0</asrwt>
<pdfrwt beam="1">  1        1 0.87173515E-01 0.66706031E+03</pdfrwt>
<pdfrwt beam="2">  1       -1 0.76161594E-01 0.66706031E+03</pdfrwt>
<totfact> 0.66134280E+01</totfact>
</mgrwt>
</event>
<event>
 4    2  0.3396630E-007  0.6758946E+03  0.7818608E-02  0.1011748E+00
          1   -1    0    0  501    0  0.00000000000E+00  0.00000000000E+00  0.59983852852E+03  0.59983852854E+03  0.50400000000E-02 0. -1.
         -1   -1    0    0    0  501 -0.00000000000E+00 -0.00000000000E+00 -0.42443670299E+03  0.42443670302E+03  0.50400000000E-02 0.  1.
    8880023    1    1    2    0    0  0.13156397041E+03 -0.75592204865E+02 -0.90634824509E+02  0.68194438001E+03  0.65864270000E+03 0.  1.
    8880022    1    1    2    0    0 -0.13156397041E+03  0.75592204865E+02  0.26603665004E+03  0.34233085156E+03  0.15294330000E+03 0.  0.
<mgrwt>
<rscale>  0 0.50785696E+03</rscale>
<asrwt>0</asrwt>
<pdfrwt beam="1">  1        1 0.92282850E-01 0.67589457E+03</pdfrwt>
<pdfrwt beam="2">  1       -1 0.65297955E-01 0.67589457E+03</pdfrwt>
<totfact> 0.83502705E+01</totfact>
</mgrwt>
</event>
<event>
 4    2  0.3396630E-007  0.7104373E+03  0.7818608E-02  0.9956381E-01
         -1   -1    0    0    0  501 -0.00000000000E+00  0.00000000000E+00  0.77725946065E+02  0.77725946228E+02  0.50400000000E-02 0.  1.
          1   -1    0    0  501    0  0.00000000000E+00 -0.00000000000E+00 -0.34233695343E+04  0.34233695343E+04  0.50400000000E-02 0. -1.
    8880023    1    1    2    0    0  0.10957321738E+03  0.24270274334E+03 -0.20520004705E+04  0.21715034075E+04  0.65864270000E+03 0.  0.
    8880022    1    1    2    0    0 -0.10957321738E+03 -0.24270274334E+03 -0.12936431178E+04  0.13295920731E+04  0.15294330000E+03 0.  0.
<mgrwt>
<rscale>  0 0.57604942E+03</rscale>
<asrwt>0</asrwt>
<pdfrwt beam="1">  1        1 0.52667212E+00 0.71043727E+03</pdfrwt>
<pdfrwt beam="2">  1       -1 0.11957840E-01 0.71043727E+03</pdfrwt>
<totfact> 0.14696458E+01</totfact>
</mgrwt>
</event>
<event>
 4    2  0.3396630E-007  0.7865439E+03  0.7818608E-02  0.9740684E-01
         -1   -1    0    0    0  501 -0.00000000000E+00  0.00000000000E+00  0.25094176409E+04  0.25094176409E+04  0.50400000000E-02 0.  1.
          1   -1    0    0  501    0  0.00000000000E+00 -0.00000000000E+00 -0.41739147954E+03  0.41739147957E+03  0.50400000000E-02 0. -1.
    8880023    1    1    2    0    0  0.41522899792E+03 -0.11147201639E+03  0.22959879914E+04  0.24269759360E+04  0.65864270000E+03 0.  0.
    8880022    1    1    2    0    0 -0.41522899792E+03  0.11147201639E+03 -0.20396183003E+03  0.49983318445E+03  0.15294330000E+03 0.  0.
<mgrwt>
<rscale>  0 0.68645310E+03</rscale>
<asrwt>0</asrwt>
<pdfrwt beam="1">  1        1 0.64214073E-01 0.78654392E+03</pdfrwt>
<pdfrwt beam="2">  1       -1 0.38606426E+00 0.78654392E+03</pdfrwt>
<totfact> 0.53581373E-01</totfact>
</mgrwt>
</event>
<event>
 4    2  0.3396630E-007  0.9182828E+03  0.7818608E-02  0.9497297E-01
         -1   -1    0    0    0  501 -0.00000000000E+00  0.00000000000E+00  0.70363624324E+03  0.70363624326E+03  0.50400000000E-02 0.  1.
          1   -1    0    0  501    0  0.00000000000E+00 -0.00000000000E+00 -0.16648656923E+04  0.16648656923E+04  0.50400000000E-02 0. -1.
    8880023    1    1    2    0    0 -0.49017043355E+03 -0.41129805157E+03  0.28312246205E+03  0.96093791471E+03  0.65864270000E+03 0.  0.
    8880022    1    1    2    0    0  0.49017043355E+03  0.41129805157E+03 -0.12443519111E+04  0.14075640209E+04  0.15294330000E+03 0.  0.
<mgrwt>
<rscale>  0 0.84483396E+03</rscale>
<asrwt>0</asrwt>
<pdfrwt beam="1">  1        1 0.25613318E+00 0.91828283E+03</pdfrwt>
<pdfrwt beam="2">  1       -1 0.10825173E+00 0.91828283E+03</pdfrwt>
<totfact> 0.40650975E+00</totfact>
</mgrwt>
</event>
<event>
 4    2  0.3396630E-007  0.8847984E+03  0.7818608E-02  0.9550889E-01
         -1   -1    0    0    0  501 -0.00000000000E+00  0.00000000000E+00  0.14163386675E+04  0.14163386675E+04  0.50400000000E-02 0.  1.
          1   -1    0    0  501    0  0.00000000000E+00 -0.00000000000E+00 -0.14181304765E+04  0.14181304765E+04  0.50400000000E-02 0. -1.
    8880023    1    1    2    0    0  0.52058045111E+03  0.27938138886E+03  0.11974473094E+04  0.14888748207E+04  0.65864270000E+03 0.  0.
    8880022    1    1    2    0    0 -0.52058045111E+03 -0.27938138886E+03 -0.11992391185E+04  0.13455943233E+04  0.15294330000E+03 0.  0.
<mgrwt>
<rscale>  0 0.80633717E+03</rscale>
<asrwt>0</asrwt>
<pdfrwt beam="1">  1        1 0.21817392E+00 0.88479838E+03</pdfrwt>
<pdfrwt beam="2">  1       -1 0.21789826E+00 0.88479838E+03</pdfrwt>
<totfact> 0.87103245E-01</totfact>
</mgrwt>
</event>
<event>
 4    2  0.3396630E-007  0.7914869E+03  0.7818608E-02  0.9729515E-01
         -1   -1    0    0    0  501 -0.00000000000E+00  0.00000000000E+00  0.11040150916E+04  0.11040150916E+04  0.50400000000E-02 0.  1.
          1   -1    0    0  501    0  0.00000000000E+00 -0.00000000000E+00 -0.51162818745E+03  0.51162818747E+03  0.50400000000E-02 0. -1.
    8880023    1    1    2    0    0  0.42718097725E+03 -0.10078529625E+03  0.78294094634E+03  0.11133049874E+04  0.65864270000E+03 0.  0.
    8880022    1    1    2    0    0 -0.42718097725E+03  0.10078529625E+03 -0.19055404220E+03  0.50233829167E+03  0.15294330000E+03 0.  0.
<mgrwt>
<rscale>  0 0.69286365E+03</rscale>
<asrwt>0</asrwt>
<pdfrwt beam="1">  1        1 0.78712029E-01 0.79148687E+03</pdfrwt>
<pdfrwt beam="2">  1       -1 0.16984847E+00 0.79148687E+03</pdfrwt>
<totfact> 0.10855065E+01</totfact>
</mgrwt>
</event>
<event>
 4    2  0.3396630E-007  0.1190197E+04  0.7818608E-02  0.9166711E-01
         -1   -1    0    0    0  501 -0.00000000000E+00  0.00000000000E+00  0.94078554028E+03  0.94078554030E+03  0.50400000000E-02 0.  1.
          1   -1    0    0  501    0  0.00000000000E+00 -0.00000000000E+00 -0.25932813214E+04  0.25932813214E+04  0.50400000000E-02 0. -1.
    8880023    1    1    2    0    0 -0.83575725051E+02 -0.98781255955E+03  0.39503151588E+03  0.12540409321E+04  0.65864270000E+03 0.  1.
    8880022    1    1    2    0    0  0.83575725051E+02  0.98781255955E+03 -0.20475272970E+04  0.22800259296E+04  0.15294330000E+03 0.  0.
<mgrwt>
<rscale>  0 0.11403731E+04</rscale>
<asrwt>0</asrwt>
<pdfrwt beam="1">  1        1 0.39896635E+00 0.11901969E+04</pdfrwt>
<pdfrwt beam="2">  1       -1 0.14473624E+00 0.11901969E+04</pdfrwt>
<totfact> 0.44311775E-01</totfact>
</mgrwt>
</event>
