<event>
 4    2  0.4086940E+000  0.1979745E+03  0.7546771E-02  0.1151459E+00
         21   -1    0    0  503  502  0.00000000000E+00  0.00000000000E+00  0.20809596650E+02  0.20809596650E+02  0.00000000000E+00 0.  1.
         21   -1    0    0  501  503 -0.00000000000E+00 -0.00000000000E+00 -0.22337247275E+04  0.22337247275E+04  0.00000000000E+00 0.  1.
          6    1    1    2  501    0 -0.89326459795E+02  0.35856650624E+02 -0.66006801584E+03  0.68911806053E+03  0.17300000000E+03 0.  1.
         -6    1    1    2    0  502  0.89326459795E+02 -0.35856650624E+02 -0.15528471150E+04  0.15654162636E+04  0.17300000000E+03 0.  1.
<mgrwt>
<rscale>  2 0.19797453E+03</rscale>
<asrwt>0</asrwt>
<pdfrwt beam="1">  1       21 0.32014783E-02 0.19797453E+03</pdfrwt>
<pdfrwt beam="2">  1       21 0.34364975E+00 0.19797453E+03</pdfrwt>
<totfact> 0.10760984E+04</totfact>
</mgrwt>
</event>
<event>
 4    2  0.4086940E+000  0.2490313E+03  0.7546771E-02  0.1113919E+00
         21   -1    0    0  501  502  0.00000000000E+00  0.00000000000E+00  0.12925433784E+03  0.12925433784E+03  0.00000000000E+00 0.  1.
         21   -1    0    0  502  503 -0.00000000000E+00 -0.00000000000E+00 -0.82826415268E+03  0.82826415268E+03  0.00000000000E+00 0.  1.
          6    1    1    2  501    0 -0.78073089090E+02  0.16122089946E+03 -0.38970243230E+02  0.25206202713E+03  0.17300000000E+03 0.  1.
         -6    1    1    2    0  503  0.78073089090E+02 -0.16122089946E+03 -0.66003957160E+03  0.70545646339E+03  0.17300000000E+03 0.  1.
<mgrwt>
<rscale>  2 0.24903129E+03</rscale>
<asrwt>0</asrwt>
<pdfrwt beam="1">  1       21 0.19885283E-01 0.24903129E+03</pdfrwt>
<pdfrwt beam="2">  1       21 0.12742525E+00 0.24903129E+03</pdfrwt>
<totfact> 0.10220103E+04</totfact>
</mgrwt>
</event>
<event>
 4    2  0.4086940E+000  0.3340877E+03  0.7546771E-02  0.1069342E+00
         21   -1    0    0  501  502  0.00000000000E+00  0.00000000000E+00  0.11848778599E+03  0.11848778599E+03  0.00000000000E+00 0. -1.
         21   -1    0    0  502  503 -0.00000000000E+00 -0.00000000000E+00 -0.14853541006E+04  0.14853541006E+04  0.00000000000E+00 0.  1.
          6    1    1    2  501    0  0.42228914611E+02  0.28266994578E+03 -0.19841151654E+03  0.38856364906E+03  0.17300000000E+03 0. -1.
         -6    1    1    2    0  503 -0.42228914611E+02 -0.28266994578E+03 -0.11684547981E+04  0.12152782376E+04  0.17300000000E+03 0.  1.
<mgrwt>
<rscale>  2 0.33408768E+03</rscale>
<asrwt>0</asrwt>
<pdfrwt beam="1">  1       21 0.18228890E-01 0.33408768E+03</pdfrwt>
<pdfrwt beam="2">  1       21 0.22851601E+00 0.33408768E+03</pdfrwt>
<totfact> 0.21814260E+03</totfact>
</mgrwt>
</event>
<event>
 4    2  0.4086940E+000  0.1809251E+03  0.7546771E-02  0.1166911E+00
         21   -1    0    0  501  502  0.00000000000E+00  0.00000000000E+00  0.17026841502E+03  0.17026841502E+03  0.00000000000E+00 0.  1.
         21   -1    0    0  502  503 -0.00000000000E+00 -0.00000000000E+00 -0.24879674164E+03  0.24879674164E+03  0.00000000000E+00 0.  1.
          6    1    1    2  501    0  0.51031706231E+02  0.14165287003E+02  0.60629466776E+02  0.19081358085E+03  0.17300000000E+03 0.  1.
         -6    1    1    2    0  503 -0.51031706231E+02 -0.14165287003E+02 -0.13915779339E+03  0.22825157581E+03  0.17300000000E+03 0.  1.
<mgrwt>
<rscale>  2 0.18092510E+03</rscale>
<asrwt>0</asrwt>
<pdfrwt beam="1">  1       21 0.26195141E-01 0.18092510E+03</pdfrwt>
<pdfrwt beam="2">  1       21 0.38276422E-01 0.18092510E+03</pdfrwt>
<totfact> 0.91589903E+04</totfact>
</mgrwt>
</event>
<event>
 4    2  0.4086940E+000  0.1785772E+03  0.7546771E-02  0.1169187E+00
         21   -1    0    0  501  502  0.00000000000E+00  0.00000000000E+00  0.56629395968E+03  0.56629395968E+03  0.00000000000E+00 0. -1.
         21   -1    0    0  502  503 -0.00000000000E+00 -0.00000000000E+00 -0.56340284091E+02  0.56340284091E+02  0.00000000000E+00 0. -1.
          6    1    1    2  501    0 -0.39040051008E+02  0.20897347074E+02  0.24815101446E+03  0.30572659465E+03  0.17300000000E+03 0. -1.
         -6    1    1    2    0  503  0.39040051008E+02 -0.20897347074E+02  0.26180266113E+03  0.31690764912E+03  0.17300000000E+03 0. -1.
<mgrwt>
<rscale>  2 0.17857722E+03</rscale>
<asrwt>0</asrwt>
<pdfrwt beam="1">  1       21 0.87122144E-01 0.17857722E+03</pdfrwt>
<pdfrwt beam="2">  1       21 0.86677364E-02 0.17857722E+03</pdfrwt>
<totfact> 0.11877836E+05</totfact>
</mgrwt>
</event>
<event>
 4    2  0.4086940E+000  0.1788258E+03  0.7546771E-02  0.1168944E+00
         21   -1    0    0  501  502  0.00000000000E+00  0.00000000000E+00  0.61766582627E+03  0.61766582627E+03  0.00000000000E+00 0. -1.
         21   -1    0    0  502  503 -0.00000000000E+00 -0.00000000000E+00 -0.80143483516E+02  0.80143483516E+02  0.00000000000E+00 0. -1.
          6    1    1    2  501    0 -0.34491004875E+02 -0.29326271637E+02  0.47634951626E+03  0.50880990681E+03  0.17300000000E+03 0. -1.
         -6    1    1    2    0  503  0.34491004875E+02  0.29326271637E+02  0.61172826496E+02  0.18899940298E+03  0.17300000000E+03 0. -1.
<mgrwt>
<rscale>  2 0.17882578E+03</rscale>
<asrwt>0</asrwt>
<pdfrwt beam="1">  1       21 0.95025508E-01 0.17882578E+03</pdfrwt>
<pdfrwt beam="2">  1       21 0.12329767E-01 0.17882578E+03</pdfrwt>
<totfact> 0.52103799E+04</totfact>
</mgrwt>
</event>
<event>
 4    2  0.4086940E+000  0.3028902E+03  0.7546771E-02  0.1083805E+00
         21   -1    0    0  503  502  0.00000000000E+00  0.00000000000E+00  0.21992630208E+03  0.21992630208E+03  0.00000000000E+00 0. -1.
         21   -1    0    0  501  503 -0.00000000000E+00 -0.00000000000E+00 -0.41716367862E+03  0.41716367862E+03  0.00000000000E+00 0. -1.
          6    1    1    2  501    0 -0.82254670177E+02  0.23462237763E+03 -0.96866988753E+02  0.31800267980E+03  0.17300000000E+03 0. -1.
         -6    1    1    2    0  502  0.82254670177E+02 -0.23462237763E+03 -0.10037038779E+03  0.31908730090E+03  0.17300000000E+03 0. -1.
<mgrwt>
<rscale>  2 0.30289023E+03</rscale>
<asrwt>0</asrwt>
<pdfrwt beam="1">  1       21 0.33834816E-01 0.30289023E+03</pdfrwt>
<pdfrwt beam="2">  1       21 0.64179027E-01 0.30289023E+03</pdfrwt>
<totfact> 0.17837539E+04</totfact>
</mgrwt>
</event>
<event>
 4    2  0.4086940E+000  0.1800724E+03  0.7546771E-02  0.1167733E+00
         21   -1    0    0  503  502  0.00000000000E+00  0.00000000000E+00  0.15938646243E+04  0.15938646243E+04  0.00000000000E+00 0.  1.
         21   -1    0    0  501  503 -0.00000000000E+00 -0.00000000000E+00 -0.29475866831E+02  0.29475866831E+02  0.00000000000E+00 0.  1.
          6    1    1    2  501    0  0.12882464662E+02  0.48281599320E+02  0.33042288400E+03  0.37630486709E+03  0.17300000000E+03 0.  1.
         -6    1    1    2    0  502 -0.12882464662E+02 -0.48281599320E+02  0.12339658735E+04  0.12470356241E+04  0.17300000000E+03 0.  1.
<mgrwt>
<rscale>  2 0.18007240E+03</rscale>
<asrwt>0</asrwt>
<pdfrwt beam="1">  1       21 0.24520987E+00 0.18007240E+03</pdfrwt>
<pdfrwt beam="2">  1       21 0.45347500E-02 0.18007240E+03</pdfrwt>
<totfact> 0.22762869E+04</totfact>
</mgrwt>
</event>
<event>
 4    2  0.4086940E+000  0.2052627E+03  0.7546771E-02  0.1145373E+00
         21   -1    0    0  501  502  0.00000000000E+00  0.00000000000E+00  0.16423402230E+03  0.16423402230E+03  0.00000000000E+00 0. -1.
         21   -1    0    0  502  503 -0.00000000000E+00 -0.00000000000E+00 -0.46338464124E+03  0.46338464124E+03  0.00000000000E+00 0. -1.
          6    1    1    2  501    0 -0.36919070195E+02  0.10411889055E+03  0.60084949851E+02  0.21387604427E+03  0.17300000000E+03 0. -1.
         -6    1    1    2    0  503  0.36919070195E+02 -0.10411889055E+03 -0.35923556880E+03  0.41374261927E+03  0.17300000000E+03 0. -1.
<mgrwt>
<rscale>  2 0.20526266E+03</rscale>
<asrwt>0</asrwt>
<pdfrwt beam="1">  1       21 0.25266773E-01 0.20526266E+03</pdfrwt>
<pdfrwt beam="2">  1       21 0.71289945E-01 0.20526266E+03</pdfrwt>
<totfact> 0.26225635E+04</totfact>
</mgrwt>
</event>
<event>
 4    2  0.4086940E+000  0.2557260E+03  0.7546771E-02  0.1109739E+00
         21   -1    0    0  501  502  0.00000000000E+00  0.00000000000E+00  0.45262018770E+03  0.45262018770E+03  0.00000000000E+00 0.  1.
         21   -1    0    0  502  503 -0.00000000000E+00 -0.00000000000E+00 -0.41675085248E+03  0.41675085248E+03  0.00000000000E+00 0. -1.
          6    1    1    2  501    0 -0.85390053730E+02 -0.16785505008E+03  0.36928094857E+03  0.44918169830E+03  0.17300000000E+03 0. -1.
         -6    1    1    2    0  503  0.85390053730E+02  0.16785505008E+03 -0.33341161335E+03  0.42018934188E+03  0.17300000000E+03 0. -1.
<mgrwt>
<rscale>  2 0.25572598E+03</rscale>
<asrwt>0</asrwt>
<pdfrwt beam="1">  1       21 0.69633875E-01 0.25572598E+03</pdfrwt>
<pdfrwt beam="2">  1       21 0.64115516E-01 0.25572598E+03</pdfrwt>
<totfact> 0.40224852E+03</totfact>
</mgrwt>
</event>
<event>
 4    2  0.4086940E+000  0.3784086E+03  0.7546771E-02  0.1051524E+00
         21   -1    0    0  501  502  0.00000000000E+00  0.00000000000E+00  0.11022044899E+04  0.11022044899E+04  0.00000000000E+00 0.  1.
         21   -1    0    0  502  503 -0.00000000000E+00 -0.00000000000E+00 -0.13217180554E+03  0.13217180554E+03  0.00000000000E+00 0. -1.
          6    1    1    2  501    0  0.16311701418E+03  0.29437549206E+03  0.40437118928E+03  0.55381328023E+03  0.17300000000E+03 0.  1.
         -6    1    1    2    0  503 -0.16311701418E+03 -0.29437549206E+03  0.56566149504E+03  0.68056301516E+03  0.17300000000E+03 0. -1.
<mgrwt>
<rscale>  2 0.37840863E+03</rscale>
<asrwt>0</asrwt>
<pdfrwt beam="1">  1       21 0.16956992E+00 0.37840863E+03</pdfrwt>
<pdfrwt beam="2">  1       21 0.20334125E-01 0.37840863E+03</pdfrwt>
<totfact> 0.42795010E+03</totfact>
</mgrwt>
</event>
<event>
 4    2  0.4086940E+000  0.2175584E+03  0.7546771E-02  0.1135717E+00
         21   -1    0    0  501  502  0.00000000000E+00  0.00000000000E+00  0.13112691754E+03  0.13112691754E+03  0.00000000000E+00 0.  1.
         21   -1    0    0  502  503 -0.00000000000E+00 -0.00000000000E+00 -0.53848132715E+03  0.53848132715E+03  0.00000000000E+00 0.  1.
          6    1    1    2  501    0  0.25226146172E+02 -0.12948476809E+03 -0.11443344366E+02  0.21785916035E+03  0.17300000000E+03 0.  1.
         -6    1    1    2    0  503 -0.25226146172E+02  0.12948476809E+03 -0.39591106524E+03  0.45174908434E+03  0.17300000000E+03 0.  1.
<mgrwt>
<rscale>  2 0.21755841E+03</rscale>
<asrwt>0</asrwt>
<pdfrwt beam="1">  1       21 0.20173372E-01 0.21755841E+03</pdfrwt>
<pdfrwt beam="2">  1       21 0.82843282E-01 0.21755841E+03</pdfrwt>
<totfact> 0.28465339E+04</totfact>
</mgrwt>
</event>
<event>
 4    2  0.4086940E+000  0.1811793E+03  0.7546771E-02  0.1166667E+00
         21   -1    0    0  503  502  0.00000000000E+00  0.00000000000E+00  0.76342425539E+03  0.76342425539E+03  0.00000000000E+00 0. -1.
         21   -1    0    0  501  503 -0.00000000000E+00 -0.00000000000E+00 -0.93416632259E+02  0.93416632259E+02  0.00000000000E+00 0. -1.
          6    1    1    2  501    0  0.44318602661E+02  0.30541911823E+02  0.20263542654E+02  0.18230896325E+03  0.17300000000E+03 0. -1.
         -6    1    1    2    0  502 -0.44318602661E+02 -0.30541911823E+02  0.64974408048E+03  0.67453192440E+03  0.17300000000E+03 0. -1.
<mgrwt>
<rscale>  2 0.18117932E+03</rscale>
<asrwt>0</asrwt>
<pdfrwt beam="1">  1       21 0.11744988E+00 0.18117932E+03</pdfrwt>
<pdfrwt beam="2">  1       21 0.14371790E-01 0.18117932E+03</pdfrwt>
<totfact> 0.23776528E+04</totfact>
</mgrwt>
</event>
<event>
 4    2  0.4086940E+000  0.2853682E+03  0.7546771E-02  0.1092793E+00
         21   -1    0    0  503  502  0.00000000000E+00  0.00000000000E+00  0.46600973627E+03  0.46600973627E+03  0.00000000000E+00 0.  1.
         21   -1    0    0  501  503 -0.00000000000E+00 -0.00000000000E+00 -0.17639023127E+03  0.17639023127E+03  0.00000000000E+00 0. -1.
          6    1    1    2  501    0  0.22656418511E+03 -0.13216613925E+02  0.11383231491E+03  0.30723412046E+03  0.17300000000E+03 0.  1.
         -6    1    1    2    0  502 -0.22656418511E+03  0.13216613925E+02  0.17578719009E+03  0.33516584709E+03  0.17300000000E+03 0. -1.
<mgrwt>
<rscale>  2 0.28536820E+03</rscale>
<asrwt>0</asrwt>
<pdfrwt beam="1">  1       21 0.71693805E-01 0.28536820E+03</pdfrwt>
<pdfrwt beam="2">  1       21 0.27136959E-01 0.28536820E+03</pdfrwt>
<totfact> 0.21710784E+04</totfact>
</mgrwt>
</event>
<event>
 4    2  0.4086940E+000  0.1906182E+03  0.7546771E-02  0.1157905E+00
         21   -1    0    0  501  502  0.00000000000E+00  0.00000000000E+00  0.16748143399E+04  0.16748143399E+04  0.00000000000E+00 0. -1.
         21   -1    0    0  502  503 -0.00000000000E+00 -0.00000000000E+00 -0.34152999064E+02  0.34152999064E+02  0.00000000000E+00 0. -1.
          6    1    1    2  501    0 -0.79930430865E+02  0.41741692427E+01  0.13364039883E+04  0.13499299676E+04  0.17300000000E+03 0. -1.
         -6    1    1    2    0  503  0.79930430865E+02 -0.41741692427E+01  0.30425735253E+03  0.35903737137E+03  0.17300000000E+03 0. -1.
<mgrwt>
<rscale>  2 0.19061820E+03</rscale>
<asrwt>0</asrwt>
<pdfrwt beam="1">  1       21 0.25766368E+00 0.19061820E+03</pdfrwt>
<pdfrwt beam="2">  1       21 0.52543089E-02 0.19061820E+03</pdfrwt>
<totfact> 0.14854288E+04</totfact>
</mgrwt>
</event>
<event>
 4    2  0.4086940E+000  0.1755915E+03  0.7546771E-02  0.1172139E+00
         21   -1    0    0  503  502  0.00000000000E+00  0.00000000000E+00  0.81164994472E+03  0.81164994472E+03  0.00000000000E+00 0.  1.
         21   -1    0    0  501  503 -0.00000000000E+00 -0.00000000000E+00 -0.47726056838E+02  0.47726056838E+02  0.00000000000E+00 0.  1.
          6    1    1    2  501    0 -0.25426705526E+02  0.16027073661E+02  0.57606275995E+03  0.60222976334E+03  0.17300000000E+03 0.  1.
         -6    1    1    2    0  502  0.25426705526E+02 -0.16027073661E+02  0.18786112793E+03  0.25714623822E+03  0.17300000000E+03 0.  1.
<mgrwt>
<rscale>  2 0.17559153E+03</rscale>
<asrwt>0</asrwt>
<pdfrwt beam="1">  1       21 0.12486921E+00 0.17559153E+03</pdfrwt>
<pdfrwt beam="2">  1       21 0.73424709E-02 0.17559153E+03</pdfrwt>
<totfact> 0.67173068E+04</totfact>
</mgrwt>
</event>
<event>
 4    2  0.4086940E+000  0.2144784E+03  0.7546771E-02  0.1138068E+00
         21   -1    0    0  501  502  0.00000000000E+00  0.00000000000E+00  0.25491351847E+03  0.25491351847E+03  0.00000000000E+00 0.  1.
         21   -1    0    0  502  503 -0.00000000000E+00 -0.00000000000E+00 -0.33424852411E+03  0.33424852411E+03  0.00000000000E+00 0.  1.
          6    1    1    2  501    0 -0.11906203631E+03  0.43545656924E+02 -0.23948607932E+03  0.32148806341E+03  0.17300000000E+03 0.  1.
         -6    1    1    2    0  503  0.11906203631E+03 -0.43545656924E+02  0.16015107367E+03  0.26767397917E+03  0.17300000000E+03 0.  1.
<mgrwt>
<rscale>  2 0.21447842E+03</rscale>
<asrwt>0</asrwt>
<pdfrwt beam="1">  1       21 0.39217465E-01 0.21447842E+03</pdfrwt>
<pdfrwt beam="2">  1       21 0.51422850E-01 0.21447842E+03</pdfrwt>
<totfact> 0.22243832E+04</totfact>
</mgrwt>
</event>
<event>
 4    2  0.4086940E+000  0.1769435E+03  0.7546771E-02  0.1170794E+00
         21   -1    0    0  503  502  0.00000000000E+00  0.00000000000E+00  0.84323693784E+02  0.84323693784E+02  0.00000000000E+00 0.  1.
         21   -1    0    0  501  503 -0.00000000000E+00 -0.00000000000E+00 -0.89153050423E+03  0.89153050423E+03  0.00000000000E+00 0.  1.
          6    1    1    2  501    0 -0.30759106530E+02 -0.20830138364E+02 -0.77632673291E+03  0.79623627996E+03  0.17300000000E+03 0.  1.
         -6    1    1    2    0  502  0.30759106530E+02  0.20830138364E+02 -0.30880077545E+02  0.17961791806E+03  0.17300000000E+03 0.  1.
<mgrwt>
<rscale>  2 0.17694354E+03</rscale>
<asrwt>0</asrwt>
<pdfrwt beam="1">  1       21 0.12972876E-01 0.17694354E+03</pdfrwt>
<pdfrwt beam="2">  1       21 0.13715853E+00 0.17694354E+03</pdfrwt>
<totfact> 0.19450950E+04</totfact>
</mgrwt>
</event>
<event>
 4    2  0.4086940E+000  0.1882591E+03  0.7546771E-02  0.1160041E+00
         21   -1    0    0  503  502  0.00000000000E+00  0.00000000000E+00  0.57287938406E+02  0.57287938406E+02  0.00000000000E+00 0. -1.
         21   -1    0    0  501  503 -0.00000000000E+00 -0.00000000000E+00 -0.98982130950E+03  0.98982130950E+03  0.00000000000E+00 0. -1.
          6    1    1    2  501    0  0.20365522553E+02  0.71398517827E+02 -0.78686965017E+03  0.80907685001E+03  0.17300000000E+03 0. -1.
         -6    1    1    2    0  502 -0.20365522553E+02 -0.71398517827E+02 -0.14566372092E+03  0.23803239790E+03  0.17300000000E+03 0. -1.
<mgrwt>
<rscale>  2 0.18825914E+03</rscale>
<asrwt>0</asrwt>
<pdfrwt beam="1">  1       21 0.88135297E-02 0.18825914E+03</pdfrwt>
<pdfrwt beam="2">  1       21 0.15228019E+00 0.18825914E+03</pdfrwt>
<totfact> 0.29187637E+04</totfact>
</mgrwt>
</event>
<event>
 4    2  0.4086940E+000  0.1827946E+03  0.7546771E-02  0.1165125E+00
         21   -1    0    0  503  502  0.00000000000E+00  0.00000000000E+00  0.46704611018E+02  0.46704611018E+02  0.00000000000E+00 0.  1.
         21   -1    0    0  501  503 -0.00000000000E+00 -0.00000000000E+00 -0.96232599947E+03  0.96232599947E+03  0.00000000000E+00 0.  1.
          6    1    1    2  501    0  0.45821960868E+02  0.37218673783E+02 -0.71335736446E+03  0.73640519499E+03  0.17300000000E+03 0.  1.
         -6    1    1    2    0  502 -0.45821960868E+02 -0.37218673783E+02 -0.20226402399E+03  0.27262541550E+03  0.17300000000E+03 0.  1.
<mgrwt>
<rscale>  2 0.18279464E+03</rscale>
<asrwt>0</asrwt>
<pdfrwt beam="1">  1       21 0.71853251E-02 0.18279464E+03</pdfrwt>
<pdfrwt beam="2">  1       21 0.14805015E+00 0.18279464E+03</pdfrwt>
<totfact> 0.44980343E+04</totfact>
</mgrwt>
</event>
<event>
 4    2  0.4086940E+000  0.2543066E+03  0.7546771E-02  0.1110613E+00
         21   -1    0    0  501  502  0.00000000000E+00  0.00000000000E+00  0.76055101007E+03  0.76055101007E+03  0.00000000000E+00 0.  1.
         21   -1    0    0  502  503 -0.00000000000E+00 -0.00000000000E+00 -0.10645277356E+03  0.10645277356E+03  0.00000000000E+00 0. -1.
          6    1    1    2  501    0  0.14336498529E+03 -0.11911893285E+03  0.13259318061E+03  0.28679747334E+03  0.17300000000E+03 0. -1.
         -6    1    1    2    0  503 -0.14336498529E+03  0.11911893285E+03  0.52150505590E+03  0.58020631029E+03  0.17300000000E+03 0.  1.
<mgrwt>
<rscale>  2 0.25430658E+03</rscale>
<asrwt>0</asrwt>
<pdfrwt beam="1">  1       21 0.11700784E+00 0.25430658E+03</pdfrwt>
<pdfrwt beam="2">  1       21 0.16377350E-01 0.25430658E+03</pdfrwt>
<totfact> 0.18115234E+04</totfact>
</mgrwt>
</event>
<event>
 4    2  0.4086940E+000  0.4315779E+03  0.7546771E-02  0.1033363E+00
         21   -1    0    0  501  502  0.00000000000E+00  0.00000000000E+00  0.37822842376E+03  0.37822842376E+03  0.00000000000E+00 0.  1.
         21   -1    0    0  502  503 -0.00000000000E+00 -0.00000000000E+00 -0.66998267560E+03  0.66998267560E+03  0.00000000000E+00 0. -1.
          6    1    1    2  501    0 -0.34325726815E+03 -0.19622680483E+03  0.12391118786E+03  0.44901391242E+03  0.17300000000E+03 0.  1.
         -6    1    1    2    0  503  0.34325726815E+03  0.19622680483E+03 -0.41566543971E+03  0.59919718694E+03  0.17300000000E+03 0. -1.
<mgrwt>
<rscale>  2 0.43157793E+03</rscale>
<asrwt>0</asrwt>
<pdfrwt beam="1">  1       21 0.58188989E-01 0.43157793E+03</pdfrwt>
<pdfrwt beam="2">  1       21 0.10307426E+00 0.43157793E+03</pdfrwt>
<totfact> 0.18318440E+03</totfact>
</mgrwt>
</event>
<event>
 4    2  0.4086940E+000  0.1948418E+03  0.7546771E-02  0.1154165E+00
         21   -1    0    0  501  502  0.00000000000E+00  0.00000000000E+00  0.93329445395E+02  0.93329445395E+02  0.00000000000E+00 0. -1.
         21   -1    0    0  502  503 -0.00000000000E+00 -0.00000000000E+00 -0.41628575377E+03  0.41628575377E+03  0.00000000000E+00 0.  1.
          6    1    1    2  501    0 -0.83445015443E+02 -0.32730144430E+02 -0.12294735588E+03  0.23038963795E+03  0.17300000000E+03 0. -1.
         -6    1    1    2    0  503  0.83445015443E+02  0.32730144430E+02 -0.20000895250E+03  0.27922556122E+03  0.17300000000E+03 0. -1.
<mgrwt>
<rscale>  2 0.19484182E+03</rscale>
<asrwt>0</asrwt>
<pdfrwt beam="1">  1       21 0.14358376E-01 0.19484182E+03</pdfrwt>
<pdfrwt beam="2">  1       21 0.64043963E-01 0.19484182E+03</pdfrwt>
<totfact> 0.95516872E+04</totfact>
</mgrwt>
</event>
<event>
 4    2  0.4086940E+000  0.1831386E+03  0.7546771E-02  0.1164800E+00
         21   -1    0    0  501  502  0.00000000000E+00  0.00000000000E+00  0.11559666643E+03  0.11559666643E+03  0.00000000000E+00 0. -1.
         21   -1    0    0  502  503 -0.00000000000E+00 -0.00000000000E+00 -0.59868408248E+03  0.59868408248E+03  0.00000000000E+00 0.  1.
          6    1    1    2  501    0  0.45602826903E+02  0.39129791179E+02  0.14842941710E+02  0.18373913927E+03  0.17300000000E+03 0. -1.
         -6    1    1    2    0  503 -0.45602826903E+02 -0.39129791179E+02 -0.49793035776E+03  0.53054160964E+03  0.17300000000E+03 0.  1.
<mgrwt>
<rscale>  2 0.18313863E+03</rscale>
<asrwt>0</asrwt>
<pdfrwt beam="1">  1       21 0.17784102E-01 0.18313863E+03</pdfrwt>
<pdfrwt beam="2">  1       21 0.92105244E-01 0.18313863E+03</pdfrwt>
<totfact> 0.28738911E+04</totfact>
</mgrwt>
</event>
<event>
 4    2  0.4086940E+000  0.2135327E+03  0.7546771E-02  0.1138799E+00
         21   -1    0    0  503  502  0.00000000000E+00  0.00000000000E+00  0.96475646477E+02  0.96475646477E+02  0.00000000000E+00 0. -1.
         21   -1    0    0  501  503 -0.00000000000E+00 -0.00000000000E+00 -0.48414662030E+03  0.48414662030E+03  0.00000000000E+00 0. -1.
          6    1    1    2  501    0 -0.62980219689E+02 -0.10816977905E+03 -0.23863237855E+03  0.32022120677E+03  0.17300000000E+03 0. -1.
         -6    1    1    2    0  502  0.62980219689E+02  0.10816977905E+03 -0.14903859527E+03  0.26040106001E+03  0.17300000000E+03 0. -1.
<mgrwt>
<rscale>  2 0.21353269E+03</rscale>
<asrwt>0</asrwt>
<pdfrwt beam="1">  1       21 0.14842407E-01 0.21353269E+03</pdfrwt>
<pdfrwt beam="2">  1       21 0.74484095E-01 0.21353269E+03</pdfrwt>
<totfact> 0.63949529E+04</totfact>
</mgrwt>
</event>
<event>
 4    2  0.4086940E+000  0.3783960E+03  0.7546771E-02  0.1051528E+00
         21   -1    0    0  501  502  0.00000000000E+00  0.00000000000E+00  0.13188783118E+03  0.13188783118E+03  0.00000000000E+00 0. -1.
         21   -1    0    0  502  503 -0.00000000000E+00 -0.00000000000E+00 -0.11856921732E+04  0.11856921732E+04  0.00000000000E+00 0.  1.
          6    1    1    2  501    0 -0.33263291518E+03 -0.51086864758E+02 -0.71826642154E+03  0.81184368959E+03  0.17300000000E+03 0.  1.
         -6    1    1    2    0  503  0.33263291518E+03  0.51086864758E+02 -0.33553792044E+03  0.50573631476E+03  0.17300000000E+03 0. -1.
<mgrwt>
<rscale>  2 0.37839599E+03</rscale>
<asrwt>0</asrwt>
<pdfrwt beam="1">  1       21 0.20290436E-01 0.37839599E+03</pdfrwt>
<pdfrwt beam="2">  1       21 0.18241417E+00 0.37839599E+03</pdfrwt>
<totfact> 0.34839311E+03</totfact>
</mgrwt>
</event>
<event>
 4    2  0.4086940E+000  0.1761224E+03  0.7546771E-02  0.1171609E+00
         21   -1    0    0  501  502  0.00000000000E+00  0.00000000000E+00  0.13556141094E+03  0.13556141094E+03  0.00000000000E+00 0. -1.
         21   -1    0    0  502  503 -0.00000000000E+00 -0.00000000000E+00 -0.25834387137E+03  0.25834387137E+03  0.00000000000E+00 0. -1.
          6    1    1    2  501    0  0.32046648370E+02 -0.79438771259E+01 -0.12797266260E+03  0.21770644278E+03  0.17300000000E+03 0. -1.
         -6    1    1    2    0  503 -0.32046648370E+02  0.79438771259E+01  0.51902021690E+01  0.17619883954E+03  0.17300000000E+03 0. -1.
<mgrwt>
<rscale>  2 0.17612238E+03</rscale>
<asrwt>0</asrwt>
<pdfrwt beam="1">  1       21 0.20855602E-01 0.17612238E+03</pdfrwt>
<pdfrwt beam="2">  1       21 0.39745211E-01 0.17612238E+03</pdfrwt>
<totfact> 0.13096644E+05</totfact>
</mgrwt>
</event>
<event>
 4    2  0.4086940E+000  0.2445903E+03  0.7546771E-02  0.1116772E+00
         21   -1    0    0  501  502  0.00000000000E+00  0.00000000000E+00  0.22967778814E+03  0.22967778814E+03  0.00000000000E+00 0.  1.
         21   -1    0    0  502  503 -0.00000000000E+00 -0.00000000000E+00 -0.34033566834E+03  0.34033566834E+03  0.00000000000E+00 0.  1.
          6    1    1    2  501    0  0.13993300011E+03 -0.10155863453E+03  0.82734520098E+02  0.25820418583E+03  0.17300000000E+03 0.  1.
         -6    1    1    2    0  503 -0.13993300011E+03  0.10155863453E+03 -0.19339240031E+03  0.31180927065E+03  0.17300000000E+03 0.  1.
<mgrwt>
<rscale>  2 0.24459027E+03</rscale>
<asrwt>0</asrwt>
<pdfrwt beam="1">  1       21 0.35335044E-01 0.24459027E+03</pdfrwt>
<pdfrwt beam="2">  1       21 0.52359333E-01 0.24459027E+03</pdfrwt>
<totfact> 0.26002519E+04</totfact>
</mgrwt>
</event>
<event>
 4    2  0.4086940E+000  0.2134742E+03  0.7546771E-02  0.1138844E+00
         21   -1    0    0  503  502  0.00000000000E+00  0.00000000000E+00  0.49134711186E+02  0.49134711186E+02  0.00000000000E+00 0. -1.
         21   -1    0    0  501  503 -0.00000000000E+00 -0.00000000000E+00 -0.95590101854E+03  0.95590101854E+03  0.00000000000E+00 0.  1.
          6    1    1    2  501    0 -0.12492802598E+03  0.59349394844E+01 -0.54003944907E+03  0.58070116388E+03  0.17300000000E+03 0.  1.
         -6    1    1    2    0  502  0.12492802598E+03 -0.59349394844E+01 -0.36672685828E+03  0.42433456584E+03  0.17300000000E+03 0. -1.
<mgrwt>
<rscale>  2 0.21347420E+03</rscale>
<asrwt>0</asrwt>
<pdfrwt beam="1">  1       21 0.75591870E-02 0.21347420E+03</pdfrwt>
<pdfrwt beam="2">  1       21 0.14706168E+00 0.21347420E+03</pdfrwt>
<totfact> 0.41194166E+04</totfact>
</mgrwt>
</event>
<event>
 4    2  0.4086940E+000  0.2072531E+03  0.7546771E-02  0.1143760E+00
         21   -1    0    0  501  502  0.00000000000E+00  0.00000000000E+00  0.24156318135E+03  0.24156318135E+03  0.00000000000E+00 0. -1.
         21   -1    0    0  502  503 -0.00000000000E+00 -0.00000000000E+00 -0.28006761574E+03  0.28006761574E+03  0.00000000000E+00 0.  1.
          6    1    1    2  501    0 -0.60552979422E+02 -0.96737603093E+02  0.13834067301E+03  0.24918260168E+03  0.17300000000E+03 0. -1.
         -6    1    1    2    0  503  0.60552979422E+02  0.96737603093E+02 -0.17684510741E+03  0.27244819541E+03  0.17300000000E+03 0.  1.
<mgrwt>
<rscale>  2 0.20725305E+03</rscale>
<asrwt>0</asrwt>
<pdfrwt beam="1">  1       21 0.37163566E-01 0.20725305E+03</pdfrwt>
<pdfrwt beam="2">  1       21 0.43087326E-01 0.20725305E+03</pdfrwt>
<totfact> 0.35891135E+04</totfact>
</mgrwt>
</event>
<event>
 4    2  0.4086940E+000  0.1968810E+03  0.7546771E-02  0.1152397E+00
         21   -1    0    0  501  502  0.00000000000E+00  0.00000000000E+00  0.15094870953E+03  0.15094870953E+03  0.00000000000E+00 0. -1.
         21   -1    0    0  502  503 -0.00000000000E+00 -0.00000000000E+00 -0.27013551166E+03  0.27013551166E+03  0.00000000000E+00 0.  1.
          6    1    1    2  501    0 -0.43406803145E+01  0.93884477546E+02 -0.12796848600E+02  0.19729646719E+03  0.17300000000E+03 0. -1.
         -6    1    1    2    0  503  0.43406803145E+01 -0.93884477546E+02 -0.10638995353E+03  0.22378775400E+03  0.17300000000E+03 0.  1.
<mgrwt>
<rscale>  2 0.19688102E+03</rscale>
<asrwt>0</asrwt>
<pdfrwt beam="1">  1       21 0.23222879E-01 0.19688102E+03</pdfrwt>
<pdfrwt beam="2">  1       21 0.41559309E-01 0.19688102E+03</pdfrwt>
<totfact> 0.96983090E+04</totfact>
</mgrwt>
</event>
<event>
 4    2  0.4086940E+000  0.1929062E+03  0.7546771E-02  0.1155866E+00
         21   -1    0    0  503  502  0.00000000000E+00  0.00000000000E+00  0.95671654150E+03  0.95671654150E+03  0.00000000000E+00 0.  1.
         21   -1    0    0  501  503 -0.00000000000E+00 -0.00000000000E+00 -0.65730766961E+02  0.65730766961E+02  0.00000000000E+00 0.  1.
          6    1    1    2  501    0  0.81017191443E+02  0.26833021648E+02  0.11885049607E+03  0.22657942708E+03  0.17300000000E+03 0.  1.
         -6    1    1    2    0  502 -0.81017191443E+02 -0.26833021648E+02  0.77213527847E+03  0.79586788138E+03  0.17300000000E+03 0.  1.
<mgrwt>
<rscale>  2 0.19290619E+03</rscale>
<asrwt>0</asrwt>
<pdfrwt beam="1">  1       21 0.14718715E+00 0.19290619E+03</pdfrwt>
<pdfrwt beam="2">  1       21 0.10112426E-01 0.19290619E+03</pdfrwt>
<totfact> 0.24988779E+04</totfact>
</mgrwt>
</event>
<event>
 4    2  0.4086940E+000  0.2023394E+03  0.7546771E-02  0.1147780E+00
         21   -1    0    0  503  502  0.00000000000E+00  0.00000000000E+00  0.18837588497E+03  0.18837588497E+03  0.00000000000E+00 0.  1.
         21   -1    0    0  501  503 -0.00000000000E+00 -0.00000000000E+00 -0.22834021562E+03  0.22834021562E+03  0.00000000000E+00 0.  1.
          6    1    1    2  501    0 -0.10157005821E+03 -0.26377314344E+02 -0.65718253457E+02  0.21274427906E+03  0.17300000000E+03 0.  1.
         -6    1    1    2    0  502  0.10157005821E+03  0.26377314344E+02  0.25753922808E+02  0.20397182152E+03  0.17300000000E+03 0.  1.
<mgrwt>
<rscale>  2 0.20233942E+03</rscale>
<asrwt>0</asrwt>
<pdfrwt beam="1">  1       21 0.28980905E-01 0.20233942E+03</pdfrwt>
<pdfrwt beam="2">  1       21 0.35129264E-01 0.20233942E+03</pdfrwt>
<totfact> 0.88675699E+04</totfact>
</mgrwt>
</event>
<event>
 4    2  0.4086940E+000  0.2453529E+03  0.7546771E-02  0.1116277E+00
         21   -1    0    0  503  502  0.00000000000E+00  0.00000000000E+00  0.10041044967E+04  0.10041044967E+04  0.00000000000E+00 0.  1.
         21   -1    0    0  501  503 -0.00000000000E+00 -0.00000000000E+00 -0.10247549394E+03  0.10247549394E+03  0.00000000000E+00 0. -1.
          6    1    1    2  501    0 -0.16941566019E+03  0.39590439988E+02  0.94398414557E+02  0.26288615317E+03  0.17300000000E+03 0. -1.
         -6    1    1    2    0  502  0.16941566019E+03 -0.39590439988E+02  0.80723058823E+03  0.84369383750E+03  0.17300000000E+03 0.  1.
<mgrwt>
<rscale>  2 0.24535295E+03</rscale>
<asrwt>0</asrwt>
<pdfrwt beam="1">  1       21 0.15447761E+00 0.24535295E+03</pdfrwt>
<pdfrwt beam="2">  1       21 0.15765461E-01 0.24535295E+03</pdfrwt>
<totfact> 0.95472284E+03</totfact>
</mgrwt>
</event>
<event>
 4    2  0.4086940E+000  0.1994967E+03  0.7546771E-02  0.1150164E+00
         21   -1    0    0  501  502  0.00000000000E+00  0.00000000000E+00  0.81698578320E+03  0.81698578320E+03  0.00000000000E+00 0.  1.
         21   -1    0    0  502  503 -0.00000000000E+00 -0.00000000000E+00 -0.58006143798E+02  0.58006143798E+02  0.00000000000E+00 0.  1.
          6    1    1    2  501    0 -0.97607211448E+02  0.18513997905E+02  0.55459004593E+03  0.58938022947E+03  0.17300000000E+03 0.  1.
         -6    1    1    2    0  503  0.97607211448E+02 -0.18513997905E+02  0.20438959347E+03  0.28561169752E+03  0.17300000000E+03 0.  1.
<mgrwt>
<rscale>  2 0.19949671E+03</rscale>
<asrwt>0</asrwt>
<pdfrwt beam="1">  1       21 0.12569011E+00 0.19949671E+03</pdfrwt>
<pdfrwt beam="2">  1       21 0.89240227E-02 0.19949671E+03</pdfrwt>
<totfact> 0.46473192E+04</totfact>
</mgrwt>
</event>
<event>
 4    2  0.4086940E+000  0.2431998E+03  0.7546771E-02  0.1117679E+00
         21   -1    0    0  501  502  0.00000000000E+00  0.00000000000E+00  0.74989592480E+03  0.74989592480E+03  0.00000000000E+00 0.  1.
         21   -1    0    0  502  503 -0.00000000000E+00 -0.00000000000E+00 -0.10881034656E+03  0.10881034656E+03  0.00000000000E+00 0.  1.
          6    1    1    2  501    0  0.14495038155E+03 -0.90589992850E+02  0.54575393659E+03  0.59748934653E+03  0.17300000000E+03 0.  1.
         -6    1    1    2    0  503 -0.14495038155E+03  0.90589992850E+02  0.95331641657E+02  0.26121692483E+03  0.17300000000E+03 0.  1.
<mgrwt>
<rscale>  2 0.24319984E+03</rscale>
<asrwt>0</asrwt>
<pdfrwt beam="1">  1       21 0.11536860E+00 0.24319984E+03</pdfrwt>
<pdfrwt beam="2">  1       21 0.16740054E-01 0.24319984E+03</pdfrwt>
<totfact> 0.18116045E+04</totfact>
</mgrwt>
</event>
<event>
 4    2  0.4086940E+000  0.1763662E+03  0.7546771E-02  0.1171367E+00
         21   -1    0    0  501  502  0.00000000000E+00  0.00000000000E+00  0.68903752505E+02  0.68903752505E+02  0.00000000000E+00 0.  1.
         21   -1    0    0  502  503 -0.00000000000E+00 -0.00000000000E+00 -0.12867700249E+04  0.12867700249E+04  0.00000000000E+00 0.  1.
          6    1    1    2  501    0 -0.29724557807E+02 -0.17102771646E+02 -0.62789336953E+02  0.18720992220E+03  0.17300000000E+03 0.  1.
         -6    1    1    2    0  503  0.29724557807E+02  0.17102771646E+02 -0.11550769355E+04  0.11684638552E+04  0.17300000000E+03 0.  1.
<mgrwt>
<rscale>  2 0.17636625E+03</rscale>
<asrwt>0</asrwt>
<pdfrwt beam="1">  1       21 0.10600577E-01 0.17636625E+03</pdfrwt>
<pdfrwt beam="2">  1       21 0.19796463E+00 0.17636625E+03</pdfrwt>
<totfact> 0.10270235E+04</totfact>
</mgrwt>
</event>
<event>
 4    2  0.4086940E+000  0.2832610E+03  0.7546771E-02  0.1093921E+00
         21   -1    0    0  501  502  0.00000000000E+00  0.00000000000E+00  0.22023226438E+03  0.22023226438E+03  0.00000000000E+00 0.  1.
         21   -1    0    0  502  503 -0.00000000000E+00 -0.00000000000E+00 -0.37788546988E+03  0.37788546988E+03  0.00000000000E+00 0. -1.
          6    1    1    2  501    0  0.21905840179E+03 -0.48179056082E+02 -0.22181269610E+02  0.28412816397E+03  0.17300000000E+03 0.  1.
         -6    1    1    2    0  503 -0.21905840179E+03  0.48179056082E+02 -0.13547193589E+03  0.31398957030E+03  0.17300000000E+03 0. -1.
<mgrwt>
<rscale>  2 0.28326102E+03</rscale>
<asrwt>0</asrwt>
<pdfrwt beam="1">  1       21 0.33881887E-01 0.28326102E+03</pdfrwt>
<pdfrwt beam="2">  1       21 0.58136225E-01 0.28326102E+03</pdfrwt>
<totfact> 0.22236983E+04</totfact>
</mgrwt>
</event>
<event>
 4    2  0.4086940E+000  0.1888710E+03  0.7546771E-02  0.1159484E+00
         21   -1    0    0  501  502  0.00000000000E+00  0.00000000000E+00  0.73403495041E+02  0.73403495041E+02  0.00000000000E+00 0.  1.
         21   -1    0    0  502  503 -0.00000000000E+00 -0.00000000000E+00 -0.80171580191E+03  0.80171580191E+03  0.00000000000E+00 0.  1.
          6    1    1    2  501    0  0.66951223277E+02 -0.35507538295E+02 -0.89561227134E+02  0.20902981840E+03  0.17300000000E+03 0.  1.
         -6    1    1    2    0  503 -0.66951223277E+02  0.35507538295E+02 -0.63875107974E+03  0.66608947855E+03  0.17300000000E+03 0.  1.
<mgrwt>
<rscale>  2 0.18887099E+03</rscale>
<asrwt>0</asrwt>
<pdfrwt beam="1">  1       21 0.11292844E-01 0.18887099E+03</pdfrwt>
<pdfrwt beam="2">  1       21 0.12334090E+00 0.18887099E+03</pdfrwt>
<totfact> 0.32328420E+04</totfact>
</mgrwt>
</event>
<event>
 4    2  0.4086940E+000  0.1929114E+03  0.7546771E-02  0.1155861E+00
         21   -1    0    0  501  502  0.00000000000E+00  0.00000000000E+00  0.17642249963E+03  0.17642249963E+03  0.00000000000E+00 0. -1.
         21   -1    0    0  502  503 -0.00000000000E+00 -0.00000000000E+00 -0.40958120863E+03  0.40958120863E+03  0.00000000000E+00 0. -1.
          6    1    1    2  501    0  0.84894126147E+02 -0.88772033505E+01  0.87469165658E+02  0.21181518438E+03  0.17300000000E+03 0. -1.
         -6    1    1    2    0  503 -0.84894126147E+02  0.88772033505E+01 -0.32062787466E+03  0.37418852388E+03  0.17300000000E+03 0. -1.
<mgrwt>
<rscale>  2 0.19291142E+03</rscale>
<asrwt>0</asrwt>
<pdfrwt beam="1">  1       21 0.27141923E-01 0.19291142E+03</pdfrwt>
<pdfrwt beam="2">  1       21 0.63012493E-01 0.19291142E+03</pdfrwt>
<totfact> 0.30162539E+04</totfact>
</mgrwt>
</event>
<event>
 4    2  0.4086940E+000  0.3001283E+03  0.7546771E-02  0.1085176E+00
         21   -1    0    0  503  502  0.00000000000E+00  0.00000000000E+00  0.22862700987E+03  0.22862700987E+03  0.00000000000E+00 0.  1.
         21   -1    0    0  501  503 -0.00000000000E+00 -0.00000000000E+00 -0.73196717348E+03  0.73196717348E+03  0.00000000000E+00 0.  1.
          6    1    1    2  501    0 -0.23990831028E+03  0.50911946996E+02 -0.57803771802E+03  0.65130993171E+03  0.17300000000E+03 0.  1.
         -6    1    1    2    0  502  0.23990831028E+03 -0.50911946996E+02  0.74697554408E+02  0.30928425165E+03  0.17300000000E+03 0.  1.
<mgrwt>
<rscale>  2 0.30012835E+03</rscale>
<asrwt>0</asrwt>
<pdfrwt beam="1">  1       21 0.35173387E-01 0.30012835E+03</pdfrwt>
<pdfrwt beam="2">  1       21 0.11261033E+00 0.30012835E+03</pdfrwt>
<totfact> 0.44781444E+03</totfact>
</mgrwt>
</event>
<event>
 4    2  0.4086940E+000  0.1830280E+03  0.7546771E-02  0.1164904E+00
         21   -1    0    0  501  502  0.00000000000E+00  0.00000000000E+00  0.12716064222E+04  0.12716064222E+04  0.00000000000E+00 0. -1.
         21   -1    0    0  502  503 -0.00000000000E+00 -0.00000000000E+00 -0.15529466157E+03  0.15529466157E+03  0.00000000000E+00 0. -1.
          6    1    1    2  501    0  0.21125379097E+02 -0.55892389729E+02  0.12082815909E+04  0.12220653189E+04  0.17300000000E+03 0. -1.
         -6    1    1    2    0  503 -0.21125379097E+02  0.55892389729E+02 -0.91969830264E+02  0.20483576482E+03  0.17300000000E+03 0. -1.
<mgrwt>
<rscale>  2 0.18302798E+03</rscale>
<asrwt>0</asrwt>
<pdfrwt beam="1">  1       21 0.19563175E+00 0.18302798E+03</pdfrwt>
<pdfrwt beam="2">  1       21 0.23891487E-01 0.18302798E+03</pdfrwt>
<totfact> 0.23896463E+03</totfact>
</mgrwt>
</event>
<event>
 4    2  0.4086940E+000  0.2150647E+03  0.7546771E-02  0.1137617E+00
         21   -1    0    0  501  502  0.00000000000E+00  0.00000000000E+00  0.35861867990E+03  0.35861867990E+03  0.00000000000E+00 0. -1.
         21   -1    0    0  502  503 -0.00000000000E+00 -0.00000000000E+00 -0.15984874863E+03  0.15984874863E+03  0.00000000000E+00 0. -1.
          6    1    1    2  501    0 -0.12193890229E+03  0.38141081047E+02 -0.14543347528E+02  0.21555590206E+03  0.17300000000E+03 0. -1.
         -6    1    1    2    0  503  0.12193890229E+03 -0.38141081047E+02  0.21331327879E+03  0.30291152647E+03  0.17300000000E+03 0. -1.
<mgrwt>
<rscale>  2 0.21506473E+03</rscale>
<asrwt>0</asrwt>
<pdfrwt beam="1">  1       21 0.55172105E-01 0.21506473E+03</pdfrwt>
<pdfrwt beam="2">  1       21 0.24592115E-01 0.21506473E+03</pdfrwt>
<totfact> 0.47906163E+04</totfact>
</mgrwt>
</event>
<event>
 4    2  0.4086940E+000  0.3697128E+03  0.7546771E-02  0.1054803E+00
         21   -1    0    0  503  502  0.00000000000E+00  0.00000000000E+00  0.22916742142E+03  0.22916742142E+03  0.00000000000E+00 0. -1.
         21   -1    0    0  501  503 -0.00000000000E+00 -0.00000000000E+00 -0.78570412861E+03  0.78570412861E+03  0.00000000000E+00 0. -1.
          6    1    1    2  501    0  0.24223956794E+03 -0.21926827678E+03 -0.52730935647E+03  0.64400523515E+03  0.17300000000E+03 0. -1.
         -6    1    1    2    0  502 -0.24223956794E+03  0.21926827678E+03 -0.29227350718E+02  0.37086631488E+03  0.17300000000E+03 0. -1.
<mgrwt>
<rscale>  2 0.36971284E+03</rscale>
<asrwt>0</asrwt>
<pdfrwt beam="1">  1       21 0.35256527E-01 0.36971284E+03</pdfrwt>
<pdfrwt beam="2">  1       21 0.12087756E+00 0.36971284E+03</pdfrwt>
<totfact> 0.36120999E+03</totfact>
</mgrwt>
</event>
<event>
 4    2  0.4086940E+000  0.1885352E+03  0.7546771E-02  0.1159789E+00
         21   -1    0    0  501  502  0.00000000000E+00  0.00000000000E+00  0.11390989203E+03  0.11390989203E+03  0.00000000000E+00 0.  1.
         21   -1    0    0  502  503 -0.00000000000E+00 -0.00000000000E+00 -0.57216703418E+03  0.57216703418E+03  0.00000000000E+00 0.  1.
          6    1    1    2  501    0 -0.44154177649E+01 -0.74813246712E+02  0.21664413231E+01  0.18854763660E+03  0.17300000000E+03 0.  1.
         -6    1    1    2    0  503  0.44154177649E+01  0.74813246712E+02 -0.46042358348E+03  0.49752928961E+03  0.17300000000E+03 0.  1.
<mgrwt>
<rscale>  2 0.18853519E+03</rscale>
<asrwt>0</asrwt>
<pdfrwt beam="1">  1       21 0.17524598E-01 0.18853519E+03</pdfrwt>
<pdfrwt beam="2">  1       21 0.88025699E-01 0.18853519E+03</pdfrwt>
<totfact> 0.32692228E+04</totfact>
</mgrwt>
</event>
<event>
 4    2  0.4086940E+000  0.1933307E+03  0.7546771E-02  0.1155491E+00
         21   -1    0    0  501  502  0.00000000000E+00  0.00000000000E+00  0.12957047014E+03  0.12957047014E+03  0.00000000000E+00 0. -1.
         21   -1    0    0  502  503 -0.00000000000E+00 -0.00000000000E+00 -0.62558000042E+03  0.62558000042E+03  0.00000000000E+00 0.  1.
          6    1    1    2  501    0  0.70560424017E+02 -0.49688846320E+02  0.29167692309E+02  0.19551856475E+03  0.17300000000E+03 0. -1.
         -6    1    1    2    0  503 -0.70560424017E+02  0.49688846320E+02 -0.52517722259E+03  0.55963190582E+03  0.17300000000E+03 0. -1.
<mgrwt>
<rscale>  2 0.19333069E+03</rscale>
<asrwt>0</asrwt>
<pdfrwt beam="1">  1       21 0.19933918E-01 0.19333069E+03</pdfrwt>
<pdfrwt beam="2">  1       21 0.96243078E-01 0.19333069E+03</pdfrwt>
<totfact> 0.20862361E+04</totfact>
</mgrwt>
</event>
<event>
 4    2  0.4086940E+000  0.2044191E+03  0.7546771E-02  0.1146063E+00
         21   -1    0    0  503  502  0.00000000000E+00  0.00000000000E+00  0.12355842007E+04  0.12355842007E+04  0.00000000000E+00 0. -1.
         21   -1    0    0  501  503 -0.00000000000E+00 -0.00000000000E+00 -0.42421085570E+02  0.42421085570E+02  0.00000000000E+00 0. -1.
          6    1    1    2  501    0 -0.10870162814E+03 -0.64907569958E+01  0.30884556010E+03  0.37036840292E+03  0.17300000000E+03 0. -1.
         -6    1    1    2    0  502  0.10870162814E+03  0.64907569958E+01  0.88431755505E+03  0.90763688337E+03  0.17300000000E+03 0. -1.
<mgrwt>
<rscale>  2 0.20441911E+03</rscale>
<asrwt>0</asrwt>
<pdfrwt beam="1">  1       21 0.19008985E+00 0.20441911E+03</pdfrwt>
<pdfrwt beam="2">  1       21 0.65263218E-02 0.20441911E+03</pdfrwt>
<totfact> 0.26365723E+04</totfact>
</mgrwt>
</event>
<event>
 4    2  0.4086940E+000  0.2095923E+03  0.7546771E-02  0.1141889E+00
         21   -1    0    0  501  502  0.00000000000E+00  0.00000000000E+00  0.71283634074E+03  0.71283634074E+03  0.00000000000E+00 0. -1.
         21   -1    0    0  502  503 -0.00000000000E+00 -0.00000000000E+00 -0.17436157529E+03  0.17436157529E+03  0.00000000000E+00 0.  1.
          6    1    1    2  501    0  0.10417777592E+03  0.56097275817E+02  0.62593198222E+03  0.66009072082E+03  0.17300000000E+03 0. -1.
         -6    1    1    2    0  503 -0.10417777592E+03 -0.56097275817E+02 -0.87457216767E+02  0.22710719521E+03  0.17300000000E+03 0.  1.
<mgrwt>
<rscale>  2 0.20959225E+03</rscale>
<asrwt>0</asrwt>
<pdfrwt beam="1">  1       21 0.10966713E+00 0.20959225E+03</pdfrwt>
<pdfrwt beam="2">  1       21 0.26824858E-01 0.20959225E+03</pdfrwt>
<totfact> 0.86009022E+03</totfact>
</mgrwt>
</event>
<event>
 4    2  0.4086940E+000  0.1972333E+03  0.7546771E-02  0.1152094E+00
         21   -1    0    0  501  502  0.00000000000E+00  0.00000000000E+00  0.71085678410E+03  0.71085678410E+03  0.00000000000E+00 0. -1.
         21   -1    0    0  502  503 -0.00000000000E+00 -0.00000000000E+00 -0.96945059122E+02  0.96945059122E+02  0.00000000000E+00 0. -1.
          6    1    1    2  501    0 -0.70882837579E+02  0.62829961635E+02  0.57350432058E+03  0.60647191730E+03  0.17300000000E+03 0. -1.
         -6    1    1    2    0  503  0.70882837579E+02 -0.62829961635E+02  0.40407404391E+02  0.20132992592E+03  0.17300000000E+03 0. -1.
<mgrwt>
<rscale>  2 0.19723332E+03</rscale>
<asrwt>0</asrwt>
<pdfrwt beam="1">  1       21 0.10936258E+00 0.19723332E+03</pdfrwt>
<pdfrwt beam="2">  1       21 0.14914625E-01 0.19723332E+03</pdfrwt>
<totfact> 0.26182702E+04</totfact>
</mgrwt>
</event>
<event>
 4    2  0.4086940E+000  0.1997238E+03  0.7546771E-02  0.1149972E+00
         21   -1    0    0  503  502  0.00000000000E+00  0.00000000000E+00  0.19527368348E+02  0.19527368348E+02  0.00000000000E+00 0.  1.
         21   -1    0    0  501  503 -0.00000000000E+00 -0.00000000000E+00 -0.26927147322E+04  0.26927147322E+04  0.00000000000E+00 0.  1.
          6    1    1    2  501    0  0.32806256773E+02  0.94256778675E+02 -0.67032842264E+03  0.69944963007E+03  0.17300000000E+03 0.  1.
         -6    1    1    2    0  502 -0.32806256773E+02 -0.94256778675E+02 -0.20028589412E+04  0.20127924705E+04  0.17300000000E+03 0.  1.
<mgrwt>
<rscale>  2 0.19972379E+03</rscale>
<asrwt>0</asrwt>
<pdfrwt beam="1">  1       21 0.30042109E-02 0.19972379E+03</pdfrwt>
<pdfrwt beam="2">  1       21 0.41426375E+00 0.19972379E+03</pdfrwt>
<totfact> 0.44325422E+03</totfact>
</mgrwt>
</event>
<event>
 4    2  0.4086940E+000  0.1889721E+03  0.7546771E-02  0.1159392E+00
         21   -1    0    0  503  502  0.00000000000E+00  0.00000000000E+00  0.86789703958E+03  0.86789703958E+03  0.00000000000E+00 0.  1.
         21   -1    0    0  501  503 -0.00000000000E+00 -0.00000000000E+00 -0.79592055257E+02  0.79592055257E+02  0.00000000000E+00 0. -1.
          6    1    1    2  501    0  0.58834701710E+02  0.48165844437E+02  0.64895206459E+02  0.19980455079E+03  0.17300000000E+03 0. -1.
         -6    1    1    2    0  502 -0.58834701710E+02 -0.48165844437E+02  0.72340977787E+03  0.74768454405E+03  0.17300000000E+03 0.  1.
<mgrwt>
<rscale>  2 0.18897214E+03</rscale>
<asrwt>0</asrwt>
<pdfrwt beam="1">  1       21 0.13352261E+00 0.18897214E+03</pdfrwt>
<pdfrwt beam="2">  1       21 0.12244932E-01 0.18897214E+03</pdfrwt>
<totfact> 0.22917163E+04</totfact>
</mgrwt>
</event>
<event>
 4    2  0.4086940E+000  0.1884994E+03  0.7546771E-02  0.1159822E+00
         21   -1    0    0  503  502  0.00000000000E+00  0.00000000000E+00  0.10643053071E+03  0.10643053071E+03  0.00000000000E+00 0. -1.
         21   -1    0    0  501  503 -0.00000000000E+00 -0.00000000000E+00 -0.96357293666E+03  0.96357293666E+03  0.00000000000E+00 0. -1.
          6    1    1    2  501    0  0.71564530670E+02 -0.21944174369E+02 -0.86107210044E+03  0.88146309679E+03  0.17300000000E+03 0. -1.
         -6    1    1    2    0  502 -0.71564530670E+02  0.21944174369E+02  0.39296944927E+01  0.18854037058E+03  0.17300000000E+03 0. -1.
<mgrwt>
<rscale>  2 0.18849941E+03</rscale>
<asrwt>0</asrwt>
<pdfrwt beam="1">  1       21 0.16373927E-01 0.18849941E+03</pdfrwt>
<pdfrwt beam="2">  1       21 0.14824200E+00 0.18849941E+03</pdfrwt>
<totfact> 0.10336854E+04</totfact>
</mgrwt>
</event>
<event>
 4    2  0.4086940E+000  0.1869901E+03  0.7546771E-02  0.1161204E+00
         21   -1    0    0  503  502  0.00000000000E+00  0.00000000000E+00  0.15724533364E+03  0.15724533364E+03  0.00000000000E+00 0. -1.
         21   -1    0    0  501  503 -0.00000000000E+00 -0.00000000000E+00 -0.23155959092E+03  0.23155959092E+03  0.00000000000E+00 0. -1.
          6    1    1    2  501    0  0.46044910906E+02 -0.54001655672E+02 -0.75902387444E+02  0.20180804012E+03  0.17300000000E+03 0. -1.
         -6    1    1    2    0  502 -0.46044910906E+02  0.54001655672E+02  0.15881301691E+01  0.18699688445E+03  0.17300000000E+03 0. -1.
<mgrwt>
<rscale>  2 0.18699014E+03</rscale>
<asrwt>0</asrwt>
<pdfrwt beam="1">  1       21 0.24191590E-01 0.18699014E+03</pdfrwt>
<pdfrwt beam="2">  1       21 0.35624552E-01 0.18699014E+03</pdfrwt>
<totfact> 0.12276109E+05</totfact>
</mgrwt>
</event>
<event>
 4    2  0.4086940E+000  0.1782822E+03  0.7546771E-02  0.1169476E+00
         21   -1    0    0  501  502  0.00000000000E+00  0.00000000000E+00  0.33894101810E+03  0.33894101810E+03  0.00000000000E+00 0.  1.
         21   -1    0    0  502  503 -0.00000000000E+00 -0.00000000000E+00 -0.19885145149E+03  0.19885145149E+03  0.00000000000E+00 0.  1.
          6    1    1    2  501    0 -0.22944225166E+02  0.36457020320E+02  0.26551061674E+03  0.31981313200E+03  0.17300000000E+03 0.  1.
         -6    1    1    2    0  503  0.22944225166E+02 -0.36457020320E+02 -0.12542105013E+03  0.21797933759E+03  0.17300000000E+03 0.  1.
<mgrwt>
<rscale>  2 0.17828223E+03</rscale>
<asrwt>0</asrwt>
<pdfrwt beam="1">  1       21 0.52144772E-01 0.17828223E+03</pdfrwt>
<pdfrwt beam="2">  1       21 0.30592531E-01 0.17828223E+03</pdfrwt>
<totfact> 0.36064440E+04</totfact>
</mgrwt>
</event>
<event>
 4    2  0.4086940E+000  0.1798498E+03  0.7546771E-02  0.1167948E+00
         21   -1    0    0  501  502  0.00000000000E+00  0.00000000000E+00  0.73142569720E+03  0.73142569720E+03  0.00000000000E+00 0.  1.
         21   -1    0    0  502  503 -0.00000000000E+00 -0.00000000000E+00 -0.21582884130E+03  0.21582884130E+03  0.00000000000E+00 0.  1.
          6    1    1    2  501    0 -0.26791165514E+02  0.41221225347E+02  0.68012439951E+03  0.70350206452E+03  0.17300000000E+03 0.  1.
         -6    1    1    2    0  503  0.26791165514E+02 -0.41221225347E+02 -0.16452754361E+03  0.24375247398E+03  0.17300000000E+03 0.  1.
<mgrwt>
<rscale>  2 0.17984982E+03</rscale>
<asrwt>0</asrwt>
<pdfrwt beam="1">  1       21 0.11252703E+00 0.17984982E+03</pdfrwt>
<pdfrwt beam="2">  1       21 0.33204438E-01 0.17984982E+03</pdfrwt>
<totfact> 0.54542306E+03</totfact>
</mgrwt>
</event>
<event>
 4    2  0.4086940E+000  0.1826803E+03  0.7546771E-02  0.1165234E+00
         21   -1    0    0  501  502  0.00000000000E+00  0.00000000000E+00  0.13404091832E+04  0.13404091832E+04  0.00000000000E+00 0. -1.
         21   -1    0    0  502  503 -0.00000000000E+00 -0.00000000000E+00 -0.40186867579E+02  0.40186867579E+02  0.00000000000E+00 0. -1.
          6    1    1    2  501    0 -0.20903011029E+02  0.54828528336E+02  0.10759027621E+04  0.10913014510E+04  0.17300000000E+03 0. -1.
         -6    1    1    2    0  503  0.20903011029E+02 -0.54828528336E+02  0.22431955353E+03  0.28929459982E+03  0.17300000000E+03 0. -1.
<mgrwt>
<rscale>  2 0.18268033E+03</rscale>
<asrwt>0</asrwt>
<pdfrwt beam="1">  1       21 0.20621676E+00 0.18268033E+03</pdfrwt>
<pdfrwt beam="2">  1       21 0.61825960E-02 0.18268033E+03</pdfrwt>
<totfact> 0.23134532E+04</totfact>
</mgrwt>
</event>
<event>
 4    2  0.4086940E+000  0.2528124E+03  0.7546771E-02  0.1111540E+00
         21   -1    0    0  501  502  0.00000000000E+00  0.00000000000E+00  0.28720610857E+03  0.28720610857E+03  0.00000000000E+00 0. -1.
         21   -1    0    0  502  503 -0.00000000000E+00 -0.00000000000E+00 -0.24554201883E+03  0.24554201883E+03  0.00000000000E+00 0. -1.
          6    1    1    2  501    0  0.57836593820E+02 -0.17504302024E+03  0.10236544706E+03  0.27275046338E+03  0.17300000000E+03 0. -1.
         -6    1    1    2    0  503 -0.57836593820E+02  0.17504302024E+03 -0.60701357320E+02  0.25999766403E+03  0.17300000000E+03 0. -1.
<mgrwt>
<rscale>  2 0.25281244E+03</rscale>
<asrwt>0</asrwt>
<pdfrwt beam="1">  1       21 0.44185555E-01 0.25281244E+03</pdfrwt>
<pdfrwt beam="2">  1       21 0.37775695E-01 0.25281244E+03</pdfrwt>
<totfact> 0.32284452E+04</totfact>
</mgrwt>
</event>
<event>
 4    2  0.4086940E+000  0.2055404E+03  0.7546771E-02  0.1145147E+00
         21   -1    0    0  503  502  0.00000000000E+00  0.00000000000E+00  0.86310991120E+03  0.86310991120E+03  0.00000000000E+00 0.  1.
         21   -1    0    0  501  503 -0.00000000000E+00 -0.00000000000E+00 -0.51668620960E+02  0.51668620960E+02  0.00000000000E+00 0.  1.
          6    1    1    2  501    0  0.36141311719E+02 -0.10493639351E+03  0.30075000640E+03  0.36427655352E+03  0.17300000000E+03 0.  1.
         -6    1    1    2    0  502 -0.36141311719E+02  0.10493639351E+03  0.51069128384E+03  0.55050197864E+03  0.17300000000E+03 0.  1.
<mgrwt>
<rscale>  2 0.20554036E+03</rscale>
<asrwt>0</asrwt>
<pdfrwt beam="1">  1       21 0.13278613E+00 0.20554036E+03</pdfrwt>
<pdfrwt beam="2">  1       21 0.79490192E-02 0.20554036E+03</pdfrwt>
<totfact> 0.49364682E+04</totfact>
</mgrwt>
</event>
<event>
 4    2  0.4086940E+000  0.1944224E+03  0.7546771E-02  0.1154532E+00
         21   -1    0    0  501  502  0.00000000000E+00  0.00000000000E+00  0.44640317244E+03  0.44640317244E+03  0.00000000000E+00 0. -1.
         21   -1    0    0  502  503 -0.00000000000E+00 -0.00000000000E+00 -0.89771954839E+02  0.89771954839E+02  0.00000000000E+00 0. -1.
          6    1    1    2  501    0  0.68758276693E+01  0.88452135296E+02  0.11444827221E+03  0.22560687989E+03  0.17300000000E+03 0. -1.
         -6    1    1    2    0  503 -0.68758276693E+01 -0.88452135296E+02  0.24218294540E+03  0.31056824739E+03  0.17300000000E+03 0. -1.
<mgrwt>
<rscale>  2 0.19442237E+03</rscale>
<asrwt>0</asrwt>
<pdfrwt beam="1">  1       21 0.68677409E-01 0.19442237E+03</pdfrwt>
<pdfrwt beam="2">  1       21 0.13811070E-01 0.19442237E+03</pdfrwt>
<totfact> 0.87998264E+04</totfact>
</mgrwt>
</event>
<event>
 4    2  0.4086940E+000  0.2986158E+03  0.7546771E-02  0.1085935E+00
         21   -1    0    0  501  502  0.00000000000E+00  0.00000000000E+00  0.32382437416E+03  0.32382437416E+03  0.00000000000E+00 0. -1.
         21   -1    0    0  502  503 -0.00000000000E+00 -0.00000000000E+00 -0.54288086454E+03  0.54288086454E+03  0.00000000000E+00 0.  1.
          6    1    1    2  501    0 -0.14065241169E+03 -0.19864366088E+03  0.19467241671E+03  0.35646704581E+03  0.17300000000E+03 0. -1.
         -6    1    1    2    0  503  0.14065241169E+03  0.19864366088E+03 -0.41372890709E+03  0.51023819288E+03  0.17300000000E+03 0.  1.
<mgrwt>
<rscale>  2 0.29861581E+03</rscale>
<asrwt>0</asrwt>
<pdfrwt beam="1">  1       21 0.49819134E-01 0.29861581E+03</pdfrwt>
<pdfrwt beam="2">  1       21 0.83520133E-01 0.29861581E+03</pdfrwt>
<totfact> 0.44704749E+03</totfact>
</mgrwt>
</event>
<event>
 4    2  0.4086940E+000  0.2808966E+03  0.7546771E-02  0.1095200E+00
         21   -1    0    0  503  502  0.00000000000E+00  0.00000000000E+00  0.11958352824E+03  0.11958352824E+03  0.00000000000E+00 0.  1.
         21   -1    0    0  501  503 -0.00000000000E+00 -0.00000000000E+00 -0.78554209367E+03  0.78554209367E+03  0.00000000000E+00 0.  1.
          6    1    1    2  501    0 -0.22167803673E+02 -0.22018743287E+03 -0.51403400216E+03  0.58577629901E+03  0.17300000000E+03 0.  1.
         -6    1    1    2    0  502  0.22167803673E+02  0.22018743287E+03 -0.15192456327E+03  0.31934932290E+03  0.17300000000E+03 0.  1.
<mgrwt>
<rscale>  2 0.28089663E+03</rscale>
<asrwt>0</asrwt>
<pdfrwt beam="1">  1       21 0.18397467E-01 0.28089663E+03</pdfrwt>
<pdfrwt beam="2">  1       21 0.12085262E+00 0.28089663E+03</pdfrwt>
<totfact> 0.13287420E+04</totfact>
</mgrwt>
</event>
<event>
 4    2  0.4086940E+000  0.2087318E+03  0.7546771E-02  0.1142574E+00
         21   -1    0    0  501  502  0.00000000000E+00  0.00000000000E+00  0.15025310054E+03  0.15025310054E+03  0.00000000000E+00 0.  1.
         21   -1    0    0  502  503 -0.00000000000E+00 -0.00000000000E+00 -0.29210171339E+03  0.29210171339E+03  0.00000000000E+00 0.  1.
          6    1    1    2  501    0  0.26422976451E+02  0.11376193712E+03 -0.89817141074E+02  0.22723571650E+03  0.17300000000E+03 0.  1.
         -6    1    1    2    0  503 -0.26422976451E+02 -0.11376193712E+03 -0.52031471775E+02  0.21511909742E+03  0.17300000000E+03 0.  1.
<mgrwt>
<rscale>  2 0.20873177E+03</rscale>
<asrwt>0</asrwt>
<pdfrwt beam="1">  1       21 0.23115862E-01 0.20873177E+03</pdfrwt>
<pdfrwt beam="2">  1       21 0.44938725E-01 0.20873177E+03</pdfrwt>
<totfact> 0.82973456E+04</totfact>
</mgrwt>
</event>
<event>
 4    2  0.4086940E+000  0.1914222E+03  0.7546771E-02  0.1157185E+00
         21   -1    0    0  501  502  0.00000000000E+00  0.00000000000E+00  0.49884282490E+02  0.49884282490E+02  0.00000000000E+00 0. -1.
         21   -1    0    0  502  503 -0.00000000000E+00 -0.00000000000E+00 -0.13111927043E+04  0.13111927043E+04  0.00000000000E+00 0. -1.
          6    1    1    2  501    0  0.74727874138E+02  0.33603553482E+02 -0.17934605788E+03  0.26231176576E+03  0.17300000000E+03 0. -1.
         -6    1    1    2    0  503 -0.74727874138E+02 -0.33603553482E+02 -0.10819623639E+04  0.10987652210E+04  0.17300000000E+03 0. -1.
<mgrwt>
<rscale>  2 0.19142219E+03</rscale>
<asrwt>0</asrwt>
<pdfrwt beam="1">  1       21 0.76745051E-02 0.19142219E+03</pdfrwt>
<pdfrwt beam="2">  1       21 0.20172195E+00 0.19142219E+03</pdfrwt>
<totfact> 0.16901559E+04</totfact>
</mgrwt>
</event>
<event>
 4    2  0.4086940E+000  0.1805092E+03  0.7546771E-02  0.1167311E+00
         21   -1    0    0  501  502  0.00000000000E+00  0.00000000000E+00  0.10452802194E+03  0.10452802194E+03  0.00000000000E+00 0.  1.
         21   -1    0    0  502  503 -0.00000000000E+00 -0.00000000000E+00 -0.34951986828E+03  0.34951986828E+03  0.00000000000E+00 0.  1.
          6    1    1    2  501    0  0.45949913262E+02 -0.23305957265E+02 -0.47837969058E+02  0.18674055118E+03  0.17300000000E+03 0. -1.
         -6    1    1    2    0  503 -0.45949913262E+02  0.23305957265E+02 -0.19715387728E+03  0.26730733903E+03  0.17300000000E+03 0. -1.
<mgrwt>
<rscale>  2 0.18050917E+03</rscale>
<asrwt>0</asrwt>
<pdfrwt beam="1">  1       21 0.16081234E-01 0.18050917E+03</pdfrwt>
<pdfrwt beam="2">  1       21 0.53772287E-01 0.18050917E+03</pdfrwt>
<totfact> 0.11351781E+05</totfact>
</mgrwt>
</event>
<event>
 4    2  0.4086940E+000  0.2453310E+03  0.7546771E-02  0.1116292E+00
         21   -1    0    0  503  502  0.00000000000E+00  0.00000000000E+00  0.83160070686E+03  0.83160070686E+03  0.00000000000E+00 0.  1.
         21   -1    0    0  501  503 -0.00000000000E+00 -0.00000000000E+00 -0.72983956921E+02  0.72983956921E+02  0.00000000000E+00 0. -1.
          6    1    1    2  501    0  0.11709626617E+03 -0.12863419325E+03  0.42061476990E+03  0.48693333823E+03  0.17300000000E+03 0.  1.
         -6    1    1    2    0  502 -0.11709626617E+03  0.12863419325E+03  0.33800198005E+03  0.41765132555E+03  0.17300000000E+03 0. -1.
<mgrwt>
<rscale>  2 0.24533098E+03</rscale>
<asrwt>0</asrwt>
<pdfrwt beam="1">  1       21 0.12793856E+00 0.24533098E+03</pdfrwt>
<pdfrwt beam="2">  1       21 0.11228302E-01 0.24533098E+03</pdfrwt>
<totfact> 0.28878452E+04</totfact>
</mgrwt>
</event>
<event>
 4    2  0.4086940E+000  0.1993383E+03  0.7546771E-02  0.1150299E+00
         21   -1    0    0  501  502  0.00000000000E+00  0.00000000000E+00  0.30974136088E+03  0.30974136088E+03  0.00000000000E+00 0. -1.
         21   -1    0    0  502  503 -0.00000000000E+00 -0.00000000000E+00 -0.13230920413E+03  0.13230920413E+03  0.00000000000E+00 0. -1.
          6    1    1    2  501    0  0.94550947620E+02  0.29442658323E+02  0.12725376375E+03  0.23649370438E+03  0.17300000000E+03 0. -1.
         -6    1    1    2    0  503 -0.94550947620E+02 -0.29442658323E+02  0.50178393000E+02  0.20555686062E+03  0.17300000000E+03 0. -1.
<mgrwt>
<rscale>  2 0.19933828E+03</rscale>
<asrwt>0</asrwt>
<pdfrwt beam="1">  1       21 0.47652517E-01 0.19933828E+03</pdfrwt>
<pdfrwt beam="2">  1       21 0.20355262E-01 0.19933828E+03</pdfrwt>
<totfact> 0.93792711E+04</totfact>
</mgrwt>
</event>
<event>
 4    2  0.4086940E+000  0.2193478E+03  0.7546771E-02  0.1134370E+00
         21   -1    0    0  503  502  0.00000000000E+00  0.00000000000E+00  0.91093812888E+03  0.91093812888E+03  0.00000000000E+00 0.  1.
         21   -1    0    0  501  503 -0.00000000000E+00 -0.00000000000E+00 -0.64608884634E+02  0.64608884634E+02  0.00000000000E+00 0.  1.
          6    1    1    2  501    0  0.11262037944E+03  0.74169395559E+02  0.21478511559E+03  0.30699526866E+03  0.17300000000E+03 0.  1.
         -6    1    1    2    0  502 -0.11262037944E+03 -0.74169395559E+02  0.63154412866E+03  0.66855174485E+03  0.17300000000E+03 0.  1.
<mgrwt>
<rscale>  2 0.21934778E+03</rscale>
<asrwt>0</asrwt>
<pdfrwt beam="1">  1       21 0.14014432E+00 0.21934778E+03</pdfrwt>
<pdfrwt beam="2">  1       21 0.99398291E-02 0.21934778E+03</pdfrwt>
<totfact> 0.28803815E+04</totfact>
</mgrwt>
</event>
<event>
 4    2  0.4086940E+000  0.1782182E+03  0.7546771E-02  0.1169539E+00
         21   -1    0    0  501  502  0.00000000000E+00  0.00000000000E+00  0.13962202747E+04  0.13962202747E+04  0.00000000000E+00 0.  1.
         21   -1    0    0  502  503 -0.00000000000E+00 -0.00000000000E+00 -0.22748531563E+02  0.22748531563E+02  0.00000000000E+00 0.  1.
          6    1    1    2  501    0  0.34316236957E+02 -0.25595073010E+02  0.68872279589E+03  0.71140761976E+03  0.17300000000E+03 0. -1.
         -6    1    1    2    0  503 -0.34316236957E+02  0.25595073010E+02  0.68474894723E+03  0.70756118648E+03  0.17300000000E+03 0. -1.
<mgrwt>
<rscale>  2 0.17821816E+03</rscale>
<asrwt>0</asrwt>
<pdfrwt beam="1">  1       21 0.21480305E+00 0.17821816E+03</pdfrwt>
<pdfrwt beam="2">  1       21 0.34997752E-02 0.17821816E+03</pdfrwt>
<totfact> 0.53587707E+04</totfact>
</mgrwt>
</event>
<event>
 4    2  0.4086940E+000  0.1745088E+03  0.7546771E-02  0.1173226E+00
         21   -1    0    0  503  502  0.00000000000E+00  0.00000000000E+00  0.96931238358E+02  0.96931238358E+02  0.00000000000E+00 0. -1.
         21   -1    0    0  501  503 -0.00000000000E+00 -0.00000000000E+00 -0.32090839781E+03  0.32090839781E+03  0.00000000000E+00 0. -1.
          6    1    1    2  501    0  0.18897896845E+02  0.12930360312E+02 -0.14225227118E+03  0.22514225143E+03  0.17300000000E+03 0.  1.
         -6    1    1    2    0  502 -0.18897896845E+02 -0.12930360312E+02 -0.81724888277E+02  0.19269738474E+03  0.17300000000E+03 0.  1.
<mgrwt>
<rscale>  2 0.17450881E+03</rscale>
<asrwt>0</asrwt>
<pdfrwt beam="1">  1       21 0.14912498E-01 0.17450881E+03</pdfrwt>
<pdfrwt beam="2">  1       21 0.49370523E-01 0.17450881E+03</pdfrwt>
<totfact> 0.15603073E+05</totfact>
</mgrwt>
</event>
<event>
 4    2  0.4086940E+000  0.2044592E+03  0.7546771E-02  0.1146030E+00
         21   -1    0    0  501  502  0.00000000000E+00  0.00000000000E+00  0.52743443255E+03  0.52743443255E+03  0.00000000000E+00 0.  1.
         21   -1    0    0  502  503 -0.00000000000E+00 -0.00000000000E+00 -0.79263289554E+02  0.79263289554E+02  0.00000000000E+00 0. -1.
          6    1    1    2  501    0 -0.66572557980E+02 -0.86270832728E+02  0.22648980741E+03  0.30512488413E+03  0.17300000000E+03 0. -1.
         -6    1    1    2    0  503  0.66572557980E+02  0.86270832728E+02  0.22168133558E+03  0.30157283797E+03  0.17300000000E+03 0. -1.
<mgrwt>
<rscale>  2 0.20445919E+03</rscale>
<asrwt>0</asrwt>
<pdfrwt beam="1">  1       21 0.81143757E-01 0.20445919E+03</pdfrwt>
<pdfrwt beam="2">  1       21 0.12194353E-01 0.20445919E+03</pdfrwt>
<totfact> 0.75537307E+04</totfact>
</mgrwt>
</event>
<event>
 4    2  0.4086940E+000  0.2090366E+03  0.7546771E-02  0.1142331E+00
         21   -1    0    0  503  502  0.00000000000E+00  0.00000000000E+00  0.34062166562E+02  0.34062166562E+02  0.00000000000E+00 0. -1.
         21   -1    0    0  501  503 -0.00000000000E+00 -0.00000000000E+00 -0.14622317410E+04  0.14622317410E+04  0.00000000000E+00 0.  1.
          6    1    1    2  501    0  0.98572892958E+02  0.63645026593E+02 -0.97613240296E+03  0.99826387931E+03  0.17300000000E+03 0.  1.
         -6    1    1    2    0  502 -0.98572892958E+02 -0.63645026593E+02 -0.45203717145E+03  0.49803002822E+03  0.17300000000E+03 0.  1.
<mgrwt>
<rscale>  2 0.20903661E+03</rscale>
<asrwt>0</asrwt>
<pdfrwt beam="1">  1       21 0.52403325E-02 0.20903661E+03</pdfrwt>
<pdfrwt beam="2">  1       21 0.22495876E+00 0.20903661E+03</pdfrwt>
<totfact> 0.23006831E+04</totfact>
</mgrwt>
</event>
<event>
 4    2  0.4086940E+000  0.1787752E+03  0.7546771E-02  0.1168994E+00
         21   -1    0    0  501  502  0.00000000000E+00  0.00000000000E+00  0.27771706926E+03  0.27771706926E+03  0.00000000000E+00 0.  1.
         21   -1    0    0  502  503 -0.00000000000E+00 -0.00000000000E+00 -0.12659177815E+03  0.12659177815E+03  0.00000000000E+00 0.  1.
          6    1    1    2  501    0  0.79990901226E+01  0.44357667285E+02  0.13651493734E+03  0.22493758291E+03  0.17300000000E+03 0.  1.
         -6    1    1    2    0  503 -0.79990901226E+01 -0.44357667285E+02  0.14610353781E+02  0.17937126450E+03  0.17300000000E+03 0.  1.
<mgrwt>
<rscale>  2 0.17877524E+03</rscale>
<asrwt>0</asrwt>
<pdfrwt beam="1">  1       21 0.42725703E-01 0.17877524E+03</pdfrwt>
<pdfrwt beam="2">  1       21 0.19475658E-01 0.17877524E+03</pdfrwt>
<totfact> 0.12842068E+05</totfact>
</mgrwt>
</event>
<event>
 4    2  0.4086940E+000  0.1840625E+03  0.7546771E-02  0.1163928E+00
         21   -1    0    0  501  502  0.00000000000E+00  0.00000000000E+00  0.18661489479E+03  0.18661489479E+03  0.00000000000E+00 0.  1.
         21   -1    0    0  502  503 -0.00000000000E+00 -0.00000000000E+00 -0.19440892399E+03  0.19440892399E+03  0.00000000000E+00 0.  1.
          6    1    1    2  501    0  0.23896866567E+02 -0.58128535181E+02  0.45109300975E+02  0.18950946116E+03  0.17300000000E+03 0.  1.
         -6    1    1    2    0  503 -0.23896866567E+02  0.58128535181E+02 -0.52903330170E+02  0.19151435763E+03  0.17300000000E+03 0.  1.
<mgrwt>
<rscale>  2 0.18406245E+03</rscale>
<asrwt>0</asrwt>
<pdfrwt beam="1">  1       21 0.28709984E-01 0.18406245E+03</pdfrwt>
<pdfrwt beam="2">  1       21 0.29909065E-01 0.18406245E+03</pdfrwt>
<totfact> 0.12478628E+05</totfact>
</mgrwt>
</event>
<event>
 4    2  0.4086940E+000  0.1746095E+03  0.7546771E-02  0.1173124E+00
         21   -1    0    0  503  502  0.00000000000E+00  0.00000000000E+00  0.14391019021E+03  0.14391019021E+03  0.00000000000E+00 0.  1.
         21   -1    0    0  501  503 -0.00000000000E+00 -0.00000000000E+00 -0.23185310955E+03  0.23185310955E+03  0.00000000000E+00 0.  1.
          6    1    1    2  501    0 -0.28718711551E+01  0.23477916773E+02  0.11203838797E+02  0.17496852924E+03  0.17300000000E+03 0. -1.
         -6    1    1    2    0  502  0.28718711551E+01 -0.23477916773E+02 -0.99146758137E+02  0.20079477052E+03  0.17300000000E+03 0. -1.
<mgrwt>
<rscale>  2 0.17460945E+03</rscale>
<asrwt>0</asrwt>
<pdfrwt beam="1">  1       21 0.22140029E-01 0.17460945E+03</pdfrwt>
<pdfrwt beam="2">  1       21 0.35669709E-01 0.17460945E+03</pdfrwt>
<totfact> 0.14540932E+05</totfact>
</mgrwt>
</event>
<event>
 4    2  0.4086940E+000  0.1886311E+03  0.7546771E-02  0.1159702E+00
         21   -1    0    0  501  502  0.00000000000E+00  0.00000000000E+00  0.10979447101E+03  0.10979447101E+03  0.00000000000E+00 0.  1.
         21   -1    0    0  502  503 -0.00000000000E+00 -0.00000000000E+00 -0.49239305734E+03  0.49239305734E+03  0.00000000000E+00 0.  1.
          6    1    1    2  501    0 -0.73610458132E+02 -0.15302824512E+02 -0.15259532096E+02  0.18924727027E+03  0.17300000000E+03 0.  1.
         -6    1    1    2    0  503  0.73610458132E+02  0.15302824512E+02 -0.36733905423E+03  0.41294025809E+03  0.17300000000E+03 0.  1.
<mgrwt>
<rscale>  2 0.18863106E+03</rscale>
<asrwt>0</asrwt>
<pdfrwt beam="1">  1       21 0.16891457E-01 0.18863106E+03</pdfrwt>
<pdfrwt beam="2">  1       21 0.75752778E-01 0.18863106E+03</pdfrwt>
<totfact> 0.49176425E+04</totfact>
</mgrwt>
</event>
<event>
 4    2  0.4086940E+000  0.2088403E+03  0.7546771E-02  0.1142488E+00
         21   -1    0    0  503  502  0.00000000000E+00  0.00000000000E+00  0.29435618415E+03  0.29435618415E+03  0.00000000000E+00 0.  1.
         21   -1    0    0  501  503 -0.00000000000E+00 -0.00000000000E+00 -0.14868814953E+03  0.14868814953E+03  0.00000000000E+00 0.  1.
          6    1    1    2  501    0  0.98332048427E+02 -0.63372673432E+02  0.59737002962E+02  0.21721601462E+03  0.17300000000E+03 0.  1.
         -6    1    1    2    0  502 -0.98332048427E+02  0.63372673432E+02  0.85931031663E+02  0.22582831906E+03  0.17300000000E+03 0.  1.
<mgrwt>
<rscale>  2 0.20884034E+03</rscale>
<asrwt>0</asrwt>
<pdfrwt beam="1">  1       21 0.45285566E-01 0.20884034E+03</pdfrwt>
<pdfrwt beam="2">  1       21 0.22875100E-01 0.20884034E+03</pdfrwt>
<totfact> 0.83304965E+04</totfact>
</mgrwt>
</event>
<event>
 4    2  0.4086940E+000  0.2149007E+03  0.7546771E-02  0.1137743E+00
         21   -1    0    0  503  502  0.00000000000E+00  0.00000000000E+00  0.33644046688E+03  0.33644046688E+03  0.00000000000E+00 0. -1.
         21   -1    0    0  501  503 -0.00000000000E+00 -0.00000000000E+00 -0.15524764432E+03  0.15524764432E+03  0.00000000000E+00 0.  1.
          6    1    1    2  501    0 -0.68327986493E+02  0.10763170778E+03  0.69311153658E+01  0.21501241503E+03  0.17300000000E+03 0.  1.
         -6    1    1    2    0  502  0.68327986493E+02 -0.10763170778E+03  0.17426170719E+03  0.27667569617E+03  0.17300000000E+03 0. -1.
<mgrwt>
<rscale>  2 0.21490067E+03</rscale>
<asrwt>0</asrwt>
<pdfrwt beam="1">  1       21 0.51760072E-01 0.21490067E+03</pdfrwt>
<pdfrwt beam="2">  1       21 0.23884253E-01 0.21490067E+03</pdfrwt>
<totfact> 0.57967009E+04</totfact>
</mgrwt>
</event>
<event>
 4    2  0.4086940E+000  0.1734346E+03  0.7546771E-02  0.1174313E+00
         21   -1    0    0  503  502  0.00000000000E+00  0.00000000000E+00  0.77216664785E+03  0.77216664785E+03  0.00000000000E+00 0.  1.
         21   -1    0    0  501  503 -0.00000000000E+00 -0.00000000000E+00 -0.14233706847E+03  0.14233706847E+03  0.00000000000E+00 0.  1.
          6    1    1    2  501    0  0.39616168463E+01  0.11613773307E+02 -0.74775480423E+02  0.18886753721E+03  0.17300000000E+03 0.  1.
         -6    1    1    2    0  502 -0.39616168463E+01 -0.11613773307E+02  0.70460505980E+03  0.72563617911E+03  0.17300000000E+03 0.  1.
<mgrwt>
<rscale>  2 0.17343464E+03</rscale>
<asrwt>0</asrwt>
<pdfrwt beam="1">  1       21 0.11879487E+00 0.17343464E+03</pdfrwt>
<pdfrwt beam="2">  1       21 0.21898011E-01 0.17343464E+03</pdfrwt>
<totfact> 0.10693091E+04</totfact>
</mgrwt>
</event>
<event>
 4    2  0.4086940E+000  0.1796162E+03  0.7546771E-02  0.1168175E+00
         21   -1    0    0  501  502  0.00000000000E+00  0.00000000000E+00  0.32234600594E+03  0.32234600594E+03  0.00000000000E+00 0.  1.
         21   -1    0    0  502  503 -0.00000000000E+00 -0.00000000000E+00 -0.15513849611E+03  0.15513849611E+03  0.00000000000E+00 0.  1.
          6    1    1    2  501    0  0.27541887105E+02 -0.39678803537E+02  0.22582432018E+03  0.28854564037E+03  0.17300000000E+03 0.  1.
         -6    1    1    2    0  503 -0.27541887105E+02  0.39678803537E+02 -0.58616810351E+02  0.18893886168E+03  0.17300000000E+03 0.  1.
<mgrwt>
<rscale>  2 0.17961615E+03</rscale>
<asrwt>0</asrwt>
<pdfrwt beam="1">  1       21 0.49591693E-01 0.17961615E+03</pdfrwt>
<pdfrwt beam="2">  1       21 0.23867461E-01 0.17961615E+03</pdfrwt>
<totfact> 0.64496616E+04</totfact>
</mgrwt>
</event>
<event>
 4    2  0.4086940E+000  0.1789425E+03  0.7546771E-02  0.1168830E+00
         21   -1    0    0  503  502  0.00000000000E+00  0.00000000000E+00  0.24084023552E+03  0.24084023552E+03  0.00000000000E+00 0. -1.
         21   -1    0    0  501  503 -0.00000000000E+00 -0.00000000000E+00 -0.17410770739E+03  0.17410770739E+03  0.00000000000E+00 0. -1.
          6    1    1    2  501    0  0.31816900972E+02 -0.32849912153E+02 -0.67504283683E+02  0.19125182413E+03  0.17300000000E+03 0. -1.
         -6    1    1    2    0  502 -0.31816900972E+02  0.32849912153E+02  0.13423681181E+03  0.22369611879E+03  0.17300000000E+03 0. -1.
<mgrwt>
<rscale>  2 0.17894254E+03</rscale>
<asrwt>0</asrwt>
<pdfrwt beam="1">  1       21 0.37052344E-01 0.17894254E+03</pdfrwt>
<pdfrwt beam="2">  1       21 0.26785801E-01 0.17894254E+03</pdfrwt>
<totfact> 0.93722749E+04</totfact>
</mgrwt>
</event>
<event>
 4    2  0.4086940E+000  0.2137714E+03  0.7546771E-02  0.1138614E+00
         21   -1    0    0  503  502  0.00000000000E+00  0.00000000000E+00  0.57862728396E+02  0.57862728396E+02  0.00000000000E+00 0. -1.
         21   -1    0    0  501  503 -0.00000000000E+00 -0.00000000000E+00 -0.82033961528E+03  0.82033961528E+03  0.00000000000E+00 0. -1.
          6    1    1    2  501    0  0.12432037276E+03 -0.17710928086E+02 -0.46600305485E+03  0.51269589348E+03  0.17300000000E+03 0. -1.
         -6    1    1    2    0  502 -0.12432037276E+03  0.17710928086E+02 -0.29647383203E+03  0.36550645020E+03  0.17300000000E+03 0. -1.
<mgrwt>
<rscale>  2 0.21377145E+03</rscale>
<asrwt>0</asrwt>
<pdfrwt beam="1">  1       21 0.89019587E-02 0.21377145E+03</pdfrwt>
<pdfrwt beam="2">  1       21 0.12620609E+00 0.21377145E+03</pdfrwt>
<totfact> 0.45847260E+04</totfact>
</mgrwt>
</event>
<event>
 4    2  0.4086940E+000  0.2997392E+03  0.7546771E-02  0.1085371E+00
         21   -1    0    0  501  502  0.00000000000E+00  0.00000000000E+00  0.14661061543E+04  0.14661061543E+04  0.00000000000E+00 0. -1.
         21   -1    0    0  502  503 -0.00000000000E+00 -0.00000000000E+00 -0.96875088621E+02  0.96875088621E+02  0.00000000000E+00 0. -1.
          6    1    1    2  501    0 -0.17845484875E+03  0.16753646058E+03  0.11583229671E+04  0.11964763661E+04  0.17300000000E+03 0. -1.
         -6    1    1    2    0  503  0.17845484875E+03 -0.16753646058E+03  0.21090809866E+03  0.36650487684E+03  0.17300000000E+03 0. -1.
<mgrwt>
<rscale>  2 0.29973922E+03</rscale>
<asrwt>0</asrwt>
<pdfrwt beam="1">  1       21 0.22555478E+00 0.29973922E+03</pdfrwt>
<pdfrwt beam="2">  1       21 0.14903861E-01 0.29973922E+03</pdfrwt>
<totfact> 0.33808193E+03</totfact>
</mgrwt>
</event>
<event>
 4    2  0.4086940E+000  0.3136652E+03  0.7546771E-02  0.1078602E+00
         21   -1    0    0  501  502  0.00000000000E+00  0.00000000000E+00  0.17718730724E+03  0.17718730724E+03  0.00000000000E+00 0.  1.
         21   -1    0    0  502  503 -0.00000000000E+00 -0.00000000000E+00 -0.10234240909E+04  0.10234240909E+04  0.00000000000E+00 0. -1.
          6    1    1    2  501    0 -0.16694633824E+03  0.20145910996E+03 -0.17103905606E+02  0.31413117710E+03  0.17300000000E+03 0. -1.
         -6    1    1    2    0  503  0.16694633824E+03 -0.20145910996E+03 -0.82913287809E+03  0.88648022109E+03  0.17300000000E+03 0. -1.
<mgrwt>
<rscale>  2 0.31366519E+03</rscale>
<asrwt>0</asrwt>
<pdfrwt beam="1">  1       21 0.27259586E-01 0.31366519E+03</pdfrwt>
<pdfrwt beam="2">  1       21 0.15744986E+00 0.31366519E+03</pdfrwt>
<totfact> 0.30915191E+03</totfact>
</mgrwt>
</event>
<event>
 4    2  0.4086940E+000  0.1823283E+03  0.7546771E-02  0.1165569E+00
         21   -1    0    0  503  502  0.00000000000E+00  0.00000000000E+00  0.18199228342E+04  0.18199228342E+04  0.00000000000E+00 0.  1.
         21   -1    0    0  501  503 -0.00000000000E+00 -0.00000000000E+00 -0.30750043130E+02  0.30750043130E+02  0.00000000000E+00 0. -1.
          6    1    1    2  501    0 -0.46860468481E+02  0.33446841494E+02  0.30500200224E+03  0.35534464409E+03  0.17300000000E+03 0. -1.
         -6    1    1    2    0  502  0.46860468481E+02 -0.33446841494E+02  0.14841707888E+04  0.14953282332E+04  0.17300000000E+03 0.  1.
<mgrwt>
<rscale>  2 0.18232826E+03</rscale>
<asrwt>0</asrwt>
<pdfrwt beam="1">  1       21 0.27998804E+00 0.18232826E+03</pdfrwt>
<pdfrwt beam="2">  1       21 0.47307773E-02 0.18232826E+03</pdfrwt>
<totfact> 0.13287638E+04</totfact>
</mgrwt>
</event>
<event>
 4    2  0.4086940E+000  0.2144671E+03  0.7546771E-02  0.1138077E+00
         21   -1    0    0  503  502  0.00000000000E+00  0.00000000000E+00  0.84557937532E+03  0.84557937532E+03  0.00000000000E+00 0. -1.
         21   -1    0    0  501  503 -0.00000000000E+00 -0.00000000000E+00 -0.80115638398E+02  0.80115638398E+02  0.00000000000E+00 0. -1.
          6    1    1    2  501    0  0.11438587125E+03 -0.54616869732E+02  0.12048412136E+03  0.24599299482E+03  0.17300000000E+03 0. -1.
         -6    1    1    2    0  502 -0.11438587125E+03  0.54616869732E+02  0.64497961556E+03  0.67970201890E+03  0.17300000000E+03 0. -1.
<mgrwt>
<rscale>  2 0.21446708E+03</rscale>
<asrwt>0</asrwt>
<pdfrwt beam="1">  1       21 0.13008913E+00 0.21446708E+03</pdfrwt>
<pdfrwt beam="2">  1       21 0.12325483E-01 0.21446708E+03</pdfrwt>
<totfact> 0.23814510E+04</totfact>
</mgrwt>
</event>
<event>
 4    2  0.4086940E+000  0.1869967E+03  0.7546771E-02  0.1161198E+00
         21   -1    0    0  501  502  0.00000000000E+00  0.00000000000E+00  0.12706908302E+03  0.12706908302E+03  0.00000000000E+00 0. -1.
         21   -1    0    0  502  503 -0.00000000000E+00 -0.00000000000E+00 -0.27519232845E+03  0.27519232845E+03  0.00000000000E+00 0. -1.
          6    1    1    2  501    0 -0.69469940858E+02  0.14584476538E+02 -0.74933561503E+02  0.20145177656E+03  0.17300000000E+03 0. -1.
         -6    1    1    2    0  503  0.69469940858E+02 -0.14584476538E+02 -0.73189683923E+02  0.20080963491E+03  0.17300000000E+03 0. -1.
<mgrwt>
<rscale>  2 0.18699674E+03</rscale>
<asrwt>0</asrwt>
<pdfrwt beam="1">  1       21 0.19549090E-01 0.18699674E+03</pdfrwt>
<pdfrwt beam="2">  1       21 0.42337281E-01 0.18699674E+03</pdfrwt>
<totfact> 0.12954970E+05</totfact>
</mgrwt>
</event>
<event>
 4    2  0.4086940E+000  0.2322159E+03  0.7546771E-02  0.1125090E+00
         21   -1    0    0  501  502  0.00000000000E+00  0.00000000000E+00  0.13413914409E+03  0.13413914409E+03  0.00000000000E+00 0.  1.
         21   -1    0    0  502  503 -0.00000000000E+00 -0.00000000000E+00 -0.40942798592E+03  0.40942798592E+03  0.00000000000E+00 0.  1.
          6    1    1    2  501    0  0.53935887419E+02 -0.14521068854E+03 -0.10104222262E+03  0.25324643091E+03  0.17300000000E+03 0.  1.
         -6    1    1    2    0  503 -0.53935887419E+02  0.14521068854E+03 -0.17424661922E+03  0.29032069910E+03  0.17300000000E+03 0.  1.
<mgrwt>
<rscale>  2 0.23221590E+03</rscale>
<asrwt>0</asrwt>
<pdfrwt beam="1">  1       21 0.20636792E-01 0.23221590E+03</pdfrwt>
<pdfrwt beam="2">  1       21 0.62988920E-01 0.23221590E+03</pdfrwt>
<totfact> 0.49865496E+04</totfact>
</mgrwt>
</event>
<event>
 4    2  0.4086940E+000  0.1889771E+03  0.7546771E-02  0.1159387E+00
         21   -1    0    0  503  502  0.00000000000E+00  0.00000000000E+00  0.23253434717E+03  0.23253434717E+03  0.00000000000E+00 0.  1.
         21   -1    0    0  501  503 -0.00000000000E+00 -0.00000000000E+00 -0.28888455138E+03  0.28888455138E+03  0.00000000000E+00 0.  1.
          6    1    1    2  501    0 -0.75706268294E+02  0.72043849697E+01 -0.20659889533E+03  0.27999186733E+03  0.17300000000E+03 0.  1.
         -6    1    1    2    0  502  0.75706268294E+02 -0.72043849697E+01  0.15024869112E+03  0.24142703122E+03  0.17300000000E+03 0.  1.
<mgrwt>
<rscale>  2 0.18897709E+03</rscale>
<asrwt>0</asrwt>
<pdfrwt beam="1">  1       21 0.35774515E-01 0.18897709E+03</pdfrwt>
<pdfrwt beam="2">  1       21 0.44443777E-01 0.18897709E+03</pdfrwt>
<totfact> 0.36694787E+04</totfact>
</mgrwt>
</event>
<event>
 4    2  0.4086940E+000  0.2422838E+03  0.7546771E-02  0.1118281E+00
         21   -1    0    0  503  502  0.00000000000E+00  0.00000000000E+00  0.26039716439E+03  0.26039716439E+03  0.00000000000E+00 0. -1.
         21   -1    0    0  501  503 -0.00000000000E+00 -0.00000000000E+00 -0.44306127380E+03  0.44306127380E+03  0.00000000000E+00 0.  1.
          6    1    1    2  501    0  0.15616258824E+03 -0.66224570471E+02 -0.33784331586E+03  0.41573976689E+03  0.17300000000E+03 0.  1.
         -6    1    1    2    0  502 -0.15616258824E+03  0.66224570471E+02  0.15517920645E+03  0.28771867130E+03  0.17300000000E+03 0. -1.
<mgrwt>
<rscale>  2 0.24228382E+03</rscale>
<asrwt>0</asrwt>
<pdfrwt beam="1">  1       21 0.40061102E-01 0.24228382E+03</pdfrwt>
<pdfrwt beam="2">  1       21 0.68163273E-01 0.24228382E+03</pdfrwt>
<totfact> 0.11439354E+04</totfact>
</mgrwt>
</event>
<event>
 4    2  0.4086940E+000  0.1976906E+03  0.7546771E-02  0.1151702E+00
         21   -1    0    0  501  502  0.00000000000E+00  0.00000000000E+00  0.62513910779E+03  0.62513910779E+03  0.00000000000E+00 0.  1.
         21   -1    0    0  502  503 -0.00000000000E+00 -0.00000000000E+00 -0.82378198629E+02  0.82378198629E+02  0.00000000000E+00 0. -1.
          6    1    1    2  501    0  0.95629806027E+02  0.27443325607E+01  0.44508360047E+03  0.48701232281E+03  0.17300000000E+03 0.  1.
         -6    1    1    2    0  503 -0.95629806027E+02 -0.27443325607E+01  0.97677308687E+02  0.22050498360E+03  0.17300000000E+03 0. -1.
<mgrwt>
<rscale>  2 0.19769065E+03</rscale>
<asrwt>0</asrwt>
<pdfrwt beam="1">  1       21 0.96175244E-01 0.19769065E+03</pdfrwt>
<pdfrwt beam="2">  1       21 0.12673569E-01 0.19769065E+03</pdfrwt>
<totfact> 0.47766055E+04</totfact>
</mgrwt>
</event>
<event>
 4    2  0.4086940E+000  0.2187743E+03  0.7546771E-02  0.1134800E+00
         21   -1    0    0  503  502  0.00000000000E+00  0.00000000000E+00  0.80809019385E+02  0.80809019385E+02  0.00000000000E+00 0. -1.
         21   -1    0    0  501  503 -0.00000000000E+00 -0.00000000000E+00 -0.63366457708E+03  0.63366457708E+03  0.00000000000E+00 0.  1.
          6    1    1    2  501    0 -0.12753334008E+03  0.40846602594E+02 -0.18514166732E+03  0.28660013041E+03  0.17300000000E+03 0. -1.
         -6    1    1    2    0  502  0.12753334008E+03 -0.40846602594E+02 -0.36771389038E+03  0.42787346605E+03  0.17300000000E+03 0.  1.
<mgrwt>
<rscale>  2 0.21877431E+03</rscale>
<asrwt>0</asrwt>
<pdfrwt beam="1">  1       21 0.12432157E-01 0.21877431E+03</pdfrwt>
<pdfrwt beam="2">  1       21 0.97486855E-01 0.21877431E+03</pdfrwt>
<totfact> 0.47390467E+04</totfact>
</mgrwt>
</event>
<event>
 4    2  0.4086940E+000  0.2341876E+03  0.7546771E-02  0.1123727E+00
         21   -1    0    0  503  502  0.00000000000E+00  0.00000000000E+00  0.98591727455E+03  0.98591727455E+03  0.00000000000E+00 0. -1.
         21   -1    0    0  501  503 -0.00000000000E+00 -0.00000000000E+00 -0.57504865840E+02  0.57504865840E+02  0.00000000000E+00 0. -1.
          6    1    1    2  501    0 -0.33237791239E+02 -0.15430521118E+03  0.55847830985E+03  0.60559216601E+03  0.17300000000E+03 0.  1.
         -6    1    1    2    0  502  0.33237791239E+02  0.15430521118E+03  0.36993409885E+03  0.43782997437E+03  0.17300000000E+03 0.  1.
<mgrwt>
<rscale>  2 0.23418764E+03</rscale>
<asrwt>0</asrwt>
<pdfrwt beam="1">  1       21 0.15167957E+00 0.23418764E+03</pdfrwt>
<pdfrwt beam="2">  1       21 0.88469032E-02 0.23418764E+03</pdfrwt>
<totfact> 0.28500918E+04</totfact>
</mgrwt>
</event>
<event>
 4    2  0.4086940E+000  0.1991690E+03  0.7546771E-02  0.1150442E+00
         21   -1    0    0  501  502  0.00000000000E+00  0.00000000000E+00  0.21460629314E+04  0.21460629314E+04  0.00000000000E+00 0.  1.
         21   -1    0    0  502  503 -0.00000000000E+00 -0.00000000000E+00 -0.47555398094E+02  0.47555398094E+02  0.00000000000E+00 0.  1.
          6    1    1    2  501    0  0.35487690701E+02  0.92086541268E+02  0.19068096843E+04  0.19171832149E+04  0.17300000000E+03 0.  1.
         -6    1    1    2    0  503 -0.35487690701E+02 -0.92086541268E+02  0.19169784898E+03  0.27643511459E+03  0.17300000000E+03 0.  1.
<mgrwt>
<rscale>  2 0.19916904E+03</rscale>
<asrwt>0</asrwt>
<pdfrwt beam="1">  1       21 0.33016345E+00 0.19916904E+03</pdfrwt>
<pdfrwt beam="2">  1       21 0.73162168E-02 0.19916904E+03</pdfrwt>
<totfact> 0.31759363E+03</totfact>
</mgrwt>
</event>
<event>
 4    2  0.4086940E+000  0.1864884E+03  0.7546771E-02  0.1161667E+00
         21   -1    0    0  501  502  0.00000000000E+00  0.00000000000E+00  0.22948949934E+03  0.22948949934E+03  0.00000000000E+00 0.  1.
         21   -1    0    0  502  503 -0.00000000000E+00 -0.00000000000E+00 -0.15480177554E+03  0.15480177554E+03  0.00000000000E+00 0.  1.
          6    1    1    2  501    0  0.56366446726E+02 -0.40886869883E+02  0.65215204805E+02  0.19756248476E+03  0.17300000000E+03 0. -1.
         -6    1    1    2    0  503 -0.56366446726E+02  0.40886869883E+02  0.94725189860E+01  0.18672879012E+03  0.17300000000E+03 0. -1.
<mgrwt>
<rscale>  2 0.18648837E+03</rscale>
<asrwt>0</asrwt>
<pdfrwt beam="1">  1       21 0.35306077E-01 0.18648837E+03</pdfrwt>
<pdfrwt beam="2">  1       21 0.23815658E-01 0.18648837E+03</pdfrwt>
<totfact> 0.12876668E+05</totfact>
</mgrwt>
</event>
<event>
 4    2  0.4086940E+000  0.1978688E+03  0.7546771E-02  0.1151550E+00
         21   -1    0    0  501  502  0.00000000000E+00  0.00000000000E+00  0.22249081599E+03  0.22249081599E+03  0.00000000000E+00 0.  1.
         21   -1    0    0  502  503 -0.00000000000E+00 -0.00000000000E+00 -0.33296075348E+03  0.33296075348E+03  0.00000000000E+00 0.  1.
          6    1    1    2  501    0  0.44052301236E+02 -0.85337231871E+02  0.13546674948E+03  0.23979843328E+03  0.17300000000E+03 0.  1.
         -6    1    1    2    0  503 -0.44052301236E+02  0.85337231871E+02 -0.24593668697E+03  0.31565313619E+03  0.17300000000E+03 0.  1.
<mgrwt>
<rscale>  2 0.19786877E+03</rscale>
<asrwt>0</asrwt>
<pdfrwt beam="1">  1       21 0.34229356E-01 0.19786877E+03</pdfrwt>
<pdfrwt beam="2">  1       21 0.51224731E-01 0.19786877E+03</pdfrwt>
<totfact> 0.29708319E+04</totfact>
</mgrwt>
</event>
<event>
 4    2  0.4086940E+000  0.1772001E+03  0.7546771E-02  0.1170541E+00
         21   -1    0    0  501  502  0.00000000000E+00  0.00000000000E+00  0.14927794369E+03  0.14927794369E+03  0.00000000000E+00 0.  1.
         21   -1    0    0  502  503 -0.00000000000E+00 -0.00000000000E+00 -0.27500572548E+03  0.27500572548E+03  0.00000000000E+00 0.  1.
          6    1    1    2  501    0  0.36995259059E+02  0.10109873968E+02  0.40003084656E+02  0.18165931170E+03  0.17300000000E+03 0.  1.
         -6    1    1    2    0  503 -0.36995259059E+02 -0.10109873968E+02 -0.16573086645E+03  0.24262435747E+03  0.17300000000E+03 0.  1.
<mgrwt>
<rscale>  2 0.17720005E+03</rscale>
<asrwt>0</asrwt>
<pdfrwt beam="1">  1       21 0.22965838E-01 0.17720005E+03</pdfrwt>
<pdfrwt beam="2">  1       21 0.42308573E-01 0.17720005E+03</pdfrwt>
<totfact> 0.96245754E+04</totfact>
</mgrwt>
</event>
<event>
 4    2  0.4086940E+000  0.1944445E+03  0.7546771E-02  0.1154513E+00
         21   -1    0    0  503  502  0.00000000000E+00  0.00000000000E+00  0.88677591984E+03  0.88677591984E+03  0.00000000000E+00 0. -1.
         21   -1    0    0  501  503 -0.00000000000E+00 -0.00000000000E+00 -0.92353792578E+02  0.92353792578E+02  0.00000000000E+00 0. -1.
          6    1    1    2  501    0 -0.36720539530E+02 -0.80816241141E+02  0.38009376011E+02  0.19812464642E+03  0.17300000000E+03 0. -1.
         -6    1    1    2    0  502  0.36720539530E+02  0.80816241141E+02  0.75641275126E+03  0.78100506600E+03  0.17300000000E+03 0. -1.
<mgrwt>
<rscale>  2 0.19444450E+03</rscale>
<asrwt>0</asrwt>
<pdfrwt beam="1">  1       21 0.13642706E+00 0.19444450E+03</pdfrwt>
<pdfrwt beam="2">  1       21 0.14208276E-01 0.19444450E+03</pdfrwt>
<totfact> 0.16536853E+04</totfact>
</mgrwt>
</event>
<event>
 4    2  0.4086940E+000  0.1791232E+03  0.7546771E-02  0.1168654E+00
         21   -1    0    0  501  502  0.00000000000E+00  0.00000000000E+00  0.39272736071E+03  0.39272736071E+03  0.00000000000E+00 0. -1.
         21   -1    0    0  502  503 -0.00000000000E+00 -0.00000000000E+00 -0.21603470283E+03  0.21603470283E+03  0.00000000000E+00 0. -1.
          6    1    1    2  501    0  0.41648598533E+02 -0.20530525695E+02  0.32836934355E+03  0.37404750237E+03  0.17300000000E+03 0. -1.
         -6    1    1    2    0  503 -0.41648598533E+02  0.20530525695E+02 -0.15167668567E+03  0.23471456116E+03  0.17300000000E+03 0. -1.
<mgrwt>
<rscale>  2 0.17912317E+03</rscale>
<asrwt>0</asrwt>
<pdfrwt beam="1">  1       21 0.60419594E-01 0.17912317E+03</pdfrwt>
<pdfrwt beam="2">  1       21 0.33236108E-01 0.17912317E+03</pdfrwt>
<totfact> 0.22428665E+04</totfact>
</mgrwt>
</event>
<event>
 4    2  0.4086940E+000  0.2567789E+03  0.7546771E-02  0.1109094E+00
         21   -1    0    0  501  502  0.00000000000E+00  0.00000000000E+00  0.12801438636E+04  0.12801438636E+04  0.00000000000E+00 0. -1.
         21   -1    0    0  502  503 -0.00000000000E+00 -0.00000000000E+00 -0.58305893796E+02  0.58305893796E+02  0.00000000000E+00 0. -1.
          6    1    1    2  501    0 -0.88333880045E+02  0.16793899700E+03  0.38238033963E+03  0.46059755234E+03  0.17300000000E+03 0. -1.
         -6    1    1    2    0  503  0.88333880045E+02 -0.16793899700E+03  0.83945763015E+03  0.87785220504E+03  0.17300000000E+03 0. -1.
<mgrwt>
<rscale>  2 0.25677886E+03</rscale>
<asrwt>0</asrwt>
<pdfrwt beam="1">  1       21 0.19694519E+00 0.25677886E+03</pdfrwt>
<pdfrwt beam="2">  1       21 0.89701385E-02 0.25677886E+03</pdfrwt>
<totfact> 0.13187974E+04</totfact>
</mgrwt>
</event>
<event>
 4    2  0.4086940E+000  0.1923898E+03  0.7546771E-02  0.1156323E+00
         21   -1    0    0  503  502  0.00000000000E+00  0.00000000000E+00  0.25729428283E+03  0.25729428283E+03  0.00000000000E+00 0.  1.
         21   -1    0    0  501  503 -0.00000000000E+00 -0.00000000000E+00 -0.27963576130E+03  0.27963576130E+03  0.00000000000E+00 0.  1.
          6    1    1    2  501    0  0.41073353280E+02 -0.73469766538E+02 -0.19824143595E+03  0.27624897081E+03  0.17300000000E+03 0.  1.
         -6    1    1    2    0  502 -0.41073353280E+02  0.73469766538E+02  0.17589995749E+03  0.26068107332E+03  0.17300000000E+03 0.  1.
<mgrwt>
<rscale>  2 0.19238978E+03</rscale>
<asrwt>0</asrwt>
<pdfrwt beam="1">  1       21 0.39583736E-01 0.19238978E+03</pdfrwt>
<pdfrwt beam="2">  1       21 0.43020886E-01 0.19238978E+03</pdfrwt>
<totfact> 0.31970816E+04</totfact>
</mgrwt>
</event>
<event>
 4    2  0.4086940E+000  0.2569360E+03  0.7546771E-02  0.1108998E+00
         21   -1    0    0  501  502  0.00000000000E+00  0.00000000000E+00  0.26271468544E+03  0.26271468544E+03  0.00000000000E+00 0. -1.
         21   -1    0    0  502  503 -0.00000000000E+00 -0.00000000000E+00 -0.39549218546E+03  0.39549218546E+03  0.00000000000E+00 0. -1.
          6    1    1    2  501    0  0.17614549653E+03 -0.71132643229E+02  0.13233871474E+03  0.28901492054E+03  0.17300000000E+03 0. -1.
         -6    1    1    2    0  503 -0.17614549653E+03  0.71132643229E+02 -0.26511621476E+03  0.36919195036E+03  0.17300000000E+03 0. -1.
<mgrwt>
<rscale>  2 0.25693596E+03</rscale>
<asrwt>0</asrwt>
<pdfrwt beam="1">  1       21 0.40417644E-01 0.25693596E+03</pdfrwt>
<pdfrwt beam="2">  1       21 0.60844952E-01 0.25693596E+03</pdfrwt>
<totfact> 0.14293419E+04</totfact>
</mgrwt>
</event>
<event>
 4    2  0.4086940E+000  0.2651129E+03  0.7546771E-02  0.1104110E+00
         21   -1    0    0  503  502  0.00000000000E+00  0.00000000000E+00  0.44292959344E+02  0.44292959344E+02  0.00000000000E+00 0. -1.
         21   -1    0    0  501  503 -0.00000000000E+00 -0.00000000000E+00 -0.15892349868E+04  0.15892349868E+04  0.00000000000E+00 0.  1.
          6    1    1    2  501    0 -0.91536757108E+02 -0.17882081505E+03 -0.74061829739E+03  0.78663862366E+03  0.17300000000E+03 0. -1.
         -6    1    1    2    0  502  0.91536757108E+02  0.17882081505E+03 -0.80432373005E+03  0.84688932247E+03  0.17300000000E+03 0. -1.
<mgrwt>
<rscale>  2 0.26511292E+03</rscale>
<asrwt>0</asrwt>
<pdfrwt beam="1">  1       21 0.68143015E-02 0.26511292E+03</pdfrwt>
<pdfrwt beam="2">  1       21 0.24449769E+00 0.26511292E+03</pdfrwt>
<totfact> 0.10708807E+04</totfact>
</mgrwt>
</event>
<event>
 4    2  0.4086940E+000  0.2030206E+03  0.7546771E-02  0.1147215E+00
         21   -1    0    0  501  502  0.00000000000E+00  0.00000000000E+00  0.87889668218E+02  0.87889668218E+02  0.00000000000E+00 0.  1.
         21   -1    0    0  502  503 -0.00000000000E+00 -0.00000000000E+00 -0.47180331179E+03  0.47180331179E+03  0.00000000000E+00 0.  1.
          6    1    1    2  501    0  0.12739262858E+01  0.10623909285E+03 -0.21365405810E+03  0.29472940858E+03  0.17300000000E+03 0.  1.
         -6    1    1    2    0  503 -0.12739262858E+01 -0.10623909285E+03 -0.17025958547E+03  0.26496357142E+03  0.17300000000E+03 0.  1.
<mgrwt>
<rscale>  2 0.20302061E+03</rscale>
<asrwt>0</asrwt>
<pdfrwt beam="1">  1       21 0.13521487E-01 0.20302061E+03</pdfrwt>
<pdfrwt beam="2">  1       21 0.72585128E-01 0.20302061E+03</pdfrwt>
<totfact> 0.80604675E+04</totfact>
</mgrwt>
</event>
<event>
 4    2  0.4086940E+000  0.2177451E+03  0.7546771E-02  0.1135575E+00
         21   -1    0    0  501  502  0.00000000000E+00  0.00000000000E+00  0.14763780318E+04  0.14763780318E+04  0.00000000000E+00 0.  1.
         21   -1    0    0  502  503 -0.00000000000E+00 -0.00000000000E+00 -0.32137430455E+02  0.32137430455E+02  0.00000000000E+00 0. -1.
          6    1    1    2  501    0 -0.12364334839E+03  0.46864023899E+02  0.74233549170E+03  0.77361159284E+03  0.17300000000E+03 0.  1.
         -6    1    1    2    0  503  0.12364334839E+03 -0.46864023899E+02  0.70190510965E+03  0.73490386942E+03  0.17300000000E+03 0. -1.
<mgrwt>
<rscale>  2 0.21774507E+03</rscale>
<asrwt>0</asrwt>
<pdfrwt beam="1">  1       21 0.22713503E+00 0.21774507E+03</pdfrwt>
<pdfrwt beam="2">  1       21 0.49442212E-02 0.21774507E+03</pdfrwt>
<totfact> 0.24474757E+04</totfact>
</mgrwt>
</event>
<event>
 4    2  0.4086940E+000  0.1770108E+03  0.7546771E-02  0.1170728E+00
         21   -1    0    0  503  502  0.00000000000E+00  0.00000000000E+00  0.25672925775E+03  0.25672925775E+03  0.00000000000E+00 0.  1.
         21   -1    0    0  501  503 -0.00000000000E+00 -0.00000000000E+00 -0.23044912323E+03  0.23044912323E+03  0.00000000000E+00 0.  1.
          6    1    1    2  501    0  0.35203273944E+02 -0.12827941193E+02 -0.15392706130E+03  0.23457699540E+03  0.17300000000E+03 0.  1.
         -6    1    1    2    0  502 -0.35203273944E+02  0.12827941193E+02  0.18020719582E+03  0.25260138558E+03  0.17300000000E+03 0.  1.
<mgrwt>
<rscale>  2 0.17701081E+03</rscale>
<asrwt>0</asrwt>
<pdfrwt beam="1">  1       21 0.39496809E-01 0.17701081E+03</pdfrwt>
<pdfrwt beam="2">  1       21 0.35453711E-01 0.17701081E+03</pdfrwt>
<totfact> 0.47756556E+04</totfact>
</mgrwt>
</event>
<event>
 4    2  0.4086940E+000  0.1955678E+03  0.7546771E-02  0.1153533E+00
         21   -1    0    0  501  502  0.00000000000E+00  0.00000000000E+00  0.48172906672E+03  0.48172906672E+03  0.00000000000E+00 0. -1.
         21   -1    0    0  502  503 -0.00000000000E+00 -0.00000000000E+00 -0.31083556985E+03  0.31083556985E+03  0.00000000000E+00 0. -1.
          6    1    1    2  501    0 -0.69652184364E+02  0.58875756818E+02  0.42739412410E+03  0.47001331773E+03  0.17300000000E+03 0. -1.
         -6    1    1    2    0  503  0.69652184364E+02 -0.58875756818E+02 -0.25650062722E+03  0.32255131885E+03  0.17300000000E+03 0. -1.
<mgrwt>
<rscale>  2 0.19556784E+03</rscale>
<asrwt>0</asrwt>
<pdfrwt beam="1">  1       21 0.74112164E-01 0.19556784E+03</pdfrwt>
<pdfrwt beam="2">  1       21 0.47820857E-01 0.19556784E+03</pdfrwt>
<totfact> 0.68104622E+03</totfact>
</mgrwt>
</event>
<event>
 4    2  0.4086940E+000  0.2206124E+03  0.7546771E-02  0.1133427E+00
         21   -1    0    0  501  502  0.00000000000E+00  0.00000000000E+00  0.45316239403E+03  0.45316239403E+03  0.00000000000E+00 0. -1.
         21   -1    0    0  502  503 -0.00000000000E+00 -0.00000000000E+00 -0.12233647656E+03  0.12233647656E+03  0.00000000000E+00 0. -1.
          6    1    1    2  501    0  0.13678002733E+03  0.56612261888E+01  0.26595661308E+03  0.34554702343E+03  0.17300000000E+03 0. -1.
         -6    1    1    2    0  503 -0.13678002733E+03 -0.56612261888E+01  0.64869304387E+02  0.22995184716E+03  0.17300000000E+03 0. -1.
<mgrwt>
<rscale>  2 0.22061239E+03</rscale>
<asrwt>0</asrwt>
<pdfrwt beam="1">  1       21 0.69717290E-01 0.22061239E+03</pdfrwt>
<pdfrwt beam="2">  1       21 0.18820997E-01 0.22061239E+03</pdfrwt>
<totfact> 0.47673757E+04</totfact>
</mgrwt>
</event>
<event>
 4    2  0.4086940E+000  0.1735560E+03  0.7546771E-02  0.1174189E+00
         21   -1    0    0  503  502  0.00000000000E+00  0.00000000000E+00  0.34710530820E+03  0.34710530820E+03  0.00000000000E+00 0. -1.
         21   -1    0    0  501  503 -0.00000000000E+00 -0.00000000000E+00 -0.15590069582E+03  0.15590069582E+03  0.00000000000E+00 0. -1.
          6    1    1    2  501    0 -0.10754934250E+02  0.87766007178E+01 -0.71862717106E+02  0.18784554144E+03  0.17300000000E+03 0. -1.
         -6    1    1    2    0  502  0.10754934250E+02 -0.87766007178E+01  0.26306732948E+03  0.31516046257E+03  0.17300000000E+03 0. -1.
<mgrwt>
<rscale>  2 0.17355604E+03</rscale>
<asrwt>0</asrwt>
<pdfrwt beam="1">  1       21 0.53400816E-01 0.17355604E+03</pdfrwt>
<pdfrwt beam="2">  1       21 0.23984723E-01 0.17355604E+03</pdfrwt>
<totfact> 0.54900565E+04</totfact>
</mgrwt>
</event>
<event>
 4    2  0.4086940E+000  0.1766225E+03  0.7546771E-02  0.1171112E+00
         21   -1    0    0  503  502  0.00000000000E+00  0.00000000000E+00  0.38226180869E+02  0.38226180869E+02  0.00000000000E+00 0. -1.
         21   -1    0    0  501  503 -0.00000000000E+00 -0.00000000000E+00 -0.90260408695E+03  0.90260408695E+03  0.00000000000E+00 0. -1.
          6    1    1    2  501    0 -0.25278992603E+02  0.25049355214E+02 -0.28653935447E+03  0.33660109822E+03  0.17300000000E+03 0. -1.
         -6    1    1    2    0  502  0.25278992603E+02 -0.25049355214E+02 -0.57783855161E+03  0.60422916960E+03  0.17300000000E+03 0. -1.
<mgrwt>
<rscale>  2 0.17662247E+03</rscale>
<asrwt>0</asrwt>
<pdfrwt beam="1">  1       21 0.58809518E-02 0.17662247E+03</pdfrwt>
<pdfrwt beam="2">  1       21 0.13886215E+00 0.17662247E+03</pdfrwt>
<totfact> 0.75168673E+04</totfact>
</mgrwt>
</event>
<event>
 4    2  0.4086940E+000  0.2060459E+03  0.7546771E-02  0.1144736E+00
         21   -1    0    0  503  502  0.00000000000E+00  0.00000000000E+00  0.95998934734E+02  0.95998934734E+02  0.00000000000E+00 0.  1.
         21   -1    0    0  501  503 -0.00000000000E+00 -0.00000000000E+00 -0.44359117313E+03  0.44359117313E+03  0.00000000000E+00 0.  1.
          6    1    1    2  501    0 -0.99258629281E+02 -0.51707239247E+02 -0.18866640806E+03  0.27937417133E+03  0.17300000000E+03 0.  1.
         -6    1    1    2    0  502  0.99258629281E+02  0.51707239247E+02 -0.15892583034E+03  0.26021593653E+03  0.17300000000E+03 0.  1.
<mgrwt>
<rscale>  2 0.20604590E+03</rscale>
<asrwt>0</asrwt>
<pdfrwt beam="1">  1       21 0.14769067E-01 0.20604590E+03</pdfrwt>
<pdfrwt beam="2">  1       21 0.68244795E-01 0.20604590E+03</pdfrwt>
<totfact> 0.78599833E+04</totfact>
</mgrwt>
</event>
<event>
 4    2  0.4086940E+000  0.1762065E+03  0.7546771E-02  0.1171526E+00
         21   -1    0    0  501  502  0.00000000000E+00  0.00000000000E+00  0.14601763747E+03  0.14601763747E+03  0.00000000000E+00 0.  1.
         21   -1    0    0  502  503 -0.00000000000E+00 -0.00000000000E+00 -0.28513705735E+03  0.28513705735E+03  0.00000000000E+00 0.  1.
          6    1    1    2  501    0  0.20003930141E+02 -0.26825135120E+02  0.39144312948E+02  0.18050213941E+03  0.17300000000E+03 0. -1.
         -6    1    1    2    0  503 -0.20003930141E+02  0.26825135120E+02 -0.17826373283E+03  0.25065255542E+03  0.17300000000E+03 0. -1.
<mgrwt>
<rscale>  2 0.17620654E+03</rscale>
<asrwt>0</asrwt>
<pdfrwt beam="1">  1       21 0.22464252E-01 0.17620654E+03</pdfrwt>
<pdfrwt beam="2">  1       21 0.43867239E-01 0.17620654E+03</pdfrwt>
<totfact> 0.93249908E+04</totfact>
</mgrwt>
</event>
<event>
 4    2  0.4086940E+000  0.1938504E+03  0.7546771E-02  0.1155034E+00
         21   -1    0    0  503  502  0.00000000000E+00  0.00000000000E+00  0.21618771885E+04  0.21618771885E+04  0.00000000000E+00 0. -1.
         21   -1    0    0  501  503 -0.00000000000E+00 -0.00000000000E+00 -0.23737201510E+02  0.23737201510E+02  0.00000000000E+00 0. -1.
          6    1    1    2  501    0 -0.86040581285E+02 -0.15684289518E+02  0.16345142883E+04  0.16459693003E+04  0.17300000000E+03 0. -1.
         -6    1    1    2    0  502  0.86040581285E+02  0.15684289518E+02  0.50362569865E+03  0.53964508976E+03  0.17300000000E+03 0. -1.
<mgrwt>
<rscale>  2 0.19385040E+03</rscale>
<asrwt>0</asrwt>
<pdfrwt beam="1">  1       21 0.33259634E+00 0.19385040E+03</pdfrwt>
<pdfrwt beam="2">  1       21 0.36518789E-02 0.19385040E+03</pdfrwt>
<totfact> 0.10078172E+04</totfact>
</mgrwt>
</event>
<event>
 4    2  0.4086940E+000  0.1847495E+03  0.7546771E-02  0.1163284E+00
         21   -1    0    0  503  502  0.00000000000E+00  0.00000000000E+00  0.51315717361E+02  0.51315717361E+02  0.00000000000E+00 0.  1.
         21   -1    0    0  501  503 -0.00000000000E+00 -0.00000000000E+00 -0.67073726258E+03  0.67073726258E+03  0.00000000000E+00 0.  1.
          6    1    1    2  501    0 -0.28928261454E+02  0.58021730425E+02 -0.27674393451E+03  0.33274550455E+03  0.17300000000E+03 0. -1.
         -6    1    1    2    0  502  0.28928261454E+02 -0.58021730425E+02 -0.34267761071E+03  0.38930747539E+03  0.17300000000E+03 0. -1.
<mgrwt>
<rscale>  2 0.18474947E+03</rscale>
<asrwt>0</asrwt>
<pdfrwt beam="1">  1       21 0.78947261E-02 0.18474947E+03</pdfrwt>
<pdfrwt beam="2">  1       21 0.10319034E+00 0.18474947E+03</pdfrwt>
<totfact> 0.93848786E+04</totfact>
</mgrwt>
</event>
<event>
 4    2  0.4086940E+000  0.2119875E+03  0.7546771E-02  0.1140002E+00
         21   -1    0    0  503  502  0.00000000000E+00  0.00000000000E+00  0.16301507803E+03  0.16301507803E+03  0.00000000000E+00 0.  1.
         21   -1    0    0  501  503 -0.00000000000E+00 -0.00000000000E+00 -0.90419081360E+03  0.90419081360E+03  0.00000000000E+00 0.  1.
          6    1    1    2  501    0  0.50284863468E+02 -0.11171892629E+03 -0.81547242244E+03  0.84257578753E+03  0.17300000000E+03 0.  1.
         -6    1    1    2    0  502 -0.50284863468E+02  0.11171892629E+03  0.74296686872E+02  0.22463010410E+03  0.17300000000E+03 0.  1.
<mgrwt>
<rscale>  2 0.21198747E+03</rscale>
<asrwt>0</asrwt>
<pdfrwt beam="1">  1       21 0.25079243E-01 0.21198747E+03</pdfrwt>
<pdfrwt beam="2">  1       21 0.13910628E+00 0.21198747E+03</pdfrwt>
<totfact> 0.53928978E+03</totfact>
</mgrwt>
</event>
<event>
 4    2  0.4086940E+000  0.1991715E+03  0.7546771E-02  0.1150440E+00
         21   -1    0    0  503  502  0.00000000000E+00  0.00000000000E+00  0.77143429448E+03  0.77143429448E+03  0.00000000000E+00 0. -1.
         21   -1    0    0  501  503 -0.00000000000E+00 -0.00000000000E+00 -0.51677094145E+02  0.51677094145E+02  0.00000000000E+00 0. -1.
          6    1    1    2  501    0 -0.51203321967E+02 -0.84371250320E+02  0.38875038470E+03  0.43680218597E+03  0.17300000000E+03 0. -1.
         -6    1    1    2    0  502  0.51203321967E+02  0.84371250320E+02  0.33100681563E+03  0.38630920266E+03  0.17300000000E+03 0. -1.
<mgrwt>
<rscale>  2 0.19917150E+03</rscale>
<asrwt>0</asrwt>
<pdfrwt beam="1">  1       21 0.11868219E+00 0.19917150E+03</pdfrwt>
<pdfrwt beam="2">  1       21 0.79503227E-02 0.19917150E+03</pdfrwt>
<totfact> 0.65626746E+04</totfact>
</mgrwt>
</event>
<event>
 4    2  0.4086940E+000  0.2466160E+03  0.7546771E-02  0.1115462E+00
         21   -1    0    0  503  502  0.00000000000E+00  0.00000000000E+00  0.55158336732E+03  0.55158336732E+03  0.00000000000E+00 0.  1.
         21   -1    0    0  501  503 -0.00000000000E+00 -0.00000000000E+00 -0.11842393167E+03  0.11842393167E+03  0.00000000000E+00 0. -1.
          6    1    1    2  501    0  0.39817216000E+02  0.17118710668E+03  0.30452044540E+03  0.39185729271E+03  0.17300000000E+03 0. -1.
         -6    1    1    2    0  502 -0.39817216000E+02 -0.17118710668E+03  0.12863899025E+03  0.27815000629E+03  0.17300000000E+03 0. -1.
<mgrwt>
<rscale>  2 0.24661597E+03</rscale>
<asrwt>0</asrwt>
<pdfrwt beam="1">  1       21 0.84858978E-01 0.24661597E+03</pdfrwt>
<pdfrwt beam="2">  1       21 0.18219067E-01 0.24661597E+03</pdfrwt>
<totfact> 0.32129491E+04</totfact>
</mgrwt>
</event>
<event>
 4    2  0.4086940E+000  0.2665698E+03  0.7546771E-02  0.1103259E+00
         21   -1    0    0  503  502  0.00000000000E+00  0.00000000000E+00  0.11098697488E+04  0.11098697488E+04  0.00000000000E+00 0.  1.
         21   -1    0    0  501  503 -0.00000000000E+00 -0.00000000000E+00 -0.16353633036E+03  0.16353633036E+03  0.00000000000E+00 0. -1.
          6    1    1    2  501    0  0.12076997190E+03  0.16292660081E+03 -0.23501041473E+02  0.26760374122E+03  0.17300000000E+03 0. -1.
         -6    1    1    2    0  502 -0.12076997190E+03 -0.16292660081E+03  0.96983445992E+03  0.10058023379E+04  0.17300000000E+03 0.  1.
<mgrwt>
<rscale>  2 0.26656981E+03</rscale>
<asrwt>0</asrwt>
<pdfrwt beam="1">  1       21 0.17074919E+00 0.26656981E+03</pdfrwt>
<pdfrwt beam="2">  1       21 0.25159436E-01 0.26656981E+03</pdfrwt>
<totfact> 0.29713179E+03</totfact>
</mgrwt>
</event>
<event>
 4    2  0.4086940E+000  0.1738161E+03  0.7546771E-02  0.1173926E+00
         21   -1    0    0  501  502  0.00000000000E+00  0.00000000000E+00  0.29220227656E+03  0.29220227656E+03  0.00000000000E+00 0.  1.
         21   -1    0    0  502  503 -0.00000000000E+00 -0.00000000000E+00 -0.12412390645E+03  0.12412390645E+03  0.00000000000E+00 0.  1.
          6    1    1    2  501    0  0.12393720818E+02 -0.11377261962E+02  0.16910825080E+03  0.24250700381E+03  0.17300000000E+03 0.  1.
         -6    1    1    2    0  503 -0.12393720818E+02  0.11377261962E+02 -0.10298807002E+01  0.17381917921E+03  0.17300000000E+03 0.  1.
<mgrwt>
<rscale>  2 0.17381613E+03</rscale>
<asrwt>0</asrwt>
<pdfrwt beam="1">  1       21 0.44954196E-01 0.17381613E+03</pdfrwt>
<pdfrwt beam="2">  1       21 0.19095986E-01 0.17381613E+03</pdfrwt>
<totfact> 0.12028761E+05</totfact>
</mgrwt>
</event>
<event>
 4    2  0.4086940E+000  0.1787736E+03  0.7546771E-02  0.1168995E+00
         21   -1    0    0  503  502  0.00000000000E+00  0.00000000000E+00  0.11192546472E+03  0.11192546472E+03  0.00000000000E+00 0.  1.
         21   -1    0    0  501  503 -0.00000000000E+00 -0.00000000000E+00 -0.33717532403E+03  0.33717532403E+03  0.00000000000E+00 0.  1.
          6    1    1    2  501    0  0.33532613365E+02 -0.30109106028E+02 -0.20049266377E+03  0.26862111356E+03  0.17300000000E+03 0.  1.
         -6    1    1    2    0  502 -0.33532613365E+02  0.30109106028E+02 -0.24757195541E+02  0.18047967519E+03  0.17300000000E+03 0.  1.
<mgrwt>
<rscale>  2 0.17877358E+03</rscale>
<asrwt>0</asrwt>
<pdfrwt beam="1">  1       21 0.17219302E-01 0.17877358E+03</pdfrwt>
<pdfrwt beam="2">  1       21 0.51873127E-01 0.17877358E+03</pdfrwt>
<totfact> 0.10806221E+05</totfact>
</mgrwt>
</event>
<event>
 4    2  0.4086940E+000  0.2024047E+03  0.7546771E-02  0.1147726E+00
         21   -1    0    0  501  502  0.00000000000E+00  0.00000000000E+00  0.26425264294E+04  0.26425264294E+04  0.00000000000E+00 0.  1.
         21   -1    0    0  502  503 -0.00000000000E+00 -0.00000000000E+00 -0.17423831840E+02  0.17423831840E+02  0.00000000000E+00 0. -1.
          6    1    1    2  501    0 -0.83911843555E+02  0.63225661793E+02  0.17541125146E+04  0.17657515101E+04  0.17300000000E+03 0.  1.
         -6    1    1    2    0  503  0.83911843555E+02 -0.63225661793E+02  0.87099008297E+03  0.89419875108E+03  0.17300000000E+03 0. -1.
<mgrwt>
<rscale>  2 0.20240475E+03</rscale>
<asrwt>0</asrwt>
<pdfrwt beam="1">  1       21 0.40654221E+00 0.20240475E+03</pdfrwt>
<pdfrwt beam="2">  1       21 0.26805916E-02 0.20240475E+03</pdfrwt>
<totfact> 0.59655571E+03</totfact>
</mgrwt>
</event>
<event>
 4    2  0.4086940E+000  0.2457969E+03  0.7546771E-02  0.1115990E+00
         21   -1    0    0  501  502  0.00000000000E+00  0.00000000000E+00  0.17013593133E+03  0.17013593133E+03  0.00000000000E+00 0. -1.
         21   -1    0    0  502  503 -0.00000000000E+00 -0.00000000000E+00 -0.56785261261E+03  0.56785261261E+03  0.00000000000E+00 0.  1.
          6    1    1    2  501    0 -0.10810564583E+03 -0.13711421615E+03  0.26998913451E+02  0.24727531268E+03  0.17300000000E+03 0. -1.
         -6    1    1    2    0  503  0.10810564583E+03  0.13711421615E+03 -0.42471559473E+03  0.49071323126E+03  0.17300000000E+03 0.  1.
<mgrwt>
<rscale>  2 0.24579695E+03</rscale>
<asrwt>0</asrwt>
<pdfrwt beam="1">  1       21 0.26174759E-01 0.24579695E+03</pdfrwt>
<pdfrwt beam="2">  1       21 0.87361940E-01 0.24579695E+03</pdfrwt>
<totfact> 0.15126702E+04</totfact>
</mgrwt>
</event>
<event>
 4    2  0.4086940E+000  0.1878604E+03  0.7546771E-02  0.1160405E+00
         21   -1    0    0  501  502  0.00000000000E+00  0.00000000000E+00  0.10843670639E+03  0.10843670639E+03  0.00000000000E+00 0. -1.
         21   -1    0    0  502  503 -0.00000000000E+00 -0.00000000000E+00 -0.64117074815E+03  0.64117074815E+03  0.00000000000E+00 0. -1.
          6    1    1    2  501    0  0.44174199402E+02 -0.58405153019E+02 -0.33622869805E+01  0.18789046481E+03  0.17300000000E+03 0. -1.
         -6    1    1    2    0  503 -0.44174199402E+02  0.58405153019E+02 -0.52937175478E+03  0.56171698973E+03  0.17300000000E+03 0. -1.
<mgrwt>
<rscale>  2 0.18786038E+03</rscale>
<asrwt>0</asrwt>
<pdfrwt beam="1">  1       21 0.16682570E-01 0.18786038E+03</pdfrwt>
<pdfrwt beam="2">  1       21 0.98641656E-01 0.18786038E+03</pdfrwt>
<totfact> 0.27461434E+04</totfact>
</mgrwt>
</event>
<event>
 4    2  0.4086940E+000  0.4140014E+03  0.7546771E-02  0.1039037E+00
         21   -1    0    0  503  502  0.00000000000E+00  0.00000000000E+00  0.36042080265E+04  0.36042080265E+04  0.00000000000E+00 0.  1.
         21   -1    0    0  501  503 -0.00000000000E+00 -0.00000000000E+00 -0.47644744690E+02  0.47644744690E+02  0.00000000000E+00 0. -1.
          6    1    1    2  501    0  0.16203716429E+03  0.33942905341E+03  0.16989142204E+04  0.17486299361E+04  0.17300000000E+03 0. -1.
         -6    1    1    2    0  502 -0.16203716429E+03 -0.33942905341E+03  0.18576490613E+04  0.19032228351E+04  0.17300000000E+03 0. -1.
<mgrwt>
<rscale>  2 0.41400136E+03</rscale>
<asrwt>0</asrwt>
<pdfrwt beam="1">  1       21 0.55449333E+00 0.41400136E+03</pdfrwt>
<pdfrwt beam="2">  1       21 0.73299636E-02 0.41400136E+03</pdfrwt>
<totfact> 0.82152312E+01</totfact>
</mgrwt>
</event>
<event>
 4    2  0.4086940E+000  0.1731853E+03  0.7546771E-02  0.1174566E+00
         21   -1    0    0  503  502  0.00000000000E+00  0.00000000000E+00  0.61667334412E+02  0.61667334412E+02  0.00000000000E+00 0. -1.
         21   -1    0    0  501  503 -0.00000000000E+00 -0.00000000000E+00 -0.13180638800E+04  0.13180638800E+04  0.00000000000E+00 0. -1.
          6    1    1    2  501    0  0.44679528780E+01 -0.66467571291E+01 -0.11761950636E+04  0.11888767680E+04  0.17300000000E+03 0. -1.
         -6    1    1    2    0  502 -0.44679528780E+01  0.66467571291E+01 -0.80201481997E+02  0.19085444637E+03  0.17300000000E+03 0. -1.
<mgrwt>
<rscale>  2 0.17318528E+03</rscale>
<asrwt>0</asrwt>
<pdfrwt beam="1">  1       21 0.94872813E-02 0.17318528E+03</pdfrwt>
<pdfrwt beam="2">  1       21 0.20277908E+00 0.17318528E+03</pdfrwt>
<totfact> 0.11669179E+04</totfact>
</mgrwt>
</event>
<event>
 4    2  0.4086940E+000  0.1995453E+03  0.7546771E-02  0.1150123E+00
         21   -1    0    0  501  502  0.00000000000E+00  0.00000000000E+00  0.62667502313E+03  0.62667502313E+03  0.00000000000E+00 0. -1.
         21   -1    0    0  502  503 -0.00000000000E+00 -0.00000000000E+00 -0.55056034063E+03  0.55056034063E+03  0.00000000000E+00 0. -1.
          6    1    1    2  501    0 -0.65943383810E+02  0.74436471084E+02  0.59166849086E+03  0.62441166002E+03  0.17300000000E+03 0. -1.
         -6    1    1    2    0  503  0.65943383810E+02 -0.74436471084E+02 -0.51555380836E+03  0.55282370374E+03  0.17300000000E+03 0. -1.
<mgrwt>
<rscale>  2 0.19954528E+03</rscale>
<asrwt>0</asrwt>
<pdfrwt beam="1">  1       21 0.96411542E-01 0.19954528E+03</pdfrwt>
<pdfrwt beam="2">  1       21 0.84701591E-01 0.19954528E+03</pdfrwt>
<totfact> 0.10735597E+03</totfact>
</mgrwt>
</event>
<event>
 4    2  0.4086940E+000  0.2168322E+03  0.7546771E-02  0.1136267E+00
         21   -1    0    0  503  502  0.00000000000E+00  0.00000000000E+00  0.74174220459E+02  0.74174220459E+02  0.00000000000E+00 0.  1.
         21   -1    0    0  501  503 -0.00000000000E+00 -0.00000000000E+00 -0.88540775585E+03  0.88540775585E+03  0.00000000000E+00 0.  1.
          6    1    1    2  501    0  0.12188834643E+03 -0.47227309770E+02 -0.66135125215E+03  0.69598970288E+03  0.17300000000E+03 0.  1.
         -6    1    1    2    0  502 -0.12188834643E+03  0.47227309770E+02 -0.14988228324E+03  0.26359227343E+03  0.17300000000E+03 0.  1.
<mgrwt>
<rscale>  2 0.21683217E+03</rscale>
<asrwt>0</asrwt>
<pdfrwt beam="1">  1       21 0.11411419E-01 0.21683217E+03</pdfrwt>
<pdfrwt beam="2">  1       21 0.13621657E+00 0.21683217E+03</pdfrwt>
<totfact> 0.24283504E+04</totfact>
</mgrwt>
</event>
<event>
 4    2  0.4086940E+000  0.2350074E+03  0.7546771E-02  0.1123164E+00
         21   -1    0    0  503  502  0.00000000000E+00  0.00000000000E+00  0.99149246133E+02  0.99149246133E+02  0.00000000000E+00 0.  1.
         21   -1    0    0  501  503 -0.00000000000E+00 -0.00000000000E+00 -0.69002578663E+03  0.69002578663E+03  0.00000000000E+00 0.  1.
          6    1    1    2  501    0  0.14316388720E+03  0.69307722039E+02 -0.46867511055E+03  0.52429459103E+03  0.17300000000E+03 0. -1.
         -6    1    1    2    0  502 -0.14316388720E+03 -0.69307722039E+02 -0.12220142995E+03  0.26488044173E+03  0.17300000000E+03 0. -1.
<mgrwt>
<rscale>  2 0.23500736E+03</rscale>
<asrwt>0</asrwt>
<pdfrwt beam="1">  1       21 0.15253730E-01 0.23500736E+03</pdfrwt>
<pdfrwt beam="2">  1       21 0.10615781E+00 0.23500736E+03</pdfrwt>
<totfact> 0.26442936E+04</totfact>
</mgrwt>
</event>
<event>
 4    2  0.4086940E+000  0.1736347E+03  0.7546771E-02  0.1174110E+00
         21   -1    0    0  501  502  0.00000000000E+00  0.00000000000E+00  0.36684520173E+02  0.36684520173E+02  0.00000000000E+00 0.  1.
         21   -1    0    0  502  503 -0.00000000000E+00 -0.00000000000E+00 -0.12032789402E+04  0.12032789402E+04  0.00000000000E+00 0.  1.
          6    1    1    2  501    0  0.14254451170E+02  0.41028906035E+01 -0.23423335599E+03  0.29157209768E+03  0.17300000000E+03 0.  1.
         -6    1    1    2    0  503 -0.14254451170E+02 -0.41028906035E+01 -0.93236106400E+03  0.94839136265E+03  0.17300000000E+03 0.  1.
<mgrwt>
<rscale>  2 0.17363474E+03</rscale>
<asrwt>0</asrwt>
<pdfrwt beam="1">  1       21 0.56437723E-02 0.17363474E+03</pdfrwt>
<pdfrwt beam="2">  1       21 0.18511984E+00 0.17363474E+03</pdfrwt>
<totfact> 0.37262268E+04</totfact>
</mgrwt>
</event>
<event>
 4    2  0.4086940E+000  0.2355619E+03  0.7546771E-02  0.1122785E+00
         21   -1    0    0  501  502  0.00000000000E+00  0.00000000000E+00  0.94797332993E+02  0.94797332993E+02  0.00000000000E+00 0. -1.
         21   -1    0    0  502  503 -0.00000000000E+00 -0.00000000000E+00 -0.18605036305E+04  0.18605036305E+04  0.00000000000E+00 0.  1.
          6    1    1    2  501    0 -0.56103153230E+02 -0.14970921297E+03 -0.73477777964E+02  0.24675574179E+03  0.17300000000E+03 0. -1.
         -6    1    1    2    0  503  0.56103153230E+02  0.14970921297E+03 -0.16922285195E+04  0.17085452217E+04  0.17300000000E+03 0.  1.
<mgrwt>
<rscale>  2 0.23556191E+03</rscale>
<asrwt>0</asrwt>
<pdfrwt beam="1">  1       21 0.14584205E-01 0.23556191E+03</pdfrwt>
<pdfrwt beam="2">  1       21 0.28623133E+00 0.23556191E+03</pdfrwt>
<totfact> 0.16097406E+03</totfact>
</mgrwt>
</event>
<event>
 4    2  0.4086940E+000  0.2333071E+03  0.7546771E-02  0.1124333E+00
         21   -1    0    0  501  502  0.00000000000E+00  0.00000000000E+00  0.20844862212E+03  0.20844862212E+03  0.00000000000E+00 0.  1.
         21   -1    0    0  502  503 -0.00000000000E+00 -0.00000000000E+00 -0.42874944654E+03  0.42874944654E+03  0.00000000000E+00 0.  1.
          6    1    1    2  501    0  0.27136023160E+02  0.15416502906E+03  0.89056624813E+02  0.24972645507E+03  0.17300000000E+03 0.  1.
         -6    1    1    2    0  503 -0.27136023160E+02 -0.15416502906E+03 -0.30935744923E+03  0.38747161359E+03  0.17300000000E+03 0.  1.
<mgrwt>
<rscale>  2 0.23330714E+03</rscale>
<asrwt>0</asrwt>
<pdfrwt beam="1">  1       21 0.32069018E-01 0.23330714E+03</pdfrwt>
<pdfrwt beam="2">  1       21 0.65961454E-01 0.23330714E+03</pdfrwt>
<totfact> 0.19287302E+04</totfact>
</mgrwt>
</event>
<event>
 4    2  0.4086940E+000  0.2502492E+03  0.7546771E-02  0.1113147E+00
         21   -1    0    0  503  502  0.00000000000E+00  0.00000000000E+00  0.16509222056E+03  0.16509222056E+03  0.00000000000E+00 0.  1.
         21   -1    0    0  501  503 -0.00000000000E+00 -0.00000000000E+00 -0.54306342296E+03  0.54306342296E+03  0.00000000000E+00 0.  1.
          6    1    1    2  501    0 -0.66558616709E+02  0.16812386811E+03 -0.38340522167E+03  0.45784740743E+03  0.17300000000E+03 0.  1.
         -6    1    1    2    0  502  0.66558616709E+02 -0.16812386811E+03  0.54340192769E+01  0.25030823608E+03  0.17300000000E+03 0.  1.
<mgrwt>
<rscale>  2 0.25024924E+03</rscale>
<asrwt>0</asrwt>
<pdfrwt beam="1">  1       21 0.25398803E-01 0.25024924E+03</pdfrwt>
<pdfrwt beam="2">  1       21 0.83548219E-01 0.25024924E+03</pdfrwt>
<totfact> 0.17727395E+04</totfact>
</mgrwt>
</event>
<event>
 4    2  0.4086940E+000  0.2141310E+03  0.7546771E-02  0.1138336E+00
         21   -1    0    0  503  502  0.00000000000E+00  0.00000000000E+00  0.29320863146E+03  0.29320863146E+03  0.00000000000E+00 0. -1.
         21   -1    0    0  501  503 -0.00000000000E+00 -0.00000000000E+00 -0.37097993098E+03  0.37097993098E+03  0.00000000000E+00 0. -1.
          6    1    1    2  501    0  0.83553378326E+02  0.94561687142E+02 -0.29146659533E+03  0.36166953963E+03  0.17300000000E+03 0. -1.
         -6    1    1    2    0  502 -0.83553378326E+02 -0.94561687142E+02  0.21369529582E+03  0.30251902281E+03  0.17300000000E+03 0. -1.
<mgrwt>
<rscale>  2 0.21413099E+03</rscale>
<asrwt>0</asrwt>
<pdfrwt beam="1">  1       21 0.45109020E-01 0.21413099E+03</pdfrwt>
<pdfrwt beam="2">  1       21 0.57073835E-01 0.21413099E+03</pdfrwt>
<totfact> 0.13411398E+04</totfact>
</mgrwt>
</event>
<event>
 4    2  0.4086940E+000  0.1770794E+03  0.7546771E-02  0.1170660E+00
         21   -1    0    0  501  502  0.00000000000E+00  0.00000000000E+00  0.23504874013E+03  0.23504874013E+03  0.00000000000E+00 0.  1.
         21   -1    0    0  502  503 -0.00000000000E+00 -0.00000000000E+00 -0.20609860684E+03  0.20609860684E+03  0.00000000000E+00 0.  1.
          6    1    1    2  501    0  0.36938055569E+02  0.79805784117E+01  0.14547128594E+03  0.22917025246E+03  0.17300000000E+03 0.  1.
         -6    1    1    2    0  503 -0.36938055569E+02 -0.79805784117E+01 -0.11652115265E+03  0.21197709451E+03  0.17300000000E+03 0.  1.
<mgrwt>
<rscale>  2 0.17707939E+03</rscale>
<asrwt>0</asrwt>
<pdfrwt beam="1">  1       21 0.36161345E-01 0.17707939E+03</pdfrwt>
<pdfrwt beam="2">  1       21 0.31707478E-01 0.17707939E+03</pdfrwt>
<totfact> 0.70992669E+04</totfact>
</mgrwt>
</event>
<event>
 4    2  0.4086940E+000  0.2034479E+03  0.7546771E-02  0.1146862E+00
         21   -1    0    0  503  502  0.00000000000E+00  0.00000000000E+00  0.11888686657E+03  0.11888686657E+03  0.00000000000E+00 0.  1.
         21   -1    0    0  501  503 -0.00000000000E+00 -0.00000000000E+00 -0.34992112645E+03  0.34992112645E+03  0.00000000000E+00 0.  1.
          6    1    1    2  501    0  0.98770951112E+02  0.41308199158E+02 -0.98864632448E+02  0.22619744395E+03  0.17300000000E+03 0.  1.
         -6    1    1    2    0  502 -0.98770951112E+02 -0.41308199158E+02 -0.13216962743E+03  0.24261054906E+03  0.17300000000E+03 0.  1.
<mgrwt>
<rscale>  2 0.20344795E+03</rscale>
<asrwt>0</asrwt>
<pdfrwt beam="1">  1       21 0.18290287E-01 0.20344795E+03</pdfrwt>
<pdfrwt beam="2">  1       21 0.53834019E-01 0.20344795E+03</pdfrwt>
<totfact> 0.88551693E+04</totfact>
</mgrwt>
</event>
<event>
 4    2  0.4086940E+000  0.2059640E+03  0.7546771E-02  0.1144802E+00
         21   -1    0    0  503  502  0.00000000000E+00  0.00000000000E+00  0.60373864711E+03  0.60373864711E+03  0.00000000000E+00 0. -1.
         21   -1    0    0  501  503 -0.00000000000E+00 -0.00000000000E+00 -0.70274714483E+02  0.70274714483E+02  0.00000000000E+00 0. -1.
          6    1    1    2  501    0 -0.98090387100E+02  0.53576666268E+02  0.27086387976E+03  0.34027698213E+03  0.17300000000E+03 0. -1.
         -6    1    1    2    0  502  0.98090387100E+02 -0.53576666268E+02  0.26260005287E+03  0.33373637946E+03  0.17300000000E+03 0. -1.
<mgrwt>
<rscale>  2 0.20596403E+03</rscale>
<asrwt>0</asrwt>
<pdfrwt beam="1">  1       21 0.92882865E-01 0.20596403E+03</pdfrwt>
<pdfrwt beam="2">  1       21 0.10811495E-01 0.20596403E+03</pdfrwt>
<totfact> 0.68574071E+04</totfact>
</mgrwt>
</event>
<event>
 4    2  0.4086940E+000  0.2525303E+03  0.7546771E-02  0.1111716E+00
         21   -1    0    0  501  502  0.00000000000E+00  0.00000000000E+00  0.20741808436E+03  0.20741808436E+03  0.00000000000E+00 0.  1.
         21   -1    0    0  502  503 -0.00000000000E+00 -0.00000000000E+00 -0.45857647618E+03  0.45857647618E+03  0.00000000000E+00 0.  1.
          6    1    1    2  501    0  0.18030699426E+03  0.36495986004E+02  0.65581669481E+02  0.26090711862E+03  0.17300000000E+03 0. -1.
         -6    1    1    2    0  503 -0.18030699426E+03 -0.36495986004E+02 -0.31674006130E+03  0.40508744192E+03  0.17300000000E+03 0. -1.
<mgrwt>
<rscale>  2 0.25253033E+03</rscale>
<asrwt>0</asrwt>
<pdfrwt beam="1">  1       21 0.31910475E-01 0.25253033E+03</pdfrwt>
<pdfrwt beam="2">  1       21 0.70550226E-01 0.25253033E+03</pdfrwt>
<totfact> 0.16626231E+04</totfact>
</mgrwt>
</event>
<event>
 4    2  0.4086940E+000  0.2080554E+03  0.7546771E-02  0.1143115E+00
         21   -1    0    0  501  502  0.00000000000E+00  0.00000000000E+00  0.33353748532E+02  0.33353748532E+02  0.00000000000E+00 0.  1.
         21   -1    0    0  502  503 -0.00000000000E+00 -0.00000000000E+00 -0.13181061202E+04  0.13181061202E+04  0.00000000000E+00 0. -1.
          6    1    1    2  501    0 -0.10143627625E+03  0.55396092220E+02 -0.55853933978E+03  0.59603124017E+03  0.17300000000E+03 0. -1.
         -6    1    1    2    0  503  0.10143627625E+03 -0.55396092220E+02 -0.72621303193E+03  0.75542862861E+03  0.17300000000E+03 0. -1.
<mgrwt>
<rscale>  2 0.20805539E+03</rscale>
<asrwt>0</asrwt>
<pdfrwt beam="1">  1       21 0.51313462E-02 0.20805539E+03</pdfrwt>
<pdfrwt beam="2">  1       21 0.20278555E+00 0.20805539E+03</pdfrwt>
<totfact> 0.32817715E+04</totfact>
</mgrwt>
</event>
<event>
 4    2  0.4086940E+000  0.1751193E+03  0.7546771E-02  0.1172612E+00
         21   -1    0    0  503  502  0.00000000000E+00  0.00000000000E+00  0.13562126891E+03  0.13562126891E+03  0.00000000000E+00 0. -1.
         21   -1    0    0  501  503 -0.00000000000E+00 -0.00000000000E+00 -0.22820071250E+03  0.22820071250E+03  0.00000000000E+00 0. -1.
          6    1    1    2  501    0 -0.17000133273E+02 -0.21183665902E+02 -0.28921637860E+02  0.17749144590E+03  0.17300000000E+03 0. -1.
         -6    1    1    2    0  502  0.17000133273E+02  0.21183665902E+02 -0.63657805722E+02  0.18633053551E+03  0.17300000000E+03 0. -1.
<mgrwt>
<rscale>  2 0.17511925E+03</rscale>
<asrwt>0</asrwt>
<pdfrwt beam="1">  1       21 0.20864811E-01 0.17511925E+03</pdfrwt>
<pdfrwt beam="2">  1       21 0.35107802E-01 0.17511925E+03</pdfrwt>
<totfact> 0.16769821E+05</totfact>
</mgrwt>
</event>
<event>
 4    2  0.4086940E+000  0.2088606E+03  0.7546771E-02  0.1142471E+00
         21   -1    0    0  503  502  0.00000000000E+00  0.00000000000E+00  0.19020361527E+03  0.19020361527E+03  0.00000000000E+00 0. -1.
         21   -1    0    0  501  503 -0.00000000000E+00 -0.00000000000E+00 -0.95518699105E+03  0.95518699105E+03  0.00000000000E+00 0.  1.
          6    1    1    2  501    0 -0.55159735707E+02 -0.10320440737E+03 -0.88172054735E+03  0.90612022920E+03  0.17300000000E+03 0.  1.
         -6    1    1    2    0  502  0.55159735707E+02  0.10320440737E+03  0.11673717156E+03  0.23927037712E+03  0.17300000000E+03 0. -1.
<mgrwt>
<rscale>  2 0.20886059E+03</rscale>
<asrwt>0</asrwt>
<pdfrwt beam="1">  1       21 0.29262095E-01 0.20886059E+03</pdfrwt>
<pdfrwt beam="2">  1       21 0.14695184E+00 0.20886059E+03</pdfrwt>
<totfact> 0.34791307E+03</totfact>
</mgrwt>
</event>
<event>
 4    2  0.4086940E+000  0.2168767E+03  0.7546771E-02  0.1136233E+00
         21   -1    0    0  501  502  0.00000000000E+00  0.00000000000E+00  0.11666007612E+03  0.11666007612E+03  0.00000000000E+00 0.  1.
         21   -1    0    0  502  503 -0.00000000000E+00 -0.00000000000E+00 -0.77544236058E+03  0.77544236058E+03  0.00000000000E+00 0.  1.
          6    1    1    2  501    0 -0.10874935498E+03  0.72664036931E+02 -0.20338715891E+02  0.21782825307E+03  0.17300000000E+03 0.  1.
         -6    1    1    2    0  503  0.10874935498E+03 -0.72664036931E+02 -0.63844356857E+03  0.67427418363E+03  0.17300000000E+03 0.  1.
<mgrwt>
<rscale>  2 0.21687666E+03</rscale>
<asrwt>0</asrwt>
<pdfrwt beam="1">  1       21 0.17947704E-01 0.21687666E+03</pdfrwt>
<pdfrwt beam="2">  1       21 0.11929882E+00 0.21687666E+03</pdfrwt>
<totfact> 0.14886521E+04</totfact>
</mgrwt>
</event>
<event>
 4    2  0.4086940E+000  0.2418962E+03  0.7546771E-02  0.1118536E+00
         21   -1    0    0  503  502  0.00000000000E+00  0.00000000000E+00  0.42977033456E+03  0.42977033456E+03  0.00000000000E+00 0.  1.
         21   -1    0    0  501  503 -0.00000000000E+00 -0.00000000000E+00 -0.27720235887E+03  0.27720235887E+03  0.00000000000E+00 0.  1.
          6    1    1    2  501    0  0.43497247131E+02  0.16337914970E+03 -0.17586804609E+03  0.29907077206E+03  0.17300000000E+03 0.  1.
         -6    1    1    2    0  502 -0.43497247131E+02 -0.16337914970E+03  0.32843602178E+03  0.40790192138E+03  0.17300000000E+03 0.  1.
<mgrwt>
<rscale>  2 0.24189617E+03</rscale>
<asrwt>0</asrwt>
<pdfrwt beam="1">  1       21 0.66118513E-01 0.24189617E+03</pdfrwt>
<pdfrwt beam="2">  1       21 0.42646517E-01 0.24189617E+03</pdfrwt>
<totfact> 0.10769123E+04</totfact>
</mgrwt>
</event>
<event>
 4    2  0.4086940E+000  0.2314309E+03  0.7546771E-02  0.1125637E+00
         21   -1    0    0  501  502  0.00000000000E+00  0.00000000000E+00  0.91462835717E+02  0.91462835717E+02  0.00000000000E+00 0. -1.
         21   -1    0    0  502  503 -0.00000000000E+00 -0.00000000000E+00 -0.99523910603E+03  0.99523910603E+03  0.00000000000E+00 0. -1.
          6    1    1    2  501    0 -0.13942415280E+03 -0.64746968555E+02 -0.10329438731E+03  0.25343637223E+03  0.17300000000E+03 0. -1.
         -6    1    1    2    0  503  0.13942415280E+03  0.64746968555E+02 -0.80048188300E+03  0.83326556951E+03  0.17300000000E+03 0. -1.
<mgrwt>
<rscale>  2 0.23143091E+03</rscale>
<asrwt>0</asrwt>
<pdfrwt beam="1">  1       21 0.14071205E-01 0.23143091E+03</pdfrwt>
<pdfrwt beam="2">  1       21 0.15311371E+00 0.23143091E+03</pdfrwt>
<totfact> 0.12141002E+04</totfact>
</mgrwt>
</event>
<event>
 4    2  0.4086940E+000  0.2648462E+03  0.7546771E-02  0.1104266E+00
         21   -1    0    0  503  502  0.00000000000E+00  0.00000000000E+00  0.12136770164E+03  0.12136770164E+03  0.00000000000E+00 0.  1.
         21   -1    0    0  501  503 -0.00000000000E+00 -0.00000000000E+00 -0.80194873325E+03  0.80194873325E+03  0.00000000000E+00 0. -1.
          6    1    1    2  501    0 -0.14154445519E+03  0.14205519031E+03 -0.58428368199E+03  0.64150676608E+03  0.17300000000E+03 0. -1.
         -6    1    1    2    0  502  0.14154445519E+03 -0.14205519031E+03 -0.96297349610E+02  0.28180966880E+03  0.17300000000E+03 0.  1.
<mgrwt>
<rscale>  2 0.26484620E+03</rscale>
<asrwt>0</asrwt>
<pdfrwt beam="1">  1       21 0.18671954E-01 0.26484620E+03</pdfrwt>
<pdfrwt beam="2">  1       21 0.12337673E+00 0.26484620E+03</pdfrwt>
<totfact> 0.12369656E+04</totfact>
</mgrwt>
</event>
<event>
 4    2  0.4086940E+000  0.2650960E+03  0.7546771E-02  0.1104120E+00
         21   -1    0    0  503  502  0.00000000000E+00  0.00000000000E+00  0.57318489123E+02  0.57318489123E+02  0.00000000000E+00 0. -1.
         21   -1    0    0  501  503 -0.00000000000E+00 -0.00000000000E+00 -0.13475590479E+04  0.13475590479E+04  0.00000000000E+00 0. -1.
          6    1    1    2  501    0  0.61890020872E+02  0.19109296012E+03 -0.85604204753E+03  0.89614947483E+03  0.17300000000E+03 0. -1.
         -6    1    1    2    0  502 -0.61890020872E+02 -0.19109296012E+03 -0.43419851120E+03  0.50872806215E+03  0.17300000000E+03 0. -1.
<mgrwt>
<rscale>  2 0.26509601E+03</rscale>
<asrwt>0</asrwt>
<pdfrwt beam="1">  1       21 0.88182298E-02 0.26509601E+03</pdfrwt>
<pdfrwt beam="2">  1       21 0.20731676E+00 0.26509601E+03</pdfrwt>
<totfact> 0.11583307E+04</totfact>
</mgrwt>
</event>
<event>
 4    2  0.4086940E+000  0.2479723E+03  0.7546771E-02  0.1114593E+00
         21   -1    0    0  503  502  0.00000000000E+00  0.00000000000E+00  0.13370261179E+03  0.13370261179E+03  0.00000000000E+00 0.  1.
         21   -1    0    0  501  503 -0.00000000000E+00 -0.00000000000E+00 -0.52677007088E+03  0.52677007088E+03  0.00000000000E+00 0. -1.
          6    1    1    2  501    0  0.17587661538E+03  0.25073243280E+02 -0.78876124504E+02  0.26021470824E+03  0.17300000000E+03 0.  1.
         -6    1    1    2    0  502 -0.17587661538E+03 -0.25073243280E+02 -0.31419133459E+03  0.40025797443E+03  0.17300000000E+03 0. -1.
<mgrwt>
<rscale>  2 0.24797228E+03</rscale>
<asrwt>0</asrwt>
<pdfrwt beam="1">  1       21 0.20569632E-01 0.24797228E+03</pdfrwt>
<pdfrwt beam="2">  1       21 0.81041550E-01 0.24797228E+03</pdfrwt>
<totfact> 0.28427972E+04</totfact>
</mgrwt>
</event>
<event>
 4    2  0.4086940E+000  0.2129350E+03  0.7546771E-02  0.1139263E+00
         21   -1    0    0  503  502  0.00000000000E+00  0.00000000000E+00  0.15886522246E+03  0.15886522246E+03  0.00000000000E+00 0. -1.
         21   -1    0    0  501  503 -0.00000000000E+00 -0.00000000000E+00 -0.28546005560E+03  0.28546005560E+03  0.00000000000E+00 0.  1.
          6    1    1    2  501    0  0.12010317187E+03  0.31425463905E+02 -0.66310836209E+02  0.22302120678E+03  0.17300000000E+03 0.  1.
         -6    1    1    2    0  502 -0.12010317187E+03 -0.31425463905E+02 -0.60283996930E+02  0.22130407127E+03  0.17300000000E+03 0.  1.
<mgrwt>
<rscale>  2 0.21293504E+03</rscale>
<asrwt>0</asrwt>
<pdfrwt beam="1">  1       21 0.24440804E-01 0.21293504E+03</pdfrwt>
<pdfrwt beam="2">  1       21 0.43916931E-01 0.21293504E+03</pdfrwt>
<totfact> 0.78097012E+04</totfact>
</mgrwt>
</event>
<event>
 4    2  0.4086940E+000  0.2304645E+03  0.7546771E-02  0.1126313E+00
         21   -1    0    0  503  502  0.00000000000E+00  0.00000000000E+00  0.24766874819E+03  0.24766874819E+03  0.00000000000E+00 0. -1.
         21   -1    0    0  501  503 -0.00000000000E+00 -0.00000000000E+00 -0.46234571137E+03  0.46234571137E+03  0.00000000000E+00 0. -1.
          6    1    1    2  501    0 -0.49216078132E+02  0.14409256816E+03 -0.36728475299E+03  0.43360348283E+03  0.17300000000E+03 0. -1.
         -6    1    1    2    0  502  0.49216078132E+02 -0.14409256816E+03  0.15260778981E+03  0.27641097673E+03  0.17300000000E+03 0. -1.
<mgrwt>
<rscale>  2 0.23046451E+03</rscale>
<asrwt>0</asrwt>
<pdfrwt beam="1">  1       21 0.38102885E-01 0.23046451E+03</pdfrwt>
<pdfrwt beam="2">  1       21 0.71130109E-01 0.23046451E+03</pdfrwt>
<totfact> 0.11597657E+04</totfact>
</mgrwt>
</event>
<event>
 4    2  0.4086940E+000  0.2506702E+03  0.7546771E-02  0.1112882E+00
         21   -1    0    0  503  502  0.00000000000E+00  0.00000000000E+00  0.49823747586E+03  0.49823747586E+03  0.00000000000E+00 0. -1.
         21   -1    0    0  501  503 -0.00000000000E+00 -0.00000000000E+00 -0.22909731930E+03  0.22909731930E+03  0.00000000000E+00 0.  1.
          6    1    1    2  501    0 -0.16424427671E+03 -0.77008754493E+02 -0.10925275930E+03  0.27344413710E+03  0.17300000000E+03 0.  1.
         -6    1    1    2    0  502  0.16424427671E+03  0.77008754493E+02  0.37839291586E+03  0.45389065806E+03  0.17300000000E+03 0. -1.
<mgrwt>
<rscale>  2 0.25067016E+03</rscale>
<asrwt>0</asrwt>
<pdfrwt beam="1">  1       21 0.76651919E-01 0.25067016E+03</pdfrwt>
<pdfrwt beam="2">  1       21 0.35245741E-01 0.25067016E+03</pdfrwt>
<totfact> 0.11342257E+04</totfact>
</mgrwt>
</event>
<event>
 4    2  0.4086940E+000  0.1877990E+03  0.7546771E-02  0.1160462E+00
         21   -1    0    0  501  502  0.00000000000E+00  0.00000000000E+00  0.11506058592E+03  0.11506058592E+03  0.00000000000E+00 0.  1.
         21   -1    0    0  502  503 -0.00000000000E+00 -0.00000000000E+00 -0.39448035720E+03  0.39448035720E+03  0.00000000000E+00 0.  1.
          6    1    1    2  501    0  0.18412712500E+02  0.70713884794E+02 -0.19406592205E+02  0.18879909244E+03  0.17300000000E+03 0.  1.
         -6    1    1    2    0  503 -0.18412712500E+02 -0.70713884794E+02 -0.26001317908E+03  0.32074185068E+03  0.17300000000E+03 0.  1.
<mgrwt>
<rscale>  2 0.18779905E+03</rscale>
<asrwt>0</asrwt>
<pdfrwt beam="1">  1       21 0.17701629E-01 0.18779905E+03</pdfrwt>
<pdfrwt beam="2">  1       21 0.60689285E-01 0.18779905E+03</pdfrwt>
<totfact> 0.73362355E+04</totfact>
</mgrwt>
</event>
<event>
 4    2  0.4086940E+000  0.2760688E+03  0.7546771E-02  0.1097856E+00
         21   -1    0    0  501  502  0.00000000000E+00  0.00000000000E+00  0.36694802215E+03  0.36694802215E+03  0.00000000000E+00 0. -1.
         21   -1    0    0  502  503 -0.00000000000E+00 -0.00000000000E+00 -0.31194987038E+03  0.31194987038E+03  0.00000000000E+00 0. -1.
          6    1    1    2  501    0  0.44260605985E+01 -0.21509393029E+03  0.22373393279E+03  0.35534611513E+03  0.17300000000E+03 0. -1.
         -6    1    1    2    0  503 -0.44260605985E+01  0.21509393029E+03 -0.16873578101E+03  0.32355177739E+03  0.17300000000E+03 0. -1.
<mgrwt>
<rscale>  2 0.27606881E+03</rscale>
<asrwt>0</asrwt>
<pdfrwt beam="1">  1       21 0.56453541E-01 0.27606881E+03</pdfrwt>
<pdfrwt beam="2">  1       21 0.47992288E-01 0.27606881E+03</pdfrwt>
<totfact> 0.11674390E+04</totfact>
</mgrwt>
</event>
<event>
 4    2  0.4086940E+000  0.1779065E+03  0.7546771E-02  0.1169845E+00
         21   -1    0    0  501  502  0.00000000000E+00  0.00000000000E+00  0.76921670024E+03  0.76921670024E+03  0.00000000000E+00 0.  1.
         21   -1    0    0  502  503 -0.00000000000E+00 -0.00000000000E+00 -0.51082997087E+02  0.51082997087E+02  0.00000000000E+00 0.  1.
          6    1    1    2  501    0  0.41485078088E+02 -0.83666923666E+00  0.17817577644E+03  0.25178824243E+03  0.17300000000E+03 0.  1.
         -6    1    1    2    0  503 -0.41485078088E+02  0.83666923666E+00  0.53995792672E+03  0.56851145490E+03  0.17300000000E+03 0.  1.
<mgrwt>
<rscale>  2 0.17790647E+03</rscale>
<asrwt>0</asrwt>
<pdfrwt beam="1">  1       21 0.11834102E+00 0.17790647E+03</pdfrwt>
<pdfrwt beam="2">  1       21 0.78589232E-02 0.17790647E+03</pdfrwt>
<totfact> 0.68139350E+04</totfact>
</mgrwt>
</event>
<event>
 4    2  0.4086940E+000  0.2946181E+03  0.7546771E-02  0.1087962E+00
         21   -1    0    0  501  502  0.00000000000E+00  0.00000000000E+00  0.56127870435E+03  0.56127870435E+03  0.00000000000E+00 0.  1.
         21   -1    0    0  502  503 -0.00000000000E+00 -0.00000000000E+00 -0.15908983965E+03  0.15908983965E+03  0.00000000000E+00 0.  1.
          6    1    1    2  501    0 -0.67365153269E+02 -0.22876350258E+03  0.26128893254E+03  0.39379145529E+03  0.17300000000E+03 0.  1.
         -6    1    1    2    0  503  0.67365153269E+02  0.22876350258E+03  0.14089993216E+03  0.32657708871E+03  0.17300000000E+03 0.  1.
<mgrwt>
<rscale>  2 0.29461806E+03</rscale>
<asrwt>0</asrwt>
<pdfrwt beam="1">  1       21 0.86350569E-01 0.29461806E+03</pdfrwt>
<pdfrwt beam="2">  1       21 0.24475360E-01 0.29461806E+03</pdfrwt>
<totfact> 0.17283816E+04</totfact>
</mgrwt>
</event>
<event>
 4    2  0.4086940E+000  0.2903934E+03  0.7546771E-02  0.1090144E+00
         21   -1    0    0  503  502  0.00000000000E+00  0.00000000000E+00  0.24862094627E+03  0.24862094627E+03  0.00000000000E+00 0.  1.
         21   -1    0    0  501  503 -0.00000000000E+00 -0.00000000000E+00 -0.38999316890E+03  0.38999316890E+03  0.00000000000E+00 0. -1.
          6    1    1    2  501    0  0.54034238605E+02 -0.22689121488E+03 -0.18593845590E+03  0.34482086902E+03  0.17300000000E+03 0.  1.
         -6    1    1    2    0  502 -0.54034238605E+02  0.22689121488E+03  0.44566233263E+02  0.29379324614E+03  0.17300000000E+03 0. -1.
<mgrwt>
<rscale>  2 0.29039339E+03</rscale>
<asrwt>0</asrwt>
<pdfrwt beam="1">  1       21 0.38249376E-01 0.29039339E+03</pdfrwt>
<pdfrwt beam="2">  1       21 0.59998949E-01 0.29039339E+03</pdfrwt>
<totfact> 0.16227901E+04</totfact>
</mgrwt>
</event>
<event>
 4    2  0.4086940E+000  0.1973862E+03  0.7546771E-02  0.1151963E+00
         21   -1    0    0  503  502  0.00000000000E+00  0.00000000000E+00  0.39259017251E+02  0.39259017251E+02  0.00000000000E+00 0.  1.
         21   -1    0    0  501  503 -0.00000000000E+00 -0.00000000000E+00 -0.14146157338E+04  0.14146157338E+04  0.00000000000E+00 0.  1.
          6    1    1    2  501    0 -0.69462262063E+02  0.64863790446E+02 -0.10848115684E+04  0.11026229891E+04  0.17300000000E+03 0.  1.
         -6    1    1    2    0  502  0.69462262063E+02 -0.64863790446E+02 -0.29054514817E+03  0.35125176197E+03  0.17300000000E+03 0.  1.
<mgrwt>
<rscale>  2 0.19738621E+03</rscale>
<asrwt>0</asrwt>
<pdfrwt beam="1">  1       21 0.60398480E-02 0.19738621E+03</pdfrwt>
<pdfrwt beam="2">  1       21 0.21763322E+00 0.19738621E+03</pdfrwt>
<totfact> 0.20204520E+04</totfact>
</mgrwt>
</event>
<event>
 4    2  0.4086940E+000  0.1828642E+03  0.7546771E-02  0.1165060E+00
         21   -1    0    0  501  502  0.00000000000E+00  0.00000000000E+00  0.56315523093E+02  0.56315523093E+02  0.00000000000E+00 0.  1.
         21   -1    0    0  502  503 -0.00000000000E+00 -0.00000000000E+00 -0.86297567863E+03  0.86297567863E+03  0.00000000000E+00 0.  1.
          6    1    1    2  501    0 -0.56869742859E+02 -0.16617263169E+02 -0.14661344512E+03  0.23438174711E+03  0.17300000000E+03 0.  1.
         -6    1    1    2    0  503  0.56869742859E+02  0.16617263169E+02 -0.66004671041E+03  0.68490945461E+03  0.17300000000E+03 0.  1.
<mgrwt>
<rscale>  2 0.18286416E+03</rscale>
<asrwt>0</asrwt>
<pdfrwt beam="1">  1       21 0.86639268E-02 0.18286416E+03</pdfrwt>
<pdfrwt beam="2">  1       21 0.13276549E+00 0.18286416E+03</pdfrwt>
<totfact> 0.43026487E+04</totfact>
</mgrwt>
</event>
<event>
 4    2  0.4086940E+000  0.2280887E+03  0.7546771E-02  0.1127992E+00
         21   -1    0    0  503  502  0.00000000000E+00  0.00000000000E+00  0.15482041125E+04  0.15482041125E+04  0.00000000000E+00 0. -1.
         21   -1    0    0  501  503 -0.00000000000E+00 -0.00000000000E+00 -0.94745911220E+02  0.94745911220E+02  0.00000000000E+00 0.  1.
          6    1    1    2  501    0  0.14496579980E+03  0.32869155464E+02  0.66815917372E+02  0.23767379179E+03  0.17300000000E+03 0.  1.
         -6    1    1    2    0  502 -0.14496579980E+03 -0.32869155464E+02  0.13866422839E+04  0.14052762320E+04  0.17300000000E+03 0. -1.
<mgrwt>
<rscale>  2 0.22808872E+03</rscale>
<asrwt>0</asrwt>
<pdfrwt beam="1">  1       21 0.23818523E+00 0.22808872E+03</pdfrwt>
<pdfrwt beam="2">  1       21 0.14576295E-01 0.22808872E+03</pdfrwt>
<totfact> 0.31155703E+03</totfact>
</mgrwt>
</event>
<event>
 4    2  0.4086940E+000  0.2073399E+03  0.7546771E-02  0.1143690E+00
         21   -1    0    0  501  502  0.00000000000E+00  0.00000000000E+00  0.77259952381E+02  0.77259952381E+02  0.00000000000E+00 0.  1.
         21   -1    0    0  502  503 -0.00000000000E+00 -0.00000000000E+00 -0.55839766019E+03  0.55839766019E+03  0.00000000000E+00 0.  1.
          6    1    1    2  501    0  0.11255451425E+03 -0.19807082110E+02 -0.25943037311E+03  0.33210534123E+03  0.17300000000E+03 0.  1.
         -6    1    1    2    0  503 -0.11255451425E+03  0.19807082110E+02 -0.22170733469E+03  0.30355227134E+03  0.17300000000E+03 0.  1.
<mgrwt>
<rscale>  2 0.20733991E+03</rscale>
<asrwt>0</asrwt>
<pdfrwt beam="1">  1       21 0.11886146E-01 0.20733991E+03</pdfrwt>
<pdfrwt beam="2">  1       21 0.85907336E-01 0.20733991E+03</pdfrwt>
<totfact> 0.69334193E+04</totfact>
</mgrwt>
</event>
<event>
 4    2  0.4086940E+000  0.1934854E+03  0.7546771E-02  0.1155355E+00
         21   -1    0    0  503  502  0.00000000000E+00  0.00000000000E+00  0.71835333749E+03  0.71835333749E+03  0.00000000000E+00 0.  1.
         21   -1    0    0  501  503 -0.00000000000E+00 -0.00000000000E+00 -0.11812661565E+03  0.11812661565E+03  0.00000000000E+00 0.  1.
          6    1    1    2  501    0  0.19300232585E+02  0.84469533273E+02 -0.12540356341E+02  0.19389136537E+03  0.17300000000E+03 0.  1.
         -6    1    1    2    0  502 -0.19300232585E+02 -0.84469533273E+02  0.61276707818E+03  0.64258858777E+03  0.17300000000E+03 0.  1.
<mgrwt>
<rscale>  2 0.19348540E+03</rscale>
<asrwt>0</asrwt>
<pdfrwt beam="1">  1       21 0.11051590E+00 0.19348540E+03</pdfrwt>
<pdfrwt beam="2">  1       21 0.18173326E-01 0.19348540E+03</pdfrwt>
<totfact> 0.17802796E+04</totfact>
</mgrwt>
</event>
<event>
 4    2  0.4086940E+000  0.2393949E+03  0.7546771E-02  0.1120197E+00
         21   -1    0    0  503  502  0.00000000000E+00  0.00000000000E+00  0.99505605678E+03  0.99505605678E+03  0.00000000000E+00 0.  1.
         21   -1    0    0  501  503 -0.00000000000E+00 -0.00000000000E+00 -0.81076336374E+02  0.81076336374E+02  0.00000000000E+00 0. -1.
          6    1    1    2  501    0  0.83694851731E+01  0.16526000832E+03  0.16742012512E+03  0.29212911003E+03  0.17300000000E+03 0. -1.
         -6    1    1    2    0  502 -0.83694851731E+01 -0.16526000832E+03  0.74655959528E+03  0.78400328312E+03  0.17300000000E+03 0.  1.
<mgrwt>
<rscale>  2 0.23939490E+03</rscale>
<asrwt>0</asrwt>
<pdfrwt beam="1">  1       21 0.15308554E+00 0.23939490E+03</pdfrwt>
<pdfrwt beam="2">  1       21 0.12473283E-01 0.23939490E+03</pdfrwt>
<totfact> 0.15037743E+04</totfact>
</mgrwt>
</event>
<event>
 4    2  0.4086940E+000  0.2405825E+03  0.7546771E-02  0.1119405E+00
         21   -1    0    0  503  502  0.00000000000E+00  0.00000000000E+00  0.65835075362E+02  0.65835075362E+02  0.00000000000E+00 0.  1.
         21   -1    0    0  501  503 -0.00000000000E+00 -0.00000000000E+00 -0.10538414755E+04  0.10538414755E+04  0.00000000000E+00 0.  1.
          6    1    1    2  501    0 -0.47742841931E+02  0.16022341145E+03 -0.72192803743E+03  0.76095992783E+03  0.17300000000E+03 0.  1.
         -6    1    1    2    0  502  0.47742841931E+02 -0.16022341145E+03 -0.26607836266E+03  0.35871662299E+03  0.17300000000E+03 0.  1.
<mgrwt>
<rscale>  2 0.24058246E+03</rscale>
<asrwt>0</asrwt>
<pdfrwt beam="1">  1       21 0.10128474E-01 0.24058246E+03</pdfrwt>
<pdfrwt beam="2">  1       21 0.16212945E+00 0.24058246E+03</pdfrwt>
<totfact> 0.18677825E+04</totfact>
</mgrwt>
</event>
<event>
 4    2  0.4086940E+000  0.3328617E+03  0.7546771E-02  0.1069878E+00
         21   -1    0    0  501  502  0.00000000000E+00  0.00000000000E+00  0.83664929604E+02  0.83664929604E+02  0.00000000000E+00 0.  1.
         21   -1    0    0  502  503 -0.00000000000E+00 -0.00000000000E+00 -0.14582528154E+04  0.14582528154E+04  0.00000000000E+00 0. -1.
          6    1    1    2  501    0  0.10478152535E+03 -0.26436477516E+03 -0.45362464841E+03  0.56264751314E+03  0.17300000000E+03 0.  1.
         -6    1    1    2    0  503 -0.10478152535E+03  0.26436477516E+03 -0.92096323741E+03  0.97927023189E+03  0.17300000000E+03 0.  1.
<mgrwt>
<rscale>  2 0.33286169E+03</rscale>
<asrwt>0</asrwt>
<pdfrwt beam="1">  1       21 0.12871528E-01 0.33286169E+03</pdfrwt>
<pdfrwt beam="2">  1       21 0.22434658E+00 0.33286169E+03</pdfrwt>
<totfact> 0.44076425E+03</totfact>
</mgrwt>
</event>
<event>
 4    2  0.4086940E+000  0.1794239E+03  0.7546771E-02  0.1168362E+00
         21   -1    0    0  503  502  0.00000000000E+00  0.00000000000E+00  0.18953878173E+03  0.18953878173E+03  0.00000000000E+00 0.  1.
         21   -1    0    0  501  503 -0.00000000000E+00 -0.00000000000E+00 -0.25205013164E+03  0.25205013164E+03  0.00000000000E+00 0.  1.
          6    1    1    2  501    0 -0.35408163284E+02  0.31783778926E+02 -0.15734663769E+03  0.23864390003E+03  0.17300000000E+03 0.  1.
         -6    1    1    2    0  502  0.35408163284E+02 -0.31783778926E+02  0.94835287785E+02  0.20294501334E+03  0.17300000000E+03 0.  1.
<mgrwt>
<rscale>  2 0.17942393E+03</rscale>
<asrwt>0</asrwt>
<pdfrwt beam="1">  1       21 0.29159812E-01 0.17942393E+03</pdfrwt>
<pdfrwt beam="2">  1       21 0.38776943E-01 0.17942393E+03</pdfrwt>
<totfact> 0.72619036E+04</totfact>
</mgrwt>
</event>
<event>
 4    2  0.4086940E+000  0.1858234E+03  0.7546771E-02  0.1162283E+00
         21   -1    0    0  501  502  0.00000000000E+00  0.00000000000E+00  0.59213253275E+02  0.59213253275E+02  0.00000000000E+00 0.  1.
         21   -1    0    0  502  503 -0.00000000000E+00 -0.00000000000E+00 -0.86001797278E+03  0.86001797278E+03  0.00000000000E+00 0.  1.
          6    1    1    2  501    0  0.19807630202E+02 -0.64876807339E+02 -0.66118315120E+03  0.68679946256E+03  0.17300000000E+03 0.  1.
         -6    1    1    2    0  503 -0.19807630202E+02  0.64876807339E+02 -0.13962156830E+03  0.23243176349E+03  0.17300000000E+03 0.  1.
<mgrwt>
<rscale>  2 0.18582342E+03</rscale>
<asrwt>0</asrwt>
<pdfrwt beam="1">  1       21 0.91097318E-02 0.18582342E+03</pdfrwt>
<pdfrwt beam="2">  1       21 0.13231045E+00 0.18582342E+03</pdfrwt>
<totfact> 0.39686067E+04</totfact>
</mgrwt>
</event>
<event>
 4    2  0.4086940E+000  0.2296611E+03  0.7546771E-02  0.1126879E+00
         21   -1    0    0  501  502  0.00000000000E+00  0.00000000000E+00  0.11965245982E+04  0.11965245982E+04  0.00000000000E+00 0.  1.
         21   -1    0    0  502  503 -0.00000000000E+00 -0.00000000000E+00 -0.44908549938E+02  0.44908549938E+02  0.00000000000E+00 0. -1.
          6    1    1    2  501    0  0.11188231431E+03  0.10147696294E+03  0.66005929967E+03  0.69887230976E+03  0.17300000000E+03 0.  1.
         -6    1    1    2    0  503 -0.11188231431E+03 -0.10147696294E+03  0.49155674860E+03  0.54256083839E+03  0.17300000000E+03 0. -1.
<mgrwt>
<rscale>  2 0.22966111E+03</rscale>
<asrwt>0</asrwt>
<pdfrwt beam="1">  1       21 0.18408068E+00 0.22966111E+03</pdfrwt>
<pdfrwt beam="2">  1       21 0.69090086E-02 0.22966111E+03</pdfrwt>
<totfact> 0.25778698E+04</totfact>
</mgrwt>
</event>
<event>
 4    2  0.4086940E+000  0.2610095E+03  0.7546771E-02  0.1106538E+00
         21   -1    0    0  501  502  0.00000000000E+00  0.00000000000E+00  0.12056838851E+03  0.12056838851E+03  0.00000000000E+00 0. -1.
         21   -1    0    0  502  503 -0.00000000000E+00 -0.00000000000E+00 -0.72532344596E+03  0.72532344596E+03  0.00000000000E+00 0.  1.
          6    1    1    2  501    0  0.66304098371E+02  0.18384972866E+03 -0.10355601207E+03  0.28080207233E+03  0.17300000000E+03 0. -1.
         -6    1    1    2    0  503 -0.66304098371E+02 -0.18384972866E+03 -0.50119904538E+03  0.56508976214E+03  0.17300000000E+03 0.  1.
<mgrwt>
<rscale>  2 0.26100949E+03</rscale>
<asrwt>0</asrwt>
<pdfrwt beam="1">  1       21 0.18548983E-01 0.26100949E+03</pdfrwt>
<pdfrwt beam="2">  1       21 0.11158822E+00 0.26100949E+03</pdfrwt>
<totfact> 0.16099532E+04</totfact>
</mgrwt>
</event>
<event>
 4    2  0.4086940E+000  0.2055409E+03  0.7546771E-02  0.1145147E+00
         21   -1    0    0  503  502  0.00000000000E+00  0.00000000000E+00  0.24611196244E+03  0.24611196244E+03  0.00000000000E+00 0. -1.
         21   -1    0    0  501  503 -0.00000000000E+00 -0.00000000000E+00 -0.24352373554E+03  0.24352373554E+03  0.00000000000E+00 0. -1.
          6    1    1    2  501    0 -0.55146761543E+02 -0.96316664873E+02 -0.13170037305E+03  0.24411483671E+03  0.17300000000E+03 0. -1.
         -6    1    1    2    0  502  0.55146761543E+02  0.96316664873E+02  0.13428859995E+03  0.24552086127E+03  0.17300000000E+03 0. -1.
<mgrwt>
<rscale>  2 0.20554091E+03</rscale>
<asrwt>0</asrwt>
<pdfrwt beam="1">  1       21 0.37863379E-01 0.20554091E+03</pdfrwt>
<pdfrwt beam="2">  1       21 0.37465190E-01 0.20554091E+03</pdfrwt>
<totfact> 0.45926458E+04</totfact>
</mgrwt>
</event>
<event>
 4    2  0.4086940E+000  0.2018874E+03  0.7546771E-02  0.1148156E+00
         21   -1    0    0  503  502  0.00000000000E+00  0.00000000000E+00  0.17323886528E+03  0.17323886528E+03  0.00000000000E+00 0. -1.
         21   -1    0    0  501  503 -0.00000000000E+00 -0.00000000000E+00 -0.23560031534E+03  0.23560031534E+03  0.00000000000E+00 0. -1.
          6    1    1    2  501    0  0.19637784193E+02 -0.10219520793E+03 -0.38794995214E+02  0.20558101747E+03  0.17300000000E+03 0. -1.
         -6    1    1    2    0  502 -0.19637784193E+02  0.10219520793E+03 -0.23566454841E+02  0.20325816314E+03  0.17300000000E+03 0. -1.
<mgrwt>
<rscale>  2 0.20188735E+03</rscale>
<asrwt>0</asrwt>
<pdfrwt beam="1">  1       21 0.26652133E-01 0.20188735E+03</pdfrwt>
<pdfrwt beam="2">  1       21 0.36246202E-01 0.20188735E+03</pdfrwt>
<totfact> 0.97988398E+04</totfact>
</mgrwt>
</event>
<event>
 4    2  0.4086940E+000  0.3293799E+03  0.7546771E-02  0.1071412E+00
         21   -1    0    0  501  502  0.00000000000E+00  0.00000000000E+00  0.11510693474E+03  0.11510693474E+03  0.00000000000E+00 0. -1.
         21   -1    0    0  502  503 -0.00000000000E+00 -0.00000000000E+00 -0.94935673779E+03  0.94935673779E+03  0.00000000000E+00 0. -1.
          6    1    1    2  501    0  0.18852281827E+02 -0.27965462246E+03 -0.37197417137E+03  0.49684595254E+03  0.17300000000E+03 0. -1.
         -6    1    1    2    0  503 -0.18852281827E+02  0.27965462246E+03 -0.46227563169E+03  0.56761771999E+03  0.17300000000E+03 0. -1.
<mgrwt>
<rscale>  2 0.32937990E+03</rscale>
<asrwt>0</asrwt>
<pdfrwt beam="1">  1       21 0.17708759E-01 0.32937990E+03</pdfrwt>
<pdfrwt beam="2">  1       21 0.14605488E+00 0.32937990E+03</pdfrwt>
<totfact> 0.85501869E+03</totfact>
</mgrwt>
</event>
<event>
 4    2  0.4086940E+000  0.1964280E+03  0.7546771E-02  0.1152788E+00
         21   -1    0    0  501  502  0.00000000000E+00  0.00000000000E+00  0.19394057788E+04  0.19394057788E+04  0.00000000000E+00 0.  1.
         21   -1    0    0  502  503 -0.00000000000E+00 -0.00000000000E+00 -0.58726902872E+02  0.58726902872E+02  0.00000000000E+00 0.  1.
          6    1    1    2  501    0  0.86423554577E+02 -0.34437178819E+02  0.17527426600E+04  0.17637150513E+04  0.17300000000E+03 0.  1.
         -6    1    1    2    0  503 -0.86423554577E+02  0.34437178819E+02  0.12793621592E+03  0.23441763034E+03  0.17300000000E+03 0.  1.
<mgrwt>
<rscale>  2 0.19642798E+03</rscale>
<asrwt>0</asrwt>
<pdfrwt beam="1">  1       21 0.29837007E+00 0.19642798E+03</pdfrwt>
<pdfrwt beam="2">  1       21 0.90349096E-02 0.19642798E+03</pdfrwt>
<totfact> 0.33689643E+03</totfact>
</mgrwt>
</event>
<event>
 4    2  0.4086940E+000  0.1777671E+03  0.7546771E-02  0.1169982E+00
         21   -1    0    0  503  502  0.00000000000E+00  0.00000000000E+00  0.10877191551E+03  0.10877191551E+03  0.00000000000E+00 0.  1.
         21   -1    0    0  501  503 -0.00000000000E+00 -0.00000000000E+00 -0.51761427952E+03  0.51761427952E+03  0.00000000000E+00 0.  1.
          6    1    1    2  501    0 -0.82696735065E+01 -0.40046782440E+02 -0.41186756452E+03  0.44859338268E+03  0.17300000000E+03 0. -1.
         -6    1    1    2    0  502  0.82696735065E+01  0.40046782440E+02  0.30252005060E+01  0.17779281235E+03  0.17300000000E+03 0. -1.
<mgrwt>
<rscale>  2 0.17776707E+03</rscale>
<asrwt>0</asrwt>
<pdfrwt beam="1">  1       21 0.16734141E-01 0.17776707E+03</pdfrwt>
<pdfrwt beam="2">  1       21 0.79632966E-01 0.17776707E+03</pdfrwt>
<totfact> 0.44963215E+04</totfact>
</mgrwt>
</event>
<event>
 4    2  0.4086940E+000  0.1773946E+03  0.7546771E-02  0.1170349E+00
         21   -1    0    0  501  502  0.00000000000E+00  0.00000000000E+00  0.10410654241E+03  0.10410654241E+03  0.00000000000E+00 0. -1.
         21   -1    0    0  502  503 -0.00000000000E+00 -0.00000000000E+00 -0.39510964137E+03  0.39510964137E+03  0.00000000000E+00 0. -1.
          6    1    1    2  501    0 -0.30835725414E+02 -0.24269238805E+02 -0.24510249884E+02  0.17907984326E+03  0.17300000000E+03 0. -1.
         -6    1    1    2    0  503  0.30835725414E+02  0.24269238805E+02 -0.26649284907E+03  0.32013634052E+03  0.17300000000E+03 0. -1.
<mgrwt>
<rscale>  2 0.17739458E+03</rscale>
<asrwt>0</asrwt>
<pdfrwt beam="1">  1       21 0.16016391E-01 0.17739458E+03</pdfrwt>
<pdfrwt beam="2">  1       21 0.60786098E-01 0.17739458E+03</pdfrwt>
<totfact> 0.88231810E+04</totfact>
</mgrwt>
</event>
<event>
 4    2  0.4086940E+000  0.2093689E+03  0.7546771E-02  0.1142067E+00
         21   -1    0    0  501  502  0.00000000000E+00  0.00000000000E+00  0.10687292692E+04  0.10687292692E+04  0.00000000000E+00 0.  1.
         21   -1    0    0  502  503 -0.00000000000E+00 -0.00000000000E+00 -0.41039143592E+02  0.41039143592E+02  0.00000000000E+00 0.  1.
          6    1    1    2  501    0  0.98731997950E+02 -0.64485016036E+02  0.52693526562E+03  0.56700625999E+03  0.17300000000E+03 0.  1.
         -6    1    1    2    0  503 -0.98731997950E+02  0.64485016036E+02  0.50075485996E+03  0.54276215278E+03  0.17300000000E+03 0.  1.
<mgrwt>
<rscale>  2 0.20936887E+03</rscale>
<asrwt>0</asrwt>
<pdfrwt beam="1">  1       21 0.16441987E+00 0.20936887E+03</pdfrwt>
<pdfrwt beam="2">  1       21 0.63137152E-02 0.20936887E+03</pdfrwt>
<totfact> 0.41815772E+04</totfact>
</mgrwt>
</event>
<event>
 4    2  0.4086940E+000  0.2001294E+03  0.7546771E-02  0.1149630E+00
         21   -1    0    0  503  502  0.00000000000E+00  0.00000000000E+00  0.23565409581E+03  0.23565409581E+03  0.00000000000E+00 0.  1.
         21   -1    0    0  501  503 -0.00000000000E+00 -0.00000000000E+00 -0.19384488282E+03  0.19384488282E+03  0.00000000000E+00 0. -1.
          6    1    1    2  501    0 -0.48753012890E+02 -0.88010971417E+02 -0.54477082151E+02  0.20741152291E+03  0.17300000000E+03 0. -1.
         -6    1    1    2    0  502  0.48753012890E+02  0.88010971417E+02  0.96286295136E+02  0.22208745572E+03  0.17300000000E+03 0.  1.
<mgrwt>
<rscale>  2 0.20012943E+03</rscale>
<asrwt>0</asrwt>
<pdfrwt beam="1">  1       21 0.36254477E-01 0.20012943E+03</pdfrwt>
<pdfrwt beam="2">  1       21 0.29822289E-01 0.20012943E+03</pdfrwt>
<totfact> 0.78840210E+04</totfact>
</mgrwt>
</event>
<event>
 4    2  0.4086940E+000  0.1760843E+03  0.7546771E-02  0.1171647E+00
         21   -1    0    0  501  502  0.00000000000E+00  0.00000000000E+00  0.18810446087E+04  0.18810446087E+04  0.00000000000E+00 0.  1.
         21   -1    0    0  502  503 -0.00000000000E+00 -0.00000000000E+00 -0.76931848310E+02  0.76931848310E+02  0.00000000000E+00 0.  1.
          6    1    1    2  501    0  0.30317638183E+02 -0.12550777176E+02  0.17698522811E+04  0.17785901096E+04  0.17300000000E+03 0.  1.
         -6    1    1    2    0  503 -0.30317638183E+02  0.12550777176E+02  0.34260479329E+02  0.17938634741E+03  0.17300000000E+03 0.  1.
<mgrwt>
<rscale>  2 0.17608430E+03</rscale>
<asrwt>0</asrwt>
<pdfrwt beam="1">  1       21 0.28939144E+00 0.17608430E+03</pdfrwt>
<pdfrwt beam="2">  1       21 0.11835670E-01 0.17608430E+03</pdfrwt>
<totfact> 0.24135111E+03</totfact>
</mgrwt>
</event>
<event>
 4    2  0.4086940E+000  0.2542245E+03  0.7546771E-02  0.1110664E+00
         21   -1    0    0  503  502  0.00000000000E+00  0.00000000000E+00  0.72771397641E+03  0.72771397641E+03  0.00000000000E+00 0.  1.
         21   -1    0    0  501  503 -0.00000000000E+00 -0.00000000000E+00 -0.93922775471E+02  0.93922775471E+02  0.00000000000E+00 0.  1.
          6    1    1    2  501    0 -0.17628791492E+03  0.60196701307E+02  0.22106856322E+03  0.33689966079E+03  0.17300000000E+03 0.  1.
         -6    1    1    2    0  502  0.17628791492E+03 -0.60196701307E+02  0.41272263772E+03  0.48473709109E+03  0.17300000000E+03 0.  1.
<mgrwt>
<rscale>  2 0.25422445E+03</rscale>
<asrwt>0</asrwt>
<pdfrwt beam="1">  1       21 0.11195599E+00 0.25422445E+03</pdfrwt>
<pdfrwt beam="2">  1       21 0.14449658E-01 0.25422445E+03</pdfrwt>
<totfact> 0.25411978E+04</totfact>
</mgrwt>
</event>
<event>
 4    2  0.4086940E+000  0.2874163E+03  0.7546771E-02  0.1091706E+00
         21   -1    0    0  501  502  0.00000000000E+00  0.00000000000E+00  0.47855551042E+03  0.47855551042E+03  0.00000000000E+00 0. -1.
         21   -1    0    0  502  503 -0.00000000000E+00 -0.00000000000E+00 -0.17769522101E+03  0.17769522101E+03  0.00000000000E+00 0. -1.
          6    1    1    2  501    0 -0.14752453090E+03  0.17582847113E+03  0.94975289151E+02  0.30270190621E+03  0.17300000000E+03 0. -1.
         -6    1    1    2    0  503  0.14752453090E+03 -0.17582847113E+03  0.20588500027E+03  0.35354882521E+03  0.17300000000E+03 0. -1.
<mgrwt>
<rscale>  2 0.28741632E+03</rscale>
<asrwt>0</asrwt>
<pdfrwt beam="1">  1       21 0.73623924E-01 0.28741632E+03</pdfrwt>
<pdfrwt beam="2">  1       21 0.27337726E-01 0.28741632E+03</pdfrwt>
<totfact> 0.20146626E+04</totfact>
</mgrwt>
</event>
<event>
 4    2  0.4086940E+000  0.1950919E+03  0.7546771E-02  0.1153947E+00
         21   -1    0    0  501  502  0.00000000000E+00  0.00000000000E+00  0.14172333522E+03  0.14172333522E+03  0.00000000000E+00 0. -1.
         21   -1    0    0  502  503 -0.00000000000E+00 -0.00000000000E+00 -0.27262784455E+03  0.27262784455E+03  0.00000000000E+00 0. -1.
          6    1    1    2  501    0 -0.88628232996E+02  0.16639808235E+02 -0.40137383196E+02  0.19917795167E+03  0.17300000000E+03 0. -1.
         -6    1    1    2    0  503  0.88628232996E+02 -0.16639808235E+02 -0.90767126133E+02  0.21517322809E+03  0.17300000000E+03 0. -1.
<mgrwt>
<rscale>  2 0.19509189E+03</rscale>
<asrwt>0</asrwt>
<pdfrwt beam="1">  1       21 0.21803590E-01 0.19509189E+03</pdfrwt>
<pdfrwt beam="2">  1       21 0.41942745E-01 0.19509189E+03</pdfrwt>
<totfact> 0.10731647E+05</totfact>
</mgrwt>
</event>
<event>
 4    2  0.4086940E+000  0.2349153E+03  0.7546771E-02  0.1123227E+00
         21   -1    0    0  503  502  0.00000000000E+00  0.00000000000E+00  0.13802493056E+03  0.13802493056E+03  0.00000000000E+00 0.  1.
         21   -1    0    0  501  503 -0.00000000000E+00 -0.00000000000E+00 -0.67967565382E+03  0.67967565382E+03  0.00000000000E+00 0. -1.
          6    1    1    2  501    0  0.62784461024E+02  0.14599413707E+03 -0.53317485117E+03  0.58263247294E+03  0.17300000000E+03 0. -1.
         -6    1    1    2    0  502 -0.62784461024E+02 -0.14599413707E+03 -0.84758720920E+01  0.23506811143E+03  0.17300000000E+03 0.  1.
<mgrwt>
<rscale>  2 0.23491525E+03</rscale>
<asrwt>0</asrwt>
<pdfrwt beam="1">  1       21 0.21234605E-01 0.23491525E+03</pdfrwt>
<pdfrwt beam="2">  1       21 0.10456548E+00 0.23491525E+03</pdfrwt>
<totfact> 0.14831687E+04</totfact>
</mgrwt>
</event>
<event>
 4    2  0.4086940E+000  0.1933254E+03  0.7546771E-02  0.1155496E+00
         21   -1    0    0  503  502  0.00000000000E+00  0.00000000000E+00  0.65474745091E+03  0.65474745091E+03  0.00000000000E+00 0. -1.
         21   -1    0    0  501  503 -0.00000000000E+00 -0.00000000000E+00 -0.10603772083E+03  0.10603772083E+03  0.00000000000E+00 0. -1.
          6    1    1    2  501    0  0.13214054237E+02 -0.85270837921E+02  0.15890519053E+02  0.19397741009E+03  0.17300000000E+03 0.  1.
         -6    1    1    2    0  502 -0.13214054237E+02  0.85270837921E+02  0.53281921102E+03  0.56680776165E+03  0.17300000000E+03 0.  1.
<mgrwt>
<rscale>  2 0.19332544E+03</rscale>
<asrwt>0</asrwt>
<pdfrwt beam="1">  1       21 0.10073037E+00 0.19332544E+03</pdfrwt>
<pdfrwt beam="2">  1       21 0.16313496E-01 0.19332544E+03</pdfrwt>
<totfact> 0.27142807E+04</totfact>
</mgrwt>
</event>
<event>
 4    2  0.4086940E+000  0.1919517E+03  0.7546771E-02  0.1156713E+00
         21   -1    0    0  503  502  0.00000000000E+00  0.00000000000E+00  0.76724400426E+02  0.76724400426E+02  0.00000000000E+00 0.  1.
         21   -1    0    0  501  503 -0.00000000000E+00 -0.00000000000E+00 -0.57434743122E+03  0.57434743122E+03  0.00000000000E+00 0.  1.
          6    1    1    2  501    0 -0.44053047897E+02  0.70539369847E+02 -0.38058958645E+03  0.42625568271E+03  0.17300000000E+03 0.  1.
         -6    1    1    2    0  502  0.44053047897E+02 -0.70539369847E+02 -0.11703344434E+03  0.22481614894E+03  0.17300000000E+03 0.  1.
<mgrwt>
<rscale>  2 0.19195175E+03</rscale>
<asrwt>0</asrwt>
<pdfrwt beam="1">  1       21 0.11803754E-01 0.19195175E+03</pdfrwt>
<pdfrwt beam="2">  1       21 0.88361144E-01 0.19195175E+03</pdfrwt>
<totfact> 0.66272678E+04</totfact>
</mgrwt>
</event>
<event>
 4    2  0.4086940E+000  0.1803925E+03  0.7546771E-02  0.1167424E+00
         21   -1    0    0  503  502  0.00000000000E+00  0.00000000000E+00  0.90507894185E+02  0.90507894185E+02  0.00000000000E+00 0.  1.
         21   -1    0    0  501  503 -0.00000000000E+00 -0.00000000000E+00 -0.38178850247E+03  0.38178850247E+03  0.00000000000E+00 0.  1.
          6    1    1    2  501    0  0.31870082263E+02  0.39959428001E+02 -0.88637440801E+02  0.20099267136E+03  0.17300000000E+03 0. -1.
         -6    1    1    2    0  502 -0.31870082263E+02 -0.39959428001E+02 -0.20264316748E+03  0.27130372529E+03  0.17300000000E+03 0. -1.
<mgrwt>
<rscale>  2 0.18039251E+03</rscale>
<asrwt>0</asrwt>
<pdfrwt beam="1">  1       21 0.13924292E-01 0.18039251E+03</pdfrwt>
<pdfrwt beam="2">  1       21 0.58736692E-01 0.18039251E+03</pdfrwt>
<totfact> 0.12231456E+05</totfact>
</mgrwt>
</event>
<event>
 4    2  0.4086940E+000  0.1790555E+03  0.7546771E-02  0.1168720E+00
         21   -1    0    0  503  502  0.00000000000E+00  0.00000000000E+00  0.47418677786E+03  0.47418677786E+03  0.00000000000E+00 0.  1.
         21   -1    0    0  501  503 -0.00000000000E+00 -0.00000000000E+00 -0.67614719975E+02  0.67614719975E+02  0.00000000000E+00 0.  1.
          6    1    1    2  501    0  0.14006205965E+02  0.43996712753E+02  0.20488833656E+03  0.27210313302E+03  0.17300000000E+03 0. -1.
         -6    1    1    2    0  502 -0.14006205965E+02 -0.43996712753E+02  0.20168372132E+03  0.26969836482E+03  0.17300000000E+03 0. -1.
<mgrwt>
<rscale>  2 0.17905553E+03</rscale>
<asrwt>0</asrwt>
<pdfrwt beam="1">  1       21 0.72951810E-01 0.17905553E+03</pdfrwt>
<pdfrwt beam="2">  1       21 0.10402265E-01 0.17905553E+03</pdfrwt>
<totfact> 0.12859781E+05</totfact>
</mgrwt>
</event>
<event>
 4    2  0.4086940E+000  0.1875490E+03  0.7546771E-02  0.1160691E+00
         21   -1    0    0  503  502  0.00000000000E+00  0.00000000000E+00  0.35656745029E+02  0.35656745029E+02  0.00000000000E+00 0.  1.
         21   -1    0    0  501  503 -0.00000000000E+00 -0.00000000000E+00 -0.98933749272E+03  0.98933749272E+03  0.00000000000E+00 0.  1.
          6    1    1    2  501    0 -0.51685470495E+02 -0.50736810480E+02 -0.50439070973E+03  0.53813065315E+03  0.17300000000E+03 0.  1.
         -6    1    1    2    0  502  0.51685470495E+02  0.50736810480E+02 -0.44929003796E+03  0.48686358459E+03  0.17300000000E+03 0.  1.
<mgrwt>
<rscale>  2 0.18754896E+03</rscale>
<asrwt>0</asrwt>
<pdfrwt beam="1">  1       21 0.54856525E-02 0.18754896E+03</pdfrwt>
<pdfrwt beam="2">  1       21 0.15220578E+00 0.18754896E+03</pdfrwt>
<totfact> 0.66266764E+04</totfact>
</mgrwt>
</event>
<event>
 4    2  0.4086940E+000  0.3212496E+03  0.7546771E-02  0.1075076E+00
         21   -1    0    0  503  502  0.00000000000E+00  0.00000000000E+00  0.15761766848E+03  0.15761766848E+03  0.00000000000E+00 0. -1.
         21   -1    0    0  501  503 -0.00000000000E+00 -0.00000000000E+00 -0.70193448564E+03  0.70193448564E+03  0.00000000000E+00 0. -1.
          6    1    1    2  501    0 -0.18296725697E+03  0.19948753119E+03 -0.38357779067E+03  0.50033310276E+03  0.17300000000E+03 0. -1.
         -6    1    1    2    0  502  0.18296725697E+03 -0.19948753119E+03 -0.16073902649E+03  0.35921905136E+03  0.17300000000E+03 0. -1.
<mgrwt>
<rscale>  2 0.32124958E+03</rscale>
<asrwt>0</asrwt>
<pdfrwt beam="1">  1       21 0.24248872E-01 0.32124958E+03</pdfrwt>
<pdfrwt beam="2">  1       21 0.10798992E+00 0.32124958E+03</pdfrwt>
<totfact> 0.10205042E+04</totfact>
</mgrwt>
</event>
<event>
 4    2  0.4086940E+000  0.1972574E+03  0.7546771E-02  0.1152074E+00
         21   -1    0    0  503  502  0.00000000000E+00  0.00000000000E+00  0.60469898147E+03  0.60469898147E+03  0.00000000000E+00 0. -1.
         21   -1    0    0  501  503 -0.00000000000E+00 -0.00000000000E+00 -0.66307626012E+02  0.66307626012E+02  0.00000000000E+00 0.  1.
          6    1    1    2  501    0  0.94666327298E+02  0.44441887784E+01  0.21150163876E+03  0.28921170021E+03  0.17300000000E+03 0.  1.
         -6    1    1    2    0  502 -0.94666327298E+02 -0.44441887784E+01  0.32688971669E+03  0.38179490727E+03  0.17300000000E+03 0.  1.
<mgrwt>
<rscale>  2 0.19725736E+03</rscale>
<asrwt>0</asrwt>
<pdfrwt beam="1">  1       21 0.93030609E-01 0.19725736E+03</pdfrwt>
<pdfrwt beam="2">  1       21 0.10201174E-01 0.19725736E+03</pdfrwt>
<totfact> 0.76047240E+04</totfact>
</mgrwt>
</event>
<event>
 4    2  0.4086940E+000  0.2337831E+03  0.7546771E-02  0.1124005E+00
         21   -1    0    0  503  502  0.00000000000E+00  0.00000000000E+00  0.40977412322E+03  0.40977412322E+03  0.00000000000E+00 0.  1.
         21   -1    0    0  501  503 -0.00000000000E+00 -0.00000000000E+00 -0.29077284537E+03  0.29077284537E+03  0.00000000000E+00 0. -1.
          6    1    1    2  501    0 -0.35289727159E+02 -0.15323243994E+03  0.31720788341E+03  0.39404998007E+03  0.17300000000E+03 0.  1.
         -6    1    1    2    0  502  0.35289727159E+02  0.15323243994E+03 -0.19820660556E+03  0.30649698853E+03  0.17300000000E+03 0. -1.
<mgrwt>
<rscale>  2 0.23378312E+03</rscale>
<asrwt>0</asrwt>
<pdfrwt beam="1">  1       21 0.63042173E-01 0.23378312E+03</pdfrwt>
<pdfrwt beam="2">  1       21 0.44734284E-01 0.23378312E+03</pdfrwt>
<totfact> 0.10882584E+04</totfact>
</mgrwt>
</event>
<event>
 4    2  0.4086940E+000  0.2042289E+03  0.7546771E-02  0.1146219E+00
         21   -1    0    0  503  502  0.00000000000E+00  0.00000000000E+00  0.17519526882E+03  0.17519526882E+03  0.00000000000E+00 0.  1.
         21   -1    0    0  501  503 -0.00000000000E+00 -0.00000000000E+00 -0.51618617664E+03  0.51618617664E+03  0.00000000000E+00 0.  1.
          6    1    1    2  501    0 -0.91991618724E+02 -0.57601869815E+02 -0.42423874262E+03  0.47083749220E+03  0.17300000000E+03 0.  1.
         -6    1    1    2    0  502  0.91991618724E+02  0.57601869815E+02  0.83247834796E+02  0.22054395326E+03  0.17300000000E+03 0.  1.
<mgrwt>
<rscale>  2 0.20422887E+03</rscale>
<asrwt>0</asrwt>
<pdfrwt beam="1">  1       21 0.26953119E-01 0.20422887E+03</pdfrwt>
<pdfrwt beam="2">  1       21 0.79413256E-01 0.20422887E+03</pdfrwt>
<totfact> 0.18206436E+04</totfact>
</mgrwt>
</event>
<event>
 4    2  0.4086940E+000  0.3171076E+03  0.7546771E-02  0.1076988E+00
         21   -1    0    0  501  502  0.00000000000E+00  0.00000000000E+00  0.41338095531E+03  0.41338095531E+03  0.00000000000E+00 0. -1.
         21   -1    0    0  502  503 -0.00000000000E+00 -0.00000000000E+00 -0.24531351819E+03  0.24531351819E+03  0.00000000000E+00 0.  1.
          6    1    1    2  501    0 -0.64978869359E+02  0.25769358296E+03  0.53868508526E+02  0.32165051279E+03  0.17300000000E+03 0.  1.
         -6    1    1    2    0  503  0.64978869359E+02 -0.25769358296E+03  0.11419892859E+03  0.33704396072E+03  0.17300000000E+03 0. -1.
<mgrwt>
<rscale>  2 0.31710761E+03</rscale>
<asrwt>0</asrwt>
<pdfrwt beam="1">  1       21 0.63597070E-01 0.31710761E+03</pdfrwt>
<pdfrwt beam="2">  1       21 0.37740541E-01 0.31710761E+03</pdfrwt>
<totfact> 0.14523107E+04</totfact>
</mgrwt>
</event>
<event>
 4    2  0.4086940E+000  0.1861874E+03  0.7546771E-02  0.1161946E+00
         21   -1    0    0  501  502  0.00000000000E+00  0.00000000000E+00  0.16266818338E+03  0.16266818338E+03  0.00000000000E+00 0.  1.
         21   -1    0    0  502  503 -0.00000000000E+00 -0.00000000000E+00 -0.54856580440E+03  0.54856580440E+03  0.00000000000E+00 0. -1.
          6    1    1    2  501    0 -0.68503206580E+02  0.66367448816E+01  0.85142686223E+02  0.20473156257E+03  0.17300000000E+03 0.  1.
         -6    1    1    2    0  503  0.68503206580E+02 -0.66367448816E+01 -0.47104030725E+03  0.50650242521E+03  0.17300000000E+03 0. -1.
<mgrwt>
<rscale>  2 0.18618737E+03</rscale>
<asrwt>0</asrwt>
<pdfrwt beam="1">  1       21 0.25025874E-01 0.18618737E+03</pdfrwt>
<pdfrwt beam="2">  1       21 0.84394740E-01 0.18618737E+03</pdfrwt>
<totfact> 0.18485365E+04</totfact>
</mgrwt>
</event>
<event>
 4    2  0.4086940E+000  0.2447673E+03  0.7546771E-02  0.1116657E+00
         21   -1    0    0  503  502  0.00000000000E+00  0.00000000000E+00  0.23171995098E+03  0.23171995098E+03  0.00000000000E+00 0. -1.
         21   -1    0    0  501  503 -0.00000000000E+00 -0.00000000000E+00 -0.26799806389E+03  0.26799806389E+03  0.00000000000E+00 0. -1.
          6    1    1    2  501    0  0.14694691517E+03  0.91589555420E+02 -0.65054469938E+02  0.25326493361E+03  0.17300000000E+03 0. -1.
         -6    1    1    2    0  502 -0.14694691517E+03 -0.91589555420E+02  0.28776357023E+02  0.24645308126E+03  0.17300000000E+03 0. -1.
<mgrwt>
<rscale>  2 0.24476732E+03</rscale>
<asrwt>0</asrwt>
<pdfrwt beam="1">  1       21 0.35649223E-01 0.24476732E+03</pdfrwt>
<pdfrwt beam="2">  1       21 0.41230471E-01 0.24476732E+03</pdfrwt>
<totfact> 0.41946289E+04</totfact>
</mgrwt>
</event>
<event>
 4    2  0.4086940E+000  0.2327854E+03  0.7546771E-02  0.1124694E+00
         21   -1    0    0  503  502  0.00000000000E+00  0.00000000000E+00  0.42504882721E+03  0.42504882721E+03  0.00000000000E+00 0. -1.
         21   -1    0    0  501  503 -0.00000000000E+00 -0.00000000000E+00 -0.15229428228E+03  0.15229428228E+03  0.00000000000E+00 0.  1.
          6    1    1    2  501    0 -0.95713007157E+02 -0.12287826664E+03  0.19875021797E+02  0.23363232791E+03  0.17300000000E+03 0.  1.
         -6    1    1    2    0  502  0.95713007157E+02  0.12287826664E+03  0.25287952314E+03  0.34371078158E+03  0.17300000000E+03 0. -1.
<mgrwt>
<rscale>  2 0.23278541E+03</rscale>
<asrwt>0</asrwt>
<pdfrwt beam="1">  1       21 0.65392127E-01 0.23278541E+03</pdfrwt>
<pdfrwt beam="2">  1       21 0.23429890E-01 0.23278541E+03</pdfrwt>
<totfact> 0.36126592E+04</totfact>
</mgrwt>
</event>
<event>
 4    2  0.4086940E+000  0.1823324E+03  0.7546771E-02  0.1165565E+00
         21   -1    0    0  501  502  0.00000000000E+00  0.00000000000E+00  0.27942729874E+03  0.27942729874E+03  0.00000000000E+00 0.  1.
         21   -1    0    0  502  503 -0.00000000000E+00 -0.00000000000E+00 -0.13029363583E+03  0.13029363583E+03  0.00000000000E+00 0.  1.
          6    1    1    2  501    0 -0.33851894339E+02 -0.46584812915E+02  0.13494467881E+03  0.22683730267E+03  0.17300000000E+03 0.  1.
         -6    1    1    2    0  503  0.33851894339E+02  0.46584812915E+02  0.14188984105E+02  0.18288363189E+03  0.17300000000E+03 0.  1.
<mgrwt>
<rscale>  2 0.18233238E+03</rscale>
<asrwt>0</asrwt>
<pdfrwt beam="1">  1       21 0.42988815E-01 0.18233238E+03</pdfrwt>
<pdfrwt beam="2">  1       21 0.20045175E-01 0.18233238E+03</pdfrwt>
<totfact> 0.12004441E+05</totfact>
</mgrwt>
</event>
<event>
 4    2  0.4086940E+000  0.2110001E+03  0.7546771E-02  0.1140776E+00
         21   -1    0    0  501  502  0.00000000000E+00  0.00000000000E+00  0.16795910428E+03  0.16795910428E+03  0.00000000000E+00 0.  1.
         21   -1    0    0  502  503 -0.00000000000E+00 -0.00000000000E+00 -0.58777462622E+03  0.58777462622E+03  0.00000000000E+00 0.  1.
          6    1    1    2  501    0 -0.12078546622E+03 -0.17114668333E+01  0.70077671526E+02  0.22233294406E+03  0.17300000000E+03 0.  1.
         -6    1    1    2    0  503  0.12078546622E+03  0.17114668333E+01 -0.48989319346E+03  0.53340078644E+03  0.17300000000E+03 0.  1.
<mgrwt>
<rscale>  2 0.21100014E+03</rscale>
<asrwt>0</asrwt>
<pdfrwt beam="1">  1       21 0.25839863E-01 0.21100014E+03</pdfrwt>
<pdfrwt beam="2">  1       21 0.90426864E-01 0.21100014E+03</pdfrwt>
<totfact> 0.14602123E+04</totfact>
</mgrwt>
</event>
<event>
 4    2  0.4086940E+000  0.2010459E+03  0.7546771E-02  0.1148860E+00
         21   -1    0    0  503  502  0.00000000000E+00  0.00000000000E+00  0.41469914382E+02  0.41469914382E+02  0.00000000000E+00 0. -1.
         21   -1    0    0  501  503 -0.00000000000E+00 -0.00000000000E+00 -0.19877041094E+04  0.19877041094E+04  0.00000000000E+00 0.  1.
          6    1    1    2  501    0 -0.10047345795E+03 -0.19888214051E+02 -0.16974289506E+04  0.17092935673E+04  0.17300000000E+03 0.  1.
         -6    1    1    2    0  502  0.10047345795E+03  0.19888214051E+02 -0.24880524448E+03  0.31988045657E+03  0.17300000000E+03 0. -1.
<mgrwt>
<rscale>  2 0.20104591E+03</rscale>
<asrwt>0</asrwt>
<pdfrwt beam="1">  1       21 0.63799891E-02 0.20104591E+03</pdfrwt>
<pdfrwt beam="2">  1       21 0.30580052E+00 0.20104591E+03</pdfrwt>
<totfact> 0.55562429E+03</totfact>
</mgrwt>
</event>
<event>
 4    2  0.4086940E+000  0.2356113E+03  0.7546771E-02  0.1122751E+00
         21   -1    0    0  501  502  0.00000000000E+00  0.00000000000E+00  0.14263979953E+03  0.14263979953E+03  0.00000000000E+00 0. -1.
         21   -1    0    0  502  503 -0.00000000000E+00 -0.00000000000E+00 -0.84137697324E+03  0.84137697324E+03  0.00000000000E+00 0.  1.
          6    1    1    2  501    0 -0.90684494095E+02 -0.13175733467E+03  0.11326835819E+02  0.23588338203E+03  0.17300000000E+03 0. -1.
         -6    1    1    2    0  503  0.90684494095E+02  0.13175733467E+03 -0.71006400953E+03  0.74813339074E+03  0.17300000000E+03 0.  1.
<mgrwt>
<rscale>  2 0.23561127E+03</rscale>
<asrwt>0</asrwt>
<pdfrwt beam="1">  1       21 0.21944585E-01 0.23561127E+03</pdfrwt>
<pdfrwt beam="2">  1       21 0.12944261E+00 0.23561127E+03</pdfrwt>
<totfact> 0.82218649E+03</totfact>
</mgrwt>
</event>
<event>
 4    2  0.4086940E+000  0.2076300E+03  0.7546771E-02  0.1143457E+00
         21   -1    0    0  503  502  0.00000000000E+00  0.00000000000E+00  0.27998109370E+04  0.27998109370E+04  0.00000000000E+00 0. -1.
         21   -1    0    0  501  503 -0.00000000000E+00 -0.00000000000E+00 -0.15800086562E+02  0.15800086562E+02  0.00000000000E+00 0. -1.
          6    1    1    2  501    0  0.11216910839E+03  0.24480705794E+02  0.11672974449E+04  0.11856194747E+04  0.17300000000E+03 0. -1.
         -6    1    1    2    0  502 -0.11216910839E+03 -0.24480705794E+02  0.16167134056E+04  0.16299915489E+04  0.17300000000E+03 0. -1.
<mgrwt>
<rscale>  2 0.20762999E+03</rscale>
<asrwt>0</asrwt>
<pdfrwt beam="1">  1       21 0.43073975E+00 0.20762999E+03</pdfrwt>
<pdfrwt beam="2">  1       21 0.24307848E-02 0.20762999E+03</pdfrwt>
<totfact> 0.48782904E+03</totfact>
</mgrwt>
</event>
<event>
 4    2  0.4086940E+000  0.1895930E+03  0.7546771E-02  0.1158829E+00
         21   -1    0    0  501  502  0.00000000000E+00  0.00000000000E+00  0.16583390215E+03  0.16583390215E+03  0.00000000000E+00 0. -1.
         21   -1    0    0  502  503 -0.00000000000E+00 -0.00000000000E+00 -0.25518759760E+03  0.25518759760E+03  0.00000000000E+00 0. -1.
          6    1    1    2  501    0  0.21248394889E+02 -0.74598921277E+02  0.37016880126E+02  0.19317283131E+03  0.17300000000E+03 0. -1.
         -6    1    1    2    0  503 -0.21248394889E+02  0.74598921277E+02 -0.12637057557E+03  0.22784866844E+03  0.17300000000E+03 0. -1.
<mgrwt>
<rscale>  2 0.18959297E+03</rscale>
<asrwt>0</asrwt>
<pdfrwt beam="1">  1       21 0.25512908E-01 0.18959297E+03</pdfrwt>
<pdfrwt beam="2">  1       21 0.39259631E-01 0.18959297E+03</pdfrwt>
<totfact> 0.91245163E+04</totfact>
</mgrwt>
</event>
<event>
 4    2  0.4086940E+000  0.1913991E+03  0.7546771E-02  0.1157205E+00
         21   -1    0    0  503  502  0.00000000000E+00  0.00000000000E+00  0.11870675152E+03  0.11870675152E+03  0.00000000000E+00 0.  1.
         21   -1    0    0  501  503 -0.00000000000E+00 -0.00000000000E+00 -0.35892205581E+03  0.35892205581E+03  0.00000000000E+00 0.  1.
          6    1    1    2  501    0 -0.72562318723E+02 -0.37938681289E+02 -0.20952320967E+03  0.28378444113E+03  0.17300000000E+03 0.  1.
         -6    1    1    2    0  502  0.72562318723E+02  0.37938681289E+02 -0.30692094613E+02  0.19384436620E+03  0.17300000000E+03 0.  1.
<mgrwt>
<rscale>  2 0.19139915E+03</rscale>
<asrwt>0</asrwt>
<pdfrwt beam="1">  1       21 0.18262577E-01 0.19139915E+03</pdfrwt>
<pdfrwt beam="2">  1       21 0.55218777E-01 0.19139915E+03</pdfrwt>
<totfact> 0.84590931E+04</totfact>
</mgrwt>
</event>
<event>
 4    2  0.4086940E+000  0.2052956E+03  0.7546771E-02  0.1145346E+00
         21   -1    0    0  501  502  0.00000000000E+00  0.00000000000E+00  0.96519179319E+03  0.96519179319E+03  0.00000000000E+00 0. -1.
         21   -1    0    0  502  503 -0.00000000000E+00 -0.00000000000E+00 -0.21116585752E+03  0.21116585752E+03  0.00000000000E+00 0. -1.
          6    1    1    2  501    0  0.90475199862E+02 -0.63494297991E+02  0.90085996312E+03  0.92395614659E+03  0.17300000000E+03 0. -1.
         -6    1    1    2    0  503 -0.90475199862E+02  0.63494297991E+02 -0.14683402744E+03  0.25240150412E+03  0.17300000000E+03 0. -1.
<mgrwt>
<rscale>  2 0.20529561E+03</rscale>
<asrwt>0</asrwt>
<pdfrwt beam="1">  1       21 0.14849104E+00 0.20529561E+03</pdfrwt>
<pdfrwt beam="2">  1       21 0.32487055E-01 0.20529561E+03</pdfrwt>
<totfact> 0.27668314E+03</totfact>
</mgrwt>
</event>
<event>
 4    2  0.4086940E+000  0.2024130E+03  0.7546771E-02  0.1147719E+00
         21   -1    0    0  503  502  0.00000000000E+00  0.00000000000E+00  0.11366098622E+04  0.11366098622E+04  0.00000000000E+00 0.  1.
         21   -1    0    0  501  503 -0.00000000000E+00 -0.00000000000E+00 -0.73693747024E+02  0.73693747024E+02  0.00000000000E+00 0. -1.
          6    1    1    2  501    0  0.88352287527E+02  0.56884959708E+02  0.96398634823E+03  0.98500797201E+03  0.17300000000E+03 0.  1.
         -6    1    1    2    0  502 -0.88352287527E+02 -0.56884959708E+02  0.98929766919E+02  0.22529563719E+03  0.17300000000E+03 0. -1.
<mgrwt>
<rscale>  2 0.20241301E+03</rscale>
<asrwt>0</asrwt>
<pdfrwt beam="1">  1       21 0.17486304E+00 0.20241301E+03</pdfrwt>
<pdfrwt beam="2">  1       21 0.11337500E-01 0.20241301E+03</pdfrwt>
<totfact> 0.12721731E+04</totfact>
</mgrwt>
</event>
<event>
 4    2  0.4086940E+000  0.2159454E+03  0.7546771E-02  0.1136942E+00
         21   -1    0    0  503  502  0.00000000000E+00  0.00000000000E+00  0.13330269534E+04  0.13330269534E+04  0.00000000000E+00 0.  1.
         21   -1    0    0  501  503 -0.00000000000E+00 -0.00000000000E+00 -0.37097083301E+02  0.37097083301E+02  0.00000000000E+00 0. -1.
          6    1    1    2  501    0 -0.40837431022E+02  0.12262030609E+03  0.81152839341E+03  0.83976828265E+03  0.17300000000E+03 0.  1.
         -6    1    1    2    0  502  0.40837431022E+02 -0.12262030609E+03  0.48440147672E+03  0.53035575408E+03  0.17300000000E+03 0. -1.
<mgrwt>
<rscale>  2 0.21594545E+03</rscale>
<asrwt>0</asrwt>
<pdfrwt beam="1">  1       21 0.20508103E+00 0.21594545E+03</pdfrwt>
<pdfrwt beam="2">  1       21 0.57072446E-02 0.21594545E+03</pdfrwt>
<totfact> 0.26321126E+04</totfact>
</mgrwt>
</event>
<event>
 4    2  0.4086940E+000  0.1823707E+03  0.7546771E-02  0.1165528E+00
         21   -1    0    0  501  502  0.00000000000E+00  0.00000000000E+00  0.13566688546E+03  0.13566688546E+03  0.00000000000E+00 0.  1.
         21   -1    0    0  502  503 -0.00000000000E+00 -0.00000000000E+00 -0.15782016244E+04  0.15782016244E+04  0.00000000000E+00 0.  1.
          6    1    1    2  501    0  0.10867148613E+01 -0.57696508020E+02  0.66302961708E+02  0.19404935124E+03  0.17300000000E+03 0.  1.
         -6    1    1    2    0  503 -0.10867148613E+01  0.57696508020E+02 -0.15088377007E+04  0.15198191586E+04  0.17300000000E+03 0.  1.
<mgrwt>
<rscale>  2 0.18237069E+03</rscale>
<asrwt>0</asrwt>
<pdfrwt beam="1">  1       21 0.20871830E-01 0.18237069E+03</pdfrwt>
<pdfrwt beam="2">  1       21 0.24280023E+00 0.18237069E+03</pdfrwt>
<totfact> 0.15820178E+03</totfact>
</mgrwt>
</event>
<event>
 4    2  0.4086940E+000  0.2037634E+03  0.7546771E-02  0.1146602E+00
         21   -1    0    0  503  502  0.00000000000E+00  0.00000000000E+00  0.19713247427E+04  0.19713247427E+04  0.00000000000E+00 0.  1.
         21   -1    0    0  501  503 -0.00000000000E+00 -0.00000000000E+00 -0.30229719026E+03  0.30229719026E+03  0.00000000000E+00 0.  1.
          6    1    1    2  501    0  0.67922597781E+02  0.83528688192E+02 -0.26198015939E+03  0.33189324331E+03  0.17300000000E+03 0.  1.
         -6    1    1    2    0  502 -0.67922597781E+02 -0.83528688192E+02  0.19310077119E+04  0.19417286897E+04  0.17300000000E+03 0.  1.
<mgrwt>
<rscale>  2 0.20376339E+03</rscale>
<asrwt>0</asrwt>
<pdfrwt beam="1">  1       21 0.30328072E+00 0.20376339E+03</pdfrwt>
<pdfrwt beam="2">  1       21 0.46507261E-01 0.20376339E+03</pdfrwt>
<totfact> 0.14223000E+02</totfact>
</mgrwt>
</event>
<event>
 4    2  0.4086940E+000  0.1984004E+03  0.7546771E-02  0.1151096E+00
         21   -1    0    0  503  502  0.00000000000E+00  0.00000000000E+00  0.97085465852E+02  0.97085465852E+02  0.00000000000E+00 0.  1.
         21   -1    0    0  501  503 -0.00000000000E+00 -0.00000000000E+00 -0.40687608193E+03  0.40687608193E+03  0.00000000000E+00 0.  1.
          6    1    1    2  501    0 -0.70077204285E+02 -0.67252514596E+02 -0.13994579553E+03  0.24279114680E+03  0.17300000000E+03 0.  1.
         -6    1    1    2    0  502  0.70077204285E+02  0.67252514596E+02 -0.16984482055E+03  0.26117040098E+03  0.17300000000E+03 0.  1.
<mgrwt>
<rscale>  2 0.19840039E+03</rscale>
<asrwt>0</asrwt>
<pdfrwt beam="1">  1       21 0.14936225E-01 0.19840039E+03</pdfrwt>
<pdfrwt beam="2">  1       21 0.62596322E-01 0.19840039E+03</pdfrwt>
<totfact> 0.93279612E+04</totfact>
</mgrwt>
</event>
<event>
 4    2  0.4086940E+000  0.2362977E+03  0.7546771E-02  0.1122284E+00
         21   -1    0    0  501  502  0.00000000000E+00  0.00000000000E+00  0.16339195031E+04  0.16339195031E+04  0.00000000000E+00 0.  1.
         21   -1    0    0  502  503 -0.00000000000E+00 -0.00000000000E+00 -0.68853848106E+02  0.68853848106E+02  0.00000000000E+00 0. -1.
          6    1    1    2  501    0 -0.12013813411E+03 -0.10711866839E+03  0.13867667554E+04  0.14067546390E+04  0.17300000000E+03 0.  1.
         -6    1    1    2    0  503  0.12013813411E+03  0.10711866839E+03  0.17829889955E+03  0.29601871219E+03  0.17300000000E+03 0. -1.
<mgrwt>
<rscale>  2 0.23629765E+03</rscale>
<asrwt>0</asrwt>
<pdfrwt beam="1">  1       21 0.25137220E+00 0.23629765E+03</pdfrwt>
<pdfrwt beam="2">  1       21 0.10592901E-01 0.23629765E+03</pdfrwt>
<totfact> 0.45854195E+03</totfact>
</mgrwt>
</event>
<event>
 4    2  0.4086940E+000  0.2099785E+03  0.7546771E-02  0.1141583E+00
         21   -1    0    0  503  502  0.00000000000E+00  0.00000000000E+00  0.36171725811E+03  0.36171725811E+03  0.00000000000E+00 0.  1.
         21   -1    0    0  501  503 -0.00000000000E+00 -0.00000000000E+00 -0.12813694754E+03  0.12813694754E+03  0.00000000000E+00 0.  1.
          6    1    1    2  501    0 -0.73595622935E+02 -0.93518305374E+02  0.62725770947E+02  0.21914723703E+03  0.17300000000E+03 0. -1.
         -6    1    1    2    0  502  0.73595622935E+02  0.93518305374E+02  0.17085453962E+03  0.27070696863E+03  0.17300000000E+03 0. -1.
<mgrwt>
<rscale>  2 0.20997854E+03</rscale>
<asrwt>0</asrwt>
<pdfrwt beam="1">  1       21 0.55648809E-01 0.20997854E+03</pdfrwt>
<pdfrwt beam="2">  1       21 0.19713377E-01 0.20997854E+03</pdfrwt>
<totfact> 0.71600957E+04</totfact>
</mgrwt>
</event>
<event>
 4    2  0.4086940E+000  0.1763841E+03  0.7546771E-02  0.1171349E+00
         21   -1    0    0  501  502  0.00000000000E+00  0.00000000000E+00  0.24005950969E+03  0.24005950969E+03  0.00000000000E+00 0. -1.
         21   -1    0    0  502  503 -0.00000000000E+00 -0.00000000000E+00 -0.57196125237E+03  0.57196125237E+03  0.00000000000E+00 0. -1.
          6    1    1    2  501    0 -0.65925969909E+01 -0.33747329227E+02  0.19111071116E+03  0.26006662317E+03  0.17300000000E+03 0. -1.
         -6    1    1    2    0  503  0.65925969909E+01  0.33747329227E+02 -0.52301245385E+03  0.55195413890E+03  0.17300000000E+03 0. -1.
<mgrwt>
<rscale>  2 0.17638408E+03</rscale>
<asrwt>0</asrwt>
<pdfrwt beam="1">  1       21 0.36932233E-01 0.17638408E+03</pdfrwt>
<pdfrwt beam="2">  1       21 0.87994038E-01 0.17638408E+03</pdfrwt>
<totfact> 0.79202431E+03</totfact>
</mgrwt>
</event>
<event>
 4    2  0.4086940E+000  0.2221226E+03  0.7546771E-02  0.1132310E+00
         21   -1    0    0  503  502  0.00000000000E+00  0.00000000000E+00  0.64939947190E+02  0.64939947190E+02  0.00000000000E+00 0. -1.
         21   -1    0    0  501  503 -0.00000000000E+00 -0.00000000000E+00 -0.85668023796E+03  0.85668023796E+03  0.00000000000E+00 0.  1.
          6    1    1    2  501    0  0.61984853010E+01  0.13917991193E+03 -0.55086967219E+03  0.59396621524E+03  0.17300000000E+03 0. -1.
         -6    1    1    2    0  502 -0.61984853010E+01 -0.13917991193E+03 -0.24087061858E+03  0.32765396991E+03  0.17300000000E+03 0.  1.
<mgrwt>
<rscale>  2 0.22212264E+03</rscale>
<asrwt>0</asrwt>
<pdfrwt beam="1">  1       21 0.99907607E-02 0.22212264E+03</pdfrwt>
<pdfrwt beam="2">  1       21 0.13179697E+00 0.22212264E+03</pdfrwt>
<totfact> 0.33368227E+04</totfact>
</mgrwt>
</event>
<event>
 4    2  0.4086940E+000  0.1746724E+03  0.7546771E-02  0.1173061E+00
         21   -1    0    0  501  502  0.00000000000E+00  0.00000000000E+00  0.69565666398E+02  0.69565666398E+02  0.00000000000E+00 0.  1.
         21   -1    0    0  502  503 -0.00000000000E+00 -0.00000000000E+00 -0.44490163209E+03  0.44490163209E+03  0.00000000000E+00 0.  1.
          6    1    1    2  501    0  0.28694147185E+01  0.23942240574E+02 -0.15701764291E+03  0.23487231555E+03  0.17300000000E+03 0.  1.
         -6    1    1    2    0  503 -0.28694147185E+01 -0.23942240574E+02 -0.21831832278E+03  0.27959498294E+03  0.17300000000E+03 0.  1.
<mgrwt>
<rscale>  2 0.17467245E+03</rscale>
<asrwt>0</asrwt>
<pdfrwt beam="1">  1       21 0.10702410E-01 0.17467245E+03</pdfrwt>
<pdfrwt beam="2">  1       21 0.68446408E-01 0.17467245E+03</pdfrwt>
<totfact> 0.14095080E+05</totfact>
</mgrwt>
</event>
<event>
 4    2  0.4086940E+000  0.2206041E+03  0.7546771E-02  0.1133433E+00
         21   -1    0    0  501  502  0.00000000000E+00  0.00000000000E+00  0.23213739422E+03  0.23213739422E+03  0.00000000000E+00 0.  1.
         21   -1    0    0  502  503 -0.00000000000E+00 -0.00000000000E+00 -0.28905105555E+03  0.28905105555E+03  0.00000000000E+00 0. -1.
          6    1    1    2  501    0 -0.33629478488E+01  0.13684252554E+03  0.10812953699E+03  0.24567902430E+03  0.17300000000E+03 0.  1.
         -6    1    1    2    0  503  0.33629478488E+01 -0.13684252554E+03 -0.16504319831E+03  0.27550942547E+03  0.17300000000E+03 0. -1.
<mgrwt>
<rscale>  2 0.22060414E+03</rscale>
<asrwt>0</asrwt>
<pdfrwt beam="1">  1       21 0.35713446E-01 0.22060414E+03</pdfrwt>
<pdfrwt beam="2">  1       21 0.44469393E-01 0.22060414E+03</pdfrwt>
<totfact> 0.36186587E+04</totfact>
</mgrwt>
</event>
<event>
 4    2  0.4086940E+000  0.1735872E+03  0.7546771E-02  0.1174158E+00
         21   -1    0    0  503  502  0.00000000000E+00  0.00000000000E+00  0.14624476823E+03  0.14624476823E+03  0.00000000000E+00 0.  1.
         21   -1    0    0  501  503 -0.00000000000E+00 -0.00000000000E+00 -0.22483723841E+03  0.22483723841E+03  0.00000000000E+00 0.  1.
          6    1    1    2  501    0 -0.50669515767E+01  0.13335786747E+02 -0.92941752446E+02  0.19690273374E+03  0.17300000000E+03 0. -1.
         -6    1    1    2    0  502  0.50669515767E+01 -0.13335786747E+02  0.14349282266E+02  0.17417927290E+03  0.17300000000E+03 0. -1.
<mgrwt>
<rscale>  2 0.17358720E+03</rscale>
<asrwt>0</asrwt>
<pdfrwt beam="1">  1       21 0.22499195E-01 0.17358720E+03</pdfrwt>
<pdfrwt beam="2">  1       21 0.34590344E-01 0.17358720E+03</pdfrwt>
<totfact> 0.14997405E+05</totfact>
</mgrwt>
</event>
<event>
 4    2  0.4086940E+000  0.2143830E+03  0.7546771E-02  0.1138141E+00
         21   -1    0    0  503  502  0.00000000000E+00  0.00000000000E+00  0.33009471796E+02  0.33009471796E+02  0.00000000000E+00 0.  1.
         21   -1    0    0  501  503 -0.00000000000E+00 -0.00000000000E+00 -0.14000607229E+04  0.14000607229E+04  0.00000000000E+00 0. -1.
          6    1    1    2  501    0  0.39462300793E+02 -0.12030714184E+03 -0.73676965787E+03  0.76732627370E+03  0.17300000000E+03 0.  1.
         -6    1    1    2    0  502 -0.39462300793E+02  0.12030714184E+03 -0.63028159320E+03  0.66574392095E+03  0.17300000000E+03 0.  1.
<mgrwt>
<rscale>  2 0.21438303E+03</rscale>
<asrwt>0</asrwt>
<pdfrwt beam="1">  1       21 0.50783802E-02 0.21438303E+03</pdfrwt>
<pdfrwt beam="2">  1       21 0.21539396E+00 0.21438303E+03</pdfrwt>
<totfact> 0.27690238E+04</totfact>
</mgrwt>
</event>
<event>
 4    2  0.4086940E+000  0.2319264E+03  0.7546771E-02  0.1125291E+00
         21   -1    0    0  503  502  0.00000000000E+00  0.00000000000E+00  0.25247033974E+03  0.25247033974E+03  0.00000000000E+00 0.  1.
         21   -1    0    0  501  503 -0.00000000000E+00 -0.00000000000E+00 -0.78418709452E+03  0.78418709452E+03  0.00000000000E+00 0.  1.
          6    1    1    2  501    0  0.13882806627E+03 -0.67731981266E+02 -0.70820634081E+03  0.74521545504E+03  0.17300000000E+03 0.  1.
         -6    1    1    2    0  502 -0.13882806627E+03  0.67731981266E+02  0.17648958604E+03  0.29144197922E+03  0.17300000000E+03 0.  1.
<mgrwt>
<rscale>  2 0.23192640E+03</rscale>
<asrwt>0</asrwt>
<pdfrwt beam="1">  1       21 0.38841591E-01 0.23192640E+03</pdfrwt>
<pdfrwt beam="2">  1       21 0.12064417E+00 0.23192640E+03</pdfrwt>
<totfact> 0.32263009E+03</totfact>
</mgrwt>
</event>
<event>
 4    2  0.4086940E+000  0.1834572E+03  0.7546771E-02  0.1164499E+00
         21   -1    0    0  503  502  0.00000000000E+00  0.00000000000E+00  0.51189908648E+03  0.51189908648E+03  0.00000000000E+00 0.  1.
         21   -1    0    0  501  503 -0.00000000000E+00 -0.00000000000E+00 -0.68765077003E+02  0.68765077003E+02  0.00000000000E+00 0. -1.
          6    1    1    2  501    0  0.40937118194E+02 -0.45295545175E+02  0.28237730283E+03  0.33673947677E+03  0.17300000000E+03 0.  1.
         -6    1    1    2    0  502 -0.40937118194E+02  0.45295545175E+02  0.16075670665E+03  0.24392468672E+03  0.17300000000E+03 0. -1.
<mgrwt>
<rscale>  2 0.18345717E+03</rscale>
<asrwt>0</asrwt>
<pdfrwt beam="1">  1       21 0.78753703E-01 0.18345717E+03</pdfrwt>
<pdfrwt beam="2">  1       21 0.10579243E-01 0.18345717E+03</pdfrwt>
<totfact> 0.10503190E+05</totfact>
</mgrwt>
</event>
<event>
 4    2  0.4086940E+000  0.1979766E+03  0.7546771E-02  0.1151457E+00
         21   -1    0    0  501  502  0.00000000000E+00  0.00000000000E+00  0.45759896502E+02  0.45759896502E+02  0.00000000000E+00 0. -1.
         21   -1    0    0  502  503 -0.00000000000E+00 -0.00000000000E+00 -0.10158884510E+04  0.10158884510E+04  0.00000000000E+00 0.  1.
          6    1    1    2  501    0 -0.59503378566E+02 -0.75664366936E+02 -0.69530386971E+03  0.72293998348E+03  0.17300000000E+03 0.  1.
         -6    1    1    2    0  503  0.59503378566E+02  0.75664366936E+02 -0.27482468477E+03  0.33870836400E+03  0.17300000000E+03 0. -1.
<mgrwt>
<rscale>  2 0.19797664E+03</rscale>
<asrwt>0</asrwt>
<pdfrwt beam="1">  1       21 0.70399842E-02 0.19797664E+03</pdfrwt>
<pdfrwt beam="2">  1       21 0.15629053E+00 0.19797664E+03</pdfrwt>
<totfact> 0.40023950E+04</totfact>
</mgrwt>
</event>
<event>
 4    2  0.4086940E+000  0.1818245E+03  0.7546771E-02  0.1166049E+00
         21   -1    0    0  501  502  0.00000000000E+00  0.00000000000E+00  0.23156667661E+03  0.23156667661E+03  0.00000000000E+00 0.  1.
         21   -1    0    0  502  503 -0.00000000000E+00 -0.00000000000E+00 -0.14354110887E+03  0.14354110887E+03  0.00000000000E+00 0.  1.
          6    1    1    2  501    0  0.41159083987E+02  0.37908936474E+02  0.30242448374E+02  0.18432244395E+03  0.17300000000E+03 0.  1.
         -6    1    1    2    0  503 -0.41159083987E+02 -0.37908936474E+02  0.57783119374E+02  0.19078534153E+03  0.17300000000E+03 0.  1.
<mgrwt>
<rscale>  2 0.18182452E+03</rscale>
<asrwt>0</asrwt>
<pdfrwt beam="1">  1       21 0.35625642E-01 0.18182452E+03</pdfrwt>
<pdfrwt beam="2">  1       21 0.22083248E-01 0.18182452E+03</pdfrwt>
<totfact> 0.14612026E+05</totfact>
</mgrwt>
</event>
<event>
 4    2  0.4086940E+000  0.2714456E+03  0.7546771E-02  0.1100455E+00
         21   -1    0    0  503  502  0.00000000000E+00  0.00000000000E+00  0.75836611702E+02  0.75836611702E+02  0.00000000000E+00 0.  1.
         21   -1    0    0  501  503 -0.00000000000E+00 -0.00000000000E+00 -0.97657957693E+03  0.97657957693E+03  0.00000000000E+00 0. -1.
          6    1    1    2  501    0 -0.16212775399E+03 -0.13216772932E+03 -0.48795326180E+03  0.55837362311E+03  0.17300000000E+03 0.  1.
         -6    1    1    2    0  502  0.16212775399E+03  0.13216772932E+03 -0.41278970343E+03  0.49404256552E+03  0.17300000000E+03 0. -1.
<mgrwt>
<rscale>  2 0.27144561E+03</rscale>
<asrwt>0</asrwt>
<pdfrwt beam="1">  1       21 0.11667172E-01 0.27144561E+03</pdfrwt>
<pdfrwt beam="2">  1       21 0.15024300E+00 0.27144561E+03</pdfrwt>
<totfact> 0.17520470E+04</totfact>
</mgrwt>
</event>
<event>
 4    2  0.4086940E+000  0.2085035E+03  0.7546771E-02  0.1142757E+00
         21   -1    0    0  501  502  0.00000000000E+00  0.00000000000E+00  0.56105737464E+03  0.56105737464E+03  0.00000000000E+00 0. -1.
         21   -1    0    0  502  503 -0.00000000000E+00 -0.00000000000E+00 -0.29736003378E+03  0.29736003378E+03  0.00000000000E+00 0. -1.
          6    1    1    2  501    0  0.99256609405E+02  0.60768568219E+02  0.50092389713E+03  0.54258496487E+03  0.17300000000E+03 0. -1.
         -6    1    1    2    0  503 -0.99256609405E+02 -0.60768568219E+02 -0.23722655627E+03  0.31583244354E+03  0.17300000000E+03 0. -1.
<mgrwt>
<rscale>  2 0.20850346E+03</rscale>
<asrwt>0</asrwt>
<pdfrwt beam="1">  1       21 0.86316519E-01 0.20850346E+03</pdfrwt>
<pdfrwt beam="2">  1       21 0.45747698E-01 0.20850346E+03</pdfrwt>
<totfact> 0.52347981E+03</totfact>
</mgrwt>
</event>
<event>
 4    2  0.4086940E+000  0.3661408E+03  0.7546771E-02  0.1056178E+00
         21   -1    0    0  501  502  0.00000000000E+00  0.00000000000E+00  0.23723701978E+04  0.23723701978E+04  0.00000000000E+00 0.  1.
         21   -1    0    0  502  503 -0.00000000000E+00 -0.00000000000E+00 -0.59185138312E+02  0.59185138312E+02  0.00000000000E+00 0. -1.
          6    1    1    2  501    0  0.64244830163E+02 -0.31623200788E+03  0.14151414236E+04  0.14617401718E+04  0.17300000000E+03 0. -1.
         -6    1    1    2    0  503 -0.64244830163E+02  0.31623200788E+03  0.89804363589E+03  0.96981516433E+03  0.17300000000E+03 0. -1.
<mgrwt>
<rscale>  2 0.36614079E+03</rscale>
<asrwt>0</asrwt>
<pdfrwt beam="1">  1       21 0.36497996E+00 0.36614079E+03</pdfrwt>
<pdfrwt beam="2">  1       21 0.91054078E-02 0.36614079E+03</pdfrwt>
<totfact> 0.11416239E+03</totfact>
</mgrwt>
</event>
<event>
 4    2  0.4086940E+000  0.1917924E+03  0.7546771E-02  0.1156855E+00
         21   -1    0    0  503  502  0.00000000000E+00  0.00000000000E+00  0.62288633299E+02  0.62288633299E+02  0.00000000000E+00 0. -1.
         21   -1    0    0  501  503 -0.00000000000E+00 -0.00000000000E+00 -0.16654046137E+04  0.16654046137E+04  0.00000000000E+00 0. -1.
          6    1    1    2  501    0 -0.81744987618E+02  0.13156755470E+02 -0.14955465308E+04  0.15077943391E+04  0.17300000000E+03 0. -1.
         -6    1    1    2    0  502  0.81744987618E+02 -0.13156755470E+02 -0.10756944962E+03  0.21989890793E+03  0.17300000000E+03 0. -1.
<mgrwt>
<rscale>  2 0.19179245E+03</rscale>
<asrwt>0</asrwt>
<pdfrwt beam="1">  1       21 0.95828675E-02 0.19179245E+03</pdfrwt>
<pdfrwt beam="2">  1       21 0.25621607E+00 0.19179245E+03</pdfrwt>
<totfact> 0.53533382E+03</totfact>
</mgrwt>
</event>
<event>
 4    2  0.4086940E+000  0.1815081E+03  0.7546771E-02  0.1166351E+00
         21   -1    0    0  501  502  0.00000000000E+00  0.00000000000E+00  0.17048370631E+03  0.17048370631E+03  0.00000000000E+00 0. -1.
         21   -1    0    0  502  503 -0.00000000000E+00 -0.00000000000E+00 -0.20058444431E+03  0.20058444431E+03  0.00000000000E+00 0. -1.
          6    1    1    2  501    0  0.53159981909E+02  0.13791477944E+02 -0.50539504291E+02  0.18841292428E+03  0.17300000000E+03 0. -1.
         -6    1    1    2    0  503 -0.53159981909E+02 -0.13791477944E+02  0.20438766292E+02  0.18265522634E+03  0.17300000000E+03 0. -1.
<mgrwt>
<rscale>  2 0.18150809E+03</rscale>
<asrwt>0</asrwt>
<pdfrwt beam="1">  1       21 0.26228263E-01 0.18150809E+03</pdfrwt>
<pdfrwt beam="2">  1       21 0.30859145E-01 0.18150809E+03</pdfrwt>
<totfact> 0.13986581E+05</totfact>
</mgrwt>
</event>
<event>
 4    2  0.4086940E+000  0.2068322E+03  0.7546771E-02  0.1144099E+00
         21   -1    0    0  503  502  0.00000000000E+00  0.00000000000E+00  0.15440787620E+02  0.15440787620E+02  0.00000000000E+00 0. -1.
         21   -1    0    0  501  503 -0.00000000000E+00 -0.00000000000E+00 -0.29396388561E+04  0.29396388561E+04  0.00000000000E+00 0. -1.
          6    1    1    2  501    0 -0.76516373164E+01 -0.11310184049E+03 -0.18164563496E+04  0.18281939842E+04  0.17300000000E+03 0. -1.
         -6    1    1    2    0  502  0.76516373164E+01  0.11310184049E+03 -0.11077417188E+04  0.11268856595E+04  0.17300000000E+03 0. -1.
<mgrwt>
<rscale>  2 0.20683224E+03</rscale>
<asrwt>0</asrwt>
<pdfrwt beam="1">  1       21 0.23755067E-02 0.20683224E+03</pdfrwt>
<pdfrwt beam="2">  1       21 0.45225196E+00 0.20683224E+03</pdfrwt>
<totfact> 0.36627480E+03</totfact>
</mgrwt>
</event>
<event>
 4    2  0.4086940E+000  0.1831760E+03  0.7546771E-02  0.1164764E+00
         21   -1    0    0  503  502  0.00000000000E+00  0.00000000000E+00  0.37477148958E+03  0.37477148958E+03  0.00000000000E+00 0.  1.
         21   -1    0    0  501  503 -0.00000000000E+00 -0.00000000000E+00 -0.32084694290E+03  0.32084694290E+03  0.00000000000E+00 0. -1.
          6    1    1    2  501    0 -0.60199177078E+02  0.70453831027E+00 -0.26835951501E+03  0.32491578384E+03  0.17300000000E+03 0. -1.
         -6    1    1    2    0  502  0.60199177078E+02 -0.70453831027E+00  0.32228406168E+03  0.37070264864E+03  0.17300000000E+03 0.  1.
<mgrwt>
<rscale>  2 0.18317597E+03</rscale>
<asrwt>0</asrwt>
<pdfrwt beam="1">  1       21 0.57657152E-01 0.18317597E+03</pdfrwt>
<pdfrwt beam="2">  1       21 0.49361068E-01 0.18317597E+03</pdfrwt>
<totfact> 0.11114954E+04</totfact>
</mgrwt>
</event>
<event>
 4    2  0.4086940E+000  0.2798576E+03  0.7546771E-02  0.1095767E+00
         21   -1    0    0  501  502  0.00000000000E+00  0.00000000000E+00  0.17808481398E+03  0.17808481398E+03  0.00000000000E+00 0.  1.
         21   -1    0    0  502  503 -0.00000000000E+00 -0.00000000000E+00 -0.77638925947E+03  0.77638925947E+03  0.00000000000E+00 0. -1.
          6    1    1    2  501    0 -0.81971593606E+02  0.20413698816E+03  0.15079305314E+02  0.28026351447E+03  0.17300000000E+03 0.  1.
         -6    1    1    2    0  503  0.81971593606E+02 -0.20413698816E+03 -0.61338375080E+03  0.67421055898E+03  0.17300000000E+03 0. -1.
<mgrwt>
<rscale>  2 0.27985756E+03</rscale>
<asrwt>0</asrwt>
<pdfrwt beam="1">  1       21 0.27397663E-01 0.27985756E+03</pdfrwt>
<pdfrwt beam="2">  1       21 0.11944450E+00 0.27985756E+03</pdfrwt>
<totfact> 0.64094157E+03</totfact>
</mgrwt>
</event>
<event>
 4    2  0.4086940E+000  0.2717024E+03  0.7546771E-02  0.1100309E+00
         21   -1    0    0  501  502  0.00000000000E+00  0.00000000000E+00  0.28639559522E+04  0.28639559522E+04  0.00000000000E+00 0.  1.
         21   -1    0    0  502  503 -0.00000000000E+00 -0.00000000000E+00 -0.32676545121E+02  0.32676545121E+02  0.00000000000E+00 0. -1.
          6    1    1    2  501    0  0.20875788899E+03 -0.17700958570E+02  0.75009431241E+03  0.79778672442E+03  0.17300000000E+03 0. -1.
         -6    1    1    2    0  503 -0.20875788899E+03  0.17700958570E+02  0.20811850946E+04  0.20988457729E+04  0.17300000000E+03 0.  1.
<mgrwt>
<rscale>  2 0.27170237E+03</rscale>
<asrwt>0</asrwt>
<pdfrwt beam="1">  1       21 0.44060841E+00 0.27170237E+03</pdfrwt>
<pdfrwt beam="2">  1       21 0.50271630E-02 0.27170237E+03</pdfrwt>
<totfact> 0.11532226E+03</totfact>
</mgrwt>
</event>
<event>
 4    2  0.4086940E+000  0.1894560E+03  0.7546771E-02  0.1158953E+00
         21   -1    0    0  501  502  0.00000000000E+00  0.00000000000E+00  0.14159364986E+03  0.14159364986E+03  0.00000000000E+00 0. -1.
         21   -1    0    0  502  503 -0.00000000000E+00 -0.00000000000E+00 -0.26329842905E+03  0.26329842905E+03  0.00000000000E+00 0. -1.
          6    1    1    2  501    0 -0.60522705889E+02  0.47974676848E+02 -0.21792633726E+02  0.19070523441E+03  0.17300000000E+03 0. -1.
         -6    1    1    2    0  503  0.60522705889E+02 -0.47974676848E+02 -0.99912145461E+02  0.21418684450E+03  0.17300000000E+03 0. -1.
<mgrwt>
<rscale>  2 0.18945598E+03</rscale>
<asrwt>0</asrwt>
<pdfrwt beam="1">  1       21 0.21783639E-01 0.18945598E+03</pdfrwt>
<pdfrwt beam="2">  1       21 0.40507450E-01 0.18945598E+03</pdfrwt>
<totfact> 0.11561028E+05</totfact>
</mgrwt>
</event>
<event>
 4    2  0.4086940E+000  0.2264452E+03  0.7546771E-02  0.1129167E+00
         21   -1    0    0  501  502  0.00000000000E+00  0.00000000000E+00  0.17393516861E+03  0.17393516861E+03  0.00000000000E+00 0. -1.
         21   -1    0    0  502  503 -0.00000000000E+00 -0.00000000000E+00 -0.31733433144E+03  0.31733433144E+03  0.00000000000E+00 0. -1.
          6    1    1    2  501    0  0.11722239585E+03 -0.87220037835E+02 -0.62541236189E+01  0.22653154118E+03  0.17300000000E+03 0.  1.
         -6    1    1    2    0  503 -0.11722239585E+03  0.87220037835E+02 -0.13714503922E+03  0.26473795887E+03  0.17300000000E+03 0.  1.
<mgrwt>
<rscale>  2 0.22644519E+03</rscale>
<asrwt>0</asrwt>
<pdfrwt beam="1">  1       21 0.26759257E-01 0.22644519E+03</pdfrwt>
<pdfrwt beam="2">  1       21 0.48820666E-01 0.22644519E+03</pdfrwt>
<totfact> 0.52420101E+04</totfact>
</mgrwt>
</event>
<event>
 4    2  0.4086940E+000  0.1732593E+03  0.7546771E-02  0.1174491E+00
         21   -1    0    0  503  502  0.00000000000E+00  0.00000000000E+00  0.68229021334E+03  0.68229021334E+03  0.00000000000E+00 0.  1.
         21   -1    0    0  501  503 -0.00000000000E+00 -0.00000000000E+00 -0.83606854162E+02  0.83606854162E+02  0.00000000000E+00 0.  1.
          6    1    1    2  501    0 -0.41869041505E+01  0.84995806275E+01  0.35756683555E+02  0.17691046734E+03  0.17300000000E+03 0.  1.
         -6    1    1    2    0  502  0.41869041505E+01 -0.84995806275E+01  0.56292667563E+03  0.58898660016E+03  0.17300000000E+03 0.  1.
<mgrwt>
<rscale>  2 0.17325927E+03</rscale>
<asrwt>0</asrwt>
<pdfrwt beam="1">  1       21 0.10496772E+00 0.17325927E+03</pdfrwt>
<pdfrwt beam="2">  1       21 0.12862593E-01 0.17325927E+03</pdfrwt>
<totfact> 0.38286377E+04</totfact>
</mgrwt>
</event>
<event>
 4    2  0.4086940E+000  0.2207671E+03  0.7546771E-02  0.1133312E+00
         21   -1    0    0  501  502  0.00000000000E+00  0.00000000000E+00  0.83343321979E+03  0.83343321979E+03  0.00000000000E+00 0. -1.
         21   -1    0    0  502  503 -0.00000000000E+00 -0.00000000000E+00 -0.60049002873E+02  0.60049002873E+02  0.00000000000E+00 0.  1.
          6    1    1    2  501    0 -0.10459385521E+03  0.88708826070E+02  0.45893385522E+03  0.50927243577E+03  0.17300000000E+03 0. -1.
         -6    1    1    2    0  503  0.10459385521E+03 -0.88708826070E+02  0.31445036170E+03  0.38420978689E+03  0.17300000000E+03 0.  1.
<mgrwt>
<rscale>  2 0.22076714E+03</rscale>
<asrwt>0</asrwt>
<pdfrwt beam="1">  1       21 0.12822049E+00 0.22076714E+03</pdfrwt>
<pdfrwt beam="2">  1       21 0.92383088E-02 0.22076714E+03</pdfrwt>
<totfact> 0.41119217E+04</totfact>
</mgrwt>
</event>
<event>
 4    2  0.4086940E+000  0.2265480E+03  0.7546771E-02  0.1129093E+00
         21   -1    0    0  503  502  0.00000000000E+00  0.00000000000E+00  0.68217803530E+03  0.68217803530E+03  0.00000000000E+00 0. -1.
         21   -1    0    0  501  503 -0.00000000000E+00 -0.00000000000E+00 -0.81914278534E+02  0.81914278534E+02  0.00000000000E+00 0. -1.
          6    1    1    2  501    0  0.10800309149E+03 -0.98642536016E+02  0.19104212138E+03  0.29634626676E+03  0.17300000000E+03 0. -1.
         -6    1    1    2    0  502 -0.10800309149E+03  0.98642536016E+02  0.40922163539E+03  0.46774604708E+03  0.17300000000E+03 0. -1.
<mgrwt>
<rscale>  2 0.22654805E+03</rscale>
<asrwt>0</asrwt>
<pdfrwt beam="1">  1       21 0.10495046E+00 0.22654805E+03</pdfrwt>
<pdfrwt beam="2">  1       21 0.12602197E-01 0.22654805E+03</pdfrwt>
<totfact> 0.38623315E+04</totfact>
</mgrwt>
</event>
<event>
 4    2  0.4086940E+000  0.1772740E+03  0.7546771E-02  0.1170468E+00
         21   -1    0    0  503  502  0.00000000000E+00  0.00000000000E+00  0.45236437085E+02  0.45236437085E+02  0.00000000000E+00 0.  1.
         21   -1    0    0  501  503 -0.00000000000E+00 -0.00000000000E+00 -0.70362581670E+03  0.70362581670E+03  0.00000000000E+00 0.  1.
          6    1    1    2  501    0 -0.33014694170E+02  0.20177149725E+02 -0.28704008283E+03  0.33736937702E+03  0.17300000000E+03 0.  1.
         -6    1    1    2    0  502  0.33014694170E+02 -0.20177149725E+02 -0.37134929679E+03  0.41149287676E+03  0.17300000000E+03 0.  1.
<mgrwt>
<rscale>  2 0.17727405E+03</rscale>
<asrwt>0</asrwt>
<pdfrwt beam="1">  1       21 0.69594520E-02 0.17727405E+03</pdfrwt>
<pdfrwt beam="2">  1       21 0.10825012E+00 0.17727405E+03</pdfrwt>
<totfact> 0.10439864E+05</totfact>
</mgrwt>
</event>
<event>
 4    2  0.4086940E+000  0.1754671E+03  0.7546771E-02  0.1172264E+00
         21   -1    0    0  501  502  0.00000000000E+00  0.00000000000E+00  0.61669630522E+02  0.61669630522E+02  0.00000000000E+00 0. -1.
         21   -1    0    0  502  503 -0.00000000000E+00 -0.00000000000E+00 -0.72266628369E+03  0.72266628369E+03  0.00000000000E+00 0. -1.
          6    1    1    2  501    0  0.29003439552E+02 -0.43020045282E+01 -0.11244718931E+03  0.20840603910E+03  0.17300000000E+03 0. -1.
         -6    1    1    2    0  503 -0.29003439552E+02  0.43020045282E+01 -0.54854946386E+03  0.57592987511E+03  0.17300000000E+03 0. -1.
<mgrwt>
<rscale>  2 0.17546711E+03</rscale>
<asrwt>0</asrwt>
<pdfrwt beam="1">  1       21 0.94876357E-02 0.17546711E+03</pdfrwt>
<pdfrwt beam="2">  1       21 0.11117943E+00 0.17546711E+03</pdfrwt>
<totfact> 0.57151127E+04</totfact>
</mgrwt>
</event>
<event>
 4    2  0.4086940E+000  0.2307312E+03  0.7546771E-02  0.1126126E+00
         21   -1    0    0  501  502  0.00000000000E+00  0.00000000000E+00  0.17662272759E+03  0.17662272759E+03  0.00000000000E+00 0. -1.
         21   -1    0    0  502  503 -0.00000000000E+00 -0.00000000000E+00 -0.34394564796E+03  0.34394564796E+03  0.00000000000E+00 0. -1.
          6    1    1    2  501    0 -0.79523981573E+02 -0.13032197514E+03  0.78656579133E+01  0.23086521918E+03  0.17300000000E+03 0. -1.
         -6    1    1    2    0  503  0.79523981573E+02  0.13032197514E+03 -0.17518857829E+03  0.28970315637E+03  0.17300000000E+03 0. -1.
<mgrwt>
<rscale>  2 0.23073119E+03</rscale>
<asrwt>0</asrwt>
<pdfrwt beam="1">  1       21 0.27172727E-01 0.23073119E+03</pdfrwt>
<pdfrwt beam="2">  1       21 0.52914715E-01 0.23073119E+03</pdfrwt>
<totfact> 0.42894070E+04</totfact>
</mgrwt>
</event>
<event>
 4    2  0.4086940E+000  0.2701485E+03  0.7546771E-02  0.1101195E+00
         21   -1    0    0  503  502  0.00000000000E+00  0.00000000000E+00  0.24180263621E+03  0.24180263621E+03  0.00000000000E+00 0. -1.
         21   -1    0    0  501  503 -0.00000000000E+00 -0.00000000000E+00 -0.34327400089E+03  0.34327400089E+03  0.00000000000E+00 0.  1.
          6    1    1    2  501    0  0.18720663900E+03  0.89470052577E+02 -0.15239793640E+03  0.31016986799E+03  0.17300000000E+03 0.  1.
         -6    1    1    2    0  502 -0.18720663900E+03 -0.89470052577E+02  0.50926571713E+02  0.27490676910E+03  0.17300000000E+03 0. -1.
<mgrwt>
<rscale>  2 0.27014851E+03</rscale>
<asrwt>0</asrwt>
<pdfrwt beam="1">  1       21 0.37200405E-01 0.27014851E+03</pdfrwt>
<pdfrwt beam="2">  1       21 0.52811385E-01 0.27014851E+03</pdfrwt>
<totfact> 0.22765699E+04</totfact>
</mgrwt>
</event>
<event>
 4    2  0.4086940E+000  0.2015175E+03  0.7546771E-02  0.1148465E+00
         21   -1    0    0  503  502  0.00000000000E+00  0.00000000000E+00  0.17616186147E+03  0.17616186147E+03  0.00000000000E+00 0. -1.
         21   -1    0    0  501  503 -0.00000000000E+00 -0.00000000000E+00 -0.45438146519E+03  0.45438146519E+03  0.00000000000E+00 0. -1.
          6    1    1    2  501    0  0.69581076579E+02 -0.76411959575E+02 -0.36039973317E+03  0.41291316454E+03  0.17300000000E+03 0. -1.
         -6    1    1    2    0  502 -0.69581076579E+02  0.76411959575E+02  0.82180129450E+02  0.21763016211E+03  0.17300000000E+03 0. -1.
<mgrwt>
<rscale>  2 0.20151753E+03</rscale>
<asrwt>0</asrwt>
<pdfrwt beam="1">  1       21 0.27101825E-01 0.20151753E+03</pdfrwt>
<pdfrwt beam="2">  1       21 0.69904839E-01 0.20151753E+03</pdfrwt>
<totfact> 0.23989037E+04</totfact>
</mgrwt>
</event>
<event>
 4    2  0.4086940E+000  0.1948310E+03  0.7546771E-02  0.1154175E+00
         21   -1    0    0  503  502  0.00000000000E+00  0.00000000000E+00  0.26142738757E+03  0.26142738757E+03  0.00000000000E+00 0.  1.
         21   -1    0    0  501  503 -0.00000000000E+00 -0.00000000000E+00 -0.14529125939E+03  0.14529125939E+03  0.00000000000E+00 0.  1.
          6    1    1    2  501    0 -0.89526483045E+02  0.38872848696E+01  0.63181173094E+02  0.20481934182E+03  0.17300000000E+03 0. -1.
         -6    1    1    2    0  502  0.89526483045E+02 -0.38872848696E+01  0.52954955087E+02  0.20189930515E+03  0.17300000000E+03 0. -1.
<mgrwt>
<rscale>  2 0.19483096E+03</rscale>
<asrwt>0</asrwt>
<pdfrwt beam="1">  1       21 0.40219598E-01 0.19483096E+03</pdfrwt>
<pdfrwt beam="2">  1       21 0.22352501E-01 0.19483096E+03</pdfrwt>
<totfact> 0.11150749E+05</totfact>
</mgrwt>
</event>
<event>
 4    2  0.4086940E+000  0.2163242E+03  0.7546771E-02  0.1136654E+00
         21   -1    0    0  503  502  0.00000000000E+00  0.00000000000E+00  0.13639292981E+03  0.13639292981E+03  0.00000000000E+00 0. -1.
         21   -1    0    0  501  503 -0.00000000000E+00 -0.00000000000E+00 -0.35718287059E+03  0.35718287059E+03  0.00000000000E+00 0.  1.
          6    1    1    2  501    0  0.97236518574E+02  0.86094338215E+02 -0.61388760305E+02  0.22486608350E+03  0.17300000000E+03 0. -1.
         -6    1    1    2    0  502 -0.97236518574E+02 -0.86094338215E+02 -0.15940118048E+03  0.26870971690E+03  0.17300000000E+03 0. -1.
<mgrwt>
<rscale>  2 0.21632424E+03</rscale>
<asrwt>0</asrwt>
<pdfrwt beam="1">  1       21 0.20983528E-01 0.21632424E+03</pdfrwt>
<pdfrwt beam="2">  1       21 0.54951210E-01 0.21632424E+03</pdfrwt>
<totfact> 0.65239606E+04</totfact>
</mgrwt>
</event>
<event>
 4    2  0.4086940E+000  0.1878206E+03  0.7546771E-02  0.1160442E+00
         21   -1    0    0  501  502  0.00000000000E+00  0.00000000000E+00  0.14939467761E+03  0.14939467761E+03  0.00000000000E+00 0.  1.
         21   -1    0    0  502  503 -0.00000000000E+00 -0.00000000000E+00 -0.24181114626E+03  0.24181114626E+03  0.00000000000E+00 0.  1.
          6    1    1    2  501    0 -0.68248766927E+02 -0.26261689822E+02 -0.16226704898E+02  0.18852022833E+03  0.17300000000E+03 0.  1.
         -6    1    1    2    0  503  0.68248766927E+02  0.26261689822E+02 -0.76189763752E+02  0.20268559554E+03  0.17300000000E+03 0.  1.
<mgrwt>
<rscale>  2 0.18782058E+03</rscale>
<asrwt>0</asrwt>
<pdfrwt beam="1">  1       21 0.22983797E-01 0.18782058E+03</pdfrwt>
<pdfrwt beam="2">  1       21 0.37201715E-01 0.18782058E+03</pdfrwt>
<totfact> 0.12405728E+05</totfact>
</mgrwt>
</event>
<event>
 4    2  0.4086940E+000  0.2979468E+03  0.7546771E-02  0.1086272E+00
         21   -1    0    0  503  502  0.00000000000E+00  0.00000000000E+00  0.16080713145E+03  0.16080713145E+03  0.00000000000E+00 0. -1.
         21   -1    0    0  501  503 -0.00000000000E+00 -0.00000000000E+00 -0.55216293325E+03  0.55216293325E+03  0.00000000000E+00 0. -1.
          6    1    1    2  501    0  0.29196469216E+02 -0.24081291051E+03 -0.20095344028E+03  0.35938082426E+03  0.17300000000E+03 0. -1.
         -6    1    1    2    0  502 -0.29196469216E+02  0.24081291051E+03 -0.19040236153E+03  0.35358924044E+03  0.17300000000E+03 0. -1.
<mgrwt>
<rscale>  2 0.29794679E+03</rscale>
<asrwt>0</asrwt>
<pdfrwt beam="1">  1       21 0.24739558E-01 0.29794679E+03</pdfrwt>
<pdfrwt beam="2">  1       21 0.84948144E-01 0.29794679E+03</pdfrwt>
<totfact> 0.17560812E+04</totfact>
</mgrwt>
</event>
<event>
 4    2  0.4086940E+000  0.1815734E+03  0.7546771E-02  0.1166289E+00
         21   -1    0    0  501  502  0.00000000000E+00  0.00000000000E+00  0.43719150287E+03  0.43719150287E+03  0.00000000000E+00 0.  1.
         21   -1    0    0  502  503 -0.00000000000E+00 -0.00000000000E+00 -0.84090069764E+02  0.84090069764E+02  0.00000000000E+00 0.  1.
          6    1    1    2  501    0  0.21433890020E+02  0.50798622146E+02  0.26028714579E+03  0.31736148146E+03  0.17300000000E+03 0. -1.
         -6    1    1    2    0  503 -0.21433890020E+02 -0.50798622146E+02  0.92814287320E+02  0.20392009117E+03  0.17300000000E+03 0. -1.
<mgrwt>
<rscale>  2 0.18157343E+03</rscale>
<asrwt>0</asrwt>
<pdfrwt beam="1">  1       21 0.67260230E-01 0.18157343E+03</pdfrwt>
<pdfrwt beam="2">  1       21 0.12936934E-01 0.18157343E+03</pdfrwt>
<totfact> 0.10416240E+05</totfact>
</mgrwt>
</event>
<event>
 4    2  0.4086940E+000  0.1770469E+03  0.7546771E-02  0.1170692E+00
         21   -1    0    0  503  502  0.00000000000E+00  0.00000000000E+00  0.34587127045E+03  0.34587127045E+03  0.00000000000E+00 0. -1.
         21   -1    0    0  501  503 -0.00000000000E+00 -0.00000000000E+00 -0.11459422153E+03  0.11459422153E+03  0.00000000000E+00 0. -1.
          6    1    1    2  501    0 -0.15634420280E+02  0.34237043117E+02  0.10348842423E+02  0.17734911547E+03  0.17300000000E+03 0. -1.
         -6    1    1    2    0  502  0.15634420280E+02 -0.34237043117E+02  0.22092820650E+03  0.28311637650E+03  0.17300000000E+03 0. -1.
<mgrwt>
<rscale>  2 0.17704692E+03</rscale>
<asrwt>0</asrwt>
<pdfrwt beam="1">  1       21 0.53210964E-01 0.17704692E+03</pdfrwt>
<pdfrwt beam="2">  1       21 0.17629880E-01 0.17704692E+03</pdfrwt>
<totfact> 0.98163627E+04</totfact>
</mgrwt>
</event>
<event>
 4    2  0.4086940E+000  0.4863545E+03  0.7546771E-02  0.1017403E+00
         21   -1    0    0  501  502  0.00000000000E+00  0.00000000000E+00  0.60589224715E+03  0.60589224715E+03  0.00000000000E+00 0.  1.
         21   -1    0    0  502  503 -0.00000000000E+00 -0.00000000000E+00 -0.12881949296E+04  0.12881949296E+04  0.00000000000E+00 0. -1.
          6    1    1    2  501    0 -0.40365182069E+03  0.20899027716E+03  0.44946828674E+03  0.66224049188E+03  0.17300000000E+03 0.  1.
         -6    1    1    2    0  503  0.40365182069E+03 -0.20899027716E+03 -0.11317709692E+04  0.12318466849E+04  0.17300000000E+03 0. -1.
<mgrwt>
<rscale>  2 0.48635453E+03</rscale>
<asrwt>0</asrwt>
<pdfrwt beam="1">  1       21 0.93214193E-01 0.48635453E+03</pdfrwt>
<pdfrwt beam="2">  1       21 0.19818383E+00 0.48635453E+03</pdfrwt>
<totfact> 0.10440582E+02</totfact>
</mgrwt>
</event>
<event>
 4    2  0.4086940E+000  0.1731395E+03  0.7546771E-02  0.1174613E+00
         21   -1    0    0  501  502  0.00000000000E+00  0.00000000000E+00  0.50024955785E+02  0.50024955785E+02  0.00000000000E+00 0.  1.
         21   -1    0    0  502  503 -0.00000000000E+00 -0.00000000000E+00 -0.83841650807E+03  0.83841650807E+03  0.00000000000E+00 0.  1.
          6    1    1    2  501    0 -0.33715108155E+01 -0.60754979671E+01 -0.63145455373E+03  0.65476112605E+03  0.17300000000E+03 0.  1.
         -6    1    1    2    0  503  0.33715108155E+01  0.60754979671E+01 -0.15693699856E+03  0.23368033781E+03  0.17300000000E+03 0.  1.
<mgrwt>
<rscale>  2 0.17313948E+03</rscale>
<asrwt>0</asrwt>
<pdfrwt beam="1">  1       21 0.76961477E-02 0.17313948E+03</pdfrwt>
<pdfrwt beam="2">  1       21 0.12898714E+00 0.17313948E+03</pdfrwt>
<totfact> 0.57167836E+04</totfact>
</mgrwt>
</event>
<event>
 4    2  0.4086940E+000  0.2130206E+03  0.7546771E-02  0.1139196E+00
         21   -1    0    0  501  502  0.00000000000E+00  0.00000000000E+00  0.14700538316E+03  0.14700538316E+03  0.00000000000E+00 0. -1.
         21   -1    0    0  502  503 -0.00000000000E+00 -0.00000000000E+00 -0.32907818996E+03  0.32907818996E+03  0.00000000000E+00 0.  1.
          6    1    1    2  501    0  0.84150811418E+02  0.91473671612E+02 -0.31772922444E+02  0.21537713495E+03  0.17300000000E+03 0. -1.
         -6    1    1    2    0  503 -0.84150811418E+02 -0.91473671612E+02 -0.15029988436E+03  0.26070643816E+03  0.17300000000E+03 0.  1.
<mgrwt>
<rscale>  2 0.21302064E+03</rscale>
<asrwt>0</asrwt>
<pdfrwt beam="1">  1       21 0.22616213E-01 0.21302064E+03</pdfrwt>
<pdfrwt beam="2">  1       21 0.50627413E-01 0.21302064E+03</pdfrwt>
<totfact> 0.67407338E+04</totfact>
</mgrwt>
</event>
<event>
 4    2  0.4086940E+000  0.2116988E+03  0.7546771E-02  0.1140228E+00
         21   -1    0    0  501  502  0.00000000000E+00  0.00000000000E+00  0.39005385034E+03  0.39005385034E+03  0.00000000000E+00 0.  1.
         21   -1    0    0  502  503 -0.00000000000E+00 -0.00000000000E+00 -0.37855624390E+03  0.37855624390E+03  0.00000000000E+00 0.  1.
          6    1    1    2  501    0  0.72914225603E+02  0.97830870061E+02  0.32647294479E+03  0.38910274622E+03  0.17300000000E+03 0.  1.
         -6    1    1    2    0  503 -0.72914225603E+02 -0.97830870061E+02 -0.31497533835E+03  0.37950734802E+03  0.17300000000E+03 0.  1.
<mgrwt>
<rscale>  2 0.21169876E+03</rscale>
<asrwt>0</asrwt>
<pdfrwt beam="1">  1       21 0.60008285E-01 0.21169876E+03</pdfrwt>
<pdfrwt beam="2">  1       21 0.58239422E-01 0.21169876E+03</pdfrwt>
<totfact> 0.70568643E+03</totfact>
</mgrwt>
</event>
<event>
 4    2  0.4086940E+000  0.1953487E+03  0.7546771E-02  0.1153724E+00
         21   -1    0    0  503  502  0.00000000000E+00  0.00000000000E+00  0.20370845515E+03  0.20370845515E+03  0.00000000000E+00 0. -1.
         21   -1    0    0  501  503 -0.00000000000E+00 -0.00000000000E+00 -0.27652314741E+03  0.27652314741E+03  0.00000000000E+00 0. -1.
          6    1    1    2  501    0 -0.35534360305E+02 -0.83483111410E+02 -0.17277638222E+03  0.26079263584E+03  0.17300000000E+03 0. -1.
         -6    1    1    2    0  502  0.35534360305E+02  0.83483111410E+02  0.99961689970E+02  0.21943896672E+03  0.17300000000E+03 0. -1.
<mgrwt>
<rscale>  2 0.19534872E+03</rscale>
<asrwt>0</asrwt>
<pdfrwt beam="1">  1       21 0.31339762E-01 0.19534872E+03</pdfrwt>
<pdfrwt beam="2">  1       21 0.42542023E-01 0.19534872E+03</pdfrwt>
<totfact> 0.51944116E+04</totfact>
</mgrwt>
</event>
<event>
 4    2  0.4086940E+000  0.2483836E+03  0.7546771E-02  0.1114331E+00
         21   -1    0    0  501  502  0.00000000000E+00  0.00000000000E+00  0.13602737375E+03  0.13602737375E+03  0.00000000000E+00 0.  1.
         21   -1    0    0  502  503 -0.00000000000E+00 -0.00000000000E+00 -0.46458803606E+03  0.46458803606E+03  0.00000000000E+00 0. -1.
          6    1    1    2  501    0  0.12584185627E+03 -0.12621112179E+03 -0.21058164960E+03  0.32563637881E+03  0.17300000000E+03 0. -1.
         -6    1    1    2    0  503 -0.12584185627E+03  0.12621112179E+03 -0.11797901270E+03  0.27497903100E+03  0.17300000000E+03 0.  1.
<mgrwt>
<rscale>  2 0.24838361E+03</rscale>
<asrwt>0</asrwt>
<pdfrwt beam="1">  1       21 0.20927288E-01 0.24838361E+03</pdfrwt>
<pdfrwt beam="2">  1       21 0.71475084E-01 0.24838361E+03</pdfrwt>
<totfact> 0.36519446E+04</totfact>
</mgrwt>
</event>
<event>
 4    2  0.4086940E+000  0.2293753E+03  0.7546771E-02  0.1127080E+00
         21   -1    0    0  501  502  0.00000000000E+00  0.00000000000E+00  0.62865253113E+03  0.62865253113E+03  0.00000000000E+00 0.  1.
         21   -1    0    0  502  503 -0.00000000000E+00 -0.00000000000E+00 -0.25957835756E+03  0.25957835756E+03  0.00000000000E+00 0. -1.
          6    1    1    2  501    0  0.17564896707E+02  0.14958436764E+03  0.55011341392E+03  0.59601826886E+03  0.17300000000E+03 0.  1.
         -6    1    1    2    0  503 -0.17564896707E+02 -0.14958436764E+03 -0.18103924035E+03  0.29221261983E+03  0.17300000000E+03 0. -1.
<mgrwt>
<rscale>  2 0.22937526E+03</rscale>
<asrwt>0</asrwt>
<pdfrwt beam="1">  1       21 0.96715773E-01 0.22937526E+03</pdfrwt>
<pdfrwt beam="2">  1       21 0.39935132E-01 0.22937526E+03</pdfrwt>
<totfact> 0.52237379E+03</totfact>
</mgrwt>
</event>
<event>
 4    2  0.4086940E+000  0.1746135E+03  0.7546771E-02  0.1173120E+00
         21   -1    0    0  503  502  0.00000000000E+00  0.00000000000E+00  0.18236440202E+03  0.18236440202E+03  0.00000000000E+00 0. -1.
         21   -1    0    0  501  503 -0.00000000000E+00 -0.00000000000E+00 -0.16834511380E+03  0.16834511380E+03  0.00000000000E+00 0. -1.
          6    1    1    2  501    0 -0.59043807607E+01 -0.22935269015E+02  0.21521854952E+02  0.17593487010E+03  0.17300000000E+03 0. -1.
         -6    1    1    2    0  502  0.59043807607E+01  0.22935269015E+02 -0.75025667324E+01  0.17477464571E+03  0.17300000000E+03 0. -1.
<mgrwt>
<rscale>  2 0.17461354E+03</rscale>
<asrwt>0</asrwt>
<pdfrwt beam="1">  1       21 0.28056062E-01 0.17461354E+03</pdfrwt>
<pdfrwt beam="2">  1       21 0.25899248E-01 0.17461354E+03</pdfrwt>
<totfact> 0.17276025E+05</totfact>
</mgrwt>
</event>
<event>
 4    2  0.4086940E+000  0.1869023E+03  0.7546771E-02  0.1161285E+00
         21   -1    0    0  501  502  0.00000000000E+00  0.00000000000E+00  0.53041563387E+03  0.53041563387E+03  0.00000000000E+00 0. -1.
         21   -1    0    0  502  503 -0.00000000000E+00 -0.00000000000E+00 -0.83209591057E+02  0.83209591057E+02  0.00000000000E+00 0. -1.
          6    1    1    2  501    0  0.39882872937E+02  0.58419489012E+02  0.36370604155E+03  0.40891877544E+03  0.17300000000E+03 0. -1.
         -6    1    1    2    0  503 -0.39882872937E+02 -0.58419489012E+02  0.83500001268E+02  0.20470644949E+03  0.17300000000E+03 0. -1.
<mgrwt>
<rscale>  2 0.18690233E+03</rscale>
<asrwt>0</asrwt>
<pdfrwt beam="1">  1       21 0.81602403E-01 0.18690233E+03</pdfrwt>
<pdfrwt beam="2">  1       21 0.12801476E-01 0.18690233E+03</pdfrwt>
<totfact> 0.68891261E+04</totfact>
</mgrwt>
</event>
<event>
 4    2  0.4086940E+000  0.1733603E+03  0.7546771E-02  0.1174388E+00
         21   -1    0    0  501  502  0.00000000000E+00  0.00000000000E+00  0.50881470570E+02  0.50881470570E+02  0.00000000000E+00 0.  1.
         21   -1    0    0  502  503 -0.00000000000E+00 -0.00000000000E+00 -0.85026950333E+03  0.85026950333E+03  0.00000000000E+00 0.  1.
          6    1    1    2  501    0  0.10870343399E+02  0.25744419011E+01 -0.15072390899E+03  0.22972045808E+03  0.17300000000E+03 0.  1.
         -6    1    1    2    0  503 -0.10870343399E+02 -0.25744419011E+01 -0.64866412377E+03  0.67143051582E+03  0.17300000000E+03 0.  1.
<mgrwt>
<rscale>  2 0.17336030E+03</rscale>
<asrwt>0</asrwt>
<pdfrwt beam="1">  1       21 0.78279192E-02 0.17336030E+03</pdfrwt>
<pdfrwt beam="2">  1       21 0.13081068E+00 0.17336030E+03</pdfrwt>
<totfact> 0.53579333E+04</totfact>
</mgrwt>
</event>
<event>
 4    2  0.4086940E+000  0.2748386E+03  0.7546771E-02  0.1098542E+00
         21   -1    0    0  503  502  0.00000000000E+00  0.00000000000E+00  0.55738417033E+03  0.55738417033E+03  0.00000000000E+00 0. -1.
         21   -1    0    0  501  503 -0.00000000000E+00 -0.00000000000E+00 -0.21820600603E+03  0.21820600603E+03  0.00000000000E+00 0.  1.
          6    1    1    2  501    0 -0.35168960795E+01 -0.21352955092E+03 -0.69130009128E+02  0.28339935751E+03  0.17300000000E+03 0.  1.
         -6    1    1    2    0  502  0.35168960795E+01  0.21352955092E+03  0.40830817343E+03  0.49219081885E+03  0.17300000000E+03 0. -1.
<mgrwt>
<rscale>  2 0.27483857E+03</rscale>
<asrwt>0</asrwt>
<pdfrwt beam="1">  1       21 0.85751410E-01 0.27483857E+03</pdfrwt>
<pdfrwt beam="2">  1       21 0.33570155E-01 0.27483857E+03</pdfrwt>
<totfact> 0.95516866E+03</totfact>
</mgrwt>
</event>
<event>
 4    2  0.4086940E+000  0.1978394E+03  0.7546771E-02  0.1151575E+00
         21   -1    0    0  501  502  0.00000000000E+00  0.00000000000E+00  0.50281798698E+02  0.50281798698E+02  0.00000000000E+00 0. -1.
         21   -1    0    0  502  503 -0.00000000000E+00 -0.00000000000E+00 -0.78938056604E+03  0.78938056604E+03  0.00000000000E+00 0. -1.
          6    1    1    2  501    0  0.21916187302E+02 -0.93440434080E+02 -0.41901665162E+03  0.46337391847E+03  0.17300000000E+03 0. -1.
         -6    1    1    2    0  503 -0.21916187302E+02  0.93440434080E+02 -0.32008211572E+03  0.37628844626E+03  0.17300000000E+03 0. -1.
<mgrwt>
<rscale>  2 0.19783941E+03</rscale>
<asrwt>0</asrwt>
<pdfrwt beam="1">  1       21 0.77356622E-02 0.19783941E+03</pdfrwt>
<pdfrwt beam="2">  1       21 0.12144315E+00 0.19783941E+03</pdfrwt>
<totfact> 0.65051235E+04</totfact>
</mgrwt>
</event>
<event>
 4    2  0.4086940E+000  0.3170689E+03  0.7546771E-02  0.1077006E+00
         21   -1    0    0  501  502  0.00000000000E+00  0.00000000000E+00  0.28023697665E+04  0.28023697665E+04  0.00000000000E+00 0. -1.
         21   -1    0    0  502  503 -0.00000000000E+00 -0.00000000000E+00 -0.65386445908E+02  0.65386445908E+02  0.00000000000E+00 0. -1.
          6    1    1    2  501    0 -0.25768985994E+03 -0.64804442151E+02  0.40517350684E+03  0.51448833834E+03  0.17300000000E+03 0. -1.
         -6    1    1    2    0  503  0.25768985994E+03  0.64804442151E+02  0.23318098138E+04  0.23532678741E+04  0.17300000000E+03 0. -1.
<mgrwt>
<rscale>  2 0.31706889E+03</rscale>
<asrwt>0</asrwt>
<pdfrwt beam="1">  1       21 0.43113372E+00 0.31706889E+03</pdfrwt>
<pdfrwt beam="2">  1       21 0.10059455E-01 0.31706889E+03</pdfrwt>
<totfact> 0.37873121E+02</totfact>
</mgrwt>
</event>
<event>
 4    2  0.4086940E+000  0.1829455E+03  0.7546771E-02  0.1164982E+00
         21   -1    0    0  503  502  0.00000000000E+00  0.00000000000E+00  0.43812783920E+03  0.43812783920E+03  0.00000000000E+00 0. -1.
         21   -1    0    0  501  503 -0.00000000000E+00 -0.00000000000E+00 -0.15707553635E+03  0.15707553635E+03  0.00000000000E+00 0. -1.
          6    1    1    2  501    0 -0.31715720160E+01  0.59413844244E+02 -0.72766563564E+02  0.19688584644E+03  0.17300000000E+03 0. -1.
         -6    1    1    2    0  502  0.31715720160E+01 -0.59413844244E+02  0.35381886642E+03  0.39831752910E+03  0.17300000000E+03 0. -1.
<mgrwt>
<rscale>  2 0.18294552E+03</rscale>
<asrwt>0</asrwt>
<pdfrwt beam="1">  1       21 0.67404283E-01 0.18294552E+03</pdfrwt>
<pdfrwt beam="2">  1       21 0.24165467E-01 0.18294552E+03</pdfrwt>
<totfact> 0.32702142E+04</totfact>
</mgrwt>
</event>
<event>
 4    2  0.4086940E+000  0.1800286E+03  0.7546771E-02  0.1167775E+00
         21   -1    0    0  501  502  0.00000000000E+00  0.00000000000E+00  0.93286626116E+02  0.93286626116E+02  0.00000000000E+00 0.  1.
         21   -1    0    0  502  503 -0.00000000000E+00 -0.00000000000E+00 -0.67417600057E+03  0.67417600057E+03  0.00000000000E+00 0.  1.
          6    1    1    2  501    0  0.37135053321E+02  0.33200436681E+02 -0.23299218889E+02  0.18152998315E+03  0.17300000000E+03 0.  1.
         -6    1    1    2    0  503 -0.37135053321E+02 -0.33200436681E+02 -0.55759015556E+03  0.58593264354E+03  0.17300000000E+03 0.  1.
<mgrwt>
<rscale>  2 0.18002856E+03</rscale>
<asrwt>0</asrwt>
<pdfrwt beam="1">  1       21 0.14351788E-01 0.18002856E+03</pdfrwt>
<pdfrwt beam="2">  1       21 0.10371939E+00 0.18002856E+03</pdfrwt>
<totfact> 0.32211496E+04</totfact>
</mgrwt>
</event>
<event>
 4    2  0.4086940E+000  0.1744695E+03  0.7546771E-02  0.1173265E+00
         21   -1    0    0  501  502  0.00000000000E+00  0.00000000000E+00  0.69118125962E+03  0.69118125962E+03  0.00000000000E+00 0.  1.
         21   -1    0    0  502  503 -0.00000000000E+00 -0.00000000000E+00 -0.13054039707E+03  0.13054039707E+03  0.00000000000E+00 0.  1.
          6    1    1    2  501    0 -0.51108651661E+00  0.22590546412E+02  0.61477060617E+03  0.63904811415E+03  0.17300000000E+03 0.  1.
         -6    1    1    2    0  503  0.51108651661E+00 -0.22590546412E+02 -0.54129743616E+02  0.18267354253E+03  0.17300000000E+03 0.  1.
<mgrwt>
<rscale>  2 0.17446946E+03</rscale>
<asrwt>0</asrwt>
<pdfrwt beam="1">  1       21 0.10633558E+00 0.17446946E+03</pdfrwt>
<pdfrwt beam="2">  1       21 0.20083138E-01 0.17446946E+03</pdfrwt>
<totfact> 0.16429499E+04</totfact>
</mgrwt>
</event>
<event>
 4    2  0.4086940E+000  0.2184453E+03  0.7546771E-02  0.1135047E+00
         21   -1    0    0  503  502  0.00000000000E+00  0.00000000000E+00  0.96846228181E+02  0.96846228181E+02  0.00000000000E+00 0. -1.
         21   -1    0    0  501  503 -0.00000000000E+00 -0.00000000000E+00 -0.58447651027E+03  0.58447651027E+03  0.00000000000E+00 0.  1.
          6    1    1    2  501    0 -0.13185140906E+03 -0.20113190096E+02 -0.10884073524E+03  0.24405868174E+03  0.17300000000E+03 0. -1.
         -6    1    1    2    0  502  0.13185140906E+03  0.20113190096E+02 -0.37878954686E+03  0.43726405671E+03  0.17300000000E+03 0.  1.
<mgrwt>
<rscale>  2 0.21844527E+03</rscale>
<asrwt>0</asrwt>
<pdfrwt beam="1">  1       21 0.14899420E-01 0.21844527E+03</pdfrwt>
<pdfrwt beam="2">  1       21 0.89919462E-01 0.21844527E+03</pdfrwt>
<totfact> 0.41255754E+04</totfact>
</mgrwt>
</event>
<event>
 4    2  0.4086940E+000  0.1999786E+03  0.7546771E-02  0.1149757E+00
         21   -1    0    0  501  502  0.00000000000E+00  0.00000000000E+00  0.69330984420E+02  0.69330984420E+02  0.00000000000E+00 0.  1.
         21   -1    0    0  502  503 -0.00000000000E+00 -0.00000000000E+00 -0.11416672987E+04  0.11416672987E+04  0.00000000000E+00 0.  1.
          6    1    1    2  501    0  0.95944112412E+02  0.29277381545E+02 -0.11026621999E+03  0.22836391363E+03  0.17300000000E+03 0.  1.
         -6    1    1    2    0  503 -0.95944112412E+02 -0.29277381545E+02 -0.96207009432E+03  0.98263436952E+03  0.17300000000E+03 0.  1.
<mgrwt>
<rscale>  2 0.19997859E+03</rscale>
<asrwt>0</asrwt>
<pdfrwt beam="1">  1       21 0.10666305E-01 0.19997859E+03</pdfrwt>
<pdfrwt beam="2">  1       21 0.17564112E+00 0.19997859E+03</pdfrwt>
<totfact> 0.14032040E+04</totfact>
</mgrwt>
</event>
<event>
 4    2  0.4086940E+000  0.1951877E+03  0.7546771E-02  0.1153864E+00
         21   -1    0    0  503  502  0.00000000000E+00  0.00000000000E+00  0.10560899427E+04  0.10560899427E+04  0.00000000000E+00 0.  1.
         21   -1    0    0  501  503 -0.00000000000E+00 -0.00000000000E+00 -0.36464642812E+02  0.36464642812E+02  0.00000000000E+00 0.  1.
          6    1    1    2  501    0 -0.80356388623E+02  0.41377458649E+02  0.56629552017E+03  0.59898986589E+03  0.17300000000E+03 0.  1.
         -6    1    1    2    0  502  0.80356388623E+02 -0.41377458649E+02  0.45332977975E+03  0.49356471965E+03  0.17300000000E+03 0.  1.
<mgrwt>
<rscale>  2 0.19518771E+03</rscale>
<asrwt>0</asrwt>
<pdfrwt beam="1">  1       21 0.16247535E+00 0.19518771E+03</pdfrwt>
<pdfrwt beam="2">  1       21 0.56099458E-02 0.19518771E+03</pdfrwt>
<totfact> 0.53327379E+04</totfact>
</mgrwt>
</event>
<event>
 4    2  0.4086940E+000  0.2409833E+03  0.7546771E-02  0.1119140E+00
         21   -1    0    0  501  502  0.00000000000E+00  0.00000000000E+00  0.80259592590E+03  0.80259592590E+03  0.00000000000E+00 0. -1.
         21   -1    0    0  502  503 -0.00000000000E+00 -0.00000000000E+00 -0.78023252426E+02  0.78023252426E+02  0.00000000000E+00 0.  1.
          6    1    1    2  501    0 -0.14995821494E+03 -0.75209446642E+02  0.24362253656E+03  0.34267312035E+03  0.17300000000E+03 0.  1.
         -6    1    1    2    0  503  0.14995821494E+03  0.75209446642E+02  0.48095013691E+03  0.53794605797E+03  0.17300000000E+03 0. -1.
<mgrwt>
<rscale>  2 0.24098325E+03</rscale>
<asrwt>0</asrwt>
<pdfrwt beam="1">  1       21 0.12347629E+00 0.24098325E+03</pdfrwt>
<pdfrwt beam="2">  1       21 0.12003578E-01 0.24098325E+03</pdfrwt>
<totfact> 0.28081008E+04</totfact>
</mgrwt>
</event>
<event>
 4    2  0.4086940E+000  0.3029943E+03  0.7546771E-02  0.1083753E+00
         21   -1    0    0  501  502  0.00000000000E+00  0.00000000000E+00  0.78861464350E+03  0.78861464350E+03  0.00000000000E+00 0.  1.
         21   -1    0    0  502  503 -0.00000000000E+00 -0.00000000000E+00 -0.15519282976E+03  0.15519282976E+03  0.00000000000E+00 0. -1.
          6    1    1    2  501    0 -0.61772986681E+02  0.24095780660E+03  0.55260468834E+03  0.63022020597E+03  0.17300000000E+03 0.  1.
         -6    1    1    2    0  503  0.61772986681E+02 -0.24095780660E+03  0.80817125405E+02  0.31358726728E+03  0.17300000000E+03 0. -1.
<mgrwt>
<rscale>  2 0.30299433E+03</rscale>
<asrwt>0</asrwt>
<pdfrwt beam="1">  1       21 0.12132533E+00 0.30299433E+03</pdfrwt>
<pdfrwt beam="2">  1       21 0.23875820E-01 0.30299433E+03</pdfrwt>
<totfact> 0.79447467E+03</totfact>
</mgrwt>
</event>
<event>
 4    2  0.4086940E+000  0.1937806E+03  0.7546771E-02  0.1155095E+00
         21   -1    0    0  503  502  0.00000000000E+00  0.00000000000E+00  0.72592137826E+02  0.72592137826E+02  0.00000000000E+00 0.  1.
         21   -1    0    0  501  503 -0.00000000000E+00 -0.00000000000E+00 -0.56613578820E+03  0.56613578820E+03  0.00000000000E+00 0.  1.
          6    1    1    2  501    0 -0.86365369106E+02 -0.12764760202E+02 -0.34058325471E+03  0.39185184633E+03  0.17300000000E+03 0.  1.
         -6    1    1    2    0  502  0.86365369106E+02  0.12764760202E+02 -0.15296039566E+03  0.24687607970E+03  0.17300000000E+03 0.  1.
<mgrwt>
<rscale>  2 0.19378059E+03</rscale>
<asrwt>0</asrwt>
<pdfrwt beam="1">  1       21 0.11168022E-01 0.19378059E+03</pdfrwt>
<pdfrwt beam="2">  1       21 0.87097810E-01 0.19378059E+03</pdfrwt>
<totfact> 0.75554367E+04</totfact>
</mgrwt>
</event>
<event>
 4    2  0.4086940E+000  0.2322028E+03  0.7546771E-02  0.1125099E+00
         21   -1    0    0  503  502  0.00000000000E+00  0.00000000000E+00  0.20541038944E+03  0.20541038944E+03  0.00000000000E+00 0.  1.
         21   -1    0    0  501  503 -0.00000000000E+00 -0.00000000000E+00 -0.28674078266E+03  0.28674078266E+03  0.00000000000E+00 0.  1.
          6    1    1    2  501    0 -0.15002820845E+03  0.38479363888E+02  0.30897843574E+02  0.23424944293E+03  0.17300000000E+03 0.  1.
         -6    1    1    2    0  502  0.15002820845E+03 -0.38479363888E+02 -0.11222823679E+03  0.25790172917E+03  0.17300000000E+03 0.  1.
<mgrwt>
<rscale>  2 0.23220277E+03</rscale>
<asrwt>0</asrwt>
<pdfrwt beam="1">  1       21 0.31601598E-01 0.23220277E+03</pdfrwt>
<pdfrwt beam="2">  1       21 0.44113967E-01 0.23220277E+03</pdfrwt>
<totfact> 0.46639013E+04</totfact>
</mgrwt>
</event>
<event>
 4    2  0.4086940E+000  0.2247420E+03  0.7546771E-02  0.1130396E+00
         21   -1    0    0  501  502  0.00000000000E+00  0.00000000000E+00  0.95317440951E+02  0.95317440951E+02  0.00000000000E+00 0.  1.
         21   -1    0    0  502  503 -0.00000000000E+00 -0.00000000000E+00 -0.53273975855E+03  0.53273975855E+03  0.00000000000E+00 0. -1.
          6    1    1    2  501    0 -0.61237611738E+02 -0.12973013943E+03 -0.24162816917E+03  0.32998958514E+03  0.17300000000E+03 0. -1.
         -6    1    1    2    0  503  0.61237611738E+02  0.12973013943E+03 -0.19579414843E+03  0.29806761436E+03  0.17300000000E+03 0. -1.
<mgrwt>
<rscale>  2 0.22474197E+03</rscale>
<asrwt>0</asrwt>
<pdfrwt beam="1">  1       21 0.14664222E-01 0.22474197E+03</pdfrwt>
<pdfrwt beam="2">  1       21 0.81959961E-01 0.22474197E+03</pdfrwt>
<totfact> 0.52414086E+04</totfact>
</mgrwt>
</event>
<event>
 4    2  0.4086940E+000  0.1770908E+03  0.7546771E-02  0.1170649E+00
         21   -1    0    0  503  502  0.00000000000E+00  0.00000000000E+00  0.19890586825E+04  0.19890586825E+04  0.00000000000E+00 0. -1.
         21   -1    0    0  501  503 -0.00000000000E+00 -0.00000000000E+00 -0.19259160463E+02  0.19259160463E+02  0.00000000000E+00 0. -1.
          6    1    1    2  501    0  0.91295615422E+01 -0.36726238683E+02  0.55729654764E+03  0.58475687898E+03  0.17300000000E+03 0. -1.
         -6    1    1    2    0  502 -0.91295615422E+01  0.36726238683E+02  0.14125029744E+04  0.14235609640E+04  0.17300000000E+03 0. -1.
<mgrwt>
<rscale>  2 0.17709084E+03</rscale>
<asrwt>0</asrwt>
<pdfrwt beam="1">  1       21 0.30600887E+00 0.17709084E+03</pdfrwt>
<pdfrwt beam="2">  1       21 0.29629493E-02 0.17709084E+03</pdfrwt>
<totfact> 0.20694183E+04</totfact>
</mgrwt>
</event>
<event>
 4    2  0.4086940E+000  0.2588492E+03  0.7546771E-02  0.1107837E+00
         21   -1    0    0  501  502  0.00000000000E+00  0.00000000000E+00  0.13584756433E+03  0.13584756433E+03  0.00000000000E+00 0.  1.
         21   -1    0    0  502  503 -0.00000000000E+00 -0.00000000000E+00 -0.49327435652E+03  0.49327435652E+03  0.00000000000E+00 0. -1.
          6    1    1    2  501    0  0.43548398323E+01 -0.19249663902E+03 -0.17545294852E+03  0.31270858289E+03  0.17300000000E+03 0.  1.
         -6    1    1    2    0  503 -0.43548398323E+01  0.19249663902E+03 -0.18197384366E+03  0.31641333796E+03  0.17300000000E+03 0. -1.
<mgrwt>
<rscale>  2 0.25884922E+03</rscale>
<asrwt>0</asrwt>
<pdfrwt beam="1">  1       21 0.20899625E-01 0.25884922E+03</pdfrwt>
<pdfrwt beam="2">  1       21 0.75888363E-01 0.25884922E+03</pdfrwt>
<totfact> 0.31866464E+04</totfact>
</mgrwt>
</event>
<event>
 4    2  0.4086940E+000  0.2085205E+03  0.7546771E-02  0.1142743E+00
         21   -1    0    0  503  502  0.00000000000E+00  0.00000000000E+00  0.54562550135E+03  0.54562550135E+03  0.00000000000E+00 0.  1.
         21   -1    0    0  501  503 -0.00000000000E+00 -0.00000000000E+00 -0.11050275249E+03  0.11050275249E+03  0.00000000000E+00 0. -1.
          6    1    1    2  501    0  0.10236024597E+03 -0.55445295941E+02  0.44325163605E+02  0.21317955091E+03  0.17300000000E+03 0. -1.
         -6    1    1    2    0  502 -0.10236024597E+03  0.55445295941E+02  0.39079758526E+03  0.44294870294E+03  0.17300000000E+03 0.  1.
<mgrwt>
<rscale>  2 0.20852050E+03</rscale>
<asrwt>0</asrwt>
<pdfrwt beam="1">  1       21 0.83942383E-01 0.20852050E+03</pdfrwt>
<pdfrwt beam="2">  1       21 0.17000424E-01 0.20852050E+03</pdfrwt>
<totfact> 0.38142964E+04</totfact>
</mgrwt>
</event>
<event>
 4    2  0.4086940E+000  0.2734422E+03  0.7546771E-02  0.1099326E+00
         21   -1    0    0  501  502  0.00000000000E+00  0.00000000000E+00  0.55555503044E+03  0.55555503044E+03  0.00000000000E+00 0. -1.
         21   -1    0    0  502  503 -0.00000000000E+00 -0.00000000000E+00 -0.83181350036E+03  0.83181350036E+03  0.00000000000E+00 0. -1.
          6    1    1    2  501    0 -0.10800618823E+03 -0.18214365235E+03  0.49696140677E+03  0.56722243133E+03  0.17300000000E+03 0. -1.
         -6    1    1    2    0  503  0.10800618823E+03  0.18214365235E+03 -0.77321987668E+03  0.82014609947E+03  0.17300000000E+03 0. -1.
<mgrwt>
<rscale>  2 0.27344222E+03</rscale>
<asrwt>0</asrwt>
<pdfrwt beam="1">  1       21 0.85470005E-01 0.27344222E+03</pdfrwt>
<pdfrwt beam="2">  1       21 0.12797131E+00 0.27344222E+03</pdfrwt>
<totfact> 0.49288317E+02</totfact>
</mgrwt>
</event>
<event>
 4    2  0.4086940E+000  0.2255545E+03  0.7546771E-02  0.1129808E+00
         21   -1    0    0  503  502  0.00000000000E+00  0.00000000000E+00  0.28734238339E+03  0.28734238339E+03  0.00000000000E+00 0.  1.
         21   -1    0    0  501  503 -0.00000000000E+00 -0.00000000000E+00 -0.29250790394E+03  0.29250790394E+03  0.00000000000E+00 0.  1.
          6    1    1    2  501    0 -0.65595619025E+02  0.12900786301E+03 -0.18473033033E+03  0.29154778150E+03  0.17300000000E+03 0.  1.
         -6    1    1    2    0  502  0.65595619025E+02 -0.12900786301E+03  0.17956480978E+03  0.28830250583E+03  0.17300000000E+03 0.  1.
<mgrwt>
<rscale>  2 0.22555446E+03</rscale>
<asrwt>0</asrwt>
<pdfrwt beam="1">  1       21 0.44206521E-01 0.22555446E+03</pdfrwt>
<pdfrwt beam="2">  1       21 0.45001216E-01 0.22555446E+03</pdfrwt>
<totfact> 0.22863204E+04</totfact>
</mgrwt>
</event>
<event>
 4    2  0.4086940E+000  0.2682127E+03  0.7546771E-02  0.1102307E+00
         21   -1    0    0  503  502  0.00000000000E+00  0.00000000000E+00  0.13627452361E+03  0.13627452361E+03  0.00000000000E+00 0. -1.
         21   -1    0    0  501  503 -0.00000000000E+00 -0.00000000000E+00 -0.67058586249E+03  0.67058586249E+03  0.00000000000E+00 0.  1.
          6    1    1    2  501    0 -0.20468799473E+03  0.10577720987E+02 -0.45325538879E+03  0.52666736261E+03  0.17300000000E+03 0.  1.
         -6    1    1    2    0  502  0.20468799473E+03 -0.10577720987E+02 -0.81055950086E+02  0.28019302349E+03  0.17300000000E+03 0.  1.
<mgrwt>
<rscale>  2 0.26821272E+03</rscale>
<asrwt>0</asrwt>
<pdfrwt beam="1">  1       21 0.20965312E-01 0.26821272E+03</pdfrwt>
<pdfrwt beam="2">  1       21 0.10316705E+00 0.26821272E+03</pdfrwt>
<totfact> 0.15425560E+04</totfact>
</mgrwt>
</event>
<event>
 4    2  0.4086940E+000  0.1917814E+03  0.7546771E-02  0.1156864E+00
         21   -1    0    0  501  502  0.00000000000E+00  0.00000000000E+00  0.49008632279E+03  0.49008632279E+03  0.00000000000E+00 0.  1.
         21   -1    0    0  502  503 -0.00000000000E+00 -0.00000000000E+00 -0.75464626137E+02  0.75464626137E+02  0.00000000000E+00 0.  1.
          6    1    1    2  501    0  0.57661198281E+02 -0.59382513534E+02  0.22831662122E+03  0.29817541184E+03  0.17300000000E+03 0.  1.
         -6    1    1    2    0  503 -0.57661198281E+02  0.59382513534E+02  0.18630507544E+03  0.26737553709E+03  0.17300000000E+03 0.  1.
<mgrwt>
<rscale>  2 0.19178138E+03</rscale>
<asrwt>0</asrwt>
<pdfrwt beam="1">  1       21 0.75397894E-01 0.19178138E+03</pdfrwt>
<pdfrwt beam="2">  1       21 0.11609943E-01 0.19178138E+03</pdfrwt>
<totfact> 0.97849989E+04</totfact>
</mgrwt>
</event>
<event>
 4    2  0.4086940E+000  0.3828330E+03  0.7546771E-02  0.1049892E+00
         21   -1    0    0  503  502  0.00000000000E+00  0.00000000000E+00  0.11495790999E+04  0.11495790999E+04  0.00000000000E+00 0. -1.
         21   -1    0    0  501  503 -0.00000000000E+00 -0.00000000000E+00 -0.27688762377E+03  0.27688762377E+03  0.00000000000E+00 0.  1.
          6    1    1    2  501    0 -0.33241819933E+03  0.78296054457E+02 -0.87556300877E+02  0.39271775770E+03  0.17300000000E+03 0.  1.
         -6    1    1    2    0  502  0.33241819933E+03 -0.78296054457E+02  0.96024777704E+03  0.10337489660E+04  0.17300000000E+03 0. -1.
<mgrwt>
<rscale>  2 0.38283303E+03</rscale>
<asrwt>0</asrwt>
<pdfrwt beam="1">  1       21 0.17685832E+00 0.38283303E+03</pdfrwt>
<pdfrwt beam="2">  1       21 0.42598097E-01 0.38283303E+03</pdfrwt>
<totfact> 0.87688835E+02</totfact>
</mgrwt>
</event>
<event>
 4    2  0.4086940E+000  0.1770408E+03  0.7546771E-02  0.1170698E+00
         21   -1    0    0  503  502  0.00000000000E+00  0.00000000000E+00  0.52341971713E+03  0.52341971713E+03  0.00000000000E+00 0.  1.
         21   -1    0    0  501  503 -0.00000000000E+00 -0.00000000000E+00 -0.64063044824E+02  0.64063044824E+02  0.00000000000E+00 0.  1.
          6    1    1    2  501    0  0.24419633846E+02 -0.28602770673E+02  0.30471992469E+03  0.35241689731E+03  0.17300000000E+03 0.  1.
         -6    1    1    2    0  502 -0.24419633846E+02  0.28602770673E+02  0.15463674762E+03  0.23506586464E+03  0.17300000000E+03 0.  1.
<mgrwt>
<rscale>  2 0.17704078E+03</rscale>
<asrwt>0</asrwt>
<pdfrwt beam="1">  1       21 0.80526108E-01 0.17704078E+03</pdfrwt>
<pdfrwt beam="2">  1       21 0.98558534E-02 0.17704078E+03</pdfrwt>
<totfact> 0.11348861E+05</totfact>
</mgrwt>
</event>
<event>
 4    2  0.4086940E+000  0.2278013E+03  0.7546771E-02  0.1128197E+00
         21   -1    0    0  503  502  0.00000000000E+00  0.00000000000E+00  0.29059567767E+03  0.29059567767E+03  0.00000000000E+00 0.  1.
         21   -1    0    0  501  503 -0.00000000000E+00 -0.00000000000E+00 -0.27815612118E+03  0.27815612118E+03  0.00000000000E+00 0.  1.
          6    1    1    2  501    0 -0.11992029046E+03 -0.87083688449E+02 -0.16393124629E+03  0.28065441092E+03  0.17300000000E+03 0.  1.
         -6    1    1    2    0  502  0.11992029046E+03  0.87083688449E+02  0.17637080278E+03  0.28809738793E+03  0.17300000000E+03 0.  1.
<mgrwt>
<rscale>  2 0.22780133E+03</rscale>
<asrwt>0</asrwt>
<pdfrwt beam="1">  1       21 0.44707027E-01 0.22780133E+03</pdfrwt>
<pdfrwt beam="2">  1       21 0.42793249E-01 0.22780133E+03</pdfrwt>
<totfact> 0.24743569E+04</totfact>
</mgrwt>
</event>
<event>
 4    2  0.4086940E+000  0.1875094E+03  0.7546771E-02  0.1160727E+00
         21   -1    0    0  501  502  0.00000000000E+00  0.00000000000E+00  0.11195236916E+02  0.11195236916E+02  0.00000000000E+00 0.  1.
         21   -1    0    0  502  503 -0.00000000000E+00 -0.00000000000E+00 -0.35407959030E+04  0.35407959030E+04  0.00000000000E+00 0.  1.
          6    1    1    2  501    0 -0.99614155567E+00  0.72317151281E+02 -0.11677270034E+04  0.11826859757E+04  0.17300000000E+03 0.  1.
         -6    1    1    2    0  503  0.99614155567E+00 -0.72317151281E+02 -0.23618736627E+04  0.23693051642E+04  0.17300000000E+03 0.  1.
<mgrwt>
<rscale>  2 0.18750937E+03</rscale>
<asrwt>0</asrwt>
<pdfrwt beam="1">  1       21 0.17223444E-02 0.18750937E+03</pdfrwt>
<pdfrwt beam="2">  1       21 0.54473774E+00 0.18750937E+03</pdfrwt>
<totfact> 0.14214428E+03</totfact>
</mgrwt>
</event>
<event>
 4    2  0.4086940E+000  0.2051135E+03  0.7546771E-02  0.1145495E+00
         21   -1    0    0  503  502  0.00000000000E+00  0.00000000000E+00  0.66628406770E+02  0.66628406770E+02  0.00000000000E+00 0. -1.
         21   -1    0    0  501  503 -0.00000000000E+00 -0.00000000000E+00 -0.78383715457E+03  0.78383715457E+03  0.00000000000E+00 0. -1.
          6    1    1    2  501    0  0.81005645187E+02  0.74703583517E+02 -0.54610757415E+03  0.58335668548E+03  0.17300000000E+03 0. -1.
         -6    1    1    2    0  502 -0.81005645187E+02 -0.74703583517E+02 -0.17110117365E+03  0.26710887587E+03  0.17300000000E+03 0. -1.
<mgrwt>
<rscale>  2 0.20511348E+03</rscale>
<asrwt>0</asrwt>
<pdfrwt beam="1">  1       21 0.10250524E-01 0.20511348E+03</pdfrwt>
<pdfrwt beam="2">  1       21 0.12059034E+00 0.20511348E+03</pdfrwt>
<totfact> 0.40242174E+04</totfact>
</mgrwt>
</event>
<event>
 4    2  0.4086940E+000  0.2528078E+03  0.7546771E-02  0.1111543E+00
         21   -1    0    0  501  502  0.00000000000E+00  0.00000000000E+00  0.48319510743E+03  0.48319510743E+03  0.00000000000E+00 0. -1.
         21   -1    0    0  502  503 -0.00000000000E+00 -0.00000000000E+00 -0.67797066229E+03  0.67797066229E+03  0.00000000000E+00 0.  1.
          6    1    1    2  501    0  0.16661128445E+03 -0.78888879619E+02  0.42349066348E+03  0.49321001358E+03  0.17300000000E+03 0. -1.
         -6    1    1    2    0  503 -0.16661128445E+03  0.78888879619E+02 -0.61826621834E+03  0.66795575615E+03  0.17300000000E+03 0.  1.
<mgrwt>
<rscale>  2 0.25280778E+03</rscale>
<asrwt>0</asrwt>
<pdfrwt beam="1">  1       21 0.74337709E-01 0.25280778E+03</pdfrwt>
<pdfrwt beam="2">  1       21 0.10430318E+00 0.25280778E+03</pdfrwt>
<totfact> 0.11419772E+03</totfact>
</mgrwt>
</event>
<event>
 4    2  0.4086940E+000  0.2288003E+03  0.7546771E-02  0.1127487E+00
         21   -1    0    0  501  502  0.00000000000E+00  0.00000000000E+00  0.69202663041E+03  0.69202663041E+03  0.00000000000E+00 0.  1.
         21   -1    0    0  502  503 -0.00000000000E+00 -0.00000000000E+00 -0.78562818681E+02  0.78562818681E+02  0.00000000000E+00 0. -1.
          6    1    1    2  501    0  0.10909207321E+03  0.10256463529E+03  0.38096222485E+03  0.44438924561E+03  0.17300000000E+03 0.  1.
         -6    1    1    2    0  503 -0.10909207321E+03 -0.10256463529E+03  0.23250158687E+03  0.32620020347E+03  0.17300000000E+03 0.  1.
<mgrwt>
<rscale>  2 0.22880032E+03</rscale>
<asrwt>0</asrwt>
<pdfrwt beam="1">  1       21 0.10646563E+00 0.22880032E+03</pdfrwt>
<pdfrwt beam="2">  1       21 0.12086588E-01 0.22880032E+03</pdfrwt>
<totfact> 0.40177371E+04</totfact>
</mgrwt>
</event>
<event>
 4    2  0.4086940E+000  0.2229457E+03  0.7546771E-02  0.1131706E+00
         21   -1    0    0  503  502  0.00000000000E+00  0.00000000000E+00  0.10974888995E+03  0.10974888995E+03  0.00000000000E+00 0. -1.
         21   -1    0    0  501  503 -0.00000000000E+00 -0.00000000000E+00 -0.45557158389E+03  0.45557158389E+03  0.00000000000E+00 0. -1.
          6    1    1    2  501    0  0.64609894062E+02  0.12490539981E+03 -0.19457453038E+03  0.29591222547E+03  0.17300000000E+03 0. -1.
         -6    1    1    2    0  502 -0.64609894062E+02 -0.12490539981E+03 -0.15124816355E+03  0.26940824837E+03  0.17300000000E+03 0. -1.
<mgrwt>
<rscale>  2 0.22294573E+03</rscale>
<asrwt>0</asrwt>
<pdfrwt beam="1">  1       21 0.16884444E-01 0.22294573E+03</pdfrwt>
<pdfrwt beam="2">  1       21 0.70087937E-01 0.22294573E+03</pdfrwt>
<totfact> 0.57562177E+04</totfact>
</mgrwt>
</event>
<event>
 4    2  0.4086940E+000  0.4301253E+03  0.7546771E-02  0.1033820E+00
         21   -1    0    0  501  502  0.00000000000E+00  0.00000000000E+00  0.18793997084E+03  0.18793997084E+03  0.00000000000E+00 0. -1.
         21   -1    0    0  502  503 -0.00000000000E+00 -0.00000000000E+00 -0.99794172033E+03  0.99794172033E+03  0.00000000000E+00 0.  1.
          6    1    1    2  501    0  0.29883559645E+03 -0.25646851219E+03 -0.33592586734E+03  0.54576002034E+03  0.17300000000E+03 0.  1.
         -6    1    1    2    0  503 -0.29883559645E+03  0.25646851219E+03 -0.47407588214E+03  0.64012167083E+03  0.17300000000E+03 0.  1.
<mgrwt>
<rscale>  2 0.43012534E+03</rscale>
<asrwt>0</asrwt>
<pdfrwt beam="1">  1       21 0.28913842E-01 0.43012534E+03</pdfrwt>
<pdfrwt beam="2">  1       21 0.15352950E+00 0.43012534E+03</pdfrwt>
<totfact> 0.27920443E+03</totfact>
</mgrwt>
</event>
<event>
 4    2  0.4086940E+000  0.1851904E+03  0.7546771E-02  0.1162872E+00
         21   -1    0    0  503  502  0.00000000000E+00  0.00000000000E+00  0.41008222749E+03  0.41008222749E+03  0.00000000000E+00 0.  1.
         21   -1    0    0  501  503 -0.00000000000E+00 -0.00000000000E+00 -0.93590920783E+02  0.93590920783E+02  0.00000000000E+00 0.  1.
          6    1    1    2  501    0 -0.94886037168E+01 -0.65394694656E+02  0.76090556053E+02  0.20021306753E+03  0.17300000000E+03 0. -1.
         -6    1    1    2    0  502  0.94886037168E+01  0.65394694656E+02  0.24040075066E+03  0.30346008074E+03  0.17300000000E+03 0. -1.
<mgrwt>
<rscale>  2 0.18519044E+03</rscale>
<asrwt>0</asrwt>
<pdfrwt beam="1">  1       21 0.63089573E-01 0.18519044E+03</pdfrwt>
<pdfrwt beam="2">  1       21 0.14398603E-01 0.18519044E+03</pdfrwt>
<totfact> 0.98544429E+04</totfact>
</mgrwt>
</event>
<event>
 4    2  0.4086940E+000  0.2408420E+03  0.7546771E-02  0.1119233E+00
         21   -1    0    0  501  502  0.00000000000E+00  0.00000000000E+00  0.21023477793E+03  0.21023477793E+03  0.00000000000E+00 0.  1.
         21   -1    0    0  502  503 -0.00000000000E+00 -0.00000000000E+00 -0.31172699577E+03  0.31172699577E+03  0.00000000000E+00 0. -1.
          6    1    1    2  501    0  0.13794483079E+03  0.95116234275E+02  0.37723682175E+02  0.24377848667E+03  0.17300000000E+03 0. -1.
         -6    1    1    2    0  503 -0.13794483079E+03 -0.95116234275E+02 -0.13921590002E+03  0.27818328703E+03  0.17300000000E+03 0.  1.
<mgrwt>
<rscale>  2 0.24084201E+03</rscale>
<asrwt>0</asrwt>
<pdfrwt beam="1">  1       21 0.32343812E-01 0.24084201E+03</pdfrwt>
<pdfrwt beam="2">  1       21 0.47957999E-01 0.24084201E+03</pdfrwt>
<totfact> 0.37333632E+04</totfact>
</mgrwt>
</event>
<event>
 4    2  0.4086940E+000  0.1896186E+03  0.7546771E-02  0.1158806E+00
         21   -1    0    0  503  502  0.00000000000E+00  0.00000000000E+00  0.51210362966E+02  0.51210362966E+02  0.00000000000E+00 0. -1.
         21   -1    0    0  501  503 -0.00000000000E+00 -0.00000000000E+00 -0.82597179891E+03  0.82597179891E+03  0.00000000000E+00 0. -1.
          6    1    1    2  501    0  0.61226343621E+02 -0.47723514107E+02 -0.55722448309E+03  0.58860370667E+03  0.17300000000E+03 0. -1.
         -6    1    1    2    0  502 -0.61226343621E+02  0.47723514107E+02 -0.21753695285E+03  0.28857845520E+03  0.17300000000E+03 0. -1.
<mgrwt>
<rscale>  2 0.18961856E+03</rscale>
<asrwt>0</asrwt>
<pdfrwt beam="1">  1       21 0.78785179E-02 0.18961856E+03</pdfrwt>
<pdfrwt beam="2">  1       21 0.12707258E+00 0.18961856E+03</pdfrwt>
<totfact> 0.56502321E+04</totfact>
</mgrwt>
</event>
<event>
 4    2  0.4086940E+000  0.2256653E+03  0.7546771E-02  0.1129728E+00
         21   -1    0    0  503  502  0.00000000000E+00  0.00000000000E+00  0.74038518104E+03  0.74038518104E+03  0.00000000000E+00 0.  1.
         21   -1    0    0  501  503 -0.00000000000E+00 -0.00000000000E+00 -0.95369618949E+02  0.95369618949E+02  0.00000000000E+00 0.  1.
          6    1    1    2  501    0 -0.84781552359E+02 -0.11750706458E+03  0.10186614838E+03  0.24759146599E+03  0.17300000000E+03 0.  1.
         -6    1    1    2    0  502  0.84781552359E+02  0.11750706458E+03  0.54314941371E+03  0.58816333400E+03  0.17300000000E+03 0.  1.
<mgrwt>
<rscale>  2 0.22566529E+03</rscale>
<asrwt>0</asrwt>
<pdfrwt beam="1">  1       21 0.11390541E+00 0.22566529E+03</pdfrwt>
<pdfrwt beam="2">  1       21 0.14672250E-01 0.22566529E+03</pdfrwt>
<totfact> 0.24036206E+04</totfact>
</mgrwt>
</event>
<event>
 4    2  0.4086940E+000  0.1919382E+03  0.7546771E-02  0.1156725E+00
         21   -1    0    0  501  502  0.00000000000E+00  0.00000000000E+00  0.25195005484E+03  0.25195005484E+03  0.00000000000E+00 0. -1.
         21   -1    0    0  502  503 -0.00000000000E+00 -0.00000000000E+00 -0.15997316001E+03  0.15997316001E+03  0.00000000000E+00 0.  1.
          6    1    1    2  501    0  0.56373521989E+02  0.61100805308E+02  0.10637703170E+03  0.21944556333E+03  0.17300000000E+03 0. -1.
         -6    1    1    2    0  503 -0.56373521989E+02 -0.61100805308E+02 -0.14400136873E+02  0.19247765152E+03  0.17300000000E+03 0.  1.
<mgrwt>
<rscale>  2 0.19193823E+03</rscale>
<asrwt>0</asrwt>
<pdfrwt beam="1">  1       21 0.38761547E-01 0.19193823E+03</pdfrwt>
<pdfrwt beam="2">  1       21 0.24611255E-01 0.19193823E+03</pdfrwt>
<totfact> 0.10018976E+05</totfact>
</mgrwt>
</event>
<event>
 4    2  0.4086940E+000  0.2116958E+03  0.7546771E-02  0.1140230E+00
         21   -1    0    0  501  502  0.00000000000E+00  0.00000000000E+00  0.25338386654E+03  0.25338386654E+03  0.00000000000E+00 0.  1.
         21   -1    0    0  502  503 -0.00000000000E+00 -0.00000000000E+00 -0.12062165432E+04  0.12062165432E+04  0.00000000000E+00 0.  1.
          6    1    1    2  501    0  0.17568754666E+02  0.12073705487E+03  0.19775906082E+03  0.28969595043E+03  0.17300000000E+03 0.  1.
         -6    1    1    2    0  503 -0.17568754666E+02 -0.12073705487E+03 -0.11505917375E+04  0.11699044593E+04  0.17300000000E+03 0.  1.
<mgrwt>
<rscale>  2 0.21169577E+03</rscale>
<asrwt>0</asrwt>
<pdfrwt beam="1">  1       21 0.38982133E-01 0.21169577E+03</pdfrwt>
<pdfrwt beam="2">  1       21 0.18557178E+00 0.21169577E+03</pdfrwt>
<totfact> 0.10376307E+03</totfact>
</mgrwt>
</event>
<event>
 4    2  0.4086940E+000  0.2100238E+03  0.7546771E-02  0.1141547E+00
         21   -1    0    0  503  502  0.00000000000E+00  0.00000000000E+00  0.49575876762E+03  0.49575876762E+03  0.00000000000E+00 0. -1.
         21   -1    0    0  501  503 -0.00000000000E+00 -0.00000000000E+00 -0.10896341600E+03  0.10896341600E+03  0.00000000000E+00 0.  1.
          6    1    1    2  501    0 -0.10393291973E+03 -0.58128589380E+02  0.63895202591E+02  0.21952808846E+03  0.17300000000E+03 0.  1.
         -6    1    1    2    0  502  0.10393291973E+03  0.58128589380E+02  0.32290014903E+03  0.38519409517E+03  0.17300000000E+03 0. -1.
<mgrwt>
<rscale>  2 0.21002377E+03</rscale>
<asrwt>0</asrwt>
<pdfrwt beam="1">  1       21 0.76270578E-01 0.21002377E+03</pdfrwt>
<pdfrwt beam="2">  1       21 0.16763603E-01 0.21002377E+03</pdfrwt>
<totfact> 0.48597337E+04</totfact>
</mgrwt>
</event>
<event>
 4    2  0.4086940E+000  0.2069769E+03  0.7546771E-02  0.1143983E+00
         21   -1    0    0  501  502  0.00000000000E+00  0.00000000000E+00  0.37113009433E+02  0.37113009433E+02  0.00000000000E+00 0.  1.
         21   -1    0    0  502  503 -0.00000000000E+00 -0.00000000000E+00 -0.12287716160E+04  0.12287716160E+04  0.00000000000E+00 0.  1.
          6    1    1    2  501    0  0.99975826344E+02  0.53993085539E+02 -0.44000544202E+03  0.48625529113E+03  0.17300000000E+03 0.  1.
         -6    1    1    2    0  503 -0.99975826344E+02 -0.53993085539E+02 -0.75165316452E+03  0.77962933428E+03  0.17300000000E+03 0.  1.
<mgrwt>
<rscale>  2 0.20697686E+03</rscale>
<asrwt>0</asrwt>
<pdfrwt beam="1">  1       21 0.57096940E-02 0.20697686E+03</pdfrwt>
<pdfrwt beam="2">  1       21 0.18904178E+00 0.20697686E+03</pdfrwt>
<totfact> 0.33639677E+04</totfact>
</mgrwt>
</event>
<event>
 4    2  0.4086940E+000  0.1930604E+03  0.7546771E-02  0.1155730E+00
         21   -1    0    0  503  502  0.00000000000E+00  0.00000000000E+00  0.15297583600E+03  0.15297583600E+03  0.00000000000E+00 0. -1.
         21   -1    0    0  501  503 -0.00000000000E+00 -0.00000000000E+00 -0.26031499356E+03  0.26031499356E+03  0.00000000000E+00 0. -1.
          6    1    1    2  501    0 -0.79698959870E+02  0.31486349092E+02 -0.10595732043E+03  0.22022549384E+03  0.17300000000E+03 0. -1.
         -6    1    1    2    0  502  0.79698959870E+02 -0.31486349092E+02 -0.13818371329E+01  0.19306533572E+03  0.17300000000E+03 0. -1.
<mgrwt>
<rscale>  2 0.19306039E+03</rscale>
<asrwt>0</asrwt>
<pdfrwt beam="1">  1       21 0.23534744E-01 0.19306039E+03</pdfrwt>
<pdfrwt beam="2">  1       21 0.40048460E-01 0.19306039E+03</pdfrwt>
<totfact> 0.10209298E+05</totfact>
</mgrwt>
</event>
<event>
 4    2  0.4086940E+000  0.1800302E+03  0.7546771E-02  0.1167774E+00
         21   -1    0    0  503  502  0.00000000000E+00  0.00000000000E+00  0.10122709725E+03  0.10122709725E+03  0.00000000000E+00 0.  1.
         21   -1    0    0  501  503 -0.00000000000E+00 -0.00000000000E+00 -0.42502551601E+03  0.42502551601E+03  0.00000000000E+00 0.  1.
          6    1    1    2  501    0  0.63265021323E+01  0.49414976050E+02 -0.29258617121E+03  0.34353679872E+03  0.17300000000E+03 0.  1.
         -6    1    1    2    0  502 -0.63265021323E+01 -0.49414976050E+02 -0.31212247544E+02  0.18271581454E+03  0.17300000000E+03 0.  1.
<mgrwt>
<rscale>  2 0.18003018E+03</rscale>
<asrwt>0</asrwt>
<pdfrwt beam="1">  1       21 0.15573399E-01 0.18003018E+03</pdfrwt>
<pdfrwt beam="2">  1       21 0.65388542E-01 0.18003018E+03</pdfrwt>
<totfact> 0.79229577E+04</totfact>
</mgrwt>
</event>
<event>
 4    2  0.4086940E+000  0.2063009E+03  0.7546771E-02  0.1144529E+00
         21   -1    0    0  503  502  0.00000000000E+00  0.00000000000E+00  0.12210659148E+04  0.12210659148E+04  0.00000000000E+00 0. -1.
         21   -1    0    0  501  503 -0.00000000000E+00 -0.00000000000E+00 -0.36302222830E+02  0.36302222830E+02  0.00000000000E+00 0. -1.
          6    1    1    2  501    0  0.43516805992E+02  0.10362119018E+03  0.46684917432E+03  0.51040005390E+03  0.17300000000E+03 0. -1.
         -6    1    1    2    0  502 -0.43516805992E+02 -0.10362119018E+03  0.71791451767E+03  0.74696808375E+03  0.17300000000E+03 0. -1.
<mgrwt>
<rscale>  2 0.20630091E+03</rscale>
<asrwt>0</asrwt>
<pdfrwt beam="1">  1       21 0.18785626E+00 0.20630091E+03</pdfrwt>
<pdfrwt beam="2">  1       21 0.55849583E-02 0.20630091E+03</pdfrwt>
<totfact> 0.35588294E+04</totfact>
</mgrwt>
</event>
<event>
 4    2  0.4086940E+000  0.2163253E+03  0.7546771E-02  0.1136653E+00
         21   -1    0    0  501  502  0.00000000000E+00  0.00000000000E+00  0.16753524264E+03  0.16753524264E+03  0.00000000000E+00 0.  1.
         21   -1    0    0  502  503 -0.00000000000E+00 -0.00000000000E+00 -0.47567472940E+03  0.47567472940E+03  0.00000000000E+00 0.  1.
          6    1    1    2  501    0 -0.11942815128E+03 -0.51034603762E+02  0.52555792490E+02  0.22261789107E+03  0.17300000000E+03 0.  1.
         -6    1    1    2    0  503  0.11942815128E+03  0.51034603762E+02 -0.36069527925E+03  0.42059208097E+03  0.17300000000E+03 0.  1.
<mgrwt>
<rscale>  2 0.21632525E+03</rscale>
<asrwt>0</asrwt>
<pdfrwt beam="1">  1       21 0.25774653E-01 0.21632525E+03</pdfrwt>
<pdfrwt beam="2">  1       21 0.73180726E-01 0.21632525E+03</pdfrwt>
<totfact> 0.23671557E+04</totfact>
</mgrwt>
</event>
<event>
 4    2  0.4086940E+000  0.2330688E+03  0.7546771E-02  0.1124498E+00
         21   -1    0    0  501  502  0.00000000000E+00  0.00000000000E+00  0.84118579426E+03  0.84118579426E+03  0.00000000000E+00 0. -1.
         21   -1    0    0  502  503 -0.00000000000E+00 -0.00000000000E+00 -0.94806039935E+02  0.94806039935E+02  0.00000000000E+00 0. -1.
          6    1    1    2  501    0  0.10491617297E+03  0.11569215002E+03  0.63745372797E+03  0.67872552054E+03  0.17300000000E+03 0. -1.
         -6    1    1    2    0  503 -0.10491617297E+03 -0.11569215002E+03  0.10892602636E+03  0.25726631366E+03  0.17300000000E+03 0. -1.
<mgrwt>
<rscale>  2 0.23306882E+03</rscale>
<asrwt>0</asrwt>
<pdfrwt beam="1">  1       21 0.12941319E+00 0.23306882E+03</pdfrwt>
<pdfrwt beam="2">  1       21 0.14585545E-01 0.23306882E+03</pdfrwt>
<totfact> 0.17596963E+04</totfact>
</mgrwt>
</event>
<event>
 4    2  0.4086940E+000  0.2239937E+03  0.7546771E-02  0.1130940E+00
         21   -1    0    0  503  502  0.00000000000E+00  0.00000000000E+00  0.56017703657E+02  0.56017703657E+02  0.00000000000E+00 0. -1.
         21   -1    0    0  501  503 -0.00000000000E+00 -0.00000000000E+00 -0.89899229855E+03  0.89899229855E+03  0.00000000000E+00 0. -1.
          6    1    1    2  501    0 -0.13434687376E+03 -0.46851944259E+02 -0.45053021342E+03  0.50314079578E+03  0.17300000000E+03 0. -1.
         -6    1    1    2    0  502  0.13434687376E+03  0.46851944259E+02 -0.39244438147E+03  0.45186920643E+03  0.17300000000E+03 0. -1.
<mgrwt>
<rscale>  2 0.22399372E+03</rscale>
<asrwt>0</asrwt>
<pdfrwt beam="1">  1       21 0.86181078E-02 0.22399372E+03</pdfrwt>
<pdfrwt beam="2">  1       21 0.13830652E+00 0.22399372E+03</pdfrwt>
<totfact> 0.38235389E+04</totfact>
</mgrwt>
</event>
<event>
 4    2  0.4086940E+000  0.1806032E+03  0.7546771E-02  0.1167221E+00
         21   -1    0    0  501  502  0.00000000000E+00  0.00000000000E+00  0.66544346125E+02  0.66544346125E+02  0.00000000000E+00 0. -1.
         21   -1    0    0  502  503 -0.00000000000E+00 -0.00000000000E+00 -0.79669422739E+03  0.79669422739E+03  0.00000000000E+00 0. -1.
          6    1    1    2  501    0 -0.21548197569E+02 -0.47161327632E+02 -0.97347420265E+02  0.20516831109E+03  0.17300000000E+03 0. -1.
         -6    1    1    2    0  503  0.21548197569E+02  0.47161327632E+02 -0.63280246100E+03  0.65807026243E+03  0.17300000000E+03 0. -1.
<mgrwt>
<rscale>  2 0.18060320E+03</rscale>
<asrwt>0</asrwt>
<pdfrwt beam="1">  1       21 0.10237592E-01 0.18060320E+03</pdfrwt>
<pdfrwt beam="2">  1       21 0.12256834E+00 0.18060320E+03</pdfrwt>
<totfact> 0.39262297E+04</totfact>
</mgrwt>
</event>
<event>
 4    2  0.4086940E+000  0.1772604E+03  0.7546771E-02  0.1170481E+00
         21   -1    0    0  501  502  0.00000000000E+00  0.00000000000E+00  0.93278450607E+03  0.93278450607E+03  0.00000000000E+00 0.  1.
         21   -1    0    0  502  503 -0.00000000000E+00 -0.00000000000E+00 -0.34637504781E+02  0.34637504781E+02  0.00000000000E+00 0.  1.
          6    1    1    2  501    0 -0.35639281716E+02 -0.14902809120E+02  0.52926844549E+03  0.55816336275E+03  0.17300000000E+03 0.  1.
         -6    1    1    2    0  503  0.35639281716E+02  0.14902809120E+02  0.36887855580E+03  0.40925864810E+03  0.17300000000E+03 0.  1.
<mgrwt>
<rscale>  2 0.17726041E+03</rscale>
<asrwt>0</asrwt>
<pdfrwt beam="1">  1       21 0.14350529E+00 0.17726041E+03</pdfrwt>
<pdfrwt beam="2">  1       21 0.53288476E-02 0.17726041E+03</pdfrwt>
<totfact> 0.81637054E+04</totfact>
</mgrwt>
</event>
<event>
 4    2  0.4086940E+000  0.2220064E+03  0.7546771E-02  0.1132396E+00
         21   -1    0    0  501  502  0.00000000000E+00  0.00000000000E+00  0.14869981131E+03  0.14869981131E+03  0.00000000000E+00 0.  1.
         21   -1    0    0  502  503 -0.00000000000E+00 -0.00000000000E+00 -0.67325838112E+03  0.67325838112E+03  0.00000000000E+00 0.  1.
          6    1    1    2  501    0 -0.14029750513E+02  0.13842335494E+03  0.30552956821E+02  0.22409895641E+03  0.17300000000E+03 0.  1.
         -6    1    1    2    0  503  0.14029750513E+02 -0.13842335494E+03 -0.55511152663E+03  0.59785923602E+03  0.17300000000E+03 0.  1.
<mgrwt>
<rscale>  2 0.22200644E+03</rscale>
<asrwt>0</asrwt>
<pdfrwt beam="1">  1       21 0.22876894E-01 0.22200644E+03</pdfrwt>
<pdfrwt beam="2">  1       21 0.10357821E+00 0.22200644E+03</pdfrwt>
<totfact> 0.13279398E+04</totfact>
</mgrwt>
</event>
<event>
 4    2  0.4086940E+000  0.2422862E+03  0.7546771E-02  0.1118279E+00
         21   -1    0    0  501  502  0.00000000000E+00  0.00000000000E+00  0.21833162609E+03  0.21833162609E+03  0.00000000000E+00 0.  1.
         21   -1    0    0  502  503 -0.00000000000E+00 -0.00000000000E+00 -0.54213709443E+03  0.54213709443E+03  0.00000000000E+00 0.  1.
          6    1    1    2  501    0 -0.13394322002E+03  0.10408072957E+03  0.10805224383E+03  0.26528828066E+03  0.17300000000E+03 0.  1.
         -6    1    1    2    0  503  0.13394322002E+03 -0.10408072957E+03 -0.43185771217E+03  0.49518043986E+03  0.17300000000E+03 0.  1.
<mgrwt>
<rscale>  2 0.24228616E+03</rscale>
<asrwt>0</asrwt>
<pdfrwt beam="1">  1       21 0.33589481E-01 0.24228616E+03</pdfrwt>
<pdfrwt beam="2">  1       21 0.83405706E-01 0.24228616E+03</pdfrwt>
<totfact> 0.10349503E+04</totfact>
</mgrwt>
</event>
<event>
 4    2  0.4086940E+000  0.2073784E+03  0.7546771E-02  0.1143659E+00
         21   -1    0    0  501  502  0.00000000000E+00  0.00000000000E+00  0.23501858985E+04  0.23501858985E+04  0.00000000000E+00 0. -1.
         21   -1    0    0  502  503 -0.00000000000E+00 -0.00000000000E+00 -0.35416775702E+02  0.35416775702E+02  0.00000000000E+00 0.  1.
          6    1    1    2  501    0 -0.82237651855E+02  0.79459173314E+02  0.19866406648E+04  0.19974350859E+04  0.17300000000E+03 0. -1.
         -6    1    1    2    0  503  0.82237651855E+02 -0.79459173314E+02  0.32812845797E+03  0.38816758821E+03  0.17300000000E+03 0.  1.
<mgrwt>
<rscale>  2 0.20737838E+03</rscale>
<asrwt>0</asrwt>
<pdfrwt beam="1">  1       21 0.36156694E+00 0.20737838E+03</pdfrwt>
<pdfrwt beam="2">  1       21 0.54487365E-02 0.20737838E+03</pdfrwt>
<totfact> 0.34052823E+03</totfact>
</mgrwt>
</event>
<event>
 4    2  0.4086940E+000  0.2007040E+03  0.7546771E-02  0.1149146E+00
         21   -1    0    0  503  502  0.00000000000E+00  0.00000000000E+00  0.10485181971E+03  0.10485181971E+03  0.00000000000E+00 0.  1.
         21   -1    0    0  501  503 -0.00000000000E+00 -0.00000000000E+00 -0.40386779762E+03  0.40386779762E+03  0.00000000000E+00 0. -1.
          6    1    1    2  501    0  0.71408859691E+02  0.72483552695E+02 -0.20566642093E+03  0.28736869585E+03  0.17300000000E+03 0. -1.
         -6    1    1    2    0  502 -0.71408859691E+02 -0.72483552695E+02 -0.93349556983E+02  0.22135092149E+03  0.17300000000E+03 0.  1.
<mgrwt>
<rscale>  2 0.20070399E+03</rscale>
<asrwt>0</asrwt>
<pdfrwt beam="1">  1       21 0.16131049E-01 0.20070399E+03</pdfrwt>
<pdfrwt beam="2">  1       21 0.62133507E-01 0.20070399E+03</pdfrwt>
<totfact> 0.82271834E+04</totfact>
</mgrwt>
</event>
<event>
 4    2  0.4086940E+000  0.1801318E+03  0.7546771E-02  0.1167676E+00
         21   -1    0    0  503  502  0.00000000000E+00  0.00000000000E+00  0.61851450591E+03  0.61851450591E+03  0.00000000000E+00 0.  1.
         21   -1    0    0  501  503 -0.00000000000E+00 -0.00000000000E+00 -0.57412894927E+02  0.57412894927E+02  0.00000000000E+00 0. -1.
          6    1    1    2  501    0  0.48814317430E+02 -0.11646561374E+02  0.37981213231E+03  0.42036262421E+03  0.17300000000E+03 0.  1.
         -6    1    1    2    0  502 -0.48814317430E+02  0.11646561374E+02  0.18128947867E+03  0.25556477663E+03  0.17300000000E+03 0. -1.
<mgrwt>
<rscale>  2 0.18013184E+03</rscale>
<asrwt>0</asrwt>
<pdfrwt beam="1">  1       21 0.95156074E-01 0.18013184E+03</pdfrwt>
<pdfrwt beam="2">  1       21 0.88327535E-02 0.18013184E+03</pdfrwt>
<totfact> 0.93639268E+04</totfact>
</mgrwt>
</event>
<event>
 4    2  0.4086940E+000  0.1772312E+03  0.7546771E-02  0.1170510E+00
         21   -1    0    0  501  502  0.00000000000E+00  0.00000000000E+00  0.31506255919E+03  0.31506255919E+03  0.00000000000E+00 0. -1.
         21   -1    0    0  502  503 -0.00000000000E+00 -0.00000000000E+00 -0.10147939681E+03  0.10147939681E+03  0.00000000000E+00 0. -1.
          6    1    1    2  501    0  0.31780937207E+02  0.21722700596E+02  0.79192234075E+02  0.19411932832E+03  0.17300000000E+03 0. -1.
         -6    1    1    2    0  503 -0.31780937207E+02 -0.21722700596E+02  0.13439092831E+03  0.22242262768E+03  0.17300000000E+03 0. -1.
<mgrwt>
<rscale>  2 0.17723122E+03</rscale>
<asrwt>0</asrwt>
<pdfrwt beam="1">  1       21 0.48471162E-01 0.17723122E+03</pdfrwt>
<pdfrwt beam="2">  1       21 0.15612215E-01 0.17723122E+03</pdfrwt>
<totfact> 0.14898323E+05</totfact>
</mgrwt>
</event>
<event>
 4    2  0.4086940E+000  0.2511515E+03  0.7546771E-02  0.1112579E+00
         21   -1    0    0  501  502  0.00000000000E+00  0.00000000000E+00  0.29031515603E+03  0.29031515603E+03  0.00000000000E+00 0.  1.
         21   -1    0    0  502  503 -0.00000000000E+00 -0.00000000000E+00 -0.16885637252E+04  0.16885637252E+04  0.00000000000E+00 0. -1.
          6    1    1    2  501    0  0.17975799611E+03 -0.28899046278E+02  0.22446741263E+03  0.33684226483E+03  0.17300000000E+03 0.  1.
         -6    1    1    2    0  503 -0.17975799611E+03  0.28899046278E+02 -0.16227159818E+04  0.16420366164E+04  0.17300000000E+03 0. -1.
<mgrwt>
<rscale>  2 0.25115153E+03</rscale>
<asrwt>0</asrwt>
<pdfrwt beam="1">  1       21 0.44663871E-01 0.25115153E+03</pdfrwt>
<pdfrwt beam="2">  1       21 0.25977903E+00 0.25115153E+03</pdfrwt>
<totfact> 0.26064661E+02</totfact>
</mgrwt>
</event>
<event>
 4    2  0.4086940E+000  0.2307499E+03  0.7546771E-02  0.1126113E+00
         21   -1    0    0  501  502  0.00000000000E+00  0.00000000000E+00  0.44010342947E+02  0.44010342947E+02  0.00000000000E+00 0.  1.
         21   -1    0    0  502  503 -0.00000000000E+00 -0.00000000000E+00 -0.15460512879E+04  0.15460512879E+04  0.00000000000E+00 0.  1.
          6    1    1    2  501    0 -0.11301853033E+03 -0.10268068051E+03 -0.38027349816E+03  0.44480719841E+03  0.17300000000E+03 0.  1.
         -6    1    1    2    0  503  0.11301853033E+03  0.10268068051E+03 -0.11217674468E+04  0.11452544325E+04  0.17300000000E+03 0.  1.
<mgrwt>
<rscale>  2 0.23074989E+03</rscale>
<asrwt>0</asrwt>
<pdfrwt beam="1">  1       21 0.67708235E-02 0.23074989E+03</pdfrwt>
<pdfrwt beam="2">  1       21 0.23785399E+00 0.23074989E+03</pdfrwt>
<totfact> 0.12171459E+04</totfact>
</mgrwt>
</event>
<event>
 4    2  0.4086940E+000  0.3606154E+03  0.7546771E-02  0.1058340E+00
         21   -1    0    0  503  502  0.00000000000E+00  0.00000000000E+00  0.91902059305E+03  0.91902059305E+03  0.00000000000E+00 0.  1.
         21   -1    0    0  501  503 -0.00000000000E+00 -0.00000000000E+00 -0.45341249336E+03  0.45341249336E+03  0.00000000000E+00 0. -1.
          6    1    1    2  501    0  0.24697464451E+03  0.19778266761E+03 -0.33634927697E+03  0.49312705741E+03  0.17300000000E+03 0. -1.
         -6    1    1    2    0  502 -0.24697464451E+03 -0.19778266761E+03  0.80195737666E+03  0.87930602899E+03  0.17300000000E+03 0.  1.
<mgrwt>
<rscale>  2 0.36061539E+03</rscale>
<asrwt>0</asrwt>
<pdfrwt beam="1">  1       21 0.14138778E+00 0.36061539E+03</pdfrwt>
<pdfrwt beam="2">  1       21 0.69755769E-01 0.36061539E+03</pdfrwt>
<totfact> 0.56976062E+02</totfact>
</mgrwt>
</event>
<event>
 4    2  0.4086940E+000  0.3802266E+03  0.7546771E-02  0.1050850E+00
         21   -1    0    0  501  502  0.00000000000E+00  0.00000000000E+00  0.26248732443E+03  0.26248732443E+03  0.00000000000E+00 0. -1.
         21   -1    0    0  502  503 -0.00000000000E+00 -0.00000000000E+00 -0.61604857740E+03  0.61604857740E+03  0.00000000000E+00 0.  1.
          6    1    1    2  501    0 -0.72735486692E+02  0.33068542080E+03 -0.33799053941E+02  0.38172591554E+03  0.17300000000E+03 0.  1.
         -6    1    1    2    0  503  0.72735486692E+02 -0.33068542080E+03 -0.31976219902E+03  0.49680998629E+03  0.17300000000E+03 0. -1.
<mgrwt>
<rscale>  2 0.38022664E+03</rscale>
<asrwt>0</asrwt>
<pdfrwt beam="1">  1       21 0.40382666E-01 0.38022664E+03</pdfrwt>
<pdfrwt beam="2">  1       21 0.94776702E-01 0.38022664E+03</pdfrwt>
<totfact> 0.49571215E+03</totfact>
</mgrwt>
</event>
<event>
 4    2  0.4086940E+000  0.1891652E+03  0.7546771E-02  0.1159216E+00
         21   -1    0    0  501  502  0.00000000000E+00  0.00000000000E+00  0.21512477338E+03  0.21512477338E+03  0.00000000000E+00 0. -1.
         21   -1    0    0  502  503 -0.00000000000E+00 -0.00000000000E+00 -0.38405135999E+03  0.38405135999E+03  0.00000000000E+00 0. -1.
          6    1    1    2  501    0 -0.75493588398E+02  0.12457533611E+02  0.14110194764E+03  0.23599413480E+03  0.17300000000E+03 0. -1.
         -6    1    1    2    0  503  0.75493588398E+02 -0.12457533611E+02 -0.31002853425E+03  0.36318199856E+03  0.17300000000E+03 0. -1.
<mgrwt>
<rscale>  2 0.18916520E+03</rscale>
<asrwt>0</asrwt>
<pdfrwt beam="1">  1       21 0.33096119E-01 0.18916520E+03</pdfrwt>
<pdfrwt beam="2">  1       21 0.59084824E-01 0.18916520E+03</pdfrwt>
<totfact> 0.23587335E+04</totfact>
</mgrwt>
</event>
<event>
 4    2  0.4086940E+000  0.1750216E+03  0.7546771E-02  0.1172710E+00
         21   -1    0    0  503  502  0.00000000000E+00  0.00000000000E+00  0.25115439509E+03  0.25115439509E+03  0.00000000000E+00 0.  1.
         21   -1    0    0  501  503 -0.00000000000E+00 -0.00000000000E+00 -0.13109112152E+03  0.13109112152E+03  0.00000000000E+00 0.  1.
          6    1    1    2  501    0  0.56555960955E+01 -0.25914886606E+02  0.96097034046E+01  0.17528523473E+03  0.17300000000E+03 0.  1.
         -6    1    1    2    0  502 -0.56555960955E+01  0.25914886606E+02  0.11045357016E+03  0.20696028188E+03  0.17300000000E+03 0.  1.
<mgrwt>
<rscale>  2 0.17502162E+03</rscale>
<asrwt>0</asrwt>
<pdfrwt beam="1">  1       21 0.38639138E-01 0.17502162E+03</pdfrwt>
<pdfrwt beam="2">  1       21 0.20167865E-01 0.17502162E+03</pdfrwt>
<totfact> 0.14762395E+05</totfact>
</mgrwt>
</event>
<event>
 4    2  0.4086940E+000  0.2114791E+03  0.7546771E-02  0.1140400E+00
         21   -1    0    0  501  502  0.00000000000E+00  0.00000000000E+00  0.35482432297E+03  0.35482432297E+03  0.00000000000E+00 0. -1.
         21   -1    0    0  502  503 -0.00000000000E+00 -0.00000000000E+00 -0.16070276596E+03  0.16070276596E+03  0.00000000000E+00 0. -1.
          6    1    1    2  501    0 -0.11673244920E+03  0.34175187058E+02  0.21676723708E+03  0.30283897235E+03  0.17300000000E+03 0. -1.
         -6    1    1    2    0  503  0.11673244920E+03 -0.34175187058E+02 -0.22645680060E+02  0.21268811657E+03  0.17300000000E+03 0. -1.
<mgrwt>
<rscale>  2 0.21147910E+03</rscale>
<asrwt>0</asrwt>
<pdfrwt beam="1">  1       21 0.54588357E-01 0.21147910E+03</pdfrwt>
<pdfrwt beam="2">  1       21 0.24723502E-01 0.21147910E+03</pdfrwt>
<totfact> 0.48583890E+04</totfact>
</mgrwt>
</event>
<event>
 4    2  0.4086940E+000  0.2063633E+03  0.7546771E-02  0.1144479E+00
         21   -1    0    0  503  502  0.00000000000E+00  0.00000000000E+00  0.13832443901E+03  0.13832443901E+03  0.00000000000E+00 0. -1.
         21   -1    0    0  501  503 -0.00000000000E+00 -0.00000000000E+00 -0.33492169055E+03  0.33492169055E+03  0.00000000000E+00 0. -1.
          6    1    1    2  501    0 -0.39543792155E+02  0.10532379915E+03 -0.16554830817E+03  0.26456011888E+03  0.17300000000E+03 0. -1.
         -6    1    1    2    0  502  0.39543792155E+02 -0.10532379915E+03 -0.31048943372E+02  0.20868601067E+03  0.17300000000E+03 0. -1.
<mgrwt>
<rscale>  2 0.20636331E+03</rscale>
<asrwt>0</asrwt>
<pdfrwt beam="1">  1       21 0.21280683E-01 0.20636331E+03</pdfrwt>
<pdfrwt beam="2">  1       21 0.51526414E-01 0.20636331E+03</pdfrwt>
<totfact> 0.73087923E+04</totfact>
</mgrwt>
</event>
<event>
 4    2  0.4086940E+000  0.2006879E+03  0.7546771E-02  0.1149160E+00
         21   -1    0    0  501  502  0.00000000000E+00  0.00000000000E+00  0.11832160672E+03  0.11832160672E+03  0.00000000000E+00 0. -1.
         21   -1    0    0  502  503 -0.00000000000E+00 -0.00000000000E+00 -0.49905562258E+03  0.49905562258E+03  0.00000000000E+00 0. -1.
          6    1    1    2  501    0 -0.99176264847E+02  0.22599131192E+02 -0.16312330555E+02  0.20134980598E+03  0.17300000000E+03 0. -1.
         -6    1    1    2    0  503  0.99176264847E+02 -0.22599131192E+02 -0.36442168530E+03  0.41602742332E+03  0.17300000000E+03 0. -1.
<mgrwt>
<rscale>  2 0.20068795E+03</rscale>
<asrwt>0</asrwt>
<pdfrwt beam="1">  1       21 0.18203325E-01 0.20068795E+03</pdfrwt>
<pdfrwt beam="2">  1       21 0.76777786E-01 0.20068795E+03</pdfrwt>
<totfact> 0.41314009E+04</totfact>
</mgrwt>
</event>
<event>
 4    2  0.4086940E+000  0.1966801E+03  0.7546771E-02  0.1152571E+00
         21   -1    0    0  503  502  0.00000000000E+00  0.00000000000E+00  0.11940946359E+03  0.11940946359E+03  0.00000000000E+00 0. -1.
         21   -1    0    0  501  503 -0.00000000000E+00 -0.00000000000E+00 -0.32851803797E+03  0.32851803797E+03  0.00000000000E+00 0. -1.
          6    1    1    2  501    0  0.82494448433E+02  0.44144173801E+02 -0.13095557079E+03  0.23628881401E+03  0.17300000000E+03 0. -1.
         -6    1    1    2    0  502 -0.82494448433E+02 -0.44144173801E+02 -0.78153003583E+02  0.21163868756E+03  0.17300000000E+03 0. -1.
<mgrwt>
<rscale>  2 0.19668005E+03</rscale>
<asrwt>0</asrwt>
<pdfrwt beam="1">  1       21 0.18370687E-01 0.19668005E+03</pdfrwt>
<pdfrwt beam="2">  1       21 0.50541237E-01 0.19668005E+03</pdfrwt>
<totfact> 0.10056978E+05</totfact>
</mgrwt>
</event>
<event>
 4    2  0.4086940E+000  0.2753666E+03  0.7546771E-02  0.1098247E+00
         21   -1    0    0  501  502  0.00000000000E+00  0.00000000000E+00  0.93990358838E+03  0.93990358838E+03  0.00000000000E+00 0. -1.
         21   -1    0    0  502  503 -0.00000000000E+00 -0.00000000000E+00 -0.10109299162E+03  0.10109299162E+03  0.00000000000E+00 0.  1.
          6    1    1    2  501    0  0.10598130106E+03  0.18618738079E+03  0.65332385290E+03  0.70898436775E+03  0.17300000000E+03 0. -1.
         -6    1    1    2    0  503 -0.10598130106E+03 -0.18618738079E+03  0.18548674385E+03  0.33201221225E+03  0.17300000000E+03 0.  1.
<mgrwt>
<rscale>  2 0.27536662E+03</rscale>
<asrwt>0</asrwt>
<pdfrwt beam="1">  1       21 0.14460055E+00 0.27536662E+03</pdfrwt>
<pdfrwt beam="2">  1       21 0.15552769E-01 0.27536662E+03</pdfrwt>
<totfact> 0.11470419E+04</totfact>
</mgrwt>
</event>
<event>
 4    2  0.4086940E+000  0.2402004E+03  0.7546771E-02  0.1119659E+00
         21   -1    0    0  503  502  0.00000000000E+00  0.00000000000E+00  0.48649118130E+02  0.48649118130E+02  0.00000000000E+00 0. -1.
         21   -1    0    0  501  503 -0.00000000000E+00 -0.00000000000E+00 -0.16903849022E+04  0.16903849022E+04  0.00000000000E+00 0.  1.
          6    1    1    2  501    0 -0.16107355772E+03  0.42691225061E+02 -0.12958537463E+04  0.13179276018E+04  0.17300000000E+03 0.  1.
         -6    1    1    2    0  502  0.16107355772E+03 -0.42691225061E+02 -0.34588203771E+03  0.42110641850E+03  0.17300000000E+03 0. -1.
<mgrwt>
<rscale>  2 0.24020040E+03</rscale>
<asrwt>0</asrwt>
<pdfrwt beam="1">  1       21 0.74844803E-02 0.24020040E+03</pdfrwt>
<pdfrwt beam="2">  1       21 0.26005919E+00 0.24020040E+03</pdfrwt>
<totfact> 0.74866502E+03</totfact>
</mgrwt>
</event>
<event>
 4    2  0.4086940E+000  0.1846146E+03  0.7546771E-02  0.1163410E+00
         21   -1    0    0  501  502  0.00000000000E+00  0.00000000000E+00  0.89506159384E+03  0.89506159384E+03  0.00000000000E+00 0.  1.
         21   -1    0    0  502  503 -0.00000000000E+00 -0.00000000000E+00 -0.66811180612E+02  0.66811180612E+02  0.00000000000E+00 0.  1.
          6    1    1    2  501    0 -0.62375927331E+02 -0.16210682389E+02  0.72951791308E+03  0.75251506832E+03  0.17300000000E+03 0.  1.
         -6    1    1    2    0  503  0.62375927331E+02  0.16210682389E+02  0.98732500148E+02  0.20935770614E+03  0.17300000000E+03 0.  1.
<mgrwt>
<rscale>  2 0.18461458E+03</rscale>
<asrwt>0</asrwt>
<pdfrwt beam="1">  1       21 0.13770178E+00 0.18461458E+03</pdfrwt>
<pdfrwt beam="2">  1       21 0.10278644E-01 0.18461458E+03</pdfrwt>
<totfact> 0.29006224E+04</totfact>
</mgrwt>
</event>
<event>
 4    2  0.4086940E+000  0.3224791E+03  0.7546771E-02  0.1074514E+00
         21   -1    0    0  503  502  0.00000000000E+00  0.00000000000E+00  0.12754910473E+04  0.12754910473E+04  0.00000000000E+00 0. -1.
         21   -1    0    0  501  503 -0.00000000000E+00 -0.00000000000E+00 -0.13270686179E+03  0.13270686179E+03  0.00000000000E+00 0.  1.
          6    1    1    2  501    0  0.13162738722E+03 -0.23819743602E+03  0.10086293624E+04  0.10589268050E+04  0.17300000000E+03 0. -1.
         -6    1    1    2    0  502 -0.13162738722E+03  0.23819743602E+03  0.13415482309E+03  0.34927110409E+03  0.17300000000E+03 0.  1.
<mgrwt>
<rscale>  2 0.32247913E+03</rscale>
<asrwt>0</asrwt>
<pdfrwt beam="1">  1       21 0.19622938E+00 0.32247913E+03</pdfrwt>
<pdfrwt beam="2">  1       21 0.20416441E-01 0.32247913E+03</pdfrwt>
<totfact> 0.28572394E+03</totfact>
</mgrwt>
</event>
<event>
 4    2  0.4086940E+000  0.1867682E+03  0.7546771E-02  0.1161409E+00
         21   -1    0    0  503  502  0.00000000000E+00  0.00000000000E+00  0.55249569485E+03  0.55249569485E+03  0.00000000000E+00 0.  1.
         21   -1    0    0  501  503 -0.00000000000E+00 -0.00000000000E+00 -0.89037394877E+02  0.89037394877E+02  0.00000000000E+00 0. -1.
          6    1    1    2  501    0  0.58552386128E+02 -0.39051000638E+02  0.58721819271E+02  0.19578205901E+03  0.17300000000E+03 0. -1.
         -6    1    1    2    0  502 -0.58552386128E+02  0.39051000638E+02  0.40473648070E+03  0.44575103071E+03  0.17300000000E+03 0.  1.
<mgrwt>
<rscale>  2 0.18676821E+03</rscale>
<asrwt>0</asrwt>
<pdfrwt beam="1">  1       21 0.84999336E-01 0.18676821E+03</pdfrwt>
<pdfrwt beam="2">  1       21 0.13698061E-01 0.18676821E+03</pdfrwt>
<totfact> 0.55578044E+04</totfact>
</mgrwt>
</event>
<event>
 4    2  0.4086940E+000  0.2576157E+03  0.7546771E-02  0.1108584E+00
         21   -1    0    0  501  502  0.00000000000E+00  0.00000000000E+00  0.13477894172E+03  0.13477894172E+03  0.00000000000E+00 0.  1.
         21   -1    0    0  502  503 -0.00000000000E+00 -0.00000000000E+00 -0.84499183083E+03  0.84499183083E+03  0.00000000000E+00 0. -1.
          6    1    1    2  501    0 -0.10748737753E+03  0.15774438770E+03 -0.38659244552E+02  0.26050022144E+03  0.17300000000E+03 0.  1.
         -6    1    1    2    0  503  0.10748737753E+03 -0.15774438770E+03 -0.67155364455E+03  0.71927055111E+03  0.17300000000E+03 0. -1.
<mgrwt>
<rscale>  2 0.25761566E+03</rscale>
<asrwt>0</asrwt>
<pdfrwt beam="1">  1       21 0.20735222E-01 0.25761566E+03</pdfrwt>
<pdfrwt beam="2">  1       21 0.12999874E+00 0.25761566E+03</pdfrwt>
<totfact> 0.89333783E+03</totfact>
</mgrwt>
</event>
<event>
 4    2  0.4086940E+000  0.2233954E+03  0.7546771E-02  0.1131377E+00
         21   -1    0    0  503  502  0.00000000000E+00  0.00000000000E+00  0.15411288093E+03  0.15411288093E+03  0.00000000000E+00 0.  1.
         21   -1    0    0  501  503 -0.00000000000E+00 -0.00000000000E+00 -0.63216179493E+03  0.63216179493E+03  0.00000000000E+00 0. -1.
          6    1    1    2  501    0 -0.75766608543E+02  0.11931435752E+03 -0.51358829932E+03  0.56007002783E+03  0.17300000000E+03 0. -1.
         -6    1    1    2    0  502  0.75766608543E+02 -0.11931435752E+03  0.35539385316E+02  0.22620464802E+03  0.17300000000E+03 0.  1.
<mgrwt>
<rscale>  2 0.22339538E+03</rscale>
<asrwt>0</asrwt>
<pdfrwt beam="1">  1       21 0.23709674E-01 0.22339538E+03</pdfrwt>
<pdfrwt beam="2">  1       21 0.97255660E-01 0.22339538E+03</pdfrwt>
<totfact> 0.14405565E+04</totfact>
</mgrwt>
</event>
<event>
 4    2  0.4086940E+000  0.2154643E+03  0.7546771E-02  0.1137310E+00
         21   -1    0    0  503  502  0.00000000000E+00  0.00000000000E+00  0.30686237838E+03  0.30686237838E+03  0.00000000000E+00 0.  1.
         21   -1    0    0  501  503 -0.00000000000E+00 -0.00000000000E+00 -0.23163297448E+03  0.23163297448E+03  0.00000000000E+00 0.  1.
          6    1    1    2  501    0 -0.10090461319E+03  0.79461439151E+02 -0.12095813272E+03  0.24709457936E+03  0.17300000000E+03 0.  1.
         -6    1    1    2    0  502  0.10090461319E+03 -0.79461439151E+02  0.19618753662E+03  0.29140077351E+03  0.17300000000E+03 0.  1.
<mgrwt>
<rscale>  2 0.21546429E+03</rscale>
<asrwt>0</asrwt>
<pdfrwt beam="1">  1       21 0.47209596E-01 0.21546429E+03</pdfrwt>
<pdfrwt beam="2">  1       21 0.35635842E-01 0.21546429E+03</pdfrwt>
<totfact> 0.32203652E+04</totfact>
</mgrwt>
</event>
<event>
 4    2  0.4086940E+000  0.1901275E+03  0.7546771E-02  0.1158346E+00
         21   -1    0    0  501  502  0.00000000000E+00  0.00000000000E+00  0.15547472413E+04  0.15547472413E+04  0.00000000000E+00 0.  1.
         21   -1    0    0  502  503 -0.00000000000E+00 -0.00000000000E+00 -0.29614621606E+02  0.29614621606E+02  0.00000000000E+00 0. -1.
          6    1    1    2  501    0  0.53576926701E+02 -0.57870377076E+02  0.39533090560E+03  0.43867413024E+03  0.17300000000E+03 0. -1.
         -6    1    1    2    0  503 -0.53576926701E+02  0.57870377076E+02  0.11298017141E+04  0.11456877327E+04  0.17300000000E+03 0.  1.
<mgrwt>
<rscale>  2 0.19012750E+03</rscale>
<asrwt>0</asrwt>
<pdfrwt beam="1">  1       21 0.23919182E+00 0.19012750E+03</pdfrwt>
<pdfrwt beam="2">  1       21 0.45560968E-02 0.19012750E+03</pdfrwt>
<totfact> 0.24301576E+04</totfact>
</mgrwt>
</event>
<event>
 4    2  0.4086940E+000  0.1746966E+03  0.7546771E-02  0.1173037E+00
         21   -1    0    0  503  502  0.00000000000E+00  0.00000000000E+00  0.59583514990E+03  0.59583514990E+03  0.00000000000E+00 0. -1.
         21   -1    0    0  501  503 -0.00000000000E+00 -0.00000000000E+00 -0.81924046020E+02  0.81924046020E+02  0.00000000000E+00 0. -1.
          6    1    1    2  501    0  0.26126804948E+01 -0.24146675116E+02  0.49495243696E+02  0.18157275998E+03  0.17300000000E+03 0. -1.
         -6    1    1    2    0  502 -0.26126804948E+01  0.24146675116E+02  0.46441586019E+03  0.49618643594E+03  0.17300000000E+03 0. -1.
<mgrwt>
<rscale>  2 0.17469656E+03</rscale>
<asrwt>0</asrwt>
<pdfrwt beam="1">  1       21 0.91666943E-01 0.17469656E+03</pdfrwt>
<pdfrwt beam="2">  1       21 0.12603700E-01 0.17469656E+03</pdfrwt>
<totfact> 0.54580937E+04</totfact>
</mgrwt>
</event>
<event>
 4    2  0.4086940E+000  0.2138019E+03  0.7546771E-02  0.1138590E+00
         21   -1    0    0  503  502  0.00000000000E+00  0.00000000000E+00  0.94035356592E+03  0.94035356592E+03  0.00000000000E+00 0. -1.
         21   -1    0    0  501  503 -0.00000000000E+00 -0.00000000000E+00 -0.52507068748E+02  0.52507068748E+02  0.00000000000E+00 0.  1.
          6    1    1    2  501    0  0.94830779478E+02  0.82397729798E+02  0.30869158326E+03  0.37550200557E+03  0.17300000000E+03 0.  1.
         -6    1    1    2    0  502 -0.94830779478E+02 -0.82397729798E+02  0.57915491390E+03  0.61735862909E+03  0.17300000000E+03 0. -1.
<mgrwt>
<rscale>  2 0.21380192E+03</rscale>
<asrwt>0</asrwt>
<pdfrwt beam="1">  1       21 0.14466977E+00 0.21380192E+03</pdfrwt>
<pdfrwt beam="2">  1       21 0.80780113E-02 0.21380192E+03</pdfrwt>
<totfact> 0.38300371E+04</totfact>
</mgrwt>
</event>
<event>
 4    2  0.4086940E+000  0.1786025E+03  0.7546771E-02  0.1169162E+00
         21   -1    0    0  501  502  0.00000000000E+00  0.00000000000E+00  0.57643592236E+02  0.57643592236E+02  0.00000000000E+00 0. -1.
         21   -1    0    0  502  503 -0.00000000000E+00 -0.00000000000E+00 -0.99266016537E+03  0.99266016537E+03  0.00000000000E+00 0. -1.
          6    1    1    2  501    0  0.40269296287E+02  0.18661395800E+02 -0.11816293382E+03  0.21415261578E+03  0.17300000000E+03 0. -1.
         -6    1    1    2    0  503 -0.40269296287E+02 -0.18661395800E+02 -0.81685363931E+03  0.83615114182E+03  0.17300000000E+03 0. -1.
<mgrwt>
<rscale>  2 0.17860253E+03</rscale>
<asrwt>0</asrwt>
<pdfrwt beam="1">  1       21 0.88682454E-02 0.17860253E+03</pdfrwt>
<pdfrwt beam="2">  1       21 0.15271694E+00 0.17860253E+03</pdfrwt>
<totfact> 0.28833258E+04</totfact>
</mgrwt>
</event>
<event>
 4    2  0.4086940E+000  0.2048242E+03  0.7546771E-02  0.1145731E+00
         21   -1    0    0  501  502  0.00000000000E+00  0.00000000000E+00  0.44205884584E+03  0.44205884584E+03  0.00000000000E+00 0. -1.
         21   -1    0    0  502  503 -0.00000000000E+00 -0.00000000000E+00 -0.34347854493E+03  0.34347854493E+03  0.00000000000E+00 0.  1.
          6    1    1    2  501    0 -0.10632696090E+03  0.26805653018E+02  0.38342036927E+03  0.43470006351E+03  0.17300000000E+03 0. -1.
         -6    1    1    2    0  503  0.10632696090E+03 -0.26805653018E+02 -0.28484006836E+03  0.35083732725E+03  0.17300000000E+03 0.  1.
<mgrwt>
<rscale>  2 0.20482423E+03</rscale>
<asrwt>0</asrwt>
<pdfrwt beam="1">  1       21 0.68009053E-01 0.20482423E+03</pdfrwt>
<pdfrwt beam="2">  1       21 0.52842853E-01 0.20482423E+03</pdfrwt>
<totfact> 0.66403861E+03</totfact>
</mgrwt>
</event>
<event>
 4    2  0.4086940E+000  0.2323952E+03  0.7546771E-02  0.1124965E+00
         21   -1    0    0  503  502  0.00000000000E+00  0.00000000000E+00  0.19766014270E+03  0.19766014270E+03  0.00000000000E+00 0. -1.
         21   -1    0    0  501  503 -0.00000000000E+00 -0.00000000000E+00 -0.53510772844E+03  0.53510772844E+03  0.00000000000E+00 0. -1.
          6    1    1    2  501    0  0.75145902612E+01 -0.15499048964E+03 -0.42503144344E+03  0.48441640028E+03  0.17300000000E+03 0. -1.
         -6    1    1    2    0  502 -0.75145902612E+01  0.15499048964E+03  0.87583857707E+02  0.24835147086E+03  0.17300000000E+03 0. -1.
<mgrwt>
<rscale>  2 0.23239518E+03</rscale>
<asrwt>0</asrwt>
<pdfrwt beam="1">  1       21 0.30409253E-01 0.23239518E+03</pdfrwt>
<pdfrwt beam="2">  1       21 0.82324266E-01 0.23239518E+03</pdfrwt>
<totfact> 0.13048643E+04</totfact>
</mgrwt>
</event>
<event>
 4    2  0.4086940E+000  0.2202098E+03  0.7546771E-02  0.1133727E+00
         21   -1    0    0  503  502  0.00000000000E+00  0.00000000000E+00  0.98377003560E+03  0.98377003560E+03  0.00000000000E+00 0.  1.
         21   -1    0    0  501  503 -0.00000000000E+00 -0.00000000000E+00 -0.24367645982E+03  0.24367645982E+03  0.00000000000E+00 0. -1.
          6    1    1    2  501    0 -0.43440691977E+02 -0.12913658431E+03 -0.17809908710E+03  0.28321658841E+03  0.17300000000E+03 0. -1.
         -6    1    1    2    0  502  0.43440691977E+02  0.12913658431E+03  0.91819266288E+03  0.94422990701E+03  0.17300000000E+03 0.  1.
<mgrwt>
<rscale>  2 0.22020979E+03</rscale>
<asrwt>0</asrwt>
<pdfrwt beam="1">  1       21 0.15134923E+00 0.22020979E+03</pdfrwt>
<pdfrwt beam="2">  1       21 0.37488687E-01 0.22020979E+03</pdfrwt>
<totfact> 0.19530948E+03</totfact>
</mgrwt>
</event>
<event>
 4    2  0.4086940E+000  0.1730946E+03  0.7546771E-02  0.1174659E+00
         21   -1    0    0  501  502  0.00000000000E+00  0.00000000000E+00  0.31772223411E+03  0.31772223411E+03  0.00000000000E+00 0. -1.
         21   -1    0    0  502  503 -0.00000000000E+00 -0.00000000000E+00 -0.19034829560E+03  0.19034829560E+03  0.00000000000E+00 0. -1.
          6    1    1    2  501    0 -0.57201109046E+01 -0.15392721898E+00  0.24413848117E+03  0.29927469214E+03  0.17300000000E+03 0. -1.
         -6    1    1    2    0  503  0.57201109046E+01  0.15392721898E+00 -0.11676454267E+03  0.20879583757E+03  0.17300000000E+03 0. -1.
<mgrwt>
<rscale>  2 0.17309461E+03</rscale>
<asrwt>0</asrwt>
<pdfrwt beam="1">  1       21 0.48880344E-01 0.17309461E+03</pdfrwt>
<pdfrwt beam="2">  1       21 0.29284353E-01 0.17309461E+03</pdfrwt>
<totfact> 0.45044661E+04</totfact>
</mgrwt>
</event>
<event>
 4    2  0.4086940E+000  0.2261101E+03  0.7546771E-02  0.1129408E+00
         21   -1    0    0  501  502  0.00000000000E+00  0.00000000000E+00  0.14833234554E+04  0.14833234554E+04  0.00000000000E+00 0. -1.
         21   -1    0    0  502  503 -0.00000000000E+00 -0.00000000000E+00 -0.21711007118E+03  0.21711007118E+03  0.00000000000E+00 0.  1.
          6    1    1    2  501    0 -0.14528736160E+03  0.94001530358E+01  0.14129210418E+04  0.14308988960E+04  0.17300000000E+03 0. -1.
         -6    1    1    2    0  503  0.14528736160E+03 -0.94001530358E+01 -0.14670765753E+03  0.26953463060E+03  0.17300000000E+03 0.  1.
<mgrwt>
<rscale>  2 0.22611011E+03</rscale>
<asrwt>0</asrwt>
<pdfrwt beam="1">  1       21 0.22820360E+00 0.22611011E+03</pdfrwt>
<pdfrwt beam="2">  1       21 0.33401550E-01 0.22611011E+03</pdfrwt>
<totfact> 0.74491439E+02</totfact>
</mgrwt>
</event>
<event>
 4    2  0.4086940E+000  0.2009024E+03  0.7546771E-02  0.1148980E+00
         21   -1    0    0  503  502  0.00000000000E+00  0.00000000000E+00  0.15101406392E+03  0.15101406392E+03  0.00000000000E+00 0. -1.
         21   -1    0    0  501  503 -0.00000000000E+00 -0.00000000000E+00 -0.30869789632E+03  0.30869789632E+03  0.00000000000E+00 0.  1.
          6    1    1    2  501    0  0.25341822099E+02  0.98947249255E+02 -0.16304484133E+03  0.25873806517E+03  0.17300000000E+03 0.  1.
         -6    1    1    2    0  502 -0.25341822099E+02 -0.98947249255E+02  0.53610089234E+01  0.20097389507E+03  0.17300000000E+03 0.  1.
<mgrwt>
<rscale>  2 0.20090238E+03</rscale>
<asrwt>0</asrwt>
<pdfrwt beam="1">  1       21 0.23232933E-01 0.20090238E+03</pdfrwt>
<pdfrwt beam="2">  1       21 0.47491983E-01 0.20090238E+03</pdfrwt>
<totfact> 0.73567856E+04</totfact>
</mgrwt>
</event>
<event>
 4    2  0.4086940E+000  0.2071435E+03  0.7546771E-02  0.1143848E+00
         21   -1    0    0  503  502  0.00000000000E+00  0.00000000000E+00  0.71580472002E+03  0.71580472002E+03  0.00000000000E+00 0.  1.
         21   -1    0    0  501  503 -0.00000000000E+00 -0.00000000000E+00 -0.62422337349E+02  0.62422337349E+02  0.00000000000E+00 0. -1.
          6    1    1    2  501    0 -0.11311298667E+03 -0.13596882207E+02  0.40421926753E+03  0.45420440244E+03  0.17300000000E+03 0. -1.
         -6    1    1    2    0  502  0.11311298667E+03  0.13596882207E+02  0.24916311514E+03  0.32402265493E+03  0.17300000000E+03 0.  1.
<mgrwt>
<rscale>  2 0.20714348E+03</rscale>
<asrwt>0</asrwt>
<pdfrwt beam="1">  1       21 0.11012380E+00 0.20714348E+03</pdfrwt>
<pdfrwt beam="2">  1       21 0.96034370E-02 0.20714348E+03</pdfrwt>
<totfact> 0.56348676E+04</totfact>
</mgrwt>
</event>
<event>
 4    2  0.4086940E+000  0.1837295E+03  0.7546771E-02  0.1164242E+00
         21   -1    0    0  501  502  0.00000000000E+00  0.00000000000E+00  0.81321529422E+02  0.81321529422E+02  0.00000000000E+00 0. -1.
         21   -1    0    0  502  503 -0.00000000000E+00 -0.00000000000E+00 -0.10445279249E+04  0.10445279249E+04  0.00000000000E+00 0. -1.
          6    1    1    2  501    0  0.47927832701E+02 -0.39120829640E+02 -0.44621230355E+02  0.18907027968E+03  0.17300000000E+03 0. -1.
         -6    1    1    2    0  503 -0.47927832701E+02  0.39120829640E+02 -0.91858516507E+03  0.93677917459E+03  0.17300000000E+03 0. -1.
<mgrwt>
<rscale>  2 0.18372947E+03</rscale>
<asrwt>0</asrwt>
<pdfrwt beam="1">  1       21 0.12511006E-01 0.18372947E+03</pdfrwt>
<pdfrwt beam="2">  1       21 0.16069659E+00 0.18372947E+03</pdfrwt>
<totfact> 0.13636477E+04</totfact>
</mgrwt>
</event>
<event>
 4    2  0.4086940E+000  0.1880021E+03  0.7546771E-02  0.1160276E+00
         21   -1    0    0  501  502  0.00000000000E+00  0.00000000000E+00  0.53239460107E+02  0.53239460107E+02  0.00000000000E+00 0. -1.
         21   -1    0    0  502  503 -0.00000000000E+00 -0.00000000000E+00 -0.84835490399E+03  0.84835490399E+03  0.00000000000E+00 0. -1.
          6    1    1    2  501    0  0.63200938872E+02  0.37701776188E+02 -0.18734582227E+03  0.26541145364E+03  0.17300000000E+03 0. -1.
         -6    1    1    2    0  503 -0.63200938872E+02 -0.37701776188E+02 -0.60776962161E+03  0.63618291045E+03  0.17300000000E+03 0. -1.
<mgrwt>
<rscale>  2 0.18800208E+03</rscale>
<asrwt>0</asrwt>
<pdfrwt beam="1">  1       21 0.81906868E-02 0.18800208E+03</pdfrwt>
<pdfrwt beam="2">  1       21 0.13051613E+00 0.18800208E+03</pdfrwt>
<totfact> 0.49412255E+04</totfact>
</mgrwt>
</event>
<event>
 4    2  0.4086940E+000  0.1922767E+03  0.7546771E-02  0.1156424E+00
         21   -1    0    0  503  502  0.00000000000E+00  0.00000000000E+00  0.20469687798E+04  0.20469687798E+04  0.00000000000E+00 0. -1.
         21   -1    0    0  501  503 -0.00000000000E+00 -0.00000000000E+00 -0.21649143047E+02  0.21649143047E+02  0.00000000000E+00 0. -1.
          6    1    1    2  501    0 -0.40815632324E+02  0.73317277644E+02  0.59158066113E+03  0.62204342105E+03  0.17300000000E+03 0. -1.
         -6    1    1    2    0  502  0.40815632324E+02 -0.73317277644E+02  0.14337389756E+04  0.14465745018E+04  0.17300000000E+03 0. -1.
<mgrwt>
<rscale>  2 0.19227673E+03</rscale>
<asrwt>0</asrwt>
<pdfrwt beam="1">  1       21 0.31491812E+00 0.19227673E+03</pdfrwt>
<pdfrwt beam="2">  1       21 0.33306390E-02 0.19227673E+03</pdfrwt>
<totfact> 0.14903267E+04</totfact>
</mgrwt>
</event>
<event>
 4    2  0.4086940E+000  0.2507270E+03  0.7546771E-02  0.1112846E+00
         21   -1    0    0  501  502  0.00000000000E+00  0.00000000000E+00  0.91896280625E+03  0.91896280625E+03  0.00000000000E+00 0.  1.
         21   -1    0    0  502  503 -0.00000000000E+00 -0.00000000000E+00 -0.37591986542E+03  0.37591986542E+03  0.00000000000E+00 0.  1.
          6    1    1    2  501    0  0.12486359283E+03  0.13169696190E+03  0.85709849990E+03  0.89301839013E+03  0.17300000000E+03 0.  1.
         -6    1    1    2    0  503 -0.12486359283E+03 -0.13169696190E+03 -0.31405555908E+03  0.40186428154E+03  0.17300000000E+03 0.  1.
<mgrwt>
<rscale>  2 0.25072696E+03</rscale>
<asrwt>0</asrwt>
<pdfrwt beam="1">  1       21 0.14137889E+00 0.25072696E+03</pdfrwt>
<pdfrwt beam="2">  1       21 0.57833826E-01 0.25072696E+03</pdfrwt>
<totfact> 0.92653295E+02</totfact>
</mgrwt>
</event>
<event>
 4    2  0.4086940E+000  0.1886912E+03  0.7546771E-02  0.1159647E+00
         21   -1    0    0  503  502  0.00000000000E+00  0.00000000000E+00  0.25742734563E+03  0.25742734563E+03  0.00000000000E+00 0. -1.
         21   -1    0    0  501  503 -0.00000000000E+00 -0.00000000000E+00 -0.24914364271E+03  0.24914364271E+03  0.00000000000E+00 0. -1.
          6    1    1    2  501    0  0.50586015263E+02 -0.55825051642E+02 -0.16479493231E+03  0.25052295513E+03  0.17300000000E+03 0. -1.
         -6    1    1    2    0  502 -0.50586015263E+02  0.55825051642E+02  0.17307863524E+03  0.25604803320E+03  0.17300000000E+03 0. -1.
<mgrwt>
<rscale>  2 0.18869123E+03</rscale>
<asrwt>0</asrwt>
<pdfrwt beam="1">  1       21 0.39604207E-01 0.18869123E+03</pdfrwt>
<pdfrwt beam="2">  1       21 0.38329791E-01 0.18869123E+03</pdfrwt>
<totfact> 0.40418856E+04</totfact>
</mgrwt>
</event>
<event>
 4    2  0.4086940E+000  0.2151277E+03  0.7546771E-02  0.1137569E+00
         21   -1    0    0  501  502  0.00000000000E+00  0.00000000000E+00  0.18835490285E+03  0.18835490285E+03  0.00000000000E+00 0.  1.
         21   -1    0    0  502  503 -0.00000000000E+00 -0.00000000000E+00 -0.35018165045E+03  0.35018165045E+03  0.00000000000E+00 0. -1.
          6    1    1    2  501    0  0.10714991767E+02  0.12742105745E+03  0.66164031949E+02  0.22507246845E+03  0.17300000000E+03 0.  1.
         -6    1    1    2    0  503 -0.10714991767E+02 -0.12742105745E+03 -0.22799077954E+03  0.31346408485E+03  0.17300000000E+03 0. -1.
<mgrwt>
<rscale>  2 0.21512772E+03</rscale>
<asrwt>0</asrwt>
<pdfrwt beam="1">  1       21 0.28977677E-01 0.21512772E+03</pdfrwt>
<pdfrwt beam="2">  1       21 0.53874100E-01 0.21512772E+03</pdfrwt>
<totfact> 0.36716853E+04</totfact>
</mgrwt>
</event>
<event>
 4    2  0.4086940E+000  0.1913339E+03  0.7546771E-02  0.1157264E+00
         21   -1    0    0  501  502  0.00000000000E+00  0.00000000000E+00  0.13219085339E+03  0.13219085339E+03  0.00000000000E+00 0.  1.
         21   -1    0    0  502  503 -0.00000000000E+00 -0.00000000000E+00 -0.37466168329E+03  0.37466168329E+03  0.00000000000E+00 0. -1.
          6    1    1    2  501    0  0.33632206944E+02 -0.74488578118E+02 -0.25066449105E+03  0.31534324266E+03  0.17300000000E+03 0. -1.
         -6    1    1    2    0  503 -0.33632206944E+02  0.74488578118E+02  0.81936611484E+01  0.19150929402E+03  0.17300000000E+03 0.  1.
<mgrwt>
<rscale>  2 0.19133393E+03</rscale>
<asrwt>0</asrwt>
<pdfrwt beam="1">  1       21 0.20337055E-01 0.19133393E+03</pdfrwt>
<pdfrwt beam="2">  1       21 0.57640258E-01 0.19133393E+03</pdfrwt>
<totfact> 0.63210726E+04</totfact>
</mgrwt>
</event>
<event>
 4    2  0.4086940E+000  0.1799239E+03  0.7546771E-02  0.1167877E+00
         21   -1    0    0  503  502  0.00000000000E+00  0.00000000000E+00  0.63953860391E+02  0.63953860391E+02  0.00000000000E+00 0.  1.
         21   -1    0    0  501  503 -0.00000000000E+00 -0.00000000000E+00 -0.77316747028E+03  0.77316747028E+03  0.00000000000E+00 0.  1.
          6    1    1    2  501    0 -0.49137985417E+02  0.53904640960E+01 -0.60056514365E+03  0.62693786812E+03  0.17300000000E+03 0.  1.
         -6    1    1    2    0  502  0.49137985417E+02 -0.53904640960E+01 -0.10864846624E+03  0.21018346255E+03  0.17300000000E+03 0.  1.
<mgrwt>
<rscale>  2 0.17992387E+03</rscale>
<asrwt>0</asrwt>
<pdfrwt beam="1">  1       21 0.98390561E-02 0.17992387E+03</pdfrwt>
<pdfrwt beam="2">  1       21 0.11894883E+00 0.17992387E+03</pdfrwt>
<totfact> 0.45375767E+04</totfact>
</mgrwt>
</event>
<event>
 4    2  0.4086940E+000  0.2027578E+03  0.7546771E-02  0.1147433E+00
         21   -1    0    0  503  502  0.00000000000E+00  0.00000000000E+00  0.11089302396E+03  0.11089302396E+03  0.00000000000E+00 0.  1.
         21   -1    0    0  501  503 -0.00000000000E+00 -0.00000000000E+00 -0.41309643364E+03  0.41309643364E+03  0.00000000000E+00 0.  1.
          6    1    1    2  501    0 -0.44623253837E+02 -0.95867144977E+02 -0.67193053764E+02  0.21360161690E+03  0.17300000000E+03 0.  1.
         -6    1    1    2    0  502  0.44623253837E+02  0.95867144977E+02 -0.23501035591E+03  0.31038784070E+03  0.17300000000E+03 0.  1.
<mgrwt>
<rscale>  2 0.20275785E+03</rscale>
<asrwt>0</asrwt>
<pdfrwt beam="1">  1       21 0.17060465E-01 0.20275785E+03</pdfrwt>
<pdfrwt beam="2">  1       21 0.63553298E-01 0.20275785E+03</pdfrwt>
<totfact> 0.70612854E+04</totfact>
</mgrwt>
</event>
<event>
 4    2  0.4086940E+000  0.1869691E+03  0.7546771E-02  0.1161224E+00
         21   -1    0    0  503  502  0.00000000000E+00  0.00000000000E+00  0.12682491008E+03  0.12682491008E+03  0.00000000000E+00 0.  1.
         21   -1    0    0  501  503 -0.00000000000E+00 -0.00000000000E+00 -0.27643985981E+03  0.27643985981E+03  0.00000000000E+00 0.  1.
          6    1    1    2  501    0  0.58385212343E+02 -0.40244290834E+02 -0.85684489029E+02  0.20566785754E+03  0.17300000000E+03 0.  1.
         -6    1    1    2    0  502 -0.58385212343E+02  0.40244290834E+02 -0.63930460704E+02  0.19759691235E+03  0.17300000000E+03 0.  1.
<mgrwt>
<rscale>  2 0.18696908E+03</rscale>
<asrwt>0</asrwt>
<pdfrwt beam="1">  1       21 0.19511525E-01 0.18696908E+03</pdfrwt>
<pdfrwt beam="2">  1       21 0.42529209E-01 0.18696908E+03</pdfrwt>
<totfact> 0.12882438E+05</totfact>
</mgrwt>
</event>
<event>
 4    2  0.4086940E+000  0.1995565E+03  0.7546771E-02  0.1150114E+00
         21   -1    0    0  503  502  0.00000000000E+00  0.00000000000E+00  0.25337897038E+03  0.25337897038E+03  0.00000000000E+00 0. -1.
         21   -1    0    0  501  503 -0.00000000000E+00 -0.00000000000E+00 -0.15786501324E+03  0.15786501324E+03  0.00000000000E+00 0.  1.
          6    1    1    2  501    0  0.85655198529E+02 -0.50566709415E+02  0.61430099584E+02  0.20879765868E+03  0.17300000000E+03 0. -1.
         -6    1    1    2    0  502 -0.85655198529E+02  0.50566709415E+02  0.34083857561E+02  0.20244632494E+03  0.17300000000E+03 0.  1.
<mgrwt>
<rscale>  2 0.19955652E+03</rscale>
<asrwt>0</asrwt>
<pdfrwt beam="1">  1       21 0.38981380E-01 0.19955652E+03</pdfrwt>
<pdfrwt beam="2">  1       21 0.24286925E-01 0.19955652E+03</pdfrwt>
<totfact> 0.10127823E+05</totfact>
</mgrwt>
</event>
<event>
 4    2  0.4086940E+000  0.1850042E+03  0.7546771E-02  0.1163046E+00
         21   -1    0    0  503  502  0.00000000000E+00  0.00000000000E+00  0.14682762073E+03  0.14682762073E+03  0.00000000000E+00 0. -1.
         21   -1    0    0  501  503 -0.00000000000E+00 -0.00000000000E+00 -0.66219870428E+03  0.66219870428E+03  0.00000000000E+00 0.  1.
          6    1    1    2  501    0 -0.48161899520E+02 -0.44474393009E+02 -0.58330741789E+03  0.61194287639E+03  0.17300000000E+03 0.  1.
         -6    1    1    2    0  502  0.48161899520E+02  0.44474393009E+02  0.67936334339E+02  0.19708344863E+03  0.17300000000E+03 0. -1.
<mgrwt>
<rscale>  2 0.18500416E+03</rscale>
<asrwt>0</asrwt>
<pdfrwt beam="1">  1       21 0.22588865E-01 0.18500416E+03</pdfrwt>
<pdfrwt beam="2">  1       21 0.10187672E+00 0.18500416E+03</pdfrwt>
<totfact> 0.14496072E+04</totfact>
</mgrwt>
</event>
<event>
 4    2  0.4086940E+000  0.1824061E+03  0.7546771E-02  0.1165495E+00
         21   -1    0    0  501  502  0.00000000000E+00  0.00000000000E+00  0.11350168273E+03  0.11350168273E+03  0.00000000000E+00 0. -1.
         21   -1    0    0  502  503 -0.00000000000E+00 -0.00000000000E+00 -0.29314340507E+03  0.29314340507E+03  0.00000000000E+00 0. -1.
          6    1    1    2  501    0 -0.57204057146E+02 -0.84069808927E+01 -0.90419337437E+02  0.20358692999E+03  0.17300000000E+03 0. -1.
         -6    1    1    2    0  503  0.57204057146E+02  0.84069808927E+01 -0.89222384910E+02  0.20305815780E+03  0.17300000000E+03 0. -1.
<mgrwt>
<rscale>  2 0.18240609E+03</rscale>
<asrwt>0</asrwt>
<pdfrwt beam="1">  1       21 0.17461797E-01 0.18240609E+03</pdfrwt>
<pdfrwt beam="2">  1       21 0.45098985E-01 0.18240609E+03</pdfrwt>
<totfact> 0.14055382E+05</totfact>
</mgrwt>
</event>
<event>
 4    2  0.4086940E+000  0.1973982E+03  0.7546771E-02  0.1151953E+00
         21   -1    0    0  503  502  0.00000000000E+00  0.00000000000E+00  0.28308268159E+03  0.28308268159E+03  0.00000000000E+00 0. -1.
         21   -1    0    0  501  503 -0.00000000000E+00 -0.00000000000E+00 -0.22457864460E+03  0.22457864460E+03  0.00000000000E+00 0. -1.
          6    1    1    2  501    0 -0.46966320853E+02 -0.82651209294E+02  0.18717441393E+03  0.27202999637E+03  0.17300000000E+03 0. -1.
         -6    1    1    2    0  502  0.46966320853E+02  0.82651209294E+02 -0.12867037695E+03  0.23563132983E+03  0.17300000000E+03 0. -1.
<mgrwt>
<rscale>  2 0.19739822E+03</rscale>
<asrwt>0</asrwt>
<pdfrwt beam="1">  1       21 0.43551182E-01 0.19739822E+03</pdfrwt>
<pdfrwt beam="2">  1       21 0.34550561E-01 0.19739822E+03</pdfrwt>
<totfact> 0.40812939E+04</totfact>
</mgrwt>
</event>
<event>
 4    2  0.4086940E+000  0.1801876E+03  0.7546771E-02  0.1167622E+00
         21   -1    0    0  503  502  0.00000000000E+00  0.00000000000E+00  0.28705831339E+03  0.28705831339E+03  0.00000000000E+00 0. -1.
         21   -1    0    0  501  503 -0.00000000000E+00 -0.00000000000E+00 -0.11792307027E+03  0.11792307027E+03  0.00000000000E+00 0. -1.
          6    1    1    2  501    0  0.18942326470E+02 -0.46687934223E+02  0.43635272504E+02  0.18539582504E+03  0.17300000000E+03 0. -1.
         -6    1    1    2    0  502 -0.18942326470E+02  0.46687934223E+02  0.12549997061E+03  0.21958555863E+03  0.17300000000E+03 0. -1.
<mgrwt>
<rscale>  2 0.18018761E+03</rscale>
<asrwt>0</asrwt>
<pdfrwt beam="1">  1       21 0.44162817E-01 0.18018761E+03</pdfrwt>
<pdfrwt beam="2">  1       21 0.18142011E-01 0.18018761E+03</pdfrwt>
<totfact> 0.13684087E+05</totfact>
</mgrwt>
</event>
<event>
 4    2  0.4086940E+000  0.2265434E+03  0.7546771E-02  0.1129097E+00
         21   -1    0    0  501  502  0.00000000000E+00  0.00000000000E+00  0.81670663891E+02  0.81670663891E+02  0.00000000000E+00 0.  1.
         21   -1    0    0  502  503 -0.00000000000E+00 -0.00000000000E+00 -0.76842654534E+03  0.76842654534E+03  0.00000000000E+00 0. -1.
          6    1    1    2  501    0  0.87242429213E+02  0.11739527891E+03 -0.16193432356E+03  0.27846834311E+03  0.17300000000E+03 0.  1.
         -6    1    1    2    0  503 -0.87242429213E+02 -0.11739527891E+03 -0.52482155789E+03  0.57162886612E+03  0.17300000000E+03 0. -1.
<mgrwt>
<rscale>  2 0.22654336E+03</rscale>
<asrwt>0</asrwt>
<pdfrwt beam="1">  1       21 0.12564718E-01 0.22654336E+03</pdfrwt>
<pdfrwt beam="2">  1       21 0.11821947E+00 0.22654336E+03</pdfrwt>
<totfact> 0.29049980E+04</totfact>
</mgrwt>
</event>
<event>
 4    2  0.4086940E+000  0.2277532E+03  0.7546771E-02  0.1128231E+00
         21   -1    0    0  503  502  0.00000000000E+00  0.00000000000E+00  0.82131497195E+03  0.82131497195E+03  0.00000000000E+00 0.  1.
         21   -1    0    0  501  503 -0.00000000000E+00 -0.00000000000E+00 -0.72884773242E+02  0.72884773242E+02  0.00000000000E+00 0.  1.
          6    1    1    2  501    0 -0.30145212633E+00  0.14812973917E+03  0.21087212872E+03  0.31038454403E+03  0.17300000000E+03 0.  1.
         -6    1    1    2    0  502  0.30145212633E+00 -0.14812973917E+03  0.53755806998E+03  0.58381520116E+03  0.17300000000E+03 0.  1.
<mgrwt>
<rscale>  2 0.22775318E+03</rscale>
<asrwt>0</asrwt>
<pdfrwt beam="1">  1       21 0.12635614E+00 0.22775318E+03</pdfrwt>
<pdfrwt beam="2">  1       21 0.11213043E-01 0.22775318E+03</pdfrwt>
<totfact> 0.30143059E+04</totfact>
</mgrwt>
</event>
<event>
 4    2  0.4086940E+000  0.2324503E+03  0.7546771E-02  0.1124927E+00
         21   -1    0    0  503  502  0.00000000000E+00  0.00000000000E+00  0.41204379255E+03  0.41204379255E+03  0.00000000000E+00 0.  1.
         21   -1    0    0  501  503 -0.00000000000E+00 -0.00000000000E+00 -0.23712909797E+03  0.23712909797E+03  0.00000000000E+00 0.  1.
          6    1    1    2  501    0 -0.82521582546E+02 -0.13150790404E+03 -0.12955273024E+03  0.26611473150E+03  0.17300000000E+03 0.  1.
         -6    1    1    2    0  502  0.82521582546E+02  0.13150790404E+03  0.30446742482E+03  0.38305815901E+03  0.17300000000E+03 0.  1.
<mgrwt>
<rscale>  2 0.23245030E+03</rscale>
<asrwt>0</asrwt>
<pdfrwt beam="1">  1       21 0.63391353E-01 0.23245030E+03</pdfrwt>
<pdfrwt beam="2">  1       21 0.36481400E-01 0.23245030E+03</pdfrwt>
<totfact> 0.16287596E+04</totfact>
</mgrwt>
</event>
<event>
 4    2  0.4086940E+000  0.2643643E+03  0.7546771E-02  0.1104549E+00
         21   -1    0    0  501  502  0.00000000000E+00  0.00000000000E+00  0.35563955252E+03  0.35563955252E+03  0.00000000000E+00 0. -1.
         21   -1    0    0  502  503 -0.00000000000E+00 -0.00000000000E+00 -0.19662220294E+03  0.19662220294E+03  0.00000000000E+00 0. -1.
          6    1    1    2  501    0  0.19799654011E+03  0.27510974353E+02  0.85958282900E+02  0.27798796737E+03  0.17300000000E+03 0. -1.
         -6    1    1    2    0  503 -0.19799654011E+03 -0.27510974353E+02  0.73059066684E+02  0.27427378808E+03  0.17300000000E+03 0. -1.
<mgrwt>
<rscale>  2 0.26436430E+03</rscale>
<asrwt>0</asrwt>
<pdfrwt beam="1">  1       21 0.54713777E-01 0.26436430E+03</pdfrwt>
<pdfrwt beam="2">  1       21 0.30249570E-01 0.26436430E+03</pdfrwt>
<totfact> 0.31950656E+04</totfact>
</mgrwt>
</event>
<event>
 4    2  0.4086940E+000  0.1940815E+03  0.7546771E-02  0.1154831E+00
         21   -1    0    0  501  502  0.00000000000E+00  0.00000000000E+00  0.13062775660E+04  0.13062775660E+04  0.00000000000E+00 0.  1.
         21   -1    0    0  502  503 -0.00000000000E+00 -0.00000000000E+00 -0.51086131920E+02  0.51086131920E+02  0.00000000000E+00 0. -1.
          6    1    1    2  501    0  0.86372346027E+02 -0.16687158627E+02  0.10754970322E+04  0.10928684778E+04  0.17300000000E+03 0.  1.
         -6    1    1    2    0  503 -0.86372346027E+02  0.16687158627E+02  0.17969440190E+03  0.26449522018E+03  0.17300000000E+03 0. -1.
<mgrwt>
<rscale>  2 0.19408154E+03</rscale>
<asrwt>0</asrwt>
<pdfrwt beam="1">  1       21 0.20096575E+00 0.19408154E+03</pdfrwt>
<pdfrwt beam="2">  1       21 0.78594059E-02 0.19408154E+03</pdfrwt>
<totfact> 0.16364065E+04</totfact>
</mgrwt>
</event>
<event>
 4    2  0.4086940E+000  0.1825278E+03  0.7546771E-02  0.1165379E+00
         21   -1    0    0  501  502  0.00000000000E+00  0.00000000000E+00  0.33417263351E+03  0.33417263351E+03  0.00000000000E+00 0. -1.
         21   -1    0    0  502  503 -0.00000000000E+00 -0.00000000000E+00 -0.10667481683E+03  0.10667481683E+03  0.00000000000E+00 0. -1.
          6    1    1    2  501    0 -0.57504001604E+02 -0.89825091821E+01  0.17011931395E+03  0.24951347990E+03  0.17300000000E+03 0.  1.
         -6    1    1    2    0  503  0.57504001604E+02  0.89825091821E+01  0.57378502732E+02  0.19133397045E+03  0.17300000000E+03 0.  1.
<mgrwt>
<rscale>  2 0.18252779E+03</rscale>
<asrwt>0</asrwt>
<pdfrwt beam="1">  1       21 0.51411174E-01 0.18252779E+03</pdfrwt>
<pdfrwt beam="2">  1       21 0.16411510E-01 0.18252779E+03</pdfrwt>
<totfact> 0.12008657E+05</totfact>
</mgrwt>
</event>
<event>
 4    2  0.4086940E+000  0.1749984E+03  0.7546771E-02  0.1172733E+00
         21   -1    0    0  503  502  0.00000000000E+00  0.00000000000E+00  0.48307422027E+02  0.48307422027E+02  0.00000000000E+00 0. -1.
         21   -1    0    0  501  503 -0.00000000000E+00 -0.00000000000E+00 -0.67933953373E+03  0.67933953373E+03  0.00000000000E+00 0. -1.
          6    1    1    2  501    0 -0.18618051764E+02 -0.18676671964E+02 -0.40955962975E+03  0.44538021987E+03  0.17300000000E+03 0. -1.
         -6    1    1    2    0  502  0.18618051764E+02  0.18676671964E+02 -0.22147248195E+03  0.28226673589E+03  0.17300000000E+03 0. -1.
<mgrwt>
<rscale>  2 0.17499843E+03</rscale>
<asrwt>0</asrwt>
<pdfrwt beam="1">  1       21 0.74319118E-02 0.17499843E+03</pdfrwt>
<pdfrwt beam="2">  1       21 0.10451376E+00 0.17499843E+03</pdfrwt>
<totfact> 0.10150387E+05</totfact>
</mgrwt>
</event>
<event>
 4    2  0.4086940E+000  0.1864764E+03  0.7546771E-02  0.1161678E+00
         21   -1    0    0  503  502  0.00000000000E+00  0.00000000000E+00  0.67072560442E+03  0.67072560442E+03  0.00000000000E+00 0. -1.
         21   -1    0    0  501  503 -0.00000000000E+00 -0.00000000000E+00 -0.52899204743E+02  0.52899204743E+02  0.00000000000E+00 0.  1.
          6    1    1    2  501    0  0.61784312015E+02  0.32048868730E+02  0.25782447451E+03  0.31819316594E+03  0.17300000000E+03 0.  1.
         -6    1    1    2    0  502 -0.61784312015E+02 -0.32048868730E+02  0.36000192517E+03  0.40543164322E+03  0.17300000000E+03 0. -1.
<mgrwt>
<rscale>  2 0.18647636E+03</rscale>
<asrwt>0</asrwt>
<pdfrwt beam="1">  1       21 0.10318855E+00 0.18647636E+03</pdfrwt>
<pdfrwt beam="2">  1       21 0.81383397E-02 0.18647636E+03</pdfrwt>
<totfact> 0.88955154E+04</totfact>
</mgrwt>
</event>
<event>
 4    2  0.4086940E+000  0.1801624E+03  0.7546771E-02  0.1167646E+00
         21   -1    0    0  501  502  0.00000000000E+00  0.00000000000E+00  0.12703592264E+03  0.12703592264E+03  0.00000000000E+00 0. -1.
         21   -1    0    0  502  503 -0.00000000000E+00 -0.00000000000E+00 -0.32947221189E+03  0.32947221189E+03  0.00000000000E+00 0. -1.
          6    1    1    2  501    0  0.49889225428E+02 -0.63683887332E+01  0.69313875817E+01  0.18029568859E+03  0.17300000000E+03 0. -1.
         -6    1    1    2    0  503 -0.49889225428E+02  0.63683887332E+01 -0.20936767683E+03  0.27621244594E+03  0.17300000000E+03 0. -1.
<mgrwt>
<rscale>  2 0.18016240E+03</rscale>
<asrwt>0</asrwt>
<pdfrwt beam="1">  1       21 0.19543988E-01 0.18016240E+03</pdfrwt>
<pdfrwt beam="2">  1       21 0.50688032E-01 0.18016240E+03</pdfrwt>
<totfact> 0.89681424E+04</totfact>
</mgrwt>
</event>
<event>
 4    2  0.4086940E+000  0.1887963E+03  0.7546771E-02  0.1159551E+00
         21   -1    0    0  501  502  0.00000000000E+00  0.00000000000E+00  0.44074806764E+02  0.44074806764E+02  0.00000000000E+00 0. -1.
         21   -1    0    0  502  503 -0.00000000000E+00 -0.00000000000E+00 -0.81092570932E+03  0.81092570932E+03  0.00000000000E+00 0. -1.
          6    1    1    2  501    0  0.75429947992E+02  0.50374933223E+01 -0.36111555630E+03  0.40749048872E+03  0.17300000000E+03 0. -1.
         -6    1    1    2    0  503 -0.75429947992E+02 -0.50374933223E+01 -0.40573534626E+03  0.44751002737E+03  0.17300000000E+03 0. -1.
<mgrwt>
<rscale>  2 0.18879633E+03</rscale>
<asrwt>0</asrwt>
<pdfrwt beam="1">  1       21 0.67807398E-02 0.18879633E+03</pdfrwt>
<pdfrwt beam="2">  1       21 0.12475780E+00 0.18879633E+03</pdfrwt>
<totfact> 0.76741218E+04</totfact>
</mgrwt>
</event>
<event>
 4    2  0.4086940E+000  0.2676612E+03  0.7546771E-02  0.1102626E+00
         21   -1    0    0  501  502  0.00000000000E+00  0.00000000000E+00  0.13324129957E+04  0.13324129957E+04  0.00000000000E+00 0.  1.
         21   -1    0    0  502  503 -0.00000000000E+00 -0.00000000000E+00 -0.65745014217E+02  0.65745014217E+02  0.00000000000E+00 0. -1.
          6    1    1    2  501    0 -0.17657549461E+03  0.10263813202E+03  0.93170135031E+03  0.96938635106E+03  0.17300000000E+03 0. -1.
         -6    1    1    2    0  503  0.17657549461E+03 -0.10263813202E+03  0.33496663114E+03  0.42877165883E+03  0.17300000000E+03 0.  1.
<mgrwt>
<rscale>  2 0.26766115E+03</rscale>
<asrwt>0</asrwt>
<pdfrwt beam="1">  1       21 0.20498659E+00 0.26766115E+03</pdfrwt>
<pdfrwt beam="2">  1       21 0.10114619E-01 0.26766115E+03</pdfrwt>
<totfact> 0.93859721E+03</totfact>
</mgrwt>
</event>
<event>
 4    2  0.4086940E+000  0.2064547E+03  0.7546771E-02  0.1144405E+00
         21   -1    0    0  501  502  0.00000000000E+00  0.00000000000E+00  0.40188443931E+03  0.40188443931E+03  0.00000000000E+00 0.  1.
         21   -1    0    0  502  503 -0.00000000000E+00 -0.00000000000E+00 -0.30362991055E+03  0.30362991055E+03  0.00000000000E+00 0.  1.
          6    1    1    2  501    0  0.45842374819E+02 -0.10292242456E+03  0.33368136121E+03  0.39238603393E+03  0.17300000000E+03 0.  1.
         -6    1    1    2    0  503 -0.45842374819E+02  0.10292242456E+03 -0.23542683244E+03  0.31312831594E+03  0.17300000000E+03 0.  1.
<mgrwt>
<rscale>  2 0.20645471E+03</rscale>
<asrwt>0</asrwt>
<pdfrwt beam="1">  1       21 0.61828375E-01 0.20645471E+03</pdfrwt>
<pdfrwt beam="2">  1       21 0.46712294E-01 0.20645471E+03</pdfrwt>
<totfact> 0.10559205E+04</totfact>
</mgrwt>
</event>
<event>
 4    2  0.4086940E+000  0.1908708E+03  0.7546771E-02  0.1157678E+00
         21   -1    0    0  503  502  0.00000000000E+00  0.00000000000E+00  0.93942624523E+02  0.93942624523E+02  0.00000000000E+00 0. -1.
         21   -1    0    0  501  503 -0.00000000000E+00 -0.00000000000E+00 -0.87551065046E+03  0.87551065046E+03  0.00000000000E+00 0.  1.
          6    1    1    2  501    0  0.66221280666E+02  0.46015187662E+02 -0.75256350507E+03  0.77639132187E+03  0.17300000000E+03 0.  1.
         -6    1    1    2    0  502 -0.66221280666E+02 -0.46015187662E+02 -0.29004520863E+02  0.19306195311E+03  0.17300000000E+03 0. -1.
<mgrwt>
<rscale>  2 0.19087078E+03</rscale>
<asrwt>0</asrwt>
<pdfrwt beam="1">  1       21 0.14452711E-01 0.19087078E+03</pdfrwt>
<pdfrwt beam="2">  1       21 0.13469395E+00 0.19087078E+03</pdfrwt>
<totfact> 0.16603486E+04</totfact>
</mgrwt>
</event>
<event>
 4    2  0.4086940E+000  0.2222028E+03  0.7546771E-02  0.1132251E+00
         21   -1    0    0  501  502  0.00000000000E+00  0.00000000000E+00  0.35086207113E+03  0.35086207113E+03  0.00000000000E+00 0. -1.
         21   -1    0    0  502  503 -0.00000000000E+00 -0.00000000000E+00 -0.25358570853E+03  0.25358570853E+03  0.00000000000E+00 0.  1.
          6    1    1    2  501    0 -0.13899524511E+03 -0.11197690245E+02  0.25026266379E+03  0.33467217888E+03  0.17300000000E+03 0. -1.
         -6    1    1    2    0  503  0.13899524511E+03  0.11197690245E+02 -0.15298630119E+03  0.26977560079E+03  0.17300000000E+03 0.  1.
<mgrwt>
<rscale>  2 0.22220276E+03</rscale>
<asrwt>0</asrwt>
<pdfrwt beam="1">  1       21 0.53978780E-01 0.22220276E+03</pdfrwt>
<pdfrwt beam="2">  1       21 0.39013186E-01 0.22220276E+03</pdfrwt>
<totfact> 0.20208609E+04</totfact>
</mgrwt>
</event>
<event>
 4    2  0.4086940E+000  0.2198162E+03  0.7546771E-02  0.1134020E+00
         21   -1    0    0  503  502  0.00000000000E+00  0.00000000000E+00  0.19775145095E+02  0.19775145095E+02  0.00000000000E+00 0. -1.
         21   -1    0    0  501  503 -0.00000000000E+00 -0.00000000000E+00 -0.24690710372E+04  0.24690710372E+04  0.00000000000E+00 0. -1.
          6    1    1    2  501    0 -0.12429556037E+03 -0.54228739190E+02 -0.10978283632E+04  0.11196188001E+04  0.17300000000E+03 0. -1.
         -6    1    1    2    0  502  0.12429556037E+03  0.54228739190E+02 -0.13514675289E+04  0.13692273822E+04  0.17300000000E+03 0. -1.
<mgrwt>
<rscale>  2 0.21981616E+03</rscale>
<asrwt>0</asrwt>
<pdfrwt beam="1">  1       21 0.30423302E-02 0.21981616E+03</pdfrwt>
<pdfrwt beam="2">  1       21 0.37985706E+00 0.21981616E+03</pdfrwt>
<totfact> 0.69308770E+03</totfact>
</mgrwt>
</event>
<event>
 4    2  0.4086940E+000  0.5000160E+03  0.7546771E-02  0.1013775E+00
         21   -1    0    0  501  502  0.00000000000E+00  0.00000000000E+00  0.97700814425E+02  0.97700814425E+02  0.00000000000E+00 0. -1.
         21   -1    0    0  502  503 -0.00000000000E+00 -0.00000000000E+00 -0.26088624872E+04  0.26088624872E+04  0.00000000000E+00 0.  1.
          6    1    1    2  501    0  0.32623521574E+03  0.33713138950E+03 -0.10684836983E+04  0.11796920799E+04  0.17300000000E+03 0.  1.
         -6    1    1    2    0  503 -0.32623521574E+03 -0.33713138950E+03 -0.14426779744E+04  0.15268712217E+04  0.17300000000E+03 0. -1.
<mgrwt>
<rscale>  2 0.50001599E+03</rscale>
<asrwt>0</asrwt>
<pdfrwt beam="1">  1       21 0.15030895E-01 0.50001599E+03</pdfrwt>
<pdfrwt beam="2">  1       21 0.40136344E+00 0.50001599E+03</pdfrwt>
<totfact> 0.24790352E+02</totfact>
</mgrwt>
</event>
<event>
 4    2  0.4086940E+000  0.1757951E+03  0.7546771E-02  0.1171936E+00
         21   -1    0    0  503  502  0.00000000000E+00  0.00000000000E+00  0.31505353590E+03  0.31505353590E+03  0.00000000000E+00 0. -1.
         21   -1    0    0  501  503 -0.00000000000E+00 -0.00000000000E+00 -0.22213640466E+03  0.22213640466E+03  0.00000000000E+00 0. -1.
          6    1    1    2  501    0  0.29025149766E+01 -0.31088359800E+02 -0.15425576355E+03  0.23387764172E+03  0.17300000000E+03 0. -1.
         -6    1    1    2    0  502 -0.29025149766E+01  0.31088359800E+02  0.24717289479E+03  0.30331229884E+03  0.17300000000E+03 0. -1.
<mgrwt>
<rscale>  2 0.17579508E+03</rscale>
<asrwt>0</asrwt>
<pdfrwt beam="1">  1       21 0.48469775E-01 0.17579508E+03</pdfrwt>
<pdfrwt beam="2">  1       21 0.34174832E-01 0.17579508E+03</pdfrwt>
<totfact> 0.33837974E+04</totfact>
</mgrwt>
</event>
<event>
 4    2  0.4086940E+000  0.1848014E+03  0.7546771E-02  0.1163236E+00
         21   -1    0    0  501  502  0.00000000000E+00  0.00000000000E+00  0.12041879897E+04  0.12041879897E+04  0.00000000000E+00 0.  1.
         21   -1    0    0  502  503 -0.00000000000E+00 -0.00000000000E+00 -0.95677110802E+02  0.95677110802E+02  0.00000000000E+00 0.  1.
          6    1    1    2  501    0 -0.64504971480E+02  0.78520162741E+01  0.90942601956E+01  0.18502500121E+03  0.17300000000E+03 0.  1.
         -6    1    1    2    0  503  0.64504971480E+02 -0.78520162741E+01  0.10994166187E+04  0.11148400993E+04  0.17300000000E+03 0.  1.
<mgrwt>
<rscale>  2 0.18480137E+03</rscale>
<asrwt>0</asrwt>
<pdfrwt beam="1">  1       21 0.18525968E+00 0.18480137E+03</pdfrwt>
<pdfrwt beam="2">  1       21 0.14719556E-01 0.18480137E+03</pdfrwt>
<totfact> 0.68545655E+03</totfact>
</mgrwt>
</event>
<event>
 4    2  0.4086940E+000  0.1869444E+03  0.7546771E-02  0.1161246E+00
         21   -1    0    0  503  502  0.00000000000E+00  0.00000000000E+00  0.17176633602E+04  0.17176633602E+04  0.00000000000E+00 0.  1.
         21   -1    0    0  501  503 -0.00000000000E+00 -0.00000000000E+00 -0.26391640105E+02  0.26391640105E+02  0.00000000000E+00 0.  1.
          6    1    1    2  501    0  0.59768674033E+02  0.38038482912E+02  0.42828173162E+03  0.46730446415E+03  0.17300000000E+03 0.  1.
         -6    1    1    2    0  502 -0.59768674033E+02 -0.38038482912E+02  0.12629899885E+04  0.12767505361E+04  0.17300000000E+03 0.  1.
<mgrwt>
<rscale>  2 0.18694443E+03</rscale>
<asrwt>0</asrwt>
<pdfrwt beam="1">  1       21 0.26425581E+00 0.18694443E+03</pdfrwt>
<pdfrwt beam="2">  1       21 0.40602537E-02 0.18694443E+03</pdfrwt>
<totfact> 0.21085444E+04</totfact>
</mgrwt>
</event>
<event>
 4    2  0.4086940E+000  0.2316679E+03  0.7546771E-02  0.1125471E+00
         21   -1    0    0  501  502  0.00000000000E+00  0.00000000000E+00  0.13211655139E+04  0.13211655139E+04  0.00000000000E+00 0.  1.
         21   -1    0    0  502  503 -0.00000000000E+00 -0.00000000000E+00 -0.63681479179E+02  0.63681479179E+02  0.00000000000E+00 0.  1.
          6    1    1    2  501    0  0.12659801593E+03 -0.87829228855E+02  0.10453985958E+04  0.10707605966E+04  0.17300000000E+03 0.  1.
         -6    1    1    2    0  503 -0.12659801593E+03  0.87829228855E+02  0.21208543898E+03  0.31408639657E+03  0.17300000000E+03 0.  1.
<mgrwt>
<rscale>  2 0.23166793E+03</rscale>
<asrwt>0</asrwt>
<pdfrwt beam="1">  1       21 0.20325621E+00 0.23166793E+03</pdfrwt>
<pdfrwt beam="2">  1       21 0.97971516E-02 0.23166793E+03</pdfrwt>
<totfact> 0.10440127E+04</totfact>
</mgrwt>
</event>
<event>
 4    2  0.4086940E+000  0.1998680E+03  0.7546771E-02  0.1149850E+00
         21   -1    0    0  501  502  0.00000000000E+00  0.00000000000E+00  0.78117543217E+02  0.78117543217E+02  0.00000000000E+00 0. -1.
         21   -1    0    0  502  503 -0.00000000000E+00 -0.00000000000E+00 -0.54567876218E+03  0.54567876218E+03  0.00000000000E+00 0. -1.
          6    1    1    2  501    0  0.23569725146E+02 -0.97276374400E+02 -0.31198407293E+03  0.37051489406E+03  0.17300000000E+03 0. -1.
         -6    1    1    2    0  503 -0.23569725146E+02  0.97276374400E+02 -0.15557714603E+03  0.25328141133E+03  0.17300000000E+03 0. -1.
<mgrwt>
<rscale>  2 0.19986802E+03</rscale>
<asrwt>0</asrwt>
<pdfrwt beam="1">  1       21 0.12018083E-01 0.19986802E+03</pdfrwt>
<pdfrwt beam="2">  1       21 0.83950579E-01 0.19986802E+03</pdfrwt>
<totfact> 0.71907013E+04</totfact>
</mgrwt>
</event>
<event>
 4    2  0.4086940E+000  0.1916961E+03  0.7546771E-02  0.1156940E+00
         21   -1    0    0  503  502  0.00000000000E+00  0.00000000000E+00  0.13630276360E+03  0.13630276360E+03  0.00000000000E+00 0.  1.
         21   -1    0    0  501  503 -0.00000000000E+00 -0.00000000000E+00 -0.44473845113E+03  0.44473845113E+03  0.00000000000E+00 0.  1.
          6    1    1    2  501    0 -0.27659426897E+01  0.82527202275E+02 -0.33652925794E+03  0.38729747095E+03  0.17300000000E+03 0.  1.
         -6    1    1    2    0  502  0.27659426897E+01 -0.82527202275E+02  0.28093570407E+02  0.19374374378E+03  0.17300000000E+03 0.  1.
<mgrwt>
<rscale>  2 0.19169609E+03</rscale>
<asrwt>0</asrwt>
<pdfrwt beam="1">  1       21 0.20969656E-01 0.19169609E+03</pdfrwt>
<pdfrwt beam="2">  1       21 0.68421300E-01 0.19169609E+03</pdfrwt>
<totfact> 0.41179703E+04</totfact>
</mgrwt>
</event>
<event>
 4    2  0.4086940E+000  0.2194245E+03  0.7546771E-02  0.1134313E+00
         21   -1    0    0  501  502  0.00000000000E+00  0.00000000000E+00  0.62556309322E+02  0.62556309322E+02  0.00000000000E+00 0. -1.
         21   -1    0    0  502  503 -0.00000000000E+00 -0.00000000000E+00 -0.79651827210E+03  0.79651827210E+03  0.00000000000E+00 0. -1.
          6    1    1    2  501    0 -0.13281287772E+03  0.24059109955E+02 -0.28810578447E+03  0.36214920172E+03  0.17300000000E+03 0. -1.
         -6    1    1    2    0  503  0.13281287772E+03 -0.24059109955E+02 -0.44585617831E+03  0.49692537971E+03  0.17300000000E+03 0. -1.
<mgrwt>
<rscale>  2 0.21942448E+03</rscale>
<asrwt>0</asrwt>
<pdfrwt beam="1">  1       21 0.96240476E-02 0.21942448E+03</pdfrwt>
<pdfrwt beam="2">  1       21 0.12254127E+00 0.21942448E+03</pdfrwt>
<totfact> 0.42901951E+04</totfact>
</mgrwt>
</event>
<event>
 4    2  0.4086940E+000  0.2157356E+03  0.7546771E-02  0.1137103E+00
         21   -1    0    0  501  502  0.00000000000E+00  0.00000000000E+00  0.49059935557E+03  0.49059935557E+03  0.00000000000E+00 0. -1.
         21   -1    0    0  502  503 -0.00000000000E+00 -0.00000000000E+00 -0.32584675383E+03  0.32584675383E+03  0.00000000000E+00 0.  1.
          6    1    1    2  501    0  0.12531271975E+03  0.30158978539E+02  0.42607468737E+03  0.47757876935E+03  0.17300000000E+03 0. -1.
         -6    1    1    2    0  503 -0.12531271975E+03 -0.30158978539E+02 -0.26132208563E+03  0.33886734006E+03  0.17300000000E+03 0.  1.
<mgrwt>
<rscale>  2 0.21573558E+03</rscale>
<asrwt>0</asrwt>
<pdfrwt beam="1">  1       21 0.75476824E-01 0.21573558E+03</pdfrwt>
<pdfrwt beam="2">  1       21 0.50130270E-01 0.21573558E+03</pdfrwt>
<totfact> 0.58400325E+03</totfact>
</mgrwt>
</event>
<event>
 4    2  0.4086940E+000  0.2270584E+03  0.7546771E-02  0.1128727E+00
         21   -1    0    0  503  502  0.00000000000E+00  0.00000000000E+00  0.29940420384E+03  0.29940420384E+03  0.00000000000E+00 0.  1.
         21   -1    0    0  501  503 -0.00000000000E+00 -0.00000000000E+00 -0.21162163311E+03  0.21162163311E+03  0.00000000000E+00 0.  1.
          6    1    1    2  501    0  0.13835770883E+03 -0.49836392624E+02 -0.66398366105E+02  0.23656767456E+03  0.17300000000E+03 0.  1.
         -6    1    1    2    0  502 -0.13835770883E+03  0.49836392624E+02  0.15418093684E+03  0.27445816240E+03  0.17300000000E+03 0.  1.
<mgrwt>
<rscale>  2 0.22705841E+03</rscale>
<asrwt>0</asrwt>
<pdfrwt beam="1">  1       21 0.46062185E-01 0.22705841E+03</pdfrwt>
<pdfrwt beam="2">  1       21 0.32557174E-01 0.22705841E+03</pdfrwt>
<totfact> 0.40318270E+04</totfact>
</mgrwt>
</event>
<event>
 4    2  0.4086940E+000  0.1991022E+03  0.7546771E-02  0.1150499E+00
         21   -1    0    0  503  502  0.00000000000E+00  0.00000000000E+00  0.34736361097E+03  0.34736361097E+03  0.00000000000E+00 0. -1.
         21   -1    0    0  501  503 -0.00000000000E+00 -0.00000000000E+00 -0.25306990960E+03  0.25306990960E+03  0.00000000000E+00 0. -1.
          6    1    1    2  501    0  0.21502488086E+02  0.96178562173E+02 -0.17530775154E+03  0.26528188887E+03  0.17300000000E+03 0. -1.
         -6    1    1    2    0  502 -0.21502488086E+02 -0.96178562173E+02  0.26960145291E+03  0.33515163169E+03  0.17300000000E+03 0. -1.
<mgrwt>
<rscale>  2 0.19910217E+03</rscale>
<asrwt>0</asrwt>
<pdfrwt beam="1">  1       21 0.53440556E-01 0.19910217E+03</pdfrwt>
<pdfrwt beam="2">  1       21 0.38933832E-01 0.19910217E+03</pdfrwt>
<totfact> 0.21001314E+04</totfact>
</mgrwt>
</event>
<event>
 4    2  0.4086940E+000  0.1917602E+03  0.7546771E-02  0.1156883E+00
         21   -1    0    0  501  502  0.00000000000E+00  0.00000000000E+00  0.11390945920E+03  0.11390945920E+03  0.00000000000E+00 0.  1.
         21   -1    0    0  502  503 -0.00000000000E+00 -0.00000000000E+00 -0.55456042027E+03  0.55456042027E+03  0.00000000000E+00 0.  1.
          6    1    1    2  501    0  0.81372224702E+02 -0.14883854025E+02 -0.42623620351E+01  0.19180754884E+03  0.17300000000E+03 0.  1.
         -6    1    1    2    0  503 -0.81372224702E+02  0.14883854025E+02 -0.43638859903E+03  0.47666233062E+03  0.17300000000E+03 0.  1.
<mgrwt>
<rscale>  2 0.19176018E+03</rscale>
<asrwt>0</asrwt>
<pdfrwt beam="1">  1       21 0.17524532E-01 0.19176018E+03</pdfrwt>
<pdfrwt beam="2">  1       21 0.85316988E-01 0.19176018E+03</pdfrwt>
<totfact> 0.35065145E+04</totfact>
</mgrwt>
</event>
<event>
 4    2  0.4086940E+000  0.1794146E+03  0.7546771E-02  0.1168371E+00
         21   -1    0    0  501  502  0.00000000000E+00  0.00000000000E+00  0.46365821672E+03  0.46365821672E+03  0.00000000000E+00 0.  1.
         21   -1    0    0  502  503 -0.00000000000E+00 -0.00000000000E+00 -0.73207579757E+02  0.73207579757E+02  0.00000000000E+00 0.  1.
          6    1    1    2  501    0  0.32007095128E+02 -0.35158792886E+02  0.25624030412E+03  0.31280774976E+03  0.17300000000E+03 0.  1.
         -6    1    1    2    0  503 -0.32007095128E+02  0.35158792886E+02  0.13421033284E+03  0.22405804671E+03  0.17300000000E+03 0.  1.
<mgrwt>
<rscale>  2 0.17941459E+03</rscale>
<asrwt>0</asrwt>
<pdfrwt beam="1">  1       21 0.71332032E-01 0.17941459E+03</pdfrwt>
<pdfrwt beam="2">  1       21 0.11262705E-01 0.17941459E+03</pdfrwt>
<totfact> 0.11736895E+05</totfact>
</mgrwt>
</event>
<event>
 4    2  0.4086940E+000  0.1995687E+03  0.7546771E-02  0.1150103E+00
         21   -1    0    0  501  502  0.00000000000E+00  0.00000000000E+00  0.61574085601E+02  0.61574085601E+02  0.00000000000E+00 0.  1.
         21   -1    0    0  502  503 -0.00000000000E+00 -0.00000000000E+00 -0.72736615647E+03  0.72736615647E+03  0.00000000000E+00 0.  1.
          6    1    1    2  501    0 -0.13489456586E+02 -0.98573304351E+02 -0.20163182506E+03  0.28369535535E+03  0.17300000000E+03 0.  1.
         -6    1    1    2    0  503  0.13489456586E+02  0.98573304351E+02 -0.46416024581E+03  0.50524488673E+03  0.17300000000E+03 0.  1.
<mgrwt>
<rscale>  2 0.19956869E+03</rscale>
<asrwt>0</asrwt>
<pdfrwt beam="1">  1       21 0.94729366E-02 0.19956869E+03</pdfrwt>
<pdfrwt beam="2">  1       21 0.11190248E+00 0.19956869E+03</pdfrwt>
<totfact> 0.55734944E+04</totfact>
</mgrwt>
</event>
<event>
 4    2  0.4086940E+000  0.1797000E+03  0.7546771E-02  0.1168094E+00
         21   -1    0    0  503  502  0.00000000000E+00  0.00000000000E+00  0.81497587046E+03  0.81497587046E+03  0.00000000000E+00 0.  1.
         21   -1    0    0  501  503 -0.00000000000E+00 -0.00000000000E+00 -0.69680680625E+02  0.69680680625E+02  0.00000000000E+00 0. -1.
          6    1    1    2  501    0  0.54968427716E+01  0.48300019891E+02  0.82136032879E+02  0.19758146446E+03  0.17300000000E+03 0. -1.
         -6    1    1    2    0  502 -0.54968427716E+01 -0.48300019891E+02  0.66315915696E+03  0.68707508662E+03  0.17300000000E+03 0.  1.
<mgrwt>
<rscale>  2 0.17970005E+03</rscale>
<asrwt>0</asrwt>
<pdfrwt beam="1">  1       21 0.12538090E+00 0.17970005E+03</pdfrwt>
<pdfrwt beam="2">  1       21 0.10720105E-01 0.17970005E+03</pdfrwt>
<totfact> 0.34218093E+04</totfact>
</mgrwt>
</event>
<event>
 4    2  0.4086940E+000  0.1814048E+03  0.7546771E-02  0.1166450E+00
         21   -1    0    0  501  502  0.00000000000E+00  0.00000000000E+00  0.20658895553E+02  0.20658895553E+02  0.00000000000E+00 0.  1.
         21   -1    0    0  502  503 -0.00000000000E+00 -0.00000000000E+00 -0.18939602006E+04  0.18939602006E+04  0.00000000000E+00 0.  1.
          6    1    1    2  501    0 -0.31718051971E+01  0.54485284000E+02 -0.55498037577E+03  0.58387577789E+03  0.17300000000E+03 0.  1.
         -6    1    1    2    0  503  0.31718051971E+01 -0.54485284000E+02 -0.13183209293E+04  0.13307433183E+04  0.17300000000E+03 0.  1.
<mgrwt>
<rscale>  2 0.18140481E+03</rscale>
<asrwt>0</asrwt>
<pdfrwt beam="1">  1       21 0.31782918E-02 0.18140481E+03</pdfrwt>
<pdfrwt beam="2">  1       21 0.29137847E+00 0.18140481E+03</pdfrwt>
<totfact> 0.22250544E+04</totfact>
</mgrwt>
</event>
<event>
 4    2  0.4086940E+000  0.1947615E+03  0.7546771E-02  0.1154236E+00
         21   -1    0    0  501  502  0.00000000000E+00  0.00000000000E+00  0.77851021750E+02  0.77851021750E+02  0.00000000000E+00 0. -1.
         21   -1    0    0  502  503 -0.00000000000E+00 -0.00000000000E+00 -0.68343278879E+03  0.68343278879E+03  0.00000000000E+00 0. -1.
          6    1    1    2  501    0 -0.10129205875E+02 -0.88884416738E+02 -0.50673515636E+03  0.54287434922E+03  0.17300000000E+03 0. -1.
         -6    1    1    2    0  503  0.10129205875E+02  0.88884416738E+02 -0.98846610680E+02  0.21840946132E+03  0.17300000000E+03 0. -1.
<mgrwt>
<rscale>  2 0.19476150E+03</rscale>
<asrwt>0</asrwt>
<pdfrwt beam="1">  1       21 0.11977081E-01 0.19476150E+03</pdfrwt>
<pdfrwt beam="2">  1       21 0.10514350E+00 0.19476150E+03</pdfrwt>
<totfact> 0.42833067E+04</totfact>
</mgrwt>
</event>
<event>
 4    2  0.4086940E+000  0.2180191E+03  0.7546771E-02  0.1135369E+00
         21   -1    0    0  503  502  0.00000000000E+00  0.00000000000E+00  0.17714030071E+03  0.17714030071E+03  0.00000000000E+00 0. -1.
         21   -1    0    0  501  503 -0.00000000000E+00 -0.00000000000E+00 -0.58674121935E+03  0.58674121935E+03  0.00000000000E+00 0. -1.
          6    1    1    2  501    0  0.65050290797E+02  0.11563651502E+03 -0.48616268081E+03  0.53281000004E+03  0.17300000000E+03 0. -1.
         -6    1    1    2    0  502 -0.65050290797E+02 -0.11563651502E+03  0.76561762167E+02  0.23107152002E+03  0.17300000000E+03 0. -1.
<mgrwt>
<rscale>  2 0.21801914E+03</rscale>
<asrwt>0</asrwt>
<pdfrwt beam="1">  1       21 0.27252354E-01 0.21801914E+03</pdfrwt>
<pdfrwt beam="2">  1       21 0.90267879E-01 0.21801914E+03</pdfrwt>
<totfact> 0.13176063E+04</totfact>
</mgrwt>
</event>
<event>
 4    2  0.4086940E+000  0.1914326E+03  0.7546771E-02  0.1157176E+00
         21   -1    0    0  503  502  0.00000000000E+00  0.00000000000E+00  0.72982593601E+02  0.72982593601E+02  0.00000000000E+00 0.  1.
         21   -1    0    0  501  503 -0.00000000000E+00 -0.00000000000E+00 -0.71711042041E+03  0.71711042041E+03  0.00000000000E+00 0.  1.
          6    1    1    2  501    0  0.58427453620E+02  0.57477504446E+02 -0.53836518696E+03  0.57138735144E+03  0.17300000000E+03 0.  1.
         -6    1    1    2    0  502 -0.58427453620E+02 -0.57477504446E+02 -0.10576263985E+03  0.21870566257E+03  0.17300000000E+03 0.  1.
<mgrwt>
<rscale>  2 0.19143258E+03</rscale>
<asrwt>0</asrwt>
<pdfrwt beam="1">  1       21 0.11228091E-01 0.19143258E+03</pdfrwt>
<pdfrwt beam="2">  1       21 0.11032468E+00 0.19143258E+03</pdfrwt>
<totfact> 0.42876577E+04</totfact>
</mgrwt>
</event>
<event>
 4    2  0.4086940E+000  0.1866980E+03  0.7546771E-02  0.1161474E+00
         21   -1    0    0  501  502  0.00000000000E+00  0.00000000000E+00  0.74195459874E+02  0.74195459874E+02  0.00000000000E+00 0. -1.
         21   -1    0    0  502  503 -0.00000000000E+00 -0.00000000000E+00 -0.88204192546E+03  0.88204192546E+03  0.00000000000E+00 0. -1.
          6    1    1    2  501    0  0.31688678293E+00 -0.70193013432E+02 -0.77054524624E+02  0.20197415507E+03  0.17300000000E+03 0. -1.
         -6    1    1    2    0  503 -0.31688678293E+00  0.70193013432E+02 -0.73079194097E+03  0.75426323027E+03  0.17300000000E+03 0. -1.
<mgrwt>
<rscale>  2 0.18669804E+03</rscale>
<asrwt>0</asrwt>
<pdfrwt beam="1">  1       21 0.11414686E-01 0.18669804E+03</pdfrwt>
<pdfrwt beam="2">  1       21 0.13569876E+00 0.18669804E+03</pdfrwt>
<totfact> 0.24969097E+04</totfact>
</mgrwt>
</event>
<event>
 4    2  0.4086940E+000  0.2066420E+03  0.7546771E-02  0.1144253E+00
         21   -1    0    0  501  502  0.00000000000E+00  0.00000000000E+00  0.57844401397E+03  0.57844401397E+03  0.00000000000E+00 0.  1.
         21   -1    0    0  502  503 -0.00000000000E+00 -0.00000000000E+00 -0.74287198726E+02  0.74287198726E+02  0.00000000000E+00 0.  1.
          6    1    1    2  501    0  0.10799187100E+03  0.33311664217E+02  0.22620472115E+03  0.30638127725E+03  0.17300000000E+03 0.  1.
         -6    1    1    2    0  503 -0.10799187100E+03 -0.33311664217E+02  0.27795209409E+03  0.34634993545E+03  0.17300000000E+03 0.  1.
<mgrwt>
<rscale>  2 0.20664199E+03</rscale>
<asrwt>0</asrwt>
<pdfrwt beam="1">  1       21 0.88991384E-01 0.20664199E+03</pdfrwt>
<pdfrwt beam="2">  1       21 0.11428800E-01 0.20664199E+03</pdfrwt>
<totfact> 0.68587383E+04</totfact>
</mgrwt>
</event>
<event>
 4    2  0.4086940E+000  0.1793360E+03  0.7546771E-02  0.1168447E+00
         21   -1    0    0  503  502  0.00000000000E+00  0.00000000000E+00  0.92945848479E+02  0.92945848479E+02  0.00000000000E+00 0.  1.
         21   -1    0    0  501  503 -0.00000000000E+00 -0.00000000000E+00 -0.84531168242E+03  0.84531168242E+03  0.00000000000E+00 0.  1.
          6    1    1    2  501    0  0.44564625312E+02 -0.15697074074E+02 -0.15637917677E+02  0.18001652267E+03  0.17300000000E+03 0.  1.
         -6    1    1    2    0  502 -0.44564625312E+02  0.15697074074E+02 -0.73672791627E+03  0.75824100824E+03  0.17300000000E+03 0.  1.
<mgrwt>
<rscale>  2 0.17933601E+03</rscale>
<asrwt>0</asrwt>
<pdfrwt beam="1">  1       21 0.14299361E-01 0.17933601E+03</pdfrwt>
<pdfrwt beam="2">  1       21 0.13004796E+00 0.17933601E+03</pdfrwt>
<totfact> 0.18642588E+04</totfact>
</mgrwt>
</event>
<event>
 4    2  0.4086940E+000  0.1908401E+03  0.7546771E-02  0.1157706E+00
         21   -1    0    0  501  502  0.00000000000E+00  0.00000000000E+00  0.16227734666E+04  0.16227734666E+04  0.00000000000E+00 0.  1.
         21   -1    0    0  502  503 -0.00000000000E+00 -0.00000000000E+00 -0.33106849666E+02  0.33106849666E+02  0.00000000000E+00 0.  1.
          6    1    1    2  501    0  0.22555598306E+02  0.77344538013E+02  0.12647238244E+04  0.12790411583E+04  0.17300000000E+03 0.  1.
         -6    1    1    2    0  503 -0.22555598306E+02 -0.77344538013E+02  0.32494279258E+03  0.37683915803E+03  0.17300000000E+03 0.  1.
<mgrwt>
<rscale>  2 0.19084007E+03</rscale>
<asrwt>0</asrwt>
<pdfrwt beam="1">  1       21 0.24965739E+00 0.19084007E+03</pdfrwt>
<pdfrwt beam="2">  1       21 0.50933627E-02 0.19084007E+03</pdfrwt>
<totfact> 0.17442348E+04</totfact>
</mgrwt>
</event>
<event>
 4    2  0.4086940E+000  0.1827738E+03  0.7546771E-02  0.1165145E+00
         21   -1    0    0  501  502  0.00000000000E+00  0.00000000000E+00  0.17786642681E+03  0.17786642681E+03  0.00000000000E+00 0. -1.
         21   -1    0    0  502  503 -0.00000000000E+00 -0.00000000000E+00 -0.22413167355E+03  0.22413167355E+03  0.00000000000E+00 0. -1.
          6    1    1    2  501    0 -0.75895687192E+01 -0.58477884638E+02 -0.10403959632E+03  0.21031048987E+03  0.17300000000E+03 0.  1.
         -6    1    1    2    0  503  0.75895687192E+01  0.58477884638E+02  0.57774349582E+02  0.19168761049E+03  0.17300000000E+03 0.  1.
<mgrwt>
<rscale>  2 0.18277381E+03</rscale>
<asrwt>0</asrwt>
<pdfrwt beam="1">  1       21 0.27364066E-01 0.18277381E+03</pdfrwt>
<pdfrwt beam="2">  1       21 0.34481796E-01 0.18277381E+03</pdfrwt>
<totfact> 0.10361319E+05</totfact>
</mgrwt>
</event>
<event>
 4    2  0.4086940E+000  0.1816664E+03  0.7546771E-02  0.1166200E+00
         21   -1    0    0  501  502  0.00000000000E+00  0.00000000000E+00  0.35826812297E+02  0.35826812297E+02  0.00000000000E+00 0.  1.
         21   -1    0    0  502  503 -0.00000000000E+00 -0.00000000000E+00 -0.16671672740E+04  0.16671672740E+04  0.00000000000E+00 0.  1.
          6    1    1    2  501    0 -0.55108141329E+02  0.60648818756E+01 -0.24608158936E+03  0.30587389338E+03  0.17300000000E+03 0.  1.
         -6    1    1    2    0  503  0.55108141329E+02 -0.60648818756E+01 -0.13852588724E+04  0.13971201929E+04  0.17300000000E+03 0.  1.
<mgrwt>
<rscale>  2 0.18166643E+03</rscale>
<asrwt>0</asrwt>
<pdfrwt beam="1">  1       21 0.55118157E-02 0.18166643E+03</pdfrwt>
<pdfrwt beam="2">  1       21 0.25648734E+00 0.18166643E+03</pdfrwt>
<totfact> 0.14030847E+04</totfact>
</mgrwt>
</event>
<event>
 4    2  0.4086940E+000  0.2137392E+03  0.7546771E-02  0.1138639E+00
         21   -1    0    0  503  502  0.00000000000E+00  0.00000000000E+00  0.68960839582E+03  0.68960839582E+03  0.00000000000E+00 0.  1.
         21   -1    0    0  501  503 -0.00000000000E+00 -0.00000000000E+00 -0.35865008730E+03  0.35865008730E+03  0.00000000000E+00 0.  1.
          6    1    1    2  501    0  0.12436336744E+03 -0.17006435296E+02 -0.30777443831E+03  0.37471265108E+03  0.17300000000E+03 0.  1.
         -6    1    1    2    0  502 -0.12436336744E+03  0.17006435296E+02  0.63873274683E+03  0.67354583205E+03  0.17300000000E+03 0.  1.
<mgrwt>
<rscale>  2 0.21373925E+03</rscale>
<asrwt>0</asrwt>
<pdfrwt beam="1">  1       21 0.10609360E+00 0.21373925E+03</pdfrwt>
<pdfrwt beam="2">  1       21 0.55176936E-01 0.21373925E+03</pdfrwt>
<totfact> 0.21672217E+03</totfact>
</mgrwt>
</event>
<event>
 4    2  0.4086940E+000  0.2189228E+03  0.7546771E-02  0.1134689E+00
         21   -1    0    0  501  502  0.00000000000E+00  0.00000000000E+00  0.15084903732E+03  0.15084903732E+03  0.00000000000E+00 0. -1.
         21   -1    0    0  502  503 -0.00000000000E+00 -0.00000000000E+00 -0.40000635825E+03  0.40000635825E+03  0.00000000000E+00 0. -1.
          6    1    1    2  501    0  0.13207450272E+03 -0.23548608682E+02  0.34583895724E+00  0.21892311628E+03  0.17300000000E+03 0. -1.
         -6    1    1    2    0  503 -0.13207450272E+03  0.23548608682E+02 -0.24950315989E+03  0.33193227929E+03  0.17300000000E+03 0. -1.
<mgrwt>
<rscale>  2 0.21892284E+03</rscale>
<asrwt>0</asrwt>
<pdfrwt beam="1">  1       21 0.23207544E-01 0.21892284E+03</pdfrwt>
<pdfrwt beam="2">  1       21 0.61539440E-01 0.21892284E+03</pdfrwt>
<totfact> 0.42258756E+04</totfact>
</mgrwt>
</event>
<event>
 4    2  0.4086940E+000  0.2275020E+03  0.7546771E-02  0.1128410E+00
         21   -1    0    0  501  502  0.00000000000E+00  0.00000000000E+00  0.38577212206E+03  0.38577212206E+03  0.00000000000E+00 0. -1.
         21   -1    0    0  502  503 -0.00000000000E+00 -0.00000000000E+00 -0.15380119340E+03  0.15380119340E+03  0.00000000000E+00 0.  1.
          6    1    1    2  501    0 -0.14688148662E+03  0.15936776081E+02  0.21238351614E+03  0.31122967383E+03  0.17300000000E+03 0. -1.
         -6    1    1    2    0  503  0.14688148662E+03 -0.15936776081E+02  0.19587412523E+02  0.22834364163E+03  0.17300000000E+03 0.  1.
<mgrwt>
<rscale>  2 0.22750198E+03</rscale>
<asrwt>0</asrwt>
<pdfrwt beam="1">  1       21 0.59349557E-01 0.22750198E+03</pdfrwt>
<pdfrwt beam="2">  1       21 0.23661722E-01 0.22750198E+03</pdfrwt>
<totfact> 0.43866675E+04</totfact>
</mgrwt>
</event>
<event>
 4    2  0.4086940E+000  0.2175736E+03  0.7546771E-02  0.1135705E+00
         21   -1    0    0  503  502  0.00000000000E+00  0.00000000000E+00  0.99360946924E+02  0.99360946924E+02  0.00000000000E+00 0.  1.
         21   -1    0    0  501  503 -0.00000000000E+00 -0.00000000000E+00 -0.12713158009E+04  0.12713158009E+04  0.00000000000E+00 0.  1.
          6    1    1    2  501    0  0.96648872720E+02  0.89823467077E+02 -0.11278927811E+04  0.11486863739E+04  0.17300000000E+03 0.  1.
         -6    1    1    2    0  502 -0.96648872720E+02 -0.89823467077E+02 -0.44062072790E+02  0.22199037388E+03  0.17300000000E+03 0.  1.
<mgrwt>
<rscale>  2 0.21757357E+03</rscale>
<asrwt>0</asrwt>
<pdfrwt beam="1">  1       21 0.15286301E-01 0.21757357E+03</pdfrwt>
<pdfrwt beam="2">  1       21 0.19558703E+00 0.21757357E+03</pdfrwt>
<totfact> 0.53164649E+03</totfact>
</mgrwt>
</event>
<event>
 4    2  0.4086940E+000  0.1890735E+03  0.7546771E-02  0.1159300E+00
         21   -1    0    0  501  502  0.00000000000E+00  0.00000000000E+00  0.93769932424E+03  0.93769932424E+03  0.00000000000E+00 0. -1.
         21   -1    0    0  502  503 -0.00000000000E+00 -0.00000000000E+00 -0.87424311162E+02  0.87424311162E+02  0.00000000000E+00 0. -1.
          6    1    1    2  501    0 -0.67141565719E+02 -0.36218804980E+02  0.81004400299E+03  0.83181733480E+03  0.17300000000E+03 0. -1.
         -6    1    1    2    0  503  0.67141565719E+02  0.36218804980E+02  0.40231010083E+02  0.19330630061E+03  0.17300000000E+03 0. -1.
<mgrwt>
<rscale>  2 0.18907351E+03</rscale>
<asrwt>0</asrwt>
<pdfrwt beam="1">  1       21 0.14426143E+00 0.18907351E+03</pdfrwt>
<pdfrwt beam="2">  1       21 0.13449895E-01 0.18907351E+03</pdfrwt>
<totfact> 0.15865482E+04</totfact>
</mgrwt>
</event>
<event>
 4    2  0.4086940E+000  0.2112130E+03  0.7546771E-02  0.1140609E+00
         21   -1    0    0  503  502  0.00000000000E+00  0.00000000000E+00  0.14549815292E+04  0.14549815292E+04  0.00000000000E+00 0.  1.
         21   -1    0    0  501  503 -0.00000000000E+00 -0.00000000000E+00 -0.33851779870E+02  0.33851779870E+02  0.00000000000E+00 0.  1.
          6    1    1    2  501    0  0.88593251613E+02 -0.82662949851E+02  0.48201238134E+03  0.52625741161E+03  0.17300000000E+03 0.  1.
         -6    1    1    2    0  502 -0.88593251613E+02  0.82662949851E+02  0.93911736798E+03  0.96257589745E+03  0.17300000000E+03 0.  1.
<mgrwt>
<rscale>  2 0.21121299E+03</rscale>
<asrwt>0</asrwt>
<pdfrwt beam="1">  1       21 0.22384326E+00 0.21121299E+03</pdfrwt>
<pdfrwt beam="2">  1       21 0.52079673E-02 0.21121299E+03</pdfrwt>
<totfact> 0.23579881E+04</totfact>
</mgrwt>
</event>
<event>
 4    2  0.4086940E+000  0.2653077E+03  0.7546771E-02  0.1103996E+00
         21   -1    0    0  503  502  0.00000000000E+00  0.00000000000E+00  0.39739645902E+03  0.39739645902E+03  0.00000000000E+00 0. -1.
         21   -1    0    0  501  503 -0.00000000000E+00 -0.00000000000E+00 -0.38607205102E+03  0.38607205102E+03  0.00000000000E+00 0.  1.
          6    1    1    2  501    0  0.18592734602E+03 -0.76747730827E+02 -0.28252666728E+03  0.38756871637E+03  0.17300000000E+03 0.  1.
         -6    1    1    2    0  502 -0.18592734602E+03  0.76747730827E+02  0.29385107528E+03  0.39589979367E+03  0.17300000000E+03 0. -1.
<mgrwt>
<rscale>  2 0.26530773E+03</rscale>
<asrwt>0</asrwt>
<pdfrwt beam="1">  1       21 0.61137917E-01 0.26530773E+03</pdfrwt>
<pdfrwt beam="2">  1       21 0.59395700E-01 0.26530773E+03</pdfrwt>
<totfact> 0.62844564E+03</totfact>
</mgrwt>
</event>
<event>
 4    2  0.4086940E+000  0.2068422E+03  0.7546771E-02  0.1144091E+00
         21   -1    0    0  501  502  0.00000000000E+00  0.00000000000E+00  0.18098961641E+03  0.18098961641E+03  0.00000000000E+00 0. -1.
         21   -1    0    0  502  503 -0.00000000000E+00 -0.00000000000E+00 -0.25466135397E+03  0.25466135397E+03  0.00000000000E+00 0. -1.
          6    1    1    2  501    0  0.46037070882E+02  0.10361130045E+03  0.21514047710E+02  0.20795809127E+03  0.17300000000E+03 0. -1.
         -6    1    1    2    0  503 -0.46037070882E+02 -0.10361130045E+03 -0.95185785278E+02  0.22769287911E+03  0.17300000000E+03 0. -1.
<mgrwt>
<rscale>  2 0.20684224E+03</rscale>
<asrwt>0</asrwt>
<pdfrwt beam="1">  1       21 0.27844556E-01 0.20684224E+03</pdfrwt>
<pdfrwt beam="2">  1       21 0.39178670E-01 0.20684224E+03</pdfrwt>
<totfact> 0.76878678E+04</totfact>
</mgrwt>
</event>
<event>
 4    2  0.4086940E+000  0.2242276E+03  0.7546771E-02  0.1130770E+00
         21   -1    0    0  503  502  0.00000000000E+00  0.00000000000E+00  0.34196266424E+03  0.34196266424E+03  0.00000000000E+00 0.  1.
         21   -1    0    0  501  503 -0.00000000000E+00 -0.00000000000E+00 -0.68929602037E+03  0.68929602037E+03  0.00000000000E+00 0.  1.
          6    1    1    2  501    0  0.18323013630E+02 -0.14146832793E+03 -0.63100944143E+03  0.66966479361E+03  0.17300000000E+03 0.  1.
         -6    1    1    2    0  502 -0.18323013630E+02  0.14146832793E+03  0.28367608530E+03  0.36159389100E+03  0.17300000000E+03 0.  1.
<mgrwt>
<rscale>  2 0.22422761E+03</rscale>
<asrwt>0</asrwt>
<pdfrwt beam="1">  1       21 0.52609641E-01 0.22422761E+03</pdfrwt>
<pdfrwt beam="2">  1       21 0.10604554E+00 0.22422761E+03</pdfrwt>
<totfact> 0.23791641E+03</totfact>
</mgrwt>
</event>
<event>
 4    2  0.4086940E+000  0.2053759E+03  0.7546771E-02  0.1145281E+00
         21   -1    0    0  501  502  0.00000000000E+00  0.00000000000E+00  0.94587008913E+02  0.94587008913E+02  0.00000000000E+00 0.  1.
         21   -1    0    0  502  503 -0.00000000000E+00 -0.00000000000E+00 -0.55920265659E+03  0.55920265659E+03  0.00000000000E+00 0. -1.
          6    1    1    2  501    0  0.86906502498E+02 -0.68538352484E+02 -0.85183409028E+02  0.22234086244E+03  0.17300000000E+03 0.  1.
         -6    1    1    2    0  503 -0.86906502498E+02  0.68538352484E+02 -0.37943223865E+03  0.43144880306E+03  0.17300000000E+03 0. -1.
<mgrwt>
<rscale>  2 0.20537587E+03</rscale>
<asrwt>0</asrwt>
<pdfrwt beam="1">  1       21 0.14551848E-01 0.20537587E+03</pdfrwt>
<pdfrwt beam="2">  1       21 0.86031178E-01 0.20537587E+03</pdfrwt>
<totfact> 0.48007722E+04</totfact>
</mgrwt>
</event>
<event>
 4    2  0.4086940E+000  0.1866825E+03  0.7546771E-02  0.1161488E+00
         21   -1    0    0  503  502  0.00000000000E+00  0.00000000000E+00  0.13336217005E+04  0.13336217005E+04  0.00000000000E+00 0. -1.
         21   -1    0    0  501  503 -0.00000000000E+00 -0.00000000000E+00 -0.12160748154E+03  0.12160748154E+03  0.00000000000E+00 0. -1.
          6    1    1    2  501    0  0.59342335471E+02  0.37414620474E+02 -0.38706593184E+02  0.19065300145E+03  0.17300000000E+03 0. -1.
         -6    1    1    2    0  502 -0.59342335471E+02 -0.37414620474E+02  0.12507208121E+04  0.12645761806E+04  0.17300000000E+03 0. -1.
<mgrwt>
<rscale>  2 0.18668253E+03</rscale>
<asrwt>0</asrwt>
<pdfrwt beam="1">  1       21 0.20517256E+00 0.18668253E+03</pdfrwt>
<pdfrwt beam="2">  1       21 0.18708844E-01 0.18668253E+03</pdfrwt>
<totfact> 0.32723848E+03</totfact>
</mgrwt>
</event>
<event>
 4    2  0.4086940E+000  0.1832390E+03  0.7546771E-02  0.1164705E+00
         21   -1    0    0  503  502  0.00000000000E+00  0.00000000000E+00  0.10202881447E+03  0.10202881447E+03  0.00000000000E+00 0.  1.
         21   -1    0    0  501  503 -0.00000000000E+00 -0.00000000000E+00 -0.39459185922E+03  0.39459185922E+03  0.00000000000E+00 0.  1.
          6    1    1    2  501    0 -0.44753257362E+02  0.40554515142E+02 -0.24745160270E+03  0.30791040648E+03  0.17300000000E+03 0.  1.
         -6    1    1    2    0  502  0.44753257362E+02 -0.40554515142E+02 -0.45111442052E+02  0.18871026720E+03  0.17300000000E+03 0.  1.
<mgrwt>
<rscale>  2 0.18323898E+03</rscale>
<asrwt>0</asrwt>
<pdfrwt beam="1">  1       21 0.15696741E-01 0.18323898E+03</pdfrwt>
<pdfrwt beam="2">  1       21 0.60706439E-01 0.18323898E+03</pdfrwt>
<totfact> 0.91582098E+04</totfact>
</mgrwt>
</event>
<event>
 4    2  0.4086940E+000  0.1812165E+03  0.7546771E-02  0.1166631E+00
         21   -1    0    0  503  502  0.00000000000E+00  0.00000000000E+00  0.17335085822E+03  0.17335085822E+03  0.00000000000E+00 0. -1.
         21   -1    0    0  501  503 -0.00000000000E+00 -0.00000000000E+00 -0.11264057912E+04  0.11264057912E+04  0.00000000000E+00 0. -1.
          6    1    1    2  501    0 -0.31775729730E+02  0.43597227257E+02 -0.10692435492E+04  0.10844912091E+04  0.17300000000E+03 0. -1.
         -6    1    1    2    0  502  0.31775729730E+02 -0.43597227257E+02  0.11618861624E+03  0.21526544025E+03  0.17300000000E+03 0. -1.
<mgrwt>
<rscale>  2 0.18121649E+03</rscale>
<asrwt>0</asrwt>
<pdfrwt beam="1">  1       21 0.26669363E-01 0.18121649E+03</pdfrwt>
<pdfrwt beam="2">  1       21 0.17329320E+00 0.18121649E+03</pdfrwt>
<totfact> 0.27386606E+03</totfact>
</mgrwt>
</event>
<event>
 4    2  0.4086940E+000  0.1742116E+03  0.7546771E-02  0.1173526E+00
         21   -1    0    0  501  502  0.00000000000E+00  0.00000000000E+00  0.93153524692E+03  0.93153524692E+03  0.00000000000E+00 0. -1.
         21   -1    0    0  502  503 -0.00000000000E+00 -0.00000000000E+00 -0.73843624855E+02  0.73843624855E+02  0.00000000000E+00 0. -1.
          6    1    1    2  501    0  0.19228434404E+02  0.71389134345E+01  0.80461863643E+03  0.82326231959E+03  0.17300000000E+03 0. -1.
         -6    1    1    2    0  503 -0.19228434404E+02 -0.71389134345E+01  0.53072985638E+02  0.18211655218E+03  0.17300000000E+03 0. -1.
<mgrwt>
<rscale>  2 0.17421164E+03</rscale>
<asrwt>0</asrwt>
<pdfrwt beam="1">  1       21 0.14331311E+00 0.17421164E+03</pdfrwt>
<pdfrwt beam="2">  1       21 0.11360558E-01 0.17421164E+03</pdfrwt>
<totfact> 0.22060971E+04</totfact>
</mgrwt>
</event>
<event>
 4    2  0.4086940E+000  0.1989279E+03  0.7546771E-02  0.1150647E+00
         21   -1    0    0  501  502  0.00000000000E+00  0.00000000000E+00  0.17723900303E+03  0.17723900303E+03  0.00000000000E+00 0. -1.
         21   -1    0    0  502  503 -0.00000000000E+00 -0.00000000000E+00 -0.35919939659E+03  0.35919939659E+03  0.00000000000E+00 0.  1.
          6    1    1    2  501    0  0.96721462673E+02  0.16978887844E+02  0.74017244585E+02  0.21225191747E+03  0.17300000000E+03 0. -1.
         -6    1    1    2    0  503 -0.96721462673E+02 -0.16978887844E+02 -0.25597763815E+03  0.32418648214E+03  0.17300000000E+03 0.  1.
<mgrwt>
<rscale>  2 0.19892794E+03</rscale>
<asrwt>0</asrwt>
<pdfrwt beam="1">  1       21 0.27267539E-01 0.19892794E+03</pdfrwt>
<pdfrwt beam="2">  1       21 0.55261445E-01 0.19892794E+03</pdfrwt>
<totfact> 0.39470462E+04</totfact>
</mgrwt>
</event>
<event>
 4    2  0.4086940E+000  0.1841226E+03  0.7546771E-02  0.1163872E+00
         21   -1    0    0  501  502  0.00000000000E+00  0.00000000000E+00  0.32607120271E+02  0.32607120271E+02  0.00000000000E+00 0.  1.
         21   -1    0    0  502  503 -0.00000000000E+00 -0.00000000000E+00 -0.10500597320E+04  0.10500597320E+04  0.00000000000E+00 0.  1.
          6    1    1    2  501    0  0.60954619054E+02  0.16020989759E+02 -0.45491868245E+03  0.49076689511E+03  0.17300000000E+03 0.  1.
         -6    1    1    2    0  503 -0.60954619054E+02 -0.16020989759E+02 -0.56253392933E+03  0.59189995721E+03  0.17300000000E+03 0.  1.
<mgrwt>
<rscale>  2 0.18412262E+03</rscale>
<asrwt>0</asrwt>
<pdfrwt beam="1">  1       21 0.50164806E-02 0.18412262E+03</pdfrwt>
<pdfrwt beam="2">  1       21 0.16154763E+00 0.18412262E+03</pdfrwt>
<totfact> 0.65903844E+04</totfact>
</mgrwt>
</event>
<event>
 4    2  0.4086940E+000  0.1865136E+03  0.7546771E-02  0.1161644E+00
         21   -1    0    0  503  502  0.00000000000E+00  0.00000000000E+00  0.40301137937E+03  0.40301137937E+03  0.00000000000E+00 0. -1.
         21   -1    0    0  501  503 -0.00000000000E+00 -0.00000000000E+00 -0.10762033342E+03  0.10762033342E+03  0.00000000000E+00 0. -1.
          6    1    1    2  501    0  0.68037420782E+02  0.15140467314E+02  0.34105692549E+02  0.18960623049E+03  0.17300000000E+03 0. -1.
         -6    1    1    2    0  502 -0.68037420782E+02 -0.15140467314E+02  0.26128535340E+03  0.32102548229E+03  0.17300000000E+03 0. -1.
<mgrwt>
<rscale>  2 0.18651360E+03</rscale>
<asrwt>0</asrwt>
<pdfrwt beam="1">  1       21 0.62001750E-01 0.18651360E+03</pdfrwt>
<pdfrwt beam="2">  1       21 0.16556975E-01 0.18651360E+03</pdfrwt>
<totfact> 0.79268491E+04</totfact>
</mgrwt>
</event>
<event>
 4    2  0.4086940E+000  0.1977429E+03  0.7546771E-02  0.1151657E+00
         21   -1    0    0  501  502  0.00000000000E+00  0.00000000000E+00  0.23132626035E+02  0.23132626035E+02  0.00000000000E+00 0.  1.
         21   -1    0    0  502  503 -0.00000000000E+00 -0.00000000000E+00 -0.17452146109E+04  0.17452146109E+04  0.00000000000E+00 0.  1.
          6    1    1    2  501    0  0.46610335044E+02  0.83670350608E+02 -0.70427333682E+03  0.73150747355E+03  0.17300000000E+03 0.  1.
         -6    1    1    2    0  503 -0.46610335044E+02 -0.83670350608E+02 -0.10178086481E+04  0.10368397634E+04  0.17300000000E+03 0.  1.
<mgrwt>
<rscale>  2 0.19774289E+03</rscale>
<asrwt>0</asrwt>
<pdfrwt beam="1">  1       21 0.35588645E-02 0.19774289E+03</pdfrwt>
<pdfrwt beam="2">  1       21 0.26849464E+00 0.19774289E+03</pdfrwt>
<totfact> 0.24596880E+04</totfact>
</mgrwt>
</event>
<event>
 4    2  0.4086940E+000  0.1886580E+03  0.7546771E-02  0.1159677E+00
         21   -1    0    0  503  502  0.00000000000E+00  0.00000000000E+00  0.38844263732E+02  0.38844263732E+02  0.00000000000E+00 0.  1.
         21   -1    0    0  501  503 -0.00000000000E+00 -0.00000000000E+00 -0.10578067443E+04  0.10578067443E+04  0.00000000000E+00 0.  1.
          6    1    1    2  501    0  0.69780421594E+02  0.28169844308E+02 -0.30890968833E+03  0.36196276454E+03  0.17300000000E+03 0. -1.
         -6    1    1    2    0  502 -0.69780421594E+02 -0.28169844308E+02 -0.71005279219E+03  0.73468824345E+03  0.17300000000E+03 0. -1.
<mgrwt>
<rscale>  2 0.18865802E+03</rscale>
<asrwt>0</asrwt>
<pdfrwt beam="1">  1       21 0.59760401E-02 0.18865802E+03</pdfrwt>
<pdfrwt beam="2">  1       21 0.16273951E+00 0.18865802E+03</pdfrwt>
<totfact> 0.47838977E+04</totfact>
</mgrwt>
</event>
<event>
 4    2  0.4086940E+000  0.2019282E+03  0.7546771E-02  0.1148122E+00
         21   -1    0    0  501  502  0.00000000000E+00  0.00000000000E+00  0.34311616924E+03  0.34311616924E+03  0.00000000000E+00 0. -1.
         21   -1    0    0  502  503 -0.00000000000E+00 -0.00000000000E+00 -0.12561280429E+03  0.12561280429E+03  0.00000000000E+00 0. -1.
          6    1    1    2  501    0 -0.77800964672E+02  0.69231420512E+02  0.54320536595E+02  0.20910691138E+03  0.17300000000E+03 0. -1.
         -6    1    1    2    0  503  0.77800964672E+02 -0.69231420512E+02  0.16318282836E+03  0.25962206216E+03  0.17300000000E+03 0. -1.
<mgrwt>
<rscale>  2 0.20192815E+03</rscale>
<asrwt>0</asrwt>
<pdfrwt beam="1">  1       21 0.52787103E-01 0.20192815E+03</pdfrwt>
<pdfrwt beam="2">  1       21 0.19325047E-01 0.20192815E+03</pdfrwt>
<totfact> 0.83373096E+04</totfact>
</mgrwt>
</event>
<event>
 4    2  0.4086940E+000  0.2131387E+03  0.7546771E-02  0.1139104E+00
         21   -1    0    0  501  502  0.00000000000E+00  0.00000000000E+00  0.80073297235E+03  0.80073297235E+03  0.00000000000E+00 0. -1.
         21   -1    0    0  502  503 -0.00000000000E+00 -0.00000000000E+00 -0.83961835268E+02  0.83961835268E+02  0.00000000000E+00 0.  1.
          6    1    1    2  501    0 -0.20299041260E+02  0.12282930676E+03  0.61029011055E+03  0.64643801614E+03  0.17300000000E+03 0. -1.
         -6    1    1    2    0  503  0.20299041260E+02 -0.12282930676E+03  0.10648102653E+03  0.23825679148E+03  0.17300000000E+03 0.  1.
<mgrwt>
<rscale>  2 0.21313866E+03</rscale>
<asrwt>0</asrwt>
<pdfrwt beam="1">  1       21 0.12318968E+00 0.21313866E+03</pdfrwt>
<pdfrwt beam="2">  1       21 0.12917206E-01 0.21313866E+03</pdfrwt>
<totfact> 0.25125863E+04</totfact>
</mgrwt>
</event>
<event>
 4    2  0.4086940E+000  0.1849638E+03  0.7546771E-02  0.1163084E+00
         21   -1    0    0  501  502  0.00000000000E+00  0.00000000000E+00  0.27527552888E+02  0.27527552888E+02  0.00000000000E+00 0.  1.
         21   -1    0    0  502  503 -0.00000000000E+00 -0.00000000000E+00 -0.12428138044E+04  0.12428138044E+04  0.00000000000E+00 0. -1.
          6    1    1    2  501    0 -0.65441305655E+02 -0.23894390334E+00 -0.60752663042E+03  0.63505923208E+03  0.17300000000E+03 0.  1.
         -6    1    1    2    0  503  0.65441305655E+02  0.23894390334E+00 -0.60775962111E+03  0.63528212523E+03  0.17300000000E+03 0.  1.
<mgrwt>
<rscale>  2 0.18496384E+03</rscale>
<asrwt>0</asrwt>
<pdfrwt beam="1">  1       21 0.42350082E-02 0.18496384E+03</pdfrwt>
<pdfrwt beam="2">  1       21 0.19120212E+00 0.18496384E+03</pdfrwt>
<totfact> 0.54792466E+04</totfact>
</mgrwt>
</event>
<event>
 4    2  0.4086940E+000  0.1839646E+03  0.7546771E-02  0.1164020E+00
         21   -1    0    0  501  502  0.00000000000E+00  0.00000000000E+00  0.16149367184E+02  0.16149367184E+02  0.00000000000E+00 0. -1.
         21   -1    0    0  502  503 -0.00000000000E+00 -0.00000000000E+00 -0.21087891060E+04  0.21087891060E+04  0.00000000000E+00 0. -1.
          6    1    1    2  501    0  0.53304748095E+02 -0.32750286539E+02 -0.96236681554E+03  0.97979225609E+03  0.17300000000E+03 0. -1.
         -6    1    1    2    0  503 -0.53304748095E+02  0.32750286539E+02 -0.11302729233E+04  0.11451462171E+04  0.17300000000E+03 0. -1.
<mgrwt>
<rscale>  2 0.18396461E+03</rscale>
<asrwt>0</asrwt>
<pdfrwt beam="1">  1       21 0.24845193E-02 0.18396461E+03</pdfrwt>
<pdfrwt beam="2">  1       21 0.32442893E+00 0.18396461E+03</pdfrwt>
<totfact> 0.21500063E+04</totfact>
</mgrwt>
</event>
<event>
 4    2  0.4086940E+000  0.1799991E+03  0.7546771E-02  0.1167804E+00
         21   -1    0    0  503  502  0.00000000000E+00  0.00000000000E+00  0.19960952983E+03  0.19960952983E+03  0.00000000000E+00 0.  1.
         21   -1    0    0  501  503 -0.00000000000E+00 -0.00000000000E+00 -0.17790396118E+03  0.17790396118E+03  0.00000000000E+00 0.  1.
          6    1    1    2  501    0  0.47441904187E+02 -0.14830535778E+02 -0.45021785930E+02  0.18554417337E+03  0.17300000000E+03 0.  1.
         -6    1    1    2    0  502 -0.47441904187E+02  0.14830535778E+02  0.66727354573E+02  0.19196931763E+03  0.17300000000E+03 0.  1.
<mgrwt>
<rscale>  2 0.17999911E+03</rscale>
<asrwt>0</asrwt>
<pdfrwt beam="1">  1       21 0.30709158E-01 0.17999911E+03</pdfrwt>
<pdfrwt beam="2">  1       21 0.27369840E-01 0.17999911E+03</pdfrwt>
<totfact> 0.13017657E+05</totfact>
</mgrwt>
</event>
<event>
 4    2  0.4086940E+000  0.1835103E+03  0.7546771E-02  0.1164448E+00
         21   -1    0    0  503  502  0.00000000000E+00  0.00000000000E+00  0.50067147554E+02  0.50067147554E+02  0.00000000000E+00 0.  1.
         21   -1    0    0  501  503 -0.00000000000E+00 -0.00000000000E+00 -0.69307323990E+03  0.69307323990E+03  0.00000000000E+00 0.  1.
          6    1    1    2  501    0  0.58994775178E+02  0.16328928836E+02 -0.38533874365E+03  0.42680436358E+03  0.17300000000E+03 0.  1.
         -6    1    1    2    0  502 -0.58994775178E+02 -0.16328928836E+02 -0.25766734870E+03  0.31633602387E+03  0.17300000000E+03 0.  1.
<mgrwt>
<rscale>  2 0.18351027E+03</rscale>
<asrwt>0</asrwt>
<pdfrwt beam="1">  1       21 0.77026380E-02 0.18351027E+03</pdfrwt>
<pdfrwt beam="2">  1       21 0.10662665E+00 0.18351027E+03</pdfrwt>
<totfact> 0.90600236E+04</totfact>
</mgrwt>
</event>
<event>
 4    2  0.4086940E+000  0.1745348E+03  0.7546771E-02  0.1173200E+00
         21   -1    0    0  503  502  0.00000000000E+00  0.00000000000E+00  0.61708108977E+03  0.61708108977E+03  0.00000000000E+00 0.  1.
         21   -1    0    0  501  503 -0.00000000000E+00 -0.00000000000E+00 -0.70928719109E+02  0.70928719109E+02  0.00000000000E+00 0.  1.
          6    1    1    2  501    0 -0.22829904661E+02  0.34913756785E+01  0.83400191048E+02  0.19343729247E+03  0.17300000000E+03 0.  1.
         -6    1    1    2    0  502  0.22829904661E+02 -0.34913756785E+01  0.46275217961E+03  0.49457251641E+03  0.17300000000E+03 0.  1.
<mgrwt>
<rscale>  2 0.17453479E+03</rscale>
<asrwt>0</asrwt>
<pdfrwt beam="1">  1       21 0.94935549E-01 0.17453479E+03</pdfrwt>
<pdfrwt beam="2">  1       21 0.10912111E-01 0.17453479E+03</pdfrwt>
<totfact> 0.65047119E+04</totfact>
</mgrwt>
</event>
<event>
 4    2  0.4086940E+000  0.1747085E+03  0.7546771E-02  0.1173025E+00
         21   -1    0    0  501  502  0.00000000000E+00  0.00000000000E+00  0.13901912827E+02  0.13901912827E+02  0.00000000000E+00 0.  1.
         21   -1    0    0  502  503 -0.00000000000E+00 -0.00000000000E+00 -0.23168011420E+04  0.23168011420E+04  0.00000000000E+00 0.  1.
          6    1    1    2  501    0  0.17444084797E+02 -0.17021948766E+02 -0.14179915433E+04  0.14287137780E+04  0.17300000000E+03 0. -1.
         -6    1    1    2    0  503 -0.17444084797E+02  0.17021948766E+02 -0.88490768596E+03  0.90198927683E+03  0.17300000000E+03 0. -1.
<mgrwt>
<rscale>  2 0.17470845E+03</rscale>
<asrwt>0</asrwt>
<pdfrwt beam="1">  1       21 0.21387585E-02 0.17470845E+03</pdfrwt>
<pdfrwt beam="2">  1       21 0.35643050E+00 0.17470845E+03</pdfrwt>
<totfact> 0.18060124E+04</totfact>
</mgrwt>
</event>
<event>
 4    2  0.4086940E+000  0.1931806E+03  0.7546771E-02  0.1155624E+00
         21   -1    0    0  503  502  0.00000000000E+00  0.00000000000E+00  0.14112661042E+04  0.14112661042E+04  0.00000000000E+00 0. -1.
         21   -1    0    0  501  503 -0.00000000000E+00 -0.00000000000E+00 -0.42763490148E+02  0.42763490148E+02  0.00000000000E+00 0. -1.
          6    1    1    2  501    0  0.38147523866E+02 -0.77035775528E+02  0.23512624134E+03  0.30430756424E+03  0.17300000000E+03 0. -1.
         -6    1    1    2    0  502 -0.38147523866E+02  0.77035775528E+02  0.11333763727E+04  0.11497220301E+04  0.17300000000E+03 0. -1.
<mgrwt>
<rscale>  2 0.19318060E+03</rscale>
<asrwt>0</asrwt>
<pdfrwt beam="1">  1       21 0.21711783E+00 0.19318060E+03</pdfrwt>
<pdfrwt beam="2">  1       21 0.65789996E-02 0.19318060E+03</pdfrwt>
<totfact> 0.17633459E+04</totfact>
</mgrwt>
</event>
<event>
 4    2  0.4086940E+000  0.2140089E+03  0.7546771E-02  0.1138430E+00
         21   -1    0    0  501  502  0.00000000000E+00  0.00000000000E+00  0.15140261258E+03  0.15140261258E+03  0.00000000000E+00 0. -1.
         21   -1    0    0  502  503 -0.00000000000E+00 -0.00000000000E+00 -0.40861804931E+03  0.40861804931E+03  0.00000000000E+00 0.  1.
          6    1    1    2  501    0 -0.50370914489E+02  0.11547110859E+03  0.14085371278E+02  0.21447191804E+03  0.17300000000E+03 0. -1.
         -6    1    1    2    0  503  0.50370914489E+02 -0.11547110859E+03 -0.27130080801E+03  0.34554874384E+03  0.17300000000E+03 0.  1.
<mgrwt>
<rscale>  2 0.21400889E+03</rscale>
<asrwt>0</asrwt>
<pdfrwt beam="1">  1       21 0.23292710E-01 0.21400889E+03</pdfrwt>
<pdfrwt beam="2">  1       21 0.62864314E-01 0.21400889E+03</pdfrwt>
<totfact> 0.40167637E+04</totfact>
</mgrwt>
</event>
<event>
 4    2  0.4086940E+000  0.2137598E+03  0.7546771E-02  0.1138623E+00
         21   -1    0    0  503  502  0.00000000000E+00  0.00000000000E+00  0.40032660329E+03  0.40032660329E+03  0.00000000000E+00 0.  1.
         21   -1    0    0  501  503 -0.00000000000E+00 -0.00000000000E+00 -0.12120614114E+03  0.12120614114E+03  0.00000000000E+00 0. -1.
          6    1    1    2  501    0 -0.49466095180E+02  0.11540076951E+03  0.76597438429E+02  0.22706915191E+03  0.17300000000E+03 0. -1.
         -6    1    1    2    0  502  0.49466095180E+02 -0.11540076951E+03  0.20252302373E+03  0.29446359251E+03  0.17300000000E+03 0.  1.
<mgrwt>
<rscale>  2 0.21375975E+03</rscale>
<asrwt>0</asrwt>
<pdfrwt beam="1">  1       21 0.61588708E-01 0.21375975E+03</pdfrwt>
<pdfrwt beam="2">  1       21 0.18647099E-01 0.21375975E+03</pdfrwt>
<totfact> 0.63801692E+04</totfact>
</mgrwt>
</event>
<event>
 4    2  0.4086940E+000  0.2137433E+03  0.7546771E-02  0.1138636E+00
         21   -1    0    0  503  502  0.00000000000E+00  0.00000000000E+00  0.60771593696E+03  0.60771593696E+03  0.00000000000E+00 0. -1.
         21   -1    0    0  501  503 -0.00000000000E+00 -0.00000000000E+00 -0.93434149128E+02  0.93434149128E+02  0.00000000000E+00 0.  1.
          6    1    1    2  501    0 -0.58621850383E+02  0.11099856484E+03  0.10217154795E+03  0.23690763590E+03  0.17300000000E+03 0.  1.
         -6    1    1    2    0  502  0.58621850383E+02 -0.11099856484E+03  0.41211023988E+03  0.46424245018E+03  0.17300000000E+03 0.  1.
<mgrwt>
<rscale>  2 0.21374331E+03</rscale>
<asrwt>0</asrwt>
<pdfrwt beam="1">  1       21 0.93494757E-01 0.21374331E+03</pdfrwt>
<pdfrwt beam="2">  1       21 0.14374485E-01 0.21374331E+03</pdfrwt>
<totfact> 0.40309515E+04</totfact>
</mgrwt>
</event>
<event>
 4    2  0.4086940E+000  0.1774197E+03  0.7546771E-02  0.1170324E+00
         21   -1    0    0  503  502  0.00000000000E+00  0.00000000000E+00  0.66539744500E+03  0.66539744500E+03  0.00000000000E+00 0. -1.
         21   -1    0    0  501  503 -0.00000000000E+00 -0.00000000000E+00 -0.11262415129E+03  0.11262415129E+03  0.00000000000E+00 0. -1.
          6    1    1    2  501    0 -0.30922683444E+02  0.24342008969E+02 -0.19864857112E+02  0.17852831232E+03  0.17300000000E+03 0. -1.
         -6    1    1    2    0  502  0.30922683444E+02 -0.24342008969E+02  0.57263815082E+03  0.59949328397E+03  0.17300000000E+03 0. -1.
<mgrwt>
<rscale>  2 0.17741969E+03</rscale>
<asrwt>0</asrwt>
<pdfrwt beam="1">  1       21 0.10236884E+00 0.17741969E+03</pdfrwt>
<pdfrwt beam="2">  1       21 0.17326793E-01 0.17741969E+03</pdfrwt>
<totfact> 0.23602748E+04</totfact>
</mgrwt>
</event>
<event>
 4    2  0.4086940E+000  0.1787015E+03  0.7546771E-02  0.1169066E+00
         21   -1    0    0  501  502  0.00000000000E+00  0.00000000000E+00  0.79639889615E+02  0.79639889615E+02  0.00000000000E+00 0.  1.
         21   -1    0    0  502  503 -0.00000000000E+00 -0.00000000000E+00 -0.64197109206E+03  0.64197109206E+03  0.00000000000E+00 0.  1.
          6    1    1    2  501    0  0.28585725899E+02  0.34468452573E+02 -0.60103922244E+02  0.18853832347E+03  0.17300000000E+03 0. -1.
         -6    1    1    2    0  503 -0.28585725899E+02 -0.34468452573E+02 -0.50222728021E+03  0.53307265821E+03  0.17300000000E+03 0. -1.
<mgrwt>
<rscale>  2 0.17870148E+03</rscale>
<asrwt>0</asrwt>
<pdfrwt beam="1">  1       21 0.12252291E-01 0.17870148E+03</pdfrwt>
<pdfrwt beam="2">  1       21 0.98764782E-01 0.17870148E+03</pdfrwt>
<totfact> 0.48136564E+04</totfact>
</mgrwt>
</event>
<event>
 4    2  0.4086940E+000  0.2083698E+03  0.7546771E-02  0.1142863E+00
         21   -1    0    0  501  502  0.00000000000E+00  0.00000000000E+00  0.66665497084E+02  0.66665497084E+02  0.00000000000E+00 0. -1.
         21   -1    0    0  502  503 -0.00000000000E+00 -0.00000000000E+00 -0.16397275640E+04  0.16397275640E+04  0.00000000000E+00 0. -1.
          6    1    1    2  501    0  0.95995096500E+02 -0.65375274679E+02 -0.12410134881E+03  0.24252655497E+03  0.17300000000E+03 0. -1.
         -6    1    1    2    0  503 -0.95995096500E+02  0.65375274679E+02 -0.14489607181E+04  0.14638665061E+04  0.17300000000E+03 0. -1.
<mgrwt>
<rscale>  2 0.20836983E+03</rscale>
<asrwt>0</asrwt>
<pdfrwt beam="1">  1       21 0.10256231E-01 0.20836983E+03</pdfrwt>
<pdfrwt beam="2">  1       21 0.25226577E+00 0.20836983E+03</pdfrwt>
<totfact> 0.49244803E+03</totfact>
</mgrwt>
</event>
<event>
 4    2  0.4086940E+000  0.1884696E+03  0.7546771E-02  0.1159849E+00
         21   -1    0    0  503  502  0.00000000000E+00  0.00000000000E+00  0.53060574850E+03  0.53060574850E+03  0.00000000000E+00 0.  1.
         21   -1    0    0  501  503 -0.00000000000E+00 -0.00000000000E+00 -0.67524281776E+02  0.67524281776E+02  0.00000000000E+00 0. -1.
          6    1    1    2  501    0 -0.67765326536E+02 -0.31616997343E+02  0.20381240751E+03  0.27759731890E+03  0.17300000000E+03 0. -1.
         -6    1    1    2    0  502  0.67765326536E+02  0.31616997343E+02  0.25926905922E+03  0.32053271139E+03  0.17300000000E+03 0. -1.
<mgrwt>
<rscale>  2 0.18846956E+03</rscale>
<asrwt>0</asrwt>
<pdfrwt beam="1">  1       21 0.81631651E-01 0.18846956E+03</pdfrwt>
<pdfrwt beam="2">  1       21 0.10388351E-01 0.18846956E+03</pdfrwt>
<totfact> 0.99832300E+04</totfact>
</mgrwt>
</event>
<event>
 4    2  0.4086940E+000  0.2611954E+03  0.7546771E-02  0.1106427E+00
         21   -1    0    0  501  502  0.00000000000E+00  0.00000000000E+00  0.28566909665E+03  0.28566909665E+03  0.00000000000E+00 0.  1.
         21   -1    0    0  502  503 -0.00000000000E+00 -0.00000000000E+00 -0.72284216721E+03  0.72284216721E+03  0.00000000000E+00 0. -1.
          6    1    1    2  501    0 -0.18209225796E+01  0.19568013387E+03  0.19404495750E+03  0.32538665627E+03  0.17300000000E+03 0.  1.
         -6    1    1    2    0  503  0.18209225796E+01 -0.19568013387E+03 -0.63121802805E+03  0.68312460759E+03  0.17300000000E+03 0. -1.
<mgrwt>
<rscale>  2 0.26119539E+03</rscale>
<asrwt>0</asrwt>
<pdfrwt beam="1">  1       21 0.43949092E-01 0.26119539E+03</pdfrwt>
<pdfrwt beam="2">  1       21 0.11120649E+00 0.26119539E+03</pdfrwt>
<totfact> 0.30036306E+03</totfact>
</mgrwt>
</event>
<event>
 4    2  0.4086940E+000  0.1825327E+03  0.7546771E-02  0.1165374E+00
         21   -1    0    0  501  502  0.00000000000E+00  0.00000000000E+00  0.11072358814E+03  0.11072358814E+03  0.00000000000E+00 0.  1.
         21   -1    0    0  502  503 -0.00000000000E+00 -0.00000000000E+00 -0.45883836188E+03  0.45883836188E+03  0.00000000000E+00 0.  1.
          6    1    1    2  501    0  0.17187013524E+02 -0.55621932159E+02 -0.34113056485E+03  0.38689566429E+03  0.17300000000E+03 0.  1.
         -6    1    1    2    0  503 -0.17187013524E+02  0.55621932159E+02 -0.69842089018E+01  0.18266628574E+03  0.17300000000E+03 0.  1.
<mgrwt>
<rscale>  2 0.18253272E+03</rscale>
<asrwt>0</asrwt>
<pdfrwt beam="1">  1       21 0.17034398E-01 0.18253272E+03</pdfrwt>
<pdfrwt beam="2">  1       21 0.70590518E-01 0.18253272E+03</pdfrwt>
<totfact> 0.56796912E+04</totfact>
</mgrwt>
</event>
<event>
 4    2  0.4086940E+000  0.1874528E+03  0.7546771E-02  0.1160779E+00
         21   -1    0    0  503  502  0.00000000000E+00  0.00000000000E+00  0.13670336459E+04  0.13670336459E+04  0.00000000000E+00 0. -1.
         21   -1    0    0  501  503 -0.00000000000E+00 -0.00000000000E+00 -0.40730273005E+02  0.40730273005E+02  0.00000000000E+00 0. -1.
          6    1    1    2  501    0  0.63123758586E+01  0.71900570293E+02  0.23562465003E+03  0.30109386210E+03  0.17300000000E+03 0. -1.
         -6    1    1    2    0  502 -0.63123758586E+01 -0.71900570293E+02  0.10906787228E+04  0.11066700568E+04  0.17300000000E+03 0. -1.
<mgrwt>
<rscale>  2 0.18745276E+03</rscale>
<asrwt>0</asrwt>
<pdfrwt beam="1">  1       21 0.21031283E+00 0.18745276E+03</pdfrwt>
<pdfrwt beam="2">  1       21 0.62661969E-02 0.18745276E+03</pdfrwt>
<totfact> 0.21230368E+04</totfact>
</mgrwt>
</event>
<event>
 4    2  0.4086940E+000  0.1929798E+03  0.7546771E-02  0.1155801E+00
         21   -1    0    0  501  502  0.00000000000E+00  0.00000000000E+00  0.25346131720E+03  0.25346131720E+03  0.00000000000E+00 0.  1.
         21   -1    0    0  502  503 -0.00000000000E+00 -0.00000000000E+00 -0.21028510865E+03  0.21028510865E+03  0.00000000000E+00 0.  1.
          6    1    1    2  501    0 -0.73125068840E+02  0.44327466664E+02  0.14886084618E+03  0.24372269389E+03  0.17300000000E+03 0.  1.
         -6    1    1    2    0  503  0.73125068840E+02 -0.44327466664E+02 -0.10568463763E+03  0.22002373196E+03  0.17300000000E+03 0.  1.
<mgrwt>
<rscale>  2 0.19297979E+03</rscale>
<asrwt>0</asrwt>
<pdfrwt beam="1">  1       21 0.38994049E-01 0.19297979E+03</pdfrwt>
<pdfrwt beam="2">  1       21 0.32351555E-01 0.19297979E+03</pdfrwt>
<totfact> 0.58286971E+04</totfact>
</mgrwt>
</event>
<event>
 4    2  0.4086940E+000  0.2067988E+03  0.7546771E-02  0.1144126E+00
         21   -1    0    0  501  502  0.00000000000E+00  0.00000000000E+00  0.31712375251E+03  0.31712375251E+03  0.00000000000E+00 0.  1.
         21   -1    0    0  502  503 -0.00000000000E+00 -0.00000000000E+00 -0.23282063789E+03  0.23282063789E+03  0.00000000000E+00 0.  1.
          6    1    1    2  501    0 -0.82776081071E+02 -0.77361935879E+02  0.22051865819E+03  0.30231478186E+03  0.17300000000E+03 0.  1.
         -6    1    1    2    0  503  0.82776081071E+02  0.77361935879E+02 -0.13621554357E+03  0.24762960855E+03  0.17300000000E+03 0.  1.
<mgrwt>
<rscale>  2 0.20679881E+03</rscale>
<asrwt>0</asrwt>
<pdfrwt beam="1">  1       21 0.48788270E-01 0.20679881E+03</pdfrwt>
<pdfrwt beam="2">  1       21 0.35818560E-01 0.20679881E+03</pdfrwt>
<totfact> 0.29906375E+04</totfact>
</mgrwt>
</event>
<event>
 4    2  0.4086940E+000  0.1815129E+03  0.7546771E-02  0.1166347E+00
         21   -1    0    0  503  502  0.00000000000E+00  0.00000000000E+00  0.58854561594E+03  0.58854561594E+03  0.00000000000E+00 0. -1.
         21   -1    0    0  501  503 -0.00000000000E+00 -0.00000000000E+00 -0.79100183098E+02  0.79100183098E+02  0.00000000000E+00 0. -1.
          6    1    1    2  501    0  0.40552608213E+02  0.37059545806E+02  0.74246168726E+02  0.19611072775E+03  0.17300000000E+03 0. -1.
         -6    1    1    2    0  502 -0.40552608213E+02 -0.37059545806E+02  0.43519926412E+03  0.47153507129E+03  0.17300000000E+03 0. -1.
<mgrwt>
<rscale>  2 0.18151288E+03</rscale>
<asrwt>0</asrwt>
<pdfrwt beam="1">  1       21 0.90545476E-01 0.18151288E+03</pdfrwt>
<pdfrwt beam="2">  1       21 0.12169259E-01 0.18151288E+03</pdfrwt>
<totfact> 0.59598054E+04</totfact>
</mgrwt>
</event>
<event>
 4    2  0.4086940E+000  0.1797888E+03  0.7546771E-02  0.1168008E+00
         21   -1    0    0  501  502  0.00000000000E+00  0.00000000000E+00  0.48260123106E+03  0.48260123106E+03  0.00000000000E+00 0.  1.
         21   -1    0    0  502  503 -0.00000000000E+00 -0.00000000000E+00 -0.67707155409E+02  0.67707155409E+02  0.00000000000E+00 0.  1.
          6    1    1    2  501    0  0.21374971094E+02 -0.44024013811E+02  0.23598745203E+03  0.29667167155E+03  0.17300000000E+03 0.  1.
         -6    1    1    2    0  503 -0.21374971094E+02  0.44024013811E+02  0.17890662361E+03  0.25363671492E+03  0.17300000000E+03 0.  1.
<mgrwt>
<rscale>  2 0.17978877E+03</rscale>
<asrwt>0</asrwt>
<pdfrwt beam="1">  1       21 0.74246341E-01 0.17978877E+03</pdfrwt>
<pdfrwt beam="2">  1       21 0.10416486E-01 0.17978877E+03</pdfrwt>
<totfact> 0.12334013E+05</totfact>
</mgrwt>
</event>
<event>
 4    2  0.4086940E+000  0.1853972E+03  0.7546771E-02  0.1162679E+00
         21   -1    0    0  503  502  0.00000000000E+00  0.00000000000E+00  0.21281773693E+03  0.21281773693E+03  0.00000000000E+00 0. -1.
         21   -1    0    0  501  503 -0.00000000000E+00 -0.00000000000E+00 -0.22371267734E+03  0.22371267734E+03  0.00000000000E+00 0. -1.
          6    1    1    2  501    0 -0.45164766767E+02  0.49023197473E+02 -0.12053937581E+03  0.22113767469E+03  0.17300000000E+03 0. -1.
         -6    1    1    2    0  502  0.45164766767E+02 -0.49023197473E+02  0.10964443540E+03  0.21539273958E+03  0.17300000000E+03 0. -1.
<mgrwt>
<rscale>  2 0.18539722E+03</rscale>
<asrwt>0</asrwt>
<pdfrwt beam="1">  1       21 0.32741191E-01 0.18539722E+03</pdfrwt>
<pdfrwt beam="2">  1       21 0.34417335E-01 0.18539722E+03</pdfrwt>
<totfact> 0.73269546E+04</totfact>
</mgrwt>
</event>
<event>
 4    2  0.4086940E+000  0.2485900E+03  0.7546771E-02  0.1114199E+00
         21   -1    0    0  503  502  0.00000000000E+00  0.00000000000E+00  0.34013281297E+03  0.34013281297E+03  0.00000000000E+00 0. -1.
         21   -1    0    0  501  503 -0.00000000000E+00 -0.00000000000E+00 -0.35790751683E+03  0.35790751683E+03  0.00000000000E+00 0.  1.
          6    1    1    2  501    0  0.10284011327E+03 -0.14591737264E+03 -0.25379143878E+03  0.35525633412E+03  0.17300000000E+03 0.  1.
         -6    1    1    2    0  502 -0.10284011327E+03  0.14591737264E+03  0.23601673491E+03  0.34278399568E+03  0.17300000000E+03 0. -1.
<mgrwt>
<rscale>  2 0.24858996E+03</rscale>
<asrwt>0</asrwt>
<pdfrwt beam="1">  1       21 0.52328125E-01 0.24858996E+03</pdfrwt>
<pdfrwt beam="2">  1       21 0.55062695E-01 0.24858996E+03</pdfrwt>
<totfact> 0.10412483E+04</totfact>
</mgrwt>
</event>
<event>
 4    2  0.4086940E+000  0.1948421E+03  0.7546771E-02  0.1154165E+00
         21   -1    0    0  503  502  0.00000000000E+00  0.00000000000E+00  0.50413264718E+02  0.50413264718E+02  0.00000000000E+00 0. -1.
         21   -1    0    0  501  503 -0.00000000000E+00 -0.00000000000E+00 -0.86240183668E+03  0.86240183668E+03  0.00000000000E+00 0. -1.
          6    1    1    2  501    0  0.53387765934E+02  0.72001454648E+02 -0.56851948772E+03  0.60098075755E+03  0.17300000000E+03 0. -1.
         -6    1    1    2    0  502 -0.53387765934E+02 -0.72001454648E+02 -0.24346908423E+03  0.31183434384E+03  0.17300000000E+03 0. -1.
<mgrwt>
<rscale>  2 0.19484215E+03</rscale>
<asrwt>0</asrwt>
<pdfrwt beam="1">  1       21 0.77558871E-02 0.19484215E+03</pdfrwt>
<pdfrwt beam="2">  1       21 0.13267720E+00 0.19484215E+03</pdfrwt>
<totfact> 0.51933277E+04</totfact>
</mgrwt>
</event>
<event>
 4    2  0.4086940E+000  0.1942540E+03  0.7546771E-02  0.1154679E+00
         21   -1    0    0  501  502  0.00000000000E+00  0.00000000000E+00  0.34790938693E+02  0.34790938693E+02  0.00000000000E+00 0. -1.
         21   -1    0    0  502  503 -0.00000000000E+00 -0.00000000000E+00 -0.11469080772E+04  0.11469080772E+04  0.00000000000E+00 0. -1.
          6    1    1    2  501    0 -0.81467417703E+02 -0.34186078473E+02 -0.41835440329E+03  0.46125376406E+03  0.17300000000E+03 0. -1.
         -6    1    1    2    0  503  0.81467417703E+02  0.34186078473E+02 -0.69376273519E+03  0.72044525180E+03  0.17300000000E+03 0. -1.
<mgrwt>
<rscale>  2 0.19425403E+03</rscale>
<asrwt>0</asrwt>
<pdfrwt beam="1">  1       21 0.53524515E-02 0.19425403E+03</pdfrwt>
<pdfrwt beam="2">  1       21 0.17644742E+00 0.19425403E+03</pdfrwt>
<totfact> 0.46065408E+04</totfact>
</mgrwt>
</event>
<event>
 4    2  0.4086940E+000  0.1949963E+03  0.7546771E-02  0.1154031E+00
         21   -1    0    0  501  502  0.00000000000E+00  0.00000000000E+00  0.52684110166E+02  0.52684110166E+02  0.00000000000E+00 0. -1.
         21   -1    0    0  502  503 -0.00000000000E+00 -0.00000000000E+00 -0.82029447303E+03  0.82029447303E+03  0.00000000000E+00 0.  1.
          6    1    1    2  501    0 -0.16776653734E+02 -0.88391677429E+02 -0.23249940326E+03  0.30344606978E+03  0.17300000000E+03 0. -1.
         -6    1    1    2    0  503  0.16776653734E+02  0.88391677429E+02 -0.53511095960E+03  0.56953251342E+03  0.17300000000E+03 0.  1.
<mgrwt>
<rscale>  2 0.19499627E+03</rscale>
<asrwt>0</asrwt>
<pdfrwt beam="1">  1       21 0.81052477E-02 0.19499627E+03</pdfrwt>
<pdfrwt beam="2">  1       21 0.12619915E+00 0.19499627E+03</pdfrwt>
<totfact> 0.54567463E+04</totfact>
</mgrwt>
</event>
<event>
 4    2  0.4086940E+000  0.2891061E+03  0.7546771E-02  0.1090817E+00
         21   -1    0    0  503  502  0.00000000000E+00  0.00000000000E+00  0.23082981455E+03  0.23082981455E+03  0.00000000000E+00 0.  1.
         21   -1    0    0  501  503 -0.00000000000E+00 -0.00000000000E+00 -0.52418027951E+03  0.52418027951E+03  0.00000000000E+00 0. -1.
          6    1    1    2  501    0  0.18736296625E+03 -0.13619268626E+03 -0.35659540205E+03  0.45906710803E+03  0.17300000000E+03 0. -1.
         -6    1    1    2    0  502 -0.18736296625E+03  0.13619268626E+03  0.63244937090E+02  0.29594298603E+03  0.17300000000E+03 0.  1.
<mgrwt>
<rscale>  2 0.28910609E+03</rscale>
<asrwt>0</asrwt>
<pdfrwt beam="1">  1       21 0.35512280E-01 0.28910609E+03</pdfrwt>
<pdfrwt beam="2">  1       21 0.80643119E-01 0.28910609E+03</pdfrwt>
<totfact> 0.97631451E+03</totfact>
</mgrwt>
</event>
<event>
 4    2  0.4086940E+000  0.2420377E+03  0.7546771E-02  0.1118443E+00
         21   -1    0    0  503  502  0.00000000000E+00  0.00000000000E+00  0.40963936804E+03  0.40963936804E+03  0.00000000000E+00 0.  1.
         21   -1    0    0  501  503 -0.00000000000E+00 -0.00000000000E+00 -0.14344470548E+03  0.14344470548E+03  0.00000000000E+00 0. -1.
          6    1    1    2  501    0 -0.13617517560E+03  0.10054629418E+03  0.14833330333E+03  0.28387498058E+03  0.17300000000E+03 0. -1.
         -6    1    1    2    0  502  0.13617517560E+03 -0.10054629418E+03  0.11786135924E+03  0.26920909294E+03  0.17300000000E+03 0. -1.
<mgrwt>
<rscale>  2 0.24203767E+03</rscale>
<asrwt>0</asrwt>
<pdfrwt beam="1">  1       21 0.63021441E-01 0.24203767E+03</pdfrwt>
<pdfrwt beam="2">  1       21 0.22068416E-01 0.24203767E+03</pdfrwt>
<totfact> 0.43700569E+04</totfact>
</mgrwt>
</event>
<event>
 4    2  0.4086940E+000  0.2140752E+03  0.7546771E-02  0.1138379E+00
         21   -1    0    0  503  502  0.00000000000E+00  0.00000000000E+00  0.10458888605E+03  0.10458888605E+03  0.00000000000E+00 0.  1.
         21   -1    0    0  501  503 -0.00000000000E+00 -0.00000000000E+00 -0.46233427287E+03  0.46233427287E+03  0.00000000000E+00 0. -1.
          6    1    1    2  501    0 -0.11974487071E+03  0.39501141878E+02 -0.24367094968E+03  0.32435120778E+03  0.17300000000E+03 0. -1.
         -6    1    1    2    0  502  0.11974487071E+03 -0.39501141878E+02 -0.11407443715E+03  0.24257195115E+03  0.17300000000E+03 0.  1.
<mgrwt>
<rscale>  2 0.21407516E+03</rscale>
<asrwt>0</asrwt>
<pdfrwt beam="1">  1       21 0.16090598E-01 0.21407516E+03</pdfrwt>
<pdfrwt beam="2">  1       21 0.71128349E-01 0.21407516E+03</pdfrwt>
<totfact> 0.61114712E+04</totfact>
</mgrwt>
</event>
<event>
 4    2  0.4086940E+000  0.1974765E+03  0.7546771E-02  0.1151886E+00
         21   -1    0    0  501  502  0.00000000000E+00  0.00000000000E+00  0.24492439008E+03  0.24492439008E+03  0.00000000000E+00 0.  1.
         21   -1    0    0  502  503 -0.00000000000E+00 -0.00000000000E+00 -0.51338465653E+03  0.51338465653E+03  0.00000000000E+00 0. -1.
          6    1    1    2  501    0 -0.54002279996E+02  0.78432905936E+02  0.18068761998E+03  0.26766580467E+03  0.17300000000E+03 0.  1.
         -6    1    1    2    0  503  0.54002279996E+02 -0.78432905936E+02 -0.44914788642E+03  0.49064324194E+03  0.17300000000E+03 0. -1.
<mgrwt>
<rscale>  2 0.19747650E+03</rscale>
<asrwt>0</asrwt>
<pdfrwt beam="1">  1       21 0.37680676E-01 0.19747650E+03</pdfrwt>
<pdfrwt beam="2">  1       21 0.78982254E-01 0.19747650E+03</pdfrwt>
<totfact> 0.95837128E+03</totfact>
</mgrwt>
</event>
<event>
 4    2  0.4086940E+000  0.1797592E+03  0.7546771E-02  0.1168036E+00
         21   -1    0    0  501  502  0.00000000000E+00  0.00000000000E+00  0.75739658521E+02  0.75739658521E+02  0.00000000000E+00 0.  1.
         21   -1    0    0  502  503 -0.00000000000E+00 -0.00000000000E+00 -0.83164087009E+03  0.83164087009E+03  0.00000000000E+00 0. -1.
          6    1    1    2  501    0 -0.19221755190E+01  0.48791983964E+02 -0.61343213201E+02  0.18993773260E+03  0.17300000000E+03 0.  1.
         -6    1    1    2    0  503  0.19221755190E+01 -0.48791983964E+02 -0.69455799837E+03  0.71744279601E+03  0.17300000000E+03 0. -1.
<mgrwt>
<rscale>  2 0.17975915E+03</rscale>
<asrwt>0</asrwt>
<pdfrwt beam="1">  1       21 0.11652255E-01 0.17975915E+03</pdfrwt>
<pdfrwt beam="2">  1       21 0.12794475E+00 0.17975915E+03</pdfrwt>
<totfact> 0.28046710E+04</totfact>
</mgrwt>
</event>
<event>
 4    2  0.4086940E+000  0.1835748E+03  0.7546771E-02  0.1164388E+00
         21   -1    0    0  501  502  0.00000000000E+00  0.00000000000E+00  0.13506390844E+03  0.13506390844E+03  0.00000000000E+00 0.  1.
         21   -1    0    0  502  503 -0.00000000000E+00 -0.00000000000E+00 -0.30105984829E+03  0.30105984829E+03  0.00000000000E+00 0.  1.
          6    1    1    2  501    0 -0.13957672975E+01 -0.61390206705E+02  0.72359525988E+01  0.18371734990E+03  0.17300000000E+03 0.  1.
         -6    1    1    2    0  503  0.13957672975E+01  0.61390206705E+02 -0.17323189245E+03  0.25240640683E+03  0.17300000000E+03 0.  1.
<mgrwt>
<rscale>  2 0.18357480E+03</rscale>
<asrwt>0</asrwt>
<pdfrwt beam="1">  1       21 0.20779063E-01 0.18357480E+03</pdfrwt>
<pdfrwt beam="2">  1       21 0.46316900E-01 0.18357480E+03</pdfrwt>
<totfact> 0.96298052E+04</totfact>
</mgrwt>
</event>
<event>
 4    2  0.4086940E+000  0.1766969E+03  0.7546771E-02  0.1171039E+00
         21   -1    0    0  501  502  0.00000000000E+00  0.00000000000E+00  0.37795674749E+02  0.37795674749E+02  0.00000000000E+00 0.  1.
         21   -1    0    0  502  503 -0.00000000000E+00 -0.00000000000E+00 -0.93800099639E+03  0.93800099639E+03  0.00000000000E+00 0.  1.
          6    1    1    2  501    0 -0.31336171310E+02  0.17630171787E+02 -0.28156082521E+03  0.33241281095E+03  0.17300000000E+03 0. -1.
         -6    1    1    2    0  503  0.31336171310E+02 -0.17630171787E+02 -0.61864449643E+03  0.64338386019E+03  0.17300000000E+03 0. -1.
<mgrwt>
<rscale>  2 0.17669686E+03</rscale>
<asrwt>0</asrwt>
<pdfrwt beam="1">  1       21 0.58147190E-02 0.17669686E+03</pdfrwt>
<pdfrwt beam="2">  1       21 0.14430785E+00 0.17669686E+03</pdfrwt>
<totfact> 0.69382872E+04</totfact>
</mgrwt>
</event>
<event>
 4    2  0.4086940E+000  0.2237784E+03  0.7546771E-02  0.1131097E+00
         21   -1    0    0  501  502  0.00000000000E+00  0.00000000000E+00  0.14472258503E+03  0.14472258503E+03  0.00000000000E+00 0.  1.
         21   -1    0    0  502  503 -0.00000000000E+00 -0.00000000000E+00 -0.43784834356E+03  0.43784834356E+03  0.00000000000E+00 0.  1.
          6    1    1    2  501    0  0.37936379463E+02 -0.13677934845E+03 -0.13165351567E+02  0.22416530849E+03  0.17300000000E+03 0.  1.
         -6    1    1    2    0  503 -0.37936379463E+02  0.13677934845E+03 -0.27996040697E+03  0.35840562010E+03  0.17300000000E+03 0.  1.
<mgrwt>
<rscale>  2 0.22377837E+03</rscale>
<asrwt>0</asrwt>
<pdfrwt beam="1">  1       21 0.22265014E-01 0.22377837E+03</pdfrwt>
<pdfrwt beam="2">  1       21 0.67361282E-01 0.22377837E+03</pdfrwt>
<totfact> 0.37451156E+04</totfact>
</mgrwt>
</event>
<event>
 4    2  0.4086940E+000  0.1982593E+03  0.7546771E-02  0.1151216E+00
         21   -1    0    0  501  502  0.00000000000E+00  0.00000000000E+00  0.23715975818E+03  0.23715975818E+03  0.00000000000E+00 0. -1.
         21   -1    0    0  502  503 -0.00000000000E+00 -0.00000000000E+00 -0.20231703007E+03  0.20231703007E+03  0.00000000000E+00 0. -1.
          6    1    1    2  501    0  0.94532198630E+02  0.21009776721E+02  0.11085359623E+03  0.22714591586E+03  0.17300000000E+03 0. -1.
         -6    1    1    2    0  503 -0.94532198630E+02 -0.21009776721E+02 -0.76010868118E+02  0.21233087238E+03  0.17300000000E+03 0. -1.
<mgrwt>
<rscale>  2 0.19825929E+03</rscale>
<asrwt>0</asrwt>
<pdfrwt beam="1">  1       21 0.36486117E-01 0.19825929E+03</pdfrwt>
<pdfrwt beam="2">  1       21 0.31125697E-01 0.19825929E+03</pdfrwt>
<totfact> 0.71661359E+04</totfact>
</mgrwt>
</event>
<event>
 4    2  0.4086940E+000  0.1799658E+03  0.7546771E-02  0.1167836E+00
         21   -1    0    0  503  502  0.00000000000E+00  0.00000000000E+00  0.70380248323E+03  0.70380248323E+03  0.00000000000E+00 0. -1.
         21   -1    0    0  501  503 -0.00000000000E+00 -0.00000000000E+00 -0.71459713551E+02  0.71459713551E+02  0.00000000000E+00 0. -1.
          6    1    1    2  501    0  0.33037755320E+02 -0.36975806871E+02  0.84879875887E+02  0.19897813172E+03  0.17300000000E+03 0. -1.
         -6    1    1    2    0  502 -0.33037755320E+02  0.36975806871E+02  0.54746289379E+03  0.57628406507E+03  0.17300000000E+03 0. -1.
<mgrwt>
<rscale>  2 0.17996584E+03</rscale>
<asrwt>0</asrwt>
<pdfrwt beam="1">  1       21 0.10827730E+00 0.17996584E+03</pdfrwt>
<pdfrwt beam="2">  1       21 0.10993803E-01 0.17996584E+03</pdfrwt>
<totfact> 0.46852331E+04</totfact>
</mgrwt>
</event>
<event>
 4    2  0.4086940E+000  0.1885178E+03  0.7546771E-02  0.1159805E+00
         21   -1    0    0  501  502  0.00000000000E+00  0.00000000000E+00  0.27677653071E+03  0.27677653071E+03  0.00000000000E+00 0.  1.
         21   -1    0    0  502  503 -0.00000000000E+00 -0.00000000000E+00 -0.13307129063E+03  0.13307129063E+03  0.00000000000E+00 0.  1.
          6    1    1    2  501    0  0.68860941025E+02 -0.29463818471E+02  0.11023464588E+03  0.21838182834E+03  0.17300000000E+03 0. -1.
         -6    1    1    2    0  503 -0.68860941025E+02  0.29463818471E+02  0.33470594194E+02  0.19146599299E+03  0.17300000000E+03 0. -1.
<mgrwt>
<rscale>  2 0.18851776E+03</rscale>
<asrwt>0</asrwt>
<pdfrwt beam="1">  1       21 0.42581005E-01 0.18851776E+03</pdfrwt>
<pdfrwt beam="2">  1       21 0.20472506E-01 0.18851776E+03</pdfrwt>
<totfact> 0.11741353E+05</totfact>
</mgrwt>
</event>
<event>
 4    2  0.4086940E+000  0.2185307E+03  0.7546771E-02  0.1134983E+00
         21   -1    0    0  503  502  0.00000000000E+00  0.00000000000E+00  0.14614777618E+03  0.14614777618E+03  0.00000000000E+00 0.  1.
         21   -1    0    0  501  503 -0.00000000000E+00 -0.00000000000E+00 -0.48821617095E+03  0.48821617095E+03  0.00000000000E+00 0.  1.
          6    1    1    2  501    0  0.31002282262E+02 -0.12986736955E+03 -0.35343460480E+03  0.41553783829E+03  0.17300000000E+03 0.  1.
         -6    1    1    2    0  502 -0.31002282262E+02  0.12986736955E+03  0.11366210036E+02  0.21882610884E+03  0.17300000000E+03 0.  1.
<mgrwt>
<rscale>  2 0.21853072E+03</rscale>
<asrwt>0</asrwt>
<pdfrwt beam="1">  1       21 0.22484273E-01 0.21853072E+03</pdfrwt>
<pdfrwt beam="2">  1       21 0.75110180E-01 0.21853072E+03</pdfrwt>
<totfact> 0.28945920E+04</totfact>
</mgrwt>
</event>
<event>
 4    2  0.4086940E+000  0.1835182E+03  0.7546771E-02  0.1164441E+00
         21   -1    0    0  501  502  0.00000000000E+00  0.00000000000E+00  0.33274180831E+03  0.33274180831E+03  0.00000000000E+00 0. -1.
         21   -1    0    0  502  503 -0.00000000000E+00 -0.00000000000E+00 -0.12311596822E+03  0.12311596822E+03  0.00000000000E+00 0.  1.
          6    1    1    2  501    0 -0.22308920287E+02  0.57028278244E+02  0.20094324678E+03  0.27213434343E+03  0.17300000000E+03 0.  1.
         -6    1    1    2    0  503  0.22308920287E+02 -0.57028278244E+02  0.86825933131E+01  0.18372343310E+03  0.17300000000E+03 0.  1.
<mgrwt>
<rscale>  2 0.18351815E+03</rscale>
<asrwt>0</asrwt>
<pdfrwt beam="1">  1       21 0.51191047E-01 0.18351815E+03</pdfrwt>
<pdfrwt beam="2">  1       21 0.18940918E-01 0.18351815E+03</pdfrwt>
<totfact> 0.92997733E+04</totfact>
</mgrwt>
</event>
<event>
 4    2  0.4086940E+000  0.2415651E+03  0.7546771E-02  0.1118755E+00
         21   -1    0    0  503  502  0.00000000000E+00  0.00000000000E+00  0.84426959902E+03  0.84426959902E+03  0.00000000000E+00 0. -1.
         21   -1    0    0  501  503 -0.00000000000E+00 -0.00000000000E+00 -0.69145195167E+02  0.69145195167E+02  0.00000000000E+00 0. -1.
          6    1    1    2  501    0 -0.67011586710E+02 -0.15470671726E+03  0.39671865938E+03  0.46447757299E+03  0.17300000000E+03 0. -1.
         -6    1    1    2    0  502  0.67011586710E+02  0.15470671726E+03  0.37840574447E+03  0.44893722119E+03  0.17300000000E+03 0. -1.
<mgrwt>
<rscale>  2 0.24156515E+03</rscale>
<asrwt>0</asrwt>
<pdfrwt beam="1">  1       21 0.12988762E+00 0.24156515E+03</pdfrwt>
<pdfrwt beam="2">  1       21 0.10637723E-01 0.24156515E+03</pdfrwt>
<totfact> 0.30664536E+04</totfact>
</mgrwt>
</event>
<event>
 4    2  0.4086940E+000  0.2885175E+03  0.7546771E-02  0.1091126E+00
         21   -1    0    0  501  502  0.00000000000E+00  0.00000000000E+00  0.15767304677E+03  0.15767304677E+03  0.00000000000E+00 0. -1.
         21   -1    0    0  502  503 -0.00000000000E+00 -0.00000000000E+00 -0.55724804451E+03  0.55724804451E+03  0.00000000000E+00 0.  1.
          6    1    1    2  501    0  0.17454105933E+03 -0.15115806697E+03 -0.11781336245E+03  0.31164455871E+03  0.17300000000E+03 0. -1.
         -6    1    1    2    0  503 -0.17454105933E+03  0.15115806697E+03 -0.28176163528E+03  0.40327653257E+03  0.17300000000E+03 0.  1.
<mgrwt>
<rscale>  2 0.28851749E+03</rscale>
<asrwt>0</asrwt>
<pdfrwt beam="1">  1       21 0.24257392E-01 0.28851749E+03</pdfrwt>
<pdfrwt beam="2">  1       21 0.85730468E-01 0.28851749E+03</pdfrwt>
<totfact> 0.17926491E+04</totfact>
</mgrwt>
</event>
<event>
 4    2  0.4086940E+000  0.2216320E+03  0.7546771E-02  0.1132672E+00
         21   -1    0    0  501  502  0.00000000000E+00  0.00000000000E+00  0.27105299842E+02  0.27105299842E+02  0.00000000000E+00 0. -1.
         21   -1    0    0  502  503 -0.00000000000E+00 -0.00000000000E+00 -0.27948356542E+04  0.27948356542E+04  0.00000000000E+00 0. -1.
          6    1    1    2  501    0  0.86098916607E+02 -0.10852984034E+03 -0.54723839050E+03  0.59041562117E+03  0.17300000000E+03 0. -1.
         -6    1    1    2    0  503 -0.86098916607E+02  0.10852984034E+03 -0.22204919639E+04  0.22315253329E+04  0.17300000000E+03 0. -1.
<mgrwt>
<rscale>  2 0.22163201E+03</rscale>
<asrwt>0</asrwt>
<pdfrwt beam="1">  1       21 0.41700467E-02 0.22163201E+03</pdfrwt>
<pdfrwt beam="2">  1       21 0.42997466E+00 0.22163201E+03</pdfrwt>
<totfact> 0.19737519E+03</totfact>
</mgrwt>
</event>
<event>
 4    2  0.4086940E+000  0.2016031E+03  0.7546771E-02  0.1148393E+00
         21   -1    0    0  503  502  0.00000000000E+00  0.00000000000E+00  0.23987180016E+03  0.23987180016E+03  0.00000000000E+00 0.  1.
         21   -1    0    0  501  503 -0.00000000000E+00 -0.00000000000E+00 -0.22470340364E+03  0.22470340364E+03  0.00000000000E+00 0.  1.
          6    1    1    2  501    0  0.39546433909E+02 -0.95660282824E+02 -0.10761279088E+03  0.22852641621E+03  0.17300000000E+03 0.  1.
         -6    1    1    2    0  502 -0.39546433909E+02  0.95660282824E+02  0.12278118741E+03  0.23604878760E+03  0.17300000000E+03 0.  1.
<mgrwt>
<rscale>  2 0.20160310E+03</rscale>
<asrwt>0</asrwt>
<pdfrwt beam="1">  1       21 0.36903354E-01 0.20160310E+03</pdfrwt>
<pdfrwt beam="2">  1       21 0.34569754E-01 0.20160310E+03</pdfrwt>
<totfact> 0.56872733E+04</totfact>
</mgrwt>
</event>
<event>
 4    2  0.4086940E+000  0.2088196E+03  0.7546771E-02  0.1142504E+00
         21   -1    0    0  501  502  0.00000000000E+00  0.00000000000E+00  0.12864567760E+04  0.12864567760E+04  0.00000000000E+00 0. -1.
         21   -1    0    0  502  503 -0.00000000000E+00 -0.00000000000E+00 -0.14699991381E+03  0.14699991381E+03  0.00000000000E+00 0. -1.
          6    1    1    2  501    0 -0.99448341124E+02 -0.61535830041E+02  0.11984162095E+04  0.12164731983E+04  0.17300000000E+03 0. -1.
         -6    1    1    2    0  503  0.99448341124E+02  0.61535830041E+02 -0.58959347362E+02  0.21698349147E+03  0.17300000000E+03 0. -1.
<mgrwt>
<rscale>  2 0.20881961E+03</rscale>
<asrwt>0</asrwt>
<pdfrwt beam="1">  1       21 0.19791642E+00 0.20881961E+03</pdfrwt>
<pdfrwt beam="2">  1       21 0.22615372E-01 0.20881961E+03</pdfrwt>
<totfact> 0.24973876E+03</totfact>
</mgrwt>
</event>
<event>
 4    2  0.4086940E+000  0.2007402E+03  0.7546771E-02  0.1149116E+00
         21   -1    0    0  503  502  0.00000000000E+00  0.00000000000E+00  0.14809261587E+04  0.14809261587E+04  0.00000000000E+00 0. -1.
         21   -1    0    0  501  503 -0.00000000000E+00 -0.00000000000E+00 -0.41553015480E+02  0.41553015480E+02  0.00000000000E+00 0.  1.
          6    1    1    2  501    0  0.10017384094E+03  0.18243784059E+02  0.27245356119E+03  0.33841923272E+03  0.17300000000E+03 0.  1.
         -6    1    1    2    0  502 -0.10017384094E+03 -0.18243784059E+02  0.11669195820E+04  0.11840599415E+04  0.17300000000E+03 0. -1.
<mgrwt>
<rscale>  2 0.20074022E+03</rscale>
<asrwt>0</asrwt>
<pdfrwt beam="1">  1       21 0.22783475E+00 0.20074022E+03</pdfrwt>
<pdfrwt beam="2">  1       21 0.63927728E-02 0.20074022E+03</pdfrwt>
<totfact> 0.15832044E+04</totfact>
</mgrwt>
</event>
<event>
 4    2  0.4086940E+000  0.1772654E+03  0.7546771E-02  0.1170476E+00
         21   -1    0    0  503  502  0.00000000000E+00  0.00000000000E+00  0.77929662591E+02  0.77929662591E+02  0.00000000000E+00 0. -1.
         21   -1    0    0  501  503 -0.00000000000E+00 -0.00000000000E+00 -0.40335497404E+03  0.40335497404E+03  0.00000000000E+00 0. -1.
          6    1    1    2  501    0 -0.12928058192E+02  0.36426489656E+02 -0.16706729300E+03  0.24358674888E+03  0.17300000000E+03 0. -1.
         -6    1    1    2    0  502  0.12928058192E+02 -0.36426489656E+02 -0.15835801845E+03  0.23769788776E+03  0.17300000000E+03 0. -1.
<mgrwt>
<rscale>  2 0.17726541E+03</rscale>
<asrwt>0</asrwt>
<pdfrwt beam="1">  1       21 0.11989179E-01 0.17726541E+03</pdfrwt>
<pdfrwt beam="2">  1       21 0.62054611E-01 0.17726541E+03</pdfrwt>
<totfact> 0.14239303E+05</totfact>
</mgrwt>
</event>
<event>
 4    2  0.4086940E+000  0.2121875E+03  0.7546771E-02  0.1139845E+00
         21   -1    0    0  501  502  0.00000000000E+00  0.00000000000E+00  0.81023147850E+03  0.81023147850E+03  0.00000000000E+00 0.  1.
         21   -1    0    0  502  503 -0.00000000000E+00 -0.00000000000E+00 -0.58153426944E+02  0.58153426944E+02  0.00000000000E+00 0. -1.
          6    1    1    2  501    0 -0.69586828624E+02  0.10125318235E+03  0.28450143199E+03  0.35491491721E+03  0.17300000000E+03 0. -1.
         -6    1    1    2    0  503  0.69586828624E+02 -0.10125318235E+03  0.46757661956E+03  0.51346998823E+03  0.17300000000E+03 0.  1.
<mgrwt>
<rscale>  2 0.21218750E+03</rscale>
<asrwt>0</asrwt>
<pdfrwt beam="1">  1       21 0.12465099E+00 0.21218750E+03</pdfrwt>
<pdfrwt beam="2">  1       21 0.89466817E-02 0.21218750E+03</pdfrwt>
<totfact> 0.46921941E+04</totfact>
</mgrwt>
</event>
<event>
 4    2  0.4086940E+000  0.1900527E+03  0.7546771E-02  0.1158414E+00
         21   -1    0    0  503  502  0.00000000000E+00  0.00000000000E+00  0.16875967875E+04  0.16875967875E+04  0.00000000000E+00 0.  1.
         21   -1    0    0  501  503 -0.00000000000E+00 -0.00000000000E+00 -0.22424219820E+02  0.22424219820E+02  0.00000000000E+00 0.  1.
          6    1    1    2  501    0 -0.39034332562E+02 -0.68318132278E+02  0.10150264438E+04  0.10326658355E+04  0.17300000000E+03 0.  1.
         -6    1    1    2    0  502  0.39034332562E+02  0.68318132278E+02  0.65014612392E+03  0.67735517180E+03  0.17300000000E+03 0.  1.
<mgrwt>
<rscale>  2 0.19005275E+03</rscale>
<asrwt>0</asrwt>
<pdfrwt beam="1">  1       21 0.25963018E+00 0.19005275E+03</pdfrwt>
<pdfrwt beam="2">  1       21 0.34498813E-02 0.19005275E+03</pdfrwt>
<totfact> 0.29366004E+04</totfact>
</mgrwt>
</event>
<event>
 4    2  0.4086940E+000  0.2539535E+03  0.7546771E-02  0.1110832E+00
         21   -1    0    0  503  502  0.00000000000E+00  0.00000000000E+00  0.65198990972E+03  0.65198990972E+03  0.00000000000E+00 0.  1.
         21   -1    0    0  501  503 -0.00000000000E+00 -0.00000000000E+00 -0.14297232227E+03  0.14297232227E+03  0.00000000000E+00 0.  1.
          6    1    1    2  501    0 -0.14347595496E+03  0.11822864066E+03  0.33864005658E+02  0.25620135051E+03  0.17300000000E+03 0.  1.
         -6    1    1    2    0  502  0.14347595496E+03 -0.11822864066E+03  0.47515358179E+03  0.53876088148E+03  0.17300000000E+03 0.  1.
<mgrwt>
<rscale>  2 0.25395346E+03</rscale>
<asrwt>0</asrwt>
<pdfrwt beam="1">  1       21 0.10030614E+00 0.25395346E+03</pdfrwt>
<pdfrwt beam="2">  1       21 0.21995742E-01 0.25395346E+03</pdfrwt>
<totfact> 0.15180829E+04</totfact>
</mgrwt>
</event>
<event>
 4    2  0.4086940E+000  0.2062889E+03  0.7546771E-02  0.1144539E+00
         21   -1    0    0  503  502  0.00000000000E+00  0.00000000000E+00  0.45384456713E+03  0.45384456713E+03  0.00000000000E+00 0.  1.
         21   -1    0    0  501  503 -0.00000000000E+00 -0.00000000000E+00 -0.10242793428E+03  0.10242793428E+03  0.00000000000E+00 0.  1.
          6    1    1    2  501    0  0.84142297129E+02 -0.74472622238E+02  0.25659199893E+03  0.32923327830E+03  0.17300000000E+03 0.  1.
         -6    1    1    2    0  502 -0.84142297129E+02  0.74472622238E+02  0.94824633920E+02  0.22703922310E+03  0.17300000000E+03 0.  1.
<mgrwt>
<rscale>  2 0.20628887E+03</rscale>
<asrwt>0</asrwt>
<pdfrwt beam="1">  1       21 0.69822240E-01 0.20628887E+03</pdfrwt>
<pdfrwt beam="2">  1       21 0.15758144E-01 0.20628887E+03</pdfrwt>
<totfact> 0.66388963E+04</totfact>
</mgrwt>
</event>
<event>
 4    2  0.4086940E+000  0.2569183E+03  0.7546771E-02  0.1109009E+00
         21   -1    0    0  503  502  0.00000000000E+00  0.00000000000E+00  0.72637021115E+03  0.72637021115E+03  0.00000000000E+00 0. -1.
         21   -1    0    0  501  503 -0.00000000000E+00 -0.00000000000E+00 -0.57234585448E+03  0.57234585448E+03  0.00000000000E+00 0.  1.
          6    1    1    2  501    0 -0.18868061920E+03 -0.21855232650E+02 -0.51856919412E+03  0.57872362691E+03  0.17300000000E+03 0.  1.
         -6    1    1    2    0  502  0.18868061920E+03  0.21855232650E+02  0.67259355078E+03  0.71999243872E+03  0.17300000000E+03 0. -1.
<mgrwt>
<rscale>  2 0.25691833E+03</rscale>
<asrwt>0</asrwt>
<pdfrwt beam="1">  1       21 0.11174926E+00 0.25691833E+03</pdfrwt>
<pdfrwt beam="2">  1       21 0.88053208E-01 0.25691833E+03</pdfrwt>
<totfact> 0.65388707E+02</totfact>
</mgrwt>
</event>
<event>
 4    2  0.4086940E+000  0.1890279E+03  0.7546771E-02  0.1159341E+00
         21   -1    0    0  503  502  0.00000000000E+00  0.00000000000E+00  0.30451060775E+02  0.30451060775E+02  0.00000000000E+00 0.  1.
         21   -1    0    0  501  503 -0.00000000000E+00 -0.00000000000E+00 -0.11782131210E+04  0.11782131210E+04  0.00000000000E+00 0.  1.
          6    1    1    2  501    0 -0.72875177608E+02  0.22175942132E+02 -0.61246866943E+03  0.64097537781E+03  0.17300000000E+03 0. -1.
         -6    1    1    2    0  502  0.72875177608E+02 -0.22175942132E+02 -0.53529339078E+03  0.56768880396E+03  0.17300000000E+03 0. -1.
<mgrwt>
<rscale>  2 0.18902794E+03</rscale>
<asrwt>0</asrwt>
<pdfrwt beam="1">  1       21 0.46847787E-02 0.18902794E+03</pdfrwt>
<pdfrwt beam="2">  1       21 0.18126355E+00 0.18902794E+03</pdfrwt>
<totfact> 0.53697625E+04</totfact>
</mgrwt>
</event>
<event>
 4    2  0.4086940E+000  0.2401258E+03  0.7546771E-02  0.1119709E+00
         21   -1    0    0  501  502  0.00000000000E+00  0.00000000000E+00  0.21900281265E+03  0.21900281265E+03  0.00000000000E+00 0.  1.
         21   -1    0    0  502  503 -0.00000000000E+00 -0.00000000000E+00 -0.27343618122E+03  0.27343618122E+03  0.00000000000E+00 0.  1.
          6    1    1    2  501    0 -0.14878439943E+03  0.74797115505E+02  0.20221523542E+02  0.24097575815E+03  0.17300000000E+03 0.  1.
         -6    1    1    2    0  503  0.14878439943E+03 -0.74797115505E+02 -0.74654892114E+02  0.25146323572E+03  0.17300000000E+03 0.  1.
<mgrwt>
<rscale>  2 0.24012581E+03</rscale>
<asrwt>0</asrwt>
<pdfrwt beam="1">  1       21 0.33692740E-01 0.24012581E+03</pdfrwt>
<pdfrwt beam="2">  1       21 0.42067105E-01 0.24012581E+03</pdfrwt>
<totfact> 0.45141872E+04</totfact>
</mgrwt>
</event>
<event>
 4    2  0.4086940E+000  0.5692485E+03  0.7546771E-02  0.9971343E-01
         21   -1    0    0  501  502  0.00000000000E+00  0.00000000000E+00  0.11305974824E+04  0.11305974824E+04  0.00000000000E+00 0.  1.
         21   -1    0    0  502  503 -0.00000000000E+00 -0.00000000000E+00 -0.28750304981E+03  0.28750304981E+03  0.00000000000E+00 0. -1.
          6    1    1    2  501    0 -0.53987143264E+03 -0.51514457660E+02  0.38209511916E+03  0.68559505776E+03  0.17300000000E+03 0. -1.
         -6    1    1    2    0  503  0.53987143264E+03  0.51514457660E+02  0.46099931343E+03  0.73250547446E+03  0.17300000000E+03 0.  1.
<mgrwt>
<rscale>  2 0.56924854E+03</rscale>
<asrwt>0</asrwt>
<pdfrwt beam="1">  1       21 0.17393807E+00 0.56924854E+03</pdfrwt>
<pdfrwt beam="2">  1       21 0.44231239E-01 0.56924854E+03</pdfrwt>
<totfact> 0.78490877E+02</totfact>
</mgrwt>
</event>
<event>
 4    2  0.4086940E+000  0.1761350E+03  0.7546771E-02  0.1171597E+00
         21   -1    0    0  503  502  0.00000000000E+00  0.00000000000E+00  0.63964436547E+03  0.63964436547E+03  0.00000000000E+00 0.  1.
         21   -1    0    0  501  503 -0.00000000000E+00 -0.00000000000E+00 -0.18203940783E+03  0.18203940783E+03  0.00000000000E+00 0.  1.
          6    1    1    2  501    0 -0.20553356014E+02 -0.25924664426E+02 -0.12307766090E+03  0.21487586947E+03  0.17300000000E+03 0.  1.
         -6    1    1    2    0  502  0.20553356014E+02  0.25924664426E+02  0.58068261854E+03  0.60680790382E+03  0.17300000000E+03 0.  1.
<mgrwt>
<rscale>  2 0.17613497E+03</rscale>
<asrwt>0</asrwt>
<pdfrwt beam="1">  1       21 0.98406824E-01 0.17613497E+03</pdfrwt>
<pdfrwt beam="2">  1       21 0.28006063E-01 0.17613497E+03</pdfrwt>
<totfact> 0.10507467E+04</totfact>
</mgrwt>
</event>
<event>
 4    2  0.4086940E+000  0.1937658E+03  0.7546771E-02  0.1155108E+00
         21   -1    0    0  503  502  0.00000000000E+00  0.00000000000E+00  0.18412925045E+03  0.18412925045E+03  0.00000000000E+00 0. -1.
         21   -1    0    0  501  503 -0.00000000000E+00 -0.00000000000E+00 -0.32310571451E+03  0.32310571451E+03  0.00000000000E+00 0.  1.
          6    1    1    2  501    0 -0.20330216536E+02 -0.84869697567E+02 -0.22353168509E+03  0.29582359187E+03  0.17300000000E+03 0.  1.
         -6    1    1    2    0  502  0.20330216536E+02  0.84869697567E+02  0.84555221025E+02  0.21141137309E+03  0.17300000000E+03 0. -1.
<mgrwt>
<rscale>  2 0.19376579E+03</rscale>
<asrwt>0</asrwt>
<pdfrwt beam="1">  1       21 0.28327577E-01 0.19376579E+03</pdfrwt>
<pdfrwt beam="2">  1       21 0.49708572E-01 0.19376579E+03</pdfrwt>
<totfact> 0.45925072E+04</totfact>
</mgrwt>
</event>
<event>
 4    2  0.4086940E+000  0.2190154E+03  0.7546771E-02  0.1134619E+00
         21   -1    0    0  501  502  0.00000000000E+00  0.00000000000E+00  0.11745204257E+03  0.11745204257E+03  0.00000000000E+00 0. -1.
         21   -1    0    0  502  503 -0.00000000000E+00 -0.00000000000E+00 -0.67730805280E+03  0.67730805280E+03  0.00000000000E+00 0.  1.
          6    1    1    2  501    0 -0.11390621337E+03  0.71162634279E+02 -0.29540553019E+02  0.22099862044E+03  0.17300000000E+03 0. -1.
         -6    1    1    2    0  503  0.11390621337E+03 -0.71162634279E+02 -0.53031545721E+03  0.57376147494E+03  0.17300000000E+03 0.  1.
<mgrwt>
<rscale>  2 0.21901540E+03</rscale>
<asrwt>0</asrwt>
<pdfrwt beam="1">  1       21 0.18069545E-01 0.21901540E+03</pdfrwt>
<pdfrwt beam="2">  1       21 0.10420124E+00 0.21901540E+03</pdfrwt>
<totfact> 0.20415428E+04</totfact>
</mgrwt>
</event>
<event>
 4    2  0.4086940E+000  0.2149253E+03  0.7546771E-02  0.1137724E+00
         21   -1    0    0  503  502  0.00000000000E+00  0.00000000000E+00  0.13910896851E+03  0.13910896851E+03  0.00000000000E+00 0. -1.
         21   -1    0    0  501  503 -0.00000000000E+00 -0.00000000000E+00 -0.48620432036E+03  0.48620432036E+03  0.00000000000E+00 0.  1.
          6    1    1    2  501    0  0.68808770231E+02 -0.10737436248E+03 -0.34959045124E+03  0.41037346915E+03  0.17300000000E+03 0.  1.
         -6    1    1    2    0  502 -0.68808770231E+02  0.10737436248E+03  0.24950993911E+01  0.21493981972E+03  0.17300000000E+03 0. -1.
<mgrwt>
<rscale>  2 0.21492534E+03</rscale>
<asrwt>0</asrwt>
<pdfrwt beam="1">  1       21 0.21401380E-01 0.21492534E+03</pdfrwt>
<pdfrwt beam="2">  1       21 0.74800664E-01 0.21492534E+03</pdfrwt>
<totfact> 0.32130921E+04</totfact>
</mgrwt>
</event>
<event>
 4    2  0.4086940E+000  0.1749001E+03  0.7546771E-02  0.1172832E+00
         21   -1    0    0  503  502  0.00000000000E+00  0.00000000000E+00  0.51135256348E+02  0.51135256348E+02  0.00000000000E+00 0.  1.
         21   -1    0    0  501  503 -0.00000000000E+00 -0.00000000000E+00 -0.61091017873E+03  0.61091017873E+03  0.00000000000E+00 0.  1.
          6    1    1    2  501    0  0.43127154917E+01 -0.25346700494E+02 -0.32759963376E+03  0.37136447700E+03  0.17300000000E+03 0.  1.
         -6    1    1    2    0  502 -0.43127154917E+01  0.25346700494E+02 -0.23217528863E+03  0.29068095808E+03  0.17300000000E+03 0.  1.
<mgrwt>
<rscale>  2 0.17490013E+03</rscale>
<asrwt>0</asrwt>
<pdfrwt beam="1">  1       21 0.78669622E-02 0.17490013E+03</pdfrwt>
<pdfrwt beam="2">  1       21 0.93986186E-01 0.17490013E+03</pdfrwt>
<totfact> 0.11817442E+05</totfact>
</mgrwt>
</event>
<event>
 4    2  0.4086940E+000  0.1734181E+03  0.7546771E-02  0.1174330E+00
         21   -1    0    0  503  502  0.00000000000E+00  0.00000000000E+00  0.39303084362E+02  0.39303084362E+02  0.00000000000E+00 0. -1.
         21   -1    0    0  501  503 -0.00000000000E+00 -0.00000000000E+00 -0.20435666674E+04  0.20435666674E+04  0.00000000000E+00 0. -1.
          6    1    1    2  501    0  0.70016798803E+01  0.97880284145E+01 -0.18258322024E+04  0.18340493615E+04  0.17300000000E+03 0. -1.
         -6    1    1    2    0  502 -0.70016798803E+01 -0.97880284145E+01 -0.17843138062E+03  0.24882039026E+03  0.17300000000E+03 0. -1.
<mgrwt>
<rscale>  2 0.17341808E+03</rscale>
<asrwt>0</asrwt>
<pdfrwt beam="1">  1       21 0.60466272E-02 0.17341808E+03</pdfrwt>
<pdfrwt beam="2">  1       21 0.31439493E+00 0.17341808E+03</pdfrwt>
<totfact> 0.56194487E+03</totfact>
</mgrwt>
</event>
<event>
 4    2  0.4086940E+000  0.1992209E+03  0.7546771E-02  0.1150398E+00
         21   -1    0    0  501  502  0.00000000000E+00  0.00000000000E+00  0.22547908339E+03  0.22547908339E+03  0.00000000000E+00 0.  1.
         21   -1    0    0  502  503 -0.00000000000E+00 -0.00000000000E+00 -0.17602070597E+03  0.17602070597E+03  0.00000000000E+00 0.  1.
          6    1    1    2  501    0  0.71072037705E+02 -0.68620127234E+02  0.24906709885E+02  0.20077176246E+03  0.17300000000E+03 0.  1.
         -6    1    1    2    0  503 -0.71072037705E+02  0.68620127234E+02  0.24551667530E+02  0.20072802690E+03  0.17300000000E+03 0.  1.
<mgrwt>
<rscale>  2 0.19922087E+03</rscale>
<asrwt>0</asrwt>
<pdfrwt beam="1">  1       21 0.34689090E-01 0.19922087E+03</pdfrwt>
<pdfrwt beam="2">  1       21 0.27080109E-01 0.19922087E+03</pdfrwt>
<totfact> 0.10381763E+05</totfact>
</mgrwt>
</event>
<event>
 4    2  0.4086940E+000  0.1887974E+03  0.7546771E-02  0.1159551E+00
         21   -1    0    0  501  502  0.00000000000E+00  0.00000000000E+00  0.32857697137E+03  0.32857697137E+03  0.00000000000E+00 0. -1.
         21   -1    0    0  502  503 -0.00000000000E+00 -0.00000000000E+00 -0.18274746953E+03  0.18274746953E+03  0.00000000000E+00 0. -1.
          6    1    1    2  501    0 -0.60340302646E+02 -0.45546616239E+02  0.23589556298E+03  0.30214427515E+03  0.17300000000E+03 0.  1.
         -6    1    1    2    0  503  0.60340302646E+02  0.45546616239E+02 -0.90066061137E+02  0.20918016575E+03  0.17300000000E+03 0.  1.
<mgrwt>
<rscale>  2 0.18879737E+03</rscale>
<asrwt>0</asrwt>
<pdfrwt beam="1">  1       21 0.50550303E-01 0.18879737E+03</pdfrwt>
<pdfrwt beam="2">  1       21 0.28114995E-01 0.18879737E+03</pdfrwt>
<totfact> 0.45102020E+04</totfact>
</mgrwt>
</event>
<event>
 4    2  0.4086940E+000  0.2008202E+03  0.7546771E-02  0.1149049E+00
         21   -1    0    0  503  502  0.00000000000E+00  0.00000000000E+00  0.24725757424E+03  0.24725757424E+03  0.00000000000E+00 0. -1.
         21   -1    0    0  501  503 -0.00000000000E+00 -0.00000000000E+00 -0.26333281425E+03  0.26333281425E+03  0.00000000000E+00 0. -1.
          6    1    1    2  501    0  0.91851660471E+02 -0.44305820828E+02 -0.16553964743E+03  0.26025393015E+03  0.17300000000E+03 0. -1.
         -6    1    1    2    0  502 -0.91851660471E+02  0.44305820828E+02  0.14946440742E+03  0.25033645834E+03  0.17300000000E+03 0. -1.
<mgrwt>
<rscale>  2 0.20082015E+03</rscale>
<asrwt>0</asrwt>
<pdfrwt beam="1">  1       21 0.38039627E-01 0.20082015E+03</pdfrwt>
<pdfrwt beam="2">  1       21 0.40512740E-01 0.20082015E+03</pdfrwt>
<totfact> 0.38958440E+04</totfact>
</mgrwt>
</event>
<event>
 4    2  0.4086940E+000  0.1739712E+03  0.7546771E-02  0.1173769E+00
         21   -1    0    0  503  502  0.00000000000E+00  0.00000000000E+00  0.55784876528E+02  0.55784876528E+02  0.00000000000E+00 0. -1.
         21   -1    0    0  501  503 -0.00000000000E+00 -0.00000000000E+00 -0.78870970851E+03  0.78870970851E+03  0.00000000000E+00 0. -1.
          6    1    1    2  501    0 -0.11202198904E+02  0.14542497363E+02 -0.60235730108E+03  0.62697710616E+03  0.17300000000E+03 0. -1.
         -6    1    1    2    0  502  0.11202198904E+02 -0.14542497363E+02 -0.13056753090E+03  0.21751747887E+03  0.17300000000E+03 0. -1.
<mgrwt>
<rscale>  2 0.17397119E+03</rscale>
<asrwt>0</asrwt>
<pdfrwt beam="1">  1       21 0.85822894E-02 0.17397119E+03</pdfrwt>
<pdfrwt beam="2">  1       21 0.12133995E+00 0.17397119E+03</pdfrwt>
<totfact> 0.55065691E+04</totfact>
</mgrwt>
</event>
<event>
 4    2  0.4086940E+000  0.2313380E+03  0.7546771E-02  0.1125702E+00
         21   -1    0    0  501  502  0.00000000000E+00  0.00000000000E+00  0.34311392987E+03  0.34311392987E+03  0.00000000000E+00 0. -1.
         21   -1    0    0  502  503 -0.00000000000E+00 -0.00000000000E+00 -0.25811621432E+03  0.25811621432E+03  0.00000000000E+00 0.  1.
          6    1    1    2  501    0  0.57510036400E+02 -0.14241090311E+03  0.23160392016E+03  0.32734942408E+03  0.17300000000E+03 0. -1.
         -6    1    1    2    0  503 -0.57510036400E+02  0.14241090311E+03 -0.14660620462E+03  0.27388072011E+03  0.17300000000E+03 0.  1.
<mgrwt>
<rscale>  2 0.23133800E+03</rscale>
<asrwt>0</asrwt>
<pdfrwt beam="1">  1       21 0.52786759E-01 0.23133800E+03</pdfrwt>
<pdfrwt beam="2">  1       21 0.39710187E-01 0.23133800E+03</pdfrwt>
<totfact> 0.20340653E+04</totfact>
</mgrwt>
</event>
<event>
 4    2  0.4086940E+000  0.1920970E+03  0.7546771E-02  0.1156583E+00
         21   -1    0    0  503  502  0.00000000000E+00  0.00000000000E+00  0.32055930321E+02  0.32055930321E+02  0.00000000000E+00 0. -1.
         21   -1    0    0  501  503 -0.00000000000E+00 -0.00000000000E+00 -0.11998908947E+04  0.11998908947E+04  0.00000000000E+00 0. -1.
          6    1    1    2  501    0 -0.79980872810E+01  0.83116203760E+02 -0.70806142399E+03  0.73365676775E+03  0.17300000000E+03 0. -1.
         -6    1    1    2    0  502  0.79980872810E+01 -0.83116203760E+02 -0.45977354035E+03  0.49829005723E+03  0.17300000000E+03 0. -1.
<mgrwt>
<rscale>  2 0.19209704E+03</rscale>
<asrwt>0</asrwt>
<pdfrwt beam="1">  1       21 0.49316814E-02 0.19209704E+03</pdfrwt>
<pdfrwt beam="2">  1       21 0.18459861E+00 0.19209704E+03</pdfrwt>
<totfact> 0.46660377E+04</totfact>
</mgrwt>
</event>
<event>
 4    2  0.4086940E+000  0.2273511E+03  0.7546771E-02  0.1128518E+00
         21   -1    0    0  503  502  0.00000000000E+00  0.00000000000E+00  0.25844257182E+03  0.25844257182E+03  0.00000000000E+00 0.  1.
         21   -1    0    0  501  503 -0.00000000000E+00 -0.00000000000E+00 -0.62207749735E+03  0.62207749735E+03  0.00000000000E+00 0.  1.
          6    1    1    2  501    0 -0.11391359048E+03 -0.93718839649E+02 -0.54446362995E+03  0.59002472095E+03  0.17300000000E+03 0.  1.
         -6    1    1    2    0  502  0.11391359048E+03  0.93718839649E+02  0.18082870441E+03  0.29049534822E+03  0.17300000000E+03 0.  1.
<mgrwt>
<rscale>  2 0.22735111E+03</rscale>
<asrwt>0</asrwt>
<pdfrwt beam="1">  1       21 0.39760396E-01 0.22735111E+03</pdfrwt>
<pdfrwt beam="2">  1       21 0.95704230E-01 0.22735111E+03</pdfrwt>
<totfact> 0.54103115E+03</totfact>
</mgrwt>
</event>
<event>
 4    2  0.4086940E+000  0.1926100E+03  0.7546771E-02  0.1156128E+00
         21   -1    0    0  503  502  0.00000000000E+00  0.00000000000E+00  0.12133699609E+04  0.12133699609E+04  0.00000000000E+00 0.  1.
         21   -1    0    0  501  503 -0.00000000000E+00 -0.00000000000E+00 -0.31499049330E+02  0.31499049330E+02  0.00000000000E+00 0. -1.
          6    1    1    2  501    0  0.32591719884E+02 -0.78149923194E+02  0.69755153249E+03  0.72365514659E+03  0.17300000000E+03 0.  1.
         -6    1    1    2    0  502 -0.32591719884E+02  0.78149923194E+02  0.48431937904E+03  0.52121386360E+03  0.17300000000E+03 0. -1.
<mgrwt>
<rscale>  2 0.19261005E+03</rscale>
<asrwt>0</asrwt>
<pdfrwt beam="1">  1       21 0.18667227E+00 0.19261005E+03</pdfrwt>
<pdfrwt beam="2">  1       21 0.48460085E-02 0.19261005E+03</pdfrwt>
<totfact> 0.46542615E+04</totfact>
</mgrwt>
</event>
<event>
 4    2  0.4086940E+000  0.1776716E+03  0.7546771E-02  0.1170076E+00
         21   -1    0    0  501  502  0.00000000000E+00  0.00000000000E+00  0.63527410182E+02  0.63527410182E+02  0.00000000000E+00 0.  1.
         21   -1    0    0  502  503 -0.00000000000E+00 -0.00000000000E+00 -0.15514746469E+04  0.15514746469E+04  0.00000000000E+00 0.  1.
          6    1    1    2  501    0  0.24782758174E+02 -0.32000058701E+02 -0.78228411253E+02  0.19413107218E+03  0.17300000000E+03 0.  1.
         -6    1    1    2    0  503 -0.24782758174E+02  0.32000058701E+02 -0.14097188254E+04  0.14208709849E+04  0.17300000000E+03 0.  1.
<mgrwt>
<rscale>  2 0.17767158E+03</rscale>
<asrwt>0</asrwt>
<pdfrwt beam="1">  1       21 0.97734486E-02 0.17767158E+03</pdfrwt>
<pdfrwt beam="2">  1       21 0.23868839E+00 0.17767158E+03</pdfrwt>
<totfact> 0.66539609E+03</totfact>
</mgrwt>
</event>
<event>
 4    2  0.4086940E+000  0.1945196E+03  0.7546771E-02  0.1154447E+00
         21   -1    0    0  501  502  0.00000000000E+00  0.00000000000E+00  0.21624247620E+04  0.21624247620E+04  0.00000000000E+00 0.  1.
         21   -1    0    0  502  503 -0.00000000000E+00 -0.00000000000E+00 -0.19051512938E+02  0.19051512938E+02  0.00000000000E+00 0.  1.
          6    1    1    2  501    0 -0.74685021765E+02 -0.48280613891E+02  0.13831655055E+04  0.13967765340E+04  0.17300000000E+03 0.  1.
         -6    1    1    2    0  503  0.74685021765E+02  0.48280613891E+02  0.76020774356E+03  0.78469974100E+03  0.17300000000E+03 0.  1.
<mgrwt>
<rscale>  2 0.19451959E+03</rscale>
<asrwt>0</asrwt>
<pdfrwt beam="1">  1       21 0.33268054E+00 0.19451959E+03</pdfrwt>
<pdfrwt beam="2">  1       21 0.29310037E-02 0.19451959E+03</pdfrwt>
<totfact> 0.14496484E+04</totfact>
</mgrwt>
</event>
<event>
 4    2  0.4086940E+000  0.2175868E+03  0.7546771E-02  0.1135695E+00
         21   -1    0    0  503  502  0.00000000000E+00  0.00000000000E+00  0.22632391277E+03  0.22632391277E+03  0.00000000000E+00 0.  1.
         21   -1    0    0  501  503 -0.00000000000E+00 -0.00000000000E+00 -0.22647432192E+03  0.22647432192E+03  0.00000000000E+00 0.  1.
          6    1    1    2  501    0 -0.50387535472E+02 -0.12196770980E+03 -0.62625417559E+02  0.22641989508E+03  0.17300000000E+03 0.  1.
         -6    1    1    2    0  502  0.50387535472E+02  0.12196770980E+03  0.62475008417E+02  0.22637833961E+03  0.17300000000E+03 0.  1.
<mgrwt>
<rscale>  2 0.21758682E+03</rscale>
<asrwt>0</asrwt>
<pdfrwt beam="1">  1       21 0.34819064E-01 0.21758682E+03</pdfrwt>
<pdfrwt beam="2">  1       21 0.34842203E-01 0.21758682E+03</pdfrwt>
<totfact> 0.62428093E+04</totfact>
</mgrwt>
</event>
<event>
 4    2  0.4086940E+000  0.1901341E+03  0.7546771E-02  0.1158340E+00
         21   -1    0    0  501  502  0.00000000000E+00  0.00000000000E+00  0.44870524729E+02  0.44870524729E+02  0.00000000000E+00 0. -1.
         21   -1    0    0  502  503 -0.00000000000E+00 -0.00000000000E+00 -0.13560912132E+04  0.13560912132E+04  0.00000000000E+00 0. -1.
          6    1    1    2  501    0  0.12567450395E+02  0.77871911590E+02 -0.20933984323E+03  0.28279700385E+03  0.17300000000E+03 0. -1.
         -6    1    1    2    0  503 -0.12567450395E+02 -0.77871911590E+02 -0.11018808453E+04  0.11181647341E+04  0.17300000000E+03 0. -1.
<mgrwt>
<rscale>  2 0.19013410E+03</rscale>
<asrwt>0</asrwt>
<pdfrwt beam="1">  1       21 0.69031580E-02 0.19013410E+03</pdfrwt>
<pdfrwt beam="2">  1       21 0.20862941E+00 0.19013410E+03</pdfrwt>
<totfact> 0.18376256E+04</totfact>
</mgrwt>
</event>
<event>
 4    2  0.4086940E+000  0.1814685E+03  0.7546771E-02  0.1166389E+00
         21   -1    0    0  501  502  0.00000000000E+00  0.00000000000E+00  0.15353948081E+04  0.15353948081E+04  0.00000000000E+00 0. -1.
         21   -1    0    0  502  503 -0.00000000000E+00 -0.00000000000E+00 -0.21801638201E+02  0.21801638201E+02  0.00000000000E+00 0. -1.
          6    1    1    2  501    0  0.54212960598E+02 -0.79237314279E+01  0.65760490176E+03  0.68218402022E+03  0.17300000000E+03 0.  1.
         -6    1    1    2    0  503 -0.54212960598E+02  0.79237314279E+01  0.85598826818E+03  0.87501242613E+03  0.17300000000E+03 0.  1.
<mgrwt>
<rscale>  2 0.18146854E+03</rscale>
<asrwt>0</asrwt>
<pdfrwt beam="1">  1       21 0.23621450E+00 0.18146854E+03</pdfrwt>
<pdfrwt beam="2">  1       21 0.33540994E-02 0.18146854E+03</pdfrwt>
<totfact> 0.42560327E+04</totfact>
</mgrwt>
</event>
<event>
 4    2  0.4086940E+000  0.1975158E+03  0.7546771E-02  0.1151852E+00
         21   -1    0    0  503  502  0.00000000000E+00  0.00000000000E+00  0.39868360875E+03  0.39868360875E+03  0.00000000000E+00 0. -1.
         21   -1    0    0  501  503 -0.00000000000E+00 -0.00000000000E+00 -0.99721738877E+02  0.99721738877E+02  0.00000000000E+00 0. -1.
          6    1    1    2  501    0 -0.94955268680E+02  0.81838989864E+01  0.11536908709E+03  0.22874113209E+03  0.17300000000E+03 0. -1.
         -6    1    1    2    0  502  0.94955268680E+02 -0.81838989864E+01  0.18359278279E+03  0.26966421554E+03  0.17300000000E+03 0. -1.
<mgrwt>
<rscale>  2 0.19751577E+03</rscale>
<asrwt>0</asrwt>
<pdfrwt beam="1">  1       21 0.61335939E-01 0.19751577E+03</pdfrwt>
<pdfrwt beam="2">  1       21 0.15341806E-01 0.19751577E+03</pdfrwt>
<totfact> 0.92857754E+04</totfact>
</mgrwt>
</event>
<event>
 4    2  0.4086940E+000  0.1859321E+03  0.7546771E-02  0.1162182E+00
         21   -1    0    0  503  502  0.00000000000E+00  0.00000000000E+00  0.37051666800E+02  0.37051666800E+02  0.00000000000E+00 0.  1.
         21   -1    0    0  501  503 -0.00000000000E+00 -0.00000000000E+00 -0.10312541402E+04  0.10312541402E+04  0.00000000000E+00 0.  1.
          6    1    1    2  501    0  0.21054922171E+01 -0.68097824340E+02 -0.66194259887E+03  0.68755999810E+03  0.17300000000E+03 0. -1.
         -6    1    1    2    0  502 -0.21054922171E+01  0.68097824340E+02 -0.33225987451E+03  0.38074580889E+03  0.17300000000E+03 0. -1.
<mgrwt>
<rscale>  2 0.18593210E+03</rscale>
<asrwt>0</asrwt>
<pdfrwt beam="1">  1       21 0.57002561E-02 0.18593210E+03</pdfrwt>
<pdfrwt beam="2">  1       21 0.15865449E+00 0.18593210E+03</pdfrwt>
<totfact> 0.55627205E+04</totfact>
</mgrwt>
</event>
<event>
 4    2  0.4086940E+000  0.2299992E+03  0.7546771E-02  0.1126640E+00
         21   -1    0    0  503  502  0.00000000000E+00  0.00000000000E+00  0.12241590127E+04  0.12241590127E+04  0.00000000000E+00 0. -1.
         21   -1    0    0  501  503 -0.00000000000E+00 -0.00000000000E+00 -0.46831631292E+02  0.46831631292E+02  0.00000000000E+00 0.  1.
          6    1    1    2  501    0 -0.11580056080E+03 -0.97779641432E+02  0.41201407829E+03  0.47186357019E+03  0.17300000000E+03 0. -1.
         -6    1    1    2    0  502  0.11580056080E+03  0.97779641432E+02  0.76531330315E+03  0.79912707383E+03  0.17300000000E+03 0.  1.
<mgrwt>
<rscale>  2 0.22999919E+03</rscale>
<asrwt>0</asrwt>
<pdfrwt beam="1">  1       21 0.18833213E+00 0.22999919E+03</pdfrwt>
<pdfrwt beam="2">  1       21 0.72048673E-02 0.22999919E+03</pdfrwt>
<totfact> 0.22439097E+04</totfact>
</mgrwt>
</event>
<event>
 4    2  0.4086940E+000  0.1934216E+03  0.7546771E-02  0.1155411E+00
         21   -1    0    0  503  502  0.00000000000E+00  0.00000000000E+00  0.39557551350E+03  0.39557551350E+03  0.00000000000E+00 0.  1.
         21   -1    0    0  501  503 -0.00000000000E+00 -0.00000000000E+00 -0.10906474067E+03  0.10906474067E+03  0.00000000000E+00 0.  1.
          6    1    1    2  501    0  0.77520845895E+02 -0.38385353609E+02  0.51289603320E+02  0.20010632256E+03  0.17300000000E+03 0.  1.
         -6    1    1    2    0  502 -0.77520845895E+02  0.38385353609E+02  0.23522116950E+03  0.30453393161E+03  0.17300000000E+03 0.  1.
<mgrwt>
<rscale>  2 0.19342160E+03</rscale>
<asrwt>0</asrwt>
<pdfrwt beam="1">  1       21 0.60857771E-01 0.19342160E+03</pdfrwt>
<pdfrwt beam="2">  1       21 0.16779191E-01 0.19342160E+03</pdfrwt>
<totfact> 0.80294881E+04</totfact>
</mgrwt>
</event>
<event>
 4    2  0.4086940E+000  0.3612061E+03  0.7546771E-02  0.1058107E+00
         21   -1    0    0  503  502  0.00000000000E+00  0.00000000000E+00  0.91632425879E+03  0.91632425879E+03  0.00000000000E+00 0. -1.
         21   -1    0    0  501  503 -0.00000000000E+00 -0.00000000000E+00 -0.16727645274E+03  0.16727645274E+03  0.00000000000E+00 0.  1.
          6    1    1    2  501    0 -0.14005593128E+03 -0.28447355356E+03  0.16551914596E+03  0.39732411737E+03  0.17300000000E+03 0.  1.
         -6    1    1    2    0  502  0.14005593128E+03  0.28447355356E+03  0.58352866008E+03  0.68627659416E+03  0.17300000000E+03 0. -1.
<mgrwt>
<rscale>  2 0.36120613E+03</rscale>
<asrwt>0</asrwt>
<pdfrwt beam="1">  1       21 0.14097296E+00 0.36120613E+03</pdfrwt>
<pdfrwt beam="2">  1       21 0.25734840E-01 0.36120613E+03</pdfrwt>
<totfact> 0.45431327E+03</totfact>
</mgrwt>
</event>
<event>
 4    2  0.4086940E+000  0.1746436E+03  0.7546771E-02  0.1173090E+00
         21   -1    0    0  501  502  0.00000000000E+00  0.00000000000E+00  0.49380728211E+03  0.49380728211E+03  0.00000000000E+00 0. -1.
         21   -1    0    0  502  503 -0.00000000000E+00 -0.00000000000E+00 -0.71818237276E+02  0.71818237276E+02  0.00000000000E+00 0. -1.
          6    1    1    2  501    0  0.13764178707E+02  0.19543273469E+02  0.31680233547E+03  0.36175145046E+03  0.17300000000E+03 0. -1.
         -6    1    1    2    0  503 -0.13764178707E+02 -0.19543273469E+02  0.10518670937E+03  0.20387406893E+03  0.17300000000E+03 0. -1.
<mgrwt>
<rscale>  2 0.17464361E+03</rscale>
<asrwt>0</asrwt>
<pdfrwt beam="1">  1       21 0.75970349E-01 0.17464361E+03</pdfrwt>
<pdfrwt beam="2">  1       21 0.11048960E-01 0.17464361E+03</pdfrwt>
<totfact> 0.10578041E+05</totfact>
</mgrwt>
</event>
<event>
 4    2  0.4086940E+000  0.1835334E+03  0.7546771E-02  0.1164427E+00
         21   -1    0    0  501  502  0.00000000000E+00  0.00000000000E+00  0.14206631907E+03  0.14206631907E+03  0.00000000000E+00 0.  1.
         21   -1    0    0  502  503 -0.00000000000E+00 -0.00000000000E+00 -0.24848949665E+03  0.24848949665E+03  0.00000000000E+00 0.  1.
          6    1    1    2  501    0  0.59239277147E+02 -0.15691852758E+02 -0.11412139169E+02  0.18388790912E+03  0.17300000000E+03 0. -1.
         -6    1    1    2    0  503 -0.59239277147E+02  0.15691852758E+02 -0.95011038414E+02  0.20666790660E+03  0.17300000000E+03 0. -1.
<mgrwt>
<rscale>  2 0.18353345E+03</rscale>
<asrwt>0</asrwt>
<pdfrwt beam="1">  1       21 0.21856357E-01 0.18353345E+03</pdfrwt>
<pdfrwt beam="2">  1       21 0.38229153E-01 0.18353345E+03</pdfrwt>
<totfact> 0.12935471E+05</totfact>
</mgrwt>
</event>
<event>
 4    2  0.4086940E+000  0.1862708E+03  0.7546771E-02  0.1161868E+00
         21   -1    0    0  503  502  0.00000000000E+00  0.00000000000E+00  0.49712083114E+03  0.49712083114E+03  0.00000000000E+00 0.  1.
         21   -1    0    0  501  503 -0.00000000000E+00 -0.00000000000E+00 -0.10711002436E+03  0.10711002436E+03  0.00000000000E+00 0.  1.
          6    1    1    2  501    0 -0.67978331088E+02  0.12114252402E+02  0.16686796242E+02  0.18701673128E+03  0.17300000000E+03 0.  1.
         -6    1    1    2    0  502  0.67978331088E+02 -0.12114252402E+02  0.37332401053E+03  0.41721412422E+03  0.17300000000E+03 0.  1.
<mgrwt>
<rscale>  2 0.18627079E+03</rscale>
<asrwt>0</asrwt>
<pdfrwt beam="1">  1       21 0.76480127E-01 0.18627079E+03</pdfrwt>
<pdfrwt beam="2">  1       21 0.16478466E-01 0.18627079E+03</pdfrwt>
<totfact> 0.50430402E+04</totfact>
</mgrwt>
</event>
<event>
 4    2  0.4086940E+000  0.1820496E+03  0.7546771E-02  0.1165834E+00
         21   -1    0    0  503  502  0.00000000000E+00  0.00000000000E+00  0.22175953608E+03  0.22175953608E+03  0.00000000000E+00 0. -1.
         21   -1    0    0  501  503 -0.00000000000E+00 -0.00000000000E+00 -0.15442809662E+03  0.15442809662E+03  0.00000000000E+00 0. -1.
          6    1    1    2  501    0 -0.16210744596E+02  0.54316313539E+02  0.67435311416E+02  0.19413802148E+03  0.17300000000E+03 0.  1.
         -6    1    1    2    0  502  0.16210744596E+02 -0.54316313539E+02 -0.10387195664E+00  0.18204961122E+03  0.17300000000E+03 0.  1.
<mgrwt>
<rscale>  2 0.18204958E+03</rscale>
<asrwt>0</asrwt>
<pdfrwt beam="1">  1       21 0.34116852E-01 0.18204958E+03</pdfrwt>
<pdfrwt beam="2">  1       21 0.23758169E-01 0.18204958E+03</pdfrwt>
<totfact> 0.13864765E+05</totfact>
</mgrwt>
</event>
<event>
 4    2  0.4086940E+000  0.1905781E+03  0.7546771E-02  0.1157941E+00
         21   -1    0    0  503  502  0.00000000000E+00  0.00000000000E+00  0.81212986105E+03  0.81212986105E+03  0.00000000000E+00 0.  1.
         21   -1    0    0  501  503 -0.00000000000E+00 -0.00000000000E+00 -0.48903294122E+02  0.48903294122E+02  0.00000000000E+00 0.  1.
          6    1    1    2  501    0 -0.73740756621E+02  0.30875483082E+02  0.25572621938E+03  0.31892929298E+03  0.17300000000E+03 0.  1.
         -6    1    1    2    0  502  0.73740756621E+02 -0.30875483082E+02  0.50750034755E+03  0.54210386220E+03  0.17300000000E+03 0.  1.
<mgrwt>
<rscale>  2 0.19057805E+03</rscale>
<asrwt>0</asrwt>
<pdfrwt beam="1">  1       21 0.12494305E+00 0.19057805E+03</pdfrwt>
<pdfrwt beam="2">  1       21 0.75235843E-02 0.19057805E+03</pdfrwt>
<totfact> 0.63828050E+04</totfact>
</mgrwt>
</event>
<event>
 4    2  0.4086940E+000  0.1750633E+03  0.7546771E-02  0.1172668E+00
         21   -1    0    0  501  502  0.00000000000E+00  0.00000000000E+00  0.46331877264E+03  0.46331877264E+03  0.00000000000E+00 0. -1.
         21   -1    0    0  502  503 -0.00000000000E+00 -0.00000000000E+00 -0.92208893595E+02  0.92208893595E+02  0.00000000000E+00 0. -1.
          6    1    1    2  501    0 -0.84463874785E+01 -0.25432716996E+02  0.33322483129E+03  0.37641194554E+03  0.17300000000E+03 0. -1.
         -6    1    1    2    0  503  0.84463874785E+01  0.25432716996E+02  0.37885047745E+02  0.17911572069E+03  0.17300000000E+03 0. -1.
<mgrwt>
<rscale>  2 0.17506332E+03</rscale>
<asrwt>0</asrwt>
<pdfrwt beam="1">  1       21 0.71279810E-01 0.17506332E+03</pdfrwt>
<pdfrwt beam="2">  1       21 0.14185984E-01 0.17506332E+03</pdfrwt>
<totfact> 0.77866672E+04</totfact>
</mgrwt>
</event>
<event>
 4    2  0.4086940E+000  0.2221160E+03  0.7546771E-02  0.1132315E+00
         21   -1    0    0  501  502  0.00000000000E+00  0.00000000000E+00  0.56757100630E+02  0.56757100630E+02  0.00000000000E+00 0. -1.
         21   -1    0    0  502  503 -0.00000000000E+00 -0.00000000000E+00 -0.10506367153E+04  0.10506367153E+04  0.00000000000E+00 0. -1.
          6    1    1    2  501    0 -0.13296860335E+02 -0.13867119407E+03 -0.26686912975E+03  0.34720979101E+03  0.17300000000E+03 0. -1.
         -6    1    1    2    0  503  0.13296860335E+02  0.13867119407E+03 -0.72701048487E+03  0.76018402487E+03  0.17300000000E+03 0. -1.
<mgrwt>
<rscale>  2 0.22211598E+03</rscale>
<asrwt>0</asrwt>
<pdfrwt beam="1">  1       21 0.87318617E-02 0.22211598E+03</pdfrwt>
<pdfrwt beam="2">  1       21 0.16163642E+00 0.22211598E+03</pdfrwt>
<totfact> 0.24747937E+04</totfact>
</mgrwt>
</event>
<event>
 4    2  0.4086940E+000  0.1873672E+03  0.7546771E-02  0.1160858E+00
         21   -1    0    0  501  502  0.00000000000E+00  0.00000000000E+00  0.67735214209E+02  0.67735214209E+02  0.00000000000E+00 0. -1.
         21   -1    0    0  502  503 -0.00000000000E+00 -0.00000000000E+00 -0.52143751035E+03  0.52143751035E+03  0.00000000000E+00 0.  1.
          6    1    1    2  501    0  0.33425937815E+02  0.63719641332E+02 -0.20396391910E+03  0.27696166938E+03  0.17300000000E+03 0.  1.
         -6    1    1    2    0  503 -0.33425937815E+02 -0.63719641332E+02 -0.24973837705E+03  0.31221105519E+03  0.17300000000E+03 0. -1.
<mgrwt>
<rscale>  2 0.18736725E+03</rscale>
<asrwt>0</asrwt>
<pdfrwt beam="1">  1       21 0.10420802E-01 0.18736725E+03</pdfrwt>
<pdfrwt beam="2">  1       21 0.80221159E-01 0.18736725E+03</pdfrwt>
<totfact> 0.10332182E+05</totfact>
</mgrwt>
</event>
<event>
 4    2  0.4086940E+000  0.2957269E+03  0.7546771E-02  0.1087396E+00
         21   -1    0    0  501  502  0.00000000000E+00  0.00000000000E+00  0.12769740968E+03  0.12769740968E+03  0.00000000000E+00 0. -1.
         21   -1    0    0  502  503 -0.00000000000E+00 -0.00000000000E+00 -0.99396351769E+03  0.99396351769E+03  0.00000000000E+00 0.  1.
          6    1    1    2  501    0 -0.23305428433E+03  0.56666349572E+02 -0.74588567052E+03  0.80237136546E+03  0.17300000000E+03 0. -1.
         -6    1    1    2    0  503  0.23305428433E+03 -0.56666349572E+02 -0.12038043749E+03  0.31928956191E+03  0.17300000000E+03 0. -1.
<mgrwt>
<rscale>  2 0.29572686E+03</rscale>
<asrwt>0</asrwt>
<pdfrwt beam="1">  1       21 0.19645755E-01 0.29572686E+03</pdfrwt>
<pdfrwt beam="2">  1       21 0.15291746E+00 0.29572686E+03</pdfrwt>
<totfact> 0.63281549E+03</totfact>
</mgrwt>
</event>
<event>
 4    2  0.4086940E+000  0.1981044E+03  0.7546771E-02  0.1151348E+00
         21   -1    0    0  503  502  0.00000000000E+00  0.00000000000E+00  0.16826554296E+03  0.16826554296E+03  0.00000000000E+00 0.  1.
         21   -1    0    0  501  503 -0.00000000000E+00 -0.00000000000E+00 -0.30654850532E+03  0.30654850532E+03  0.00000000000E+00 0.  1.
          6    1    1    2  501    0  0.45625593562E+02 -0.85056875520E+02  0.46959738839E+02  0.20359416478E+03  0.17300000000E+03 0.  1.
         -6    1    1    2    0  502 -0.45625593562E+02  0.85056875520E+02 -0.18524270119E+03  0.27121988350E+03  0.17300000000E+03 0.  1.
<mgrwt>
<rscale>  2 0.19810443E+03</rscale>
<asrwt>0</asrwt>
<pdfrwt beam="1">  1       21 0.25887007E-01 0.19810443E+03</pdfrwt>
<pdfrwt beam="2">  1       21 0.47161308E-01 0.19810443E+03</pdfrwt>
<totfact> 0.60805133E+04</totfact>
</mgrwt>
</event>
<event>
 4    2  0.4086940E+000  0.1937952E+03  0.7546771E-02  0.1155082E+00
         21   -1    0    0  501  502  0.00000000000E+00  0.00000000000E+00  0.10783169317E+04  0.10783169317E+04  0.00000000000E+00 0. -1.
         21   -1    0    0  502  503 -0.00000000000E+00 -0.00000000000E+00 -0.83406541401E+02  0.83406541401E+02  0.00000000000E+00 0. -1.
          6    1    1    2  501    0  0.78396784679E+02 -0.38490512877E+02  0.94074832011E+03  0.96050194025E+03  0.17300000000E+03 0. -1.
         -6    1    1    2    0  503 -0.78396784679E+02  0.38490512877E+02  0.54162070164E+02  0.20122153283E+03  0.17300000000E+03 0. -1.
<mgrwt>
<rscale>  2 0.19379519E+03</rscale>
<asrwt>0</asrwt>
<pdfrwt beam="1">  1       21 0.16589490E+00 0.19379519E+03</pdfrwt>
<pdfrwt beam="2">  1       21 0.12831776E-01 0.19379519E+03</pdfrwt>
<totfact> 0.11862821E+04</totfact>
</mgrwt>
</event>
<event>
 4    2  0.4086940E+000  0.2196168E+03  0.7546771E-02  0.1134169E+00
         21   -1    0    0  501  502  0.00000000000E+00  0.00000000000E+00  0.14305027372E+04  0.14305027372E+04  0.00000000000E+00 0.  1.
         21   -1    0    0  502  503 -0.00000000000E+00 -0.00000000000E+00 -0.37020080529E+02  0.37020080529E+02  0.00000000000E+00 0.  1.
          6    1    1    2  501    0 -0.15075898256E+02 -0.13444425608E+03  0.91593542745E+03  0.94189662276E+03  0.17300000000E+03 0.  1.
         -6    1    1    2    0  503  0.15075898256E+02  0.13444425608E+03  0.47754722918E+03  0.52562619493E+03  0.17300000000E+03 0.  1.
<mgrwt>
<rscale>  2 0.21961680E+03</rscale>
<asrwt>0</asrwt>
<pdfrwt beam="1">  1       21 0.22007730E+00 0.21961680E+03</pdfrwt>
<pdfrwt beam="2">  1       21 0.56953981E-02 0.21961680E+03</pdfrwt>
<totfact> 0.21216237E+04</totfact>
</mgrwt>
</event>
<event>
 4    2  0.4086940E+000  0.2127367E+03  0.7546771E-02  0.1139417E+00
         21   -1    0    0  501  502  0.00000000000E+00  0.00000000000E+00  0.21787622814E+03  0.21787622814E+03  0.00000000000E+00 0.  1.
         21   -1    0    0  502  503 -0.00000000000E+00 -0.00000000000E+00 -0.21472389490E+03  0.21472389490E+03  0.00000000000E+00 0.  1.
          6    1    1    2  501    0 -0.12184727099E+03  0.21934828803E+02  0.40645581806E+02  0.21658475819E+03  0.17300000000E+03 0.  1.
         -6    1    1    2    0  503  0.12184727099E+03 -0.21934828803E+02 -0.37493248569E+02  0.21601536485E+03  0.17300000000E+03 0.  1.
<mgrwt>
<rscale>  2 0.21273668E+03</rscale>
<asrwt>0</asrwt>
<pdfrwt beam="1">  1       21 0.33519420E-01 0.21273668E+03</pdfrwt>
<pdfrwt beam="2">  1       21 0.33034445E-01 0.21273668E+03</pdfrwt>
<totfact> 0.74976827E+04</totfact>
</mgrwt>
</event>
<event>
 4    2  0.4086940E+000  0.2940609E+03  0.7546771E-02  0.1088248E+00
         21   -1    0    0  501  502  0.00000000000E+00  0.00000000000E+00  0.26020625825E+03  0.26020625825E+03  0.00000000000E+00 0. -1.
         21   -1    0    0  502  503 -0.00000000000E+00 -0.00000000000E+00 -0.86597511063E+03  0.86597511063E+03  0.00000000000E+00 0.  1.
          6    1    1    2  501    0  0.22520987804E+03  0.76310669643E+02  0.13914977643E+03  0.32532209846E+03  0.17300000000E+03 0. -1.
         -6    1    1    2    0  503 -0.22520987804E+03 -0.76310669643E+02 -0.74491862881E+03  0.80085927042E+03  0.17300000000E+03 0.  1.
<mgrwt>
<rscale>  2 0.29406089E+03</rscale>
<asrwt>0</asrwt>
<pdfrwt beam="1">  1       21 0.40031733E-01 0.29406089E+03</pdfrwt>
<pdfrwt beam="2">  1       21 0.13322694E+00 0.29406089E+03</pdfrwt>
<totfact> 0.22637371E+03</totfact>
</mgrwt>
</event>
<event>
 4    2  0.4086940E+000  0.2076025E+03  0.7546771E-02  0.1143479E+00
         21   -1    0    0  503  502  0.00000000000E+00  0.00000000000E+00  0.87306475070E+03  0.87306475070E+03  0.00000000000E+00 0.  1.
         21   -1    0    0  501  503 -0.00000000000E+00 -0.00000000000E+00 -0.51426622308E+02  0.51426622308E+02  0.00000000000E+00 0.  1.
          6    1    1    2  501    0 -0.60774416730E+02 -0.97346174926E+02  0.31826670130E+03  0.37999013232E+03  0.17300000000E+03 0.  1.
         -6    1    1    2    0  502  0.60774416730E+02  0.97346174926E+02  0.50337142710E+03  0.54450124070E+03  0.17300000000E+03 0.  1.
<mgrwt>
<rscale>  2 0.20760252E+03</rscale>
<asrwt>0</asrwt>
<pdfrwt beam="1">  1       21 0.13431764E+00 0.20760252E+03</pdfrwt>
<pdfrwt beam="2">  1       21 0.79117887E-02 0.20760252E+03</pdfrwt>
<totfact> 0.48285710E+04</totfact>
</mgrwt>
</event>
<event>
 4    2  0.4086940E+000  0.3393401E+03  0.7546771E-02  0.1067077E+00
         21   -1    0    0  501  502  0.00000000000E+00  0.00000000000E+00  0.66613670857E+02  0.66613670857E+02  0.00000000000E+00 0.  1.
         21   -1    0    0  502  503 -0.00000000000E+00 -0.00000000000E+00 -0.24010848220E+04  0.24010848220E+04  0.00000000000E+00 0. -1.
          6    1    1    2  501    0  0.10980632224E+03  0.27049085831E+03 -0.51428036079E+03  0.61614610469E+03  0.17300000000E+03 0.  1.
         -6    1    1    2    0  503 -0.10980632224E+03 -0.27049085831E+03 -0.18201907904E+04  0.18515523882E+04  0.17300000000E+03 0. -1.
<mgrwt>
<rscale>  2 0.33934014E+03</rscale>
<asrwt>0</asrwt>
<pdfrwt beam="1">  1       21 0.10248257E-01 0.33934014E+03</pdfrwt>
<pdfrwt beam="2">  1       21 0.36939766E+00 0.33934014E+03</pdfrwt>
<totfact> 0.88586569E+02</totfact>
</mgrwt>
</event>
<event>
 4    2  0.4086940E+000  0.1733762E+03  0.7546771E-02  0.1174372E+00
         21   -1    0    0  501  502  0.00000000000E+00  0.00000000000E+00  0.53723985407E+03  0.53723985407E+03  0.00000000000E+00 0.  1.
         21   -1    0    0  502  503 -0.00000000000E+00 -0.00000000000E+00 -0.92114416937E+02  0.92114416937E+02  0.00000000000E+00 0.  1.
          6    1    1    2  501    0  0.85143221351E+01  0.76033272144E+01  0.41972957384E+03  0.45412797692E+03  0.17300000000E+03 0.  1.
         -6    1    1    2    0  503 -0.85143221351E+01 -0.76033272144E+01  0.25395863290E+02  0.17522629408E+03  0.17300000000E+03 0.  1.
<mgrwt>
<rscale>  2 0.17337619E+03</rscale>
<asrwt>0</asrwt>
<pdfrwt beam="1">  1       21 0.82652283E-01 0.17337619E+03</pdfrwt>
<pdfrwt beam="2">  1       21 0.14171449E-01 0.17337619E+03</pdfrwt>
<totfact> 0.56069571E+04</totfact>
</mgrwt>
</event>
<event>
 4    2  0.4086940E+000  0.2386995E+03  0.7546771E-02  0.1120662E+00
         21   -1    0    0  503  502  0.00000000000E+00  0.00000000000E+00  0.65374161853E+02  0.65374161853E+02  0.00000000000E+00 0.  1.
         21   -1    0    0  501  503 -0.00000000000E+00 -0.00000000000E+00 -0.10827683203E+04  0.10827683203E+04  0.00000000000E+00 0.  1.
          6    1    1    2  501    0 -0.13542192820E+03 -0.93323812920E+02 -0.76224185189E+03  0.79874280809E+03  0.17300000000E+03 0.  1.
         -6    1    1    2    0  502  0.13542192820E+03  0.93323812920E+02 -0.25515230655E+03  0.34939967406E+03  0.17300000000E+03 0.  1.
<mgrwt>
<rscale>  2 0.23869946E+03</rscale>
<asrwt>0</asrwt>
<pdfrwt beam="1">  1       21 0.10057563E-01 0.23869946E+03</pdfrwt>
<pdfrwt beam="2">  1       21 0.16657975E+00 0.23869946E+03</pdfrwt>
<totfact> 0.17576690E+04</totfact>
</mgrwt>
</event>
<event>
 4    2  0.4086940E+000  0.1827255E+03  0.7546771E-02  0.1165191E+00
         21   -1    0    0  501  502  0.00000000000E+00  0.00000000000E+00  0.72370684852E+03  0.72370684852E+03  0.00000000000E+00 0.  1.
         21   -1    0    0  502  503 -0.00000000000E+00 -0.00000000000E+00 -0.48938835891E+02  0.48938835891E+02  0.00000000000E+00 0.  1.
          6    1    1    2  501    0  0.58677015751E+02 -0.40776015413E+01  0.24492341311E+03  0.30557502729E+03  0.17300000000E+03 0.  1.
         -6    1    1    2    0  503 -0.58677015751E+02  0.40776015413E+01  0.42984459952E+03  0.46707065713E+03  0.17300000000E+03 0.  1.
<mgrwt>
<rscale>  2 0.18272553E+03</rscale>
<asrwt>0</asrwt>
<pdfrwt beam="1">  1       21 0.11133951E+00 0.18272553E+03</pdfrwt>
<pdfrwt beam="2">  1       21 0.75290522E-02 0.18272553E+03</pdfrwt>
<totfact> 0.84943148E+04</totfact>
</mgrwt>
</event>
<event>
 4    2  0.4086940E+000  0.1802624E+03  0.7546771E-02  0.1167549E+00
         21   -1    0    0  503  502  0.00000000000E+00  0.00000000000E+00  0.78242043462E+02  0.78242043462E+02  0.00000000000E+00 0. -1.
         21   -1    0    0  501  503 -0.00000000000E+00 -0.00000000000E+00 -0.41577794356E+03  0.41577794356E+03  0.00000000000E+00 0. -1.
          6    1    1    2  501    0  0.38130013323E+02  0.33341382339E+02 -0.17707242027E+03  0.25268396806E+03  0.17300000000E+03 0. -1.
         -6    1    1    2    0  502 -0.38130013323E+02 -0.33341382339E+02 -0.16046347983E+03  0.24133601897E+03  0.17300000000E+03 0. -1.
<mgrwt>
<rscale>  2 0.18026244E+03</rscale>
<asrwt>0</asrwt>
<pdfrwt beam="1">  1       21 0.12037238E-01 0.18026244E+03</pdfrwt>
<pdfrwt beam="2">  1       21 0.63965837E-01 0.18026244E+03</pdfrwt>
<totfact> 0.13227129E+05</totfact>
</mgrwt>
</event>
<event>
 4    2  0.4086940E+000  0.2126942E+03  0.7546771E-02  0.1139450E+00
         21   -1    0    0  503  502  0.00000000000E+00  0.00000000000E+00  0.51296481124E+03  0.51296481124E+03  0.00000000000E+00 0. -1.
         21   -1    0    0  501  503 -0.00000000000E+00 -0.00000000000E+00 -0.10798048968E+03  0.10798048968E+03  0.00000000000E+00 0.  1.
          6    1    1    2  501    0 -0.11643989209E+03 -0.41851974090E+02  0.69578711049E+02  0.22378568595E+03  0.17300000000E+03 0.  1.
         -6    1    1    2    0  502  0.11643989209E+03  0.41851974090E+02  0.33540561051E+03  0.39715961497E+03  0.17300000000E+03 0. -1.
<mgrwt>
<rscale>  2 0.21269423E+03</rscale>
<asrwt>0</asrwt>
<pdfrwt beam="1">  1       21 0.78917662E-01 0.21269423E+03</pdfrwt>
<pdfrwt beam="2">  1       21 0.16612383E-01 0.21269423E+03</pdfrwt>
<totfact> 0.45700463E+04</totfact>
</mgrwt>
</event>
<event>
 4    2  0.4086940E+000  0.2084761E+03  0.7546771E-02  0.1142778E+00
         21   -1    0    0  503  502  0.00000000000E+00  0.00000000000E+00  0.15774572542E+03  0.15774572542E+03  0.00000000000E+00 0.  1.
         21   -1    0    0  501  503 -0.00000000000E+00 -0.00000000000E+00 -0.47285200414E+03  0.47285200414E+03  0.00000000000E+00 0.  1.
          6    1    1    2  501    0 -0.37780080640E+02 -0.11002709529E+03 -0.36123727322E+03  0.41707872608E+03  0.17300000000E+03 0.  1.
         -6    1    1    2    0  502  0.37780080640E+02  0.11002709529E+03  0.46130994503E+02  0.21351900347E+03  0.17300000000E+03 0.  1.
<mgrwt>
<rscale>  2 0.20847613E+03</rscale>
<asrwt>0</asrwt>
<pdfrwt beam="1">  1       21 0.24268574E-01 0.20847613E+03</pdfrwt>
<pdfrwt beam="2">  1       21 0.72746460E-01 0.20847613E+03</pdfrwt>
<totfact> 0.27032873E+04</totfact>
</mgrwt>
</event>
<event>
 4    2  0.4086940E+000  0.1816875E+03  0.7546771E-02  0.1166180E+00
         21   -1    0    0  501  502  0.00000000000E+00  0.00000000000E+00  0.11689988061E+03  0.11689988061E+03  0.00000000000E+00 0. -1.
         21   -1    0    0  502  503 -0.00000000000E+00 -0.00000000000E+00 -0.28563089079E+03  0.28563089079E+03  0.00000000000E+00 0. -1.
          6    1    1    2  501    0 -0.54217904023E+02  0.11906123011E+02 -0.10583306927E+03  0.21026406120E+03  0.17300000000E+03 0. -1.
         -6    1    1    2    0  503  0.54217904023E+02 -0.11906123011E+02 -0.62897940910E+02  0.19226671020E+03  0.17300000000E+03 0. -1.
<mgrwt>
<rscale>  2 0.18168747E+03</rscale>
<asrwt>0</asrwt>
<pdfrwt beam="1">  1       21 0.17984597E-01 0.18168747E+03</pdfrwt>
<pdfrwt beam="2">  1       21 0.43943214E-01 0.18168747E+03</pdfrwt>
<totfact> 0.14041392E+05</totfact>
</mgrwt>
</event>
<event>
 4    2  0.4086940E+000  0.1747352E+03  0.7546771E-02  0.1172998E+00
         21   -1    0    0  501  502  0.00000000000E+00  0.00000000000E+00  0.34725350954E+03  0.34725350954E+03  0.00000000000E+00 0.  1.
         21   -1    0    0  502  503 -0.00000000000E+00 -0.00000000000E+00 -0.25521038262E+03  0.25521038262E+03  0.00000000000E+00 0.  1.
          6    1    1    2  501    0  0.21811368311E+02  0.11298615102E+02  0.28990391311E+03  0.33849176257E+03  0.17300000000E+03 0.  1.
         -6    1    1    2    0  503 -0.21811368311E+02 -0.11298615102E+02 -0.19786078619E+03  0.26397212959E+03  0.17300000000E+03 0.  1.
<mgrwt>
<rscale>  2 0.17473521E+03</rscale>
<asrwt>0</asrwt>
<pdfrwt beam="1">  1       21 0.53423617E-01 0.17473521E+03</pdfrwt>
<pdfrwt beam="2">  1       21 0.39263136E-01 0.17473521E+03</pdfrwt>
<totfact> 0.20964722E+04</totfact>
</mgrwt>
</event>
<event>
 4    2  0.4086940E+000  0.1806905E+03  0.7546771E-02  0.1167136E+00
         21   -1    0    0  501  502  0.00000000000E+00  0.00000000000E+00  0.68838851282E+03  0.68838851282E+03  0.00000000000E+00 0.  1.
         21   -1    0    0  502  503 -0.00000000000E+00 -0.00000000000E+00 -0.50859888699E+02  0.50859888699E+02  0.00000000000E+00 0.  1.
          6    1    1    2  501    0  0.16155172861E+02 -0.49588948833E+02  0.41477604399E+03  0.45242482262E+03  0.17300000000E+03 0.  1.
         -6    1    1    2    0  503 -0.16155172861E+02  0.49588948833E+02  0.22275258013E+03  0.28682357890E+03  0.17300000000E+03 0.  1.
<mgrwt>
<rscale>  2 0.18069049E+03</rscale>
<asrwt>0</asrwt>
<pdfrwt beam="1">  1       21 0.10590592E+00 0.18069049E+03</pdfrwt>
<pdfrwt beam="2">  1       21 0.78245987E-02 0.18069049E+03</pdfrwt>
<totfact> 0.89721516E+04</totfact>
</mgrwt>
</event>
<event>
 4    2  0.4086940E+000  0.2114005E+03  0.7546771E-02  0.1140462E+00
         21   -1    0    0  501  502  0.00000000000E+00  0.00000000000E+00  0.20892605635E+03  0.20892605635E+03  0.00000000000E+00 0. -1.
         21   -1    0    0  502  503 -0.00000000000E+00 -0.00000000000E+00 -0.21888448346E+03  0.21888448346E+03  0.00000000000E+00 0. -1.
          6    1    1    2  501    0  0.10235965063E+03  0.65449775414E+02  0.27286322978E+02  0.21315420381E+03  0.17300000000E+03 0. -1.
         -6    1    1    2    0  503 -0.10235965063E+03 -0.65449775414E+02 -0.37244750083E+02  0.21465633600E+03  0.17300000000E+03 0. -1.
<mgrwt>
<rscale>  2 0.21140050E+03</rscale>
<asrwt>0</asrwt>
<pdfrwt beam="1">  1       21 0.32142470E-01 0.21140050E+03</pdfrwt>
<pdfrwt beam="2">  1       21 0.33674536E-01 0.21140050E+03</pdfrwt>
<totfact> 0.78459560E+04</totfact>
</mgrwt>
</event>
<event>
 4    2  0.4086940E+000  0.2014111E+03  0.7546771E-02  0.1148554E+00
         21   -1    0    0  501  502  0.00000000000E+00  0.00000000000E+00  0.21606149328E+04  0.21606149328E+04  0.00000000000E+00 0. -1.
         21   -1    0    0  502  503 -0.00000000000E+00 -0.00000000000E+00 -0.78326340432E+02  0.78326340432E+02  0.00000000000E+00 0. -1.
          6    1    1    2  501    0  0.50866396774E+02 -0.89722017356E+02  0.20172639680E+04  0.20272938483E+04  0.17300000000E+03 0. -1.
         -6    1    1    2    0  503 -0.50866396774E+02  0.89722017356E+02  0.65024624396E+02  0.21164742497E+03  0.17300000000E+03 0. -1.
<mgrwt>
<rscale>  2 0.20141110E+03</rscale>
<asrwt>0</asrwt>
<pdfrwt beam="1">  1       21 0.33240225E+00 0.20141110E+03</pdfrwt>
<pdfrwt beam="2">  1       21 0.12050208E-01 0.20141110E+03</pdfrwt>
<totfact> 0.12762189E+03</totfact>
</mgrwt>
</event>
<event>
 4    2  0.4086940E+000  0.3279134E+03  0.7546771E-02  0.1072064E+00
         21   -1    0    0  501  502  0.00000000000E+00  0.00000000000E+00  0.20658111564E+03  0.20658111564E+03  0.00000000000E+00 0. -1.
         21   -1    0    0  502  503 -0.00000000000E+00 -0.00000000000E+00 -0.91487475551E+03  0.91487475551E+03  0.00000000000E+00 0.  1.
          6    1    1    2  501    0  0.24941119491E+03  0.12406539055E+03  0.14000300753E+02  0.32821208646E+03  0.17300000000E+03 0. -1.
         -6    1    1    2    0  503 -0.24941119491E+03 -0.12406539055E+03 -0.72229394062E+03  0.79324378468E+03  0.17300000000E+03 0.  1.
<mgrwt>
<rscale>  2 0.32791335E+03</rscale>
<asrwt>0</asrwt>
<pdfrwt beam="1">  1       21 0.31781710E-01 0.32791335E+03</pdfrwt>
<pdfrwt beam="2">  1       21 0.14074996E+00 0.32791335E+03</pdfrwt>
<totfact> 0.30626191E+03</totfact>
</mgrwt>
</event>
<event>
 4    2  0.4086940E+000  0.1813886E+03  0.7546771E-02  0.1166466E+00
         21   -1    0    0  503  502  0.00000000000E+00  0.00000000000E+00  0.30154591356E+03  0.30154591356E+03  0.00000000000E+00 0.  1.
         21   -1    0    0  501  503 -0.00000000000E+00 -0.00000000000E+00 -0.12333678444E+03  0.12333678444E+03  0.00000000000E+00 0.  1.
          6    1    1    2  501    0 -0.31343795475E+01 -0.54433347256E+02  0.16954108686E+02  0.18217918495E+03  0.17300000000E+03 0.  1.
         -6    1    1    2    0  502  0.31343795475E+01  0.54433347256E+02  0.16125502044E+03  0.24270351305E+03  0.17300000000E+03 0.  1.
<mgrwt>
<rscale>  2 0.18138857E+03</rscale>
<asrwt>0</asrwt>
<pdfrwt beam="1">  1       21 0.46391679E-01 0.18138857E+03</pdfrwt>
<pdfrwt beam="2">  1       21 0.18974890E-01 0.18138857E+03</pdfrwt>
<totfact> 0.11377972E+05</totfact>
</mgrwt>
</event>
<event>
 4    2  0.4086940E+000  0.1839064E+03  0.7546771E-02  0.1164075E+00
         21   -1    0    0  503  502  0.00000000000E+00  0.00000000000E+00  0.26309051118E+03  0.26309051118E+03  0.00000000000E+00 0.  1.
         21   -1    0    0  501  503 -0.00000000000E+00 -0.00000000000E+00 -0.27645982222E+03  0.27645982222E+03  0.00000000000E+00 0. -1.
          6    1    1    2  501    0 -0.26751976769E+02  0.56363917844E+02 -0.20400749393E+03  0.27466455373E+03  0.17300000000E+03 0. -1.
         -6    1    1    2    0  502  0.26751976769E+02 -0.56363917844E+02  0.19063818289E+03  0.26488577967E+03  0.17300000000E+03 0.  1.
<mgrwt>
<rscale>  2 0.18390639E+03</rscale>
<asrwt>0</asrwt>
<pdfrwt beam="1">  1       21 0.40475464E-01 0.18390639E+03</pdfrwt>
<pdfrwt beam="2">  1       21 0.42532280E-01 0.18390639E+03</pdfrwt>
<totfact> 0.31422768E+04</totfact>
</mgrwt>
</event>
<event>
 4    2  0.4086940E+000  0.2378301E+03  0.7546771E-02  0.1121247E+00
         21   -1    0    0  503  502  0.00000000000E+00  0.00000000000E+00  0.59540930459E+03  0.59540930459E+03  0.00000000000E+00 0.  1.
         21   -1    0    0  501  503 -0.00000000000E+00 -0.00000000000E+00 -0.11670190893E+03  0.11670190893E+03  0.00000000000E+00 0.  1.
          6    1    1    2  501    0 -0.12123848404E+03 -0.10924919287E+03  0.85807153310E+02  0.25283596207E+03  0.17300000000E+03 0.  1.
         -6    1    1    2    0  502  0.12123848404E+03  0.10924919287E+03  0.39290024235E+03  0.45927525145E+03  0.17300000000E+03 0.  1.
<mgrwt>
<rscale>  2 0.23783010E+03</rscale>
<asrwt>0</asrwt>
<pdfrwt beam="1">  1       21 0.91601429E-01 0.23783010E+03</pdfrwt>
<pdfrwt beam="2">  1       21 0.17954140E-01 0.23783010E+03</pdfrwt>
<totfact> 0.27764473E+04</totfact>
</mgrwt>
</event>
<event>
 4    2  0.4086940E+000  0.1899269E+03  0.7546771E-02  0.1158527E+00
         21   -1    0    0  501  502  0.00000000000E+00  0.00000000000E+00  0.81607009255E+03  0.81607009255E+03  0.00000000000E+00 0. -1.
         21   -1    0    0  502  503 -0.00000000000E+00 -0.00000000000E+00 -0.48168866109E+02  0.48168866109E+02  0.00000000000E+00 0. -1.
          6    1    1    2  501    0  0.71996415461E+02  0.30979872100E+02  0.50795123740E+03  0.54229760822E+03  0.17300000000E+03 0. -1.
         -6    1    1    2    0  503 -0.71996415461E+02 -0.30979872100E+02  0.25994998904E+03  0.32194135043E+03  0.17300000000E+03 0. -1.
<mgrwt>
<rscale>  2 0.18992692E+03</rscale>
<asrwt>0</asrwt>
<pdfrwt beam="1">  1       21 0.12554923E+00 0.18992692E+03</pdfrwt>
<pdfrwt beam="2">  1       21 0.74105954E-02 0.18992692E+03</pdfrwt>
<totfact> 0.64755549E+04</totfact>
</mgrwt>
</event>
<event>
 4    2  0.4086940E+000  0.2156535E+03  0.7546771E-02  0.1137166E+00
         21   -1    0    0  503  502  0.00000000000E+00  0.00000000000E+00  0.40403659076E+03  0.40403659076E+03  0.00000000000E+00 0.  1.
         21   -1    0    0  501  503 -0.00000000000E+00 -0.00000000000E+00 -0.12698430988E+03  0.12698430988E+03  0.00000000000E+00 0.  1.
          6    1    1    2  501    0 -0.12600491108E+03 -0.26461581557E+02  0.57315995504E+02  0.22314026139E+03  0.17300000000E+03 0.  1.
         -6    1    1    2    0  502  0.12600491108E+03  0.26461581557E+02  0.21973628538E+03  0.30788063925E+03  0.17300000000E+03 0.  1.
<mgrwt>
<rscale>  2 0.21565355E+03</rscale>
<asrwt>0</asrwt>
<pdfrwt beam="1">  1       21 0.62159475E-01 0.21565355E+03</pdfrwt>
<pdfrwt beam="2">  1       21 0.19536048E-01 0.21565355E+03</pdfrwt>
<totfact> 0.57291169E+04</totfact>
</mgrwt>
</event>
<event>
 4    2  0.4086940E+000  0.1804796E+03  0.7546771E-02  0.1167340E+00
         21   -1    0    0  501  502  0.00000000000E+00  0.00000000000E+00  0.49983574358E+03  0.49983574358E+03  0.00000000000E+00 0.  1.
         21   -1    0    0  502  503 -0.00000000000E+00 -0.00000000000E+00 -0.12583956562E+03  0.12583956562E+03  0.00000000000E+00 0.  1.
          6    1    1    2  501    0  0.75337657626E+01 -0.50863864802E+02  0.40422114514E+03  0.44268230657E+03  0.17300000000E+03 0.  1.
         -6    1    1    2    0  503 -0.75337657626E+01  0.50863864802E+02 -0.30224967192E+02  0.18299300263E+03  0.17300000000E+03 0.  1.
<mgrwt>
<rscale>  2 0.18047961E+03</rscale>
<asrwt>0</asrwt>
<pdfrwt beam="1">  1       21 0.76897806E-01 0.18047961E+03</pdfrwt>
<pdfrwt beam="2">  1       21 0.19359933E-01 0.18047961E+03</pdfrwt>
<totfact> 0.37109327E+04</totfact>
</mgrwt>
</event>
<event>
 4    2  0.4086940E+000  0.2219133E+03  0.7546771E-02  0.1132465E+00
         21   -1    0    0  501  502  0.00000000000E+00  0.00000000000E+00  0.14662090699E+04  0.14662090699E+04  0.00000000000E+00 0.  1.
         21   -1    0    0  502  503 -0.00000000000E+00 -0.00000000000E+00 -0.36460650753E+02  0.36460650753E+02  0.00000000000E+00 0. -1.
          6    1    1    2  501    0  0.13173195072E+03 -0.44307861055E+02  0.92580596406E+03  0.95203055439E+03  0.17300000000E+03 0.  1.
         -6    1    1    2    0  503 -0.13173195072E+03  0.44307861055E+02  0.50394245512E+03  0.55063916630E+03  0.17300000000E+03 0. -1.
<mgrwt>
<rscale>  2 0.22191326E+03</rscale>
<asrwt>0</asrwt>
<pdfrwt beam="1">  1       21 0.22557058E+00 0.22191326E+03</pdfrwt>
<pdfrwt beam="2">  1       21 0.56093320E-02 0.22191326E+03</pdfrwt>
<totfact> 0.20113357E+04</totfact>
</mgrwt>
</event>
<event>
 4    2  0.4086940E+000  0.2070567E+03  0.7546771E-02  0.1143918E+00
         21   -1    0    0  503  502  0.00000000000E+00  0.00000000000E+00  0.16975344333E+03  0.16975344333E+03  0.00000000000E+00 0. -1.
         21   -1    0    0  501  503 -0.00000000000E+00 -0.00000000000E+00 -0.25264337870E+03  0.25264337870E+03  0.00000000000E+00 0.  1.
          6    1    1    2  501    0 -0.44694258806E+01 -0.11368157017E+03 -0.45342837160E+02  0.21196331769E+03  0.17300000000E+03 0.  1.
         -6    1    1    2    0  502  0.44694258806E+01  0.11368157017E+03 -0.37547098212E+02  0.21043350434E+03  0.17300000000E+03 0. -1.
<mgrwt>
<rscale>  2 0.20705670E+03</rscale>
<asrwt>0</asrwt>
<pdfrwt beam="1">  1       21 0.26115914E-01 0.20705670E+03</pdfrwt>
<pdfrwt beam="2">  1       21 0.38868212E-01 0.20705670E+03</pdfrwt>
<totfact> 0.88390924E+04</totfact>
</mgrwt>
</event>
<event>
 4    2  0.4086940E+000  0.1787928E+03  0.7546771E-02  0.1168977E+00
         21   -1    0    0  501  502  0.00000000000E+00  0.00000000000E+00  0.49204792109E+03  0.49204792109E+03  0.00000000000E+00 0.  1.
         21   -1    0    0  502  503 -0.00000000000E+00 -0.00000000000E+00 -0.12074229664E+03  0.12074229664E+03  0.00000000000E+00 0.  1.
          6    1    1    2  501    0  0.45116910199E+02  0.15237394412E+01  0.39389715592E+03  0.43257580470E+03  0.17300000000E+03 0.  1.
         -6    1    1    2    0  503 -0.45116910199E+02 -0.15237394412E+01 -0.22591531476E+02  0.18021441303E+03  0.17300000000E+03 0.  1.
<mgrwt>
<rscale>  2 0.17879278E+03</rscale>
<asrwt>0</asrwt>
<pdfrwt beam="1">  1       21 0.75699679E-01 0.17879278E+03</pdfrwt>
<pdfrwt beam="2">  1       21 0.18575738E-01 0.17879278E+03</pdfrwt>
<totfact> 0.41536635E+04</totfact>
</mgrwt>
</event>
<event>
 4    2  0.4086940E+000  0.1742535E+03  0.7546771E-02  0.1173483E+00
         21   -1    0    0  503  502  0.00000000000E+00  0.00000000000E+00  0.10161599408E+04  0.10161599408E+04  0.00000000000E+00 0. -1.
         21   -1    0    0  501  503 -0.00000000000E+00 -0.00000000000E+00 -0.30101593817E+02  0.30101593817E+02  0.00000000000E+00 0. -1.
          6    1    1    2  501    0  0.11752236214E+02 -0.17239029947E+02  0.44828865228E+03  0.48096467123E+03  0.17300000000E+03 0. -1.
         -6    1    1    2    0  502 -0.11752236214E+02  0.17239029947E+02  0.53776969466E+03  0.56529686334E+03  0.17300000000E+03 0. -1.
<mgrwt>
<rscale>  2 0.17425355E+03</rscale>
<asrwt>0</asrwt>
<pdfrwt beam="1">  1       21 0.15633227E+00 0.17425355E+03</pdfrwt>
<pdfrwt beam="2">  1       21 0.46310152E-02 0.17425355E+03</pdfrwt>
<totfact> 0.82820822E+04</totfact>
</mgrwt>
</event>
<event>
 4    2  0.4086940E+000  0.1842250E+03  0.7546771E-02  0.1163776E+00
         21   -1    0    0  501  502  0.00000000000E+00  0.00000000000E+00  0.23803324907E+03  0.23803324907E+03  0.00000000000E+00 0.  1.
         21   -1    0    0  502  503 -0.00000000000E+00 -0.00000000000E+00 -0.14364638525E+03  0.14364638525E+03  0.00000000000E+00 0.  1.
          6    1    1    2  501    0  0.53121360247E+02  0.34466712635E+02  0.30752222797E+02  0.18677401426E+03  0.17300000000E+03 0.  1.
         -6    1    1    2    0  503 -0.53121360247E+02 -0.34466712635E+02  0.63634641019E+02  0.19490562006E+03  0.17300000000E+03 0.  1.
<mgrwt>
<rscale>  2 0.18422495E+03</rscale>
<asrwt>0</asrwt>
<pdfrwt beam="1">  1       21 0.36620500E-01 0.18422495E+03</pdfrwt>
<pdfrwt beam="2">  1       21 0.22099444E-01 0.18422495E+03</pdfrwt>
<totfact> 0.13802694E+05</totfact>
</mgrwt>
</event>
<event>
 4    2  0.4086940E+000  0.1984981E+03  0.7546771E-02  0.1151012E+00
         21   -1    0    0  501  502  0.00000000000E+00  0.00000000000E+00  0.37865221335E+03  0.37865221335E+03  0.00000000000E+00 0. -1.
         21   -1    0    0  502  503 -0.00000000000E+00 -0.00000000000E+00 -0.28078422615E+03  0.28078422615E+03  0.00000000000E+00 0. -1.
          6    1    1    2  501    0  0.51773868419E+02 -0.82413472896E+02  0.31051607861E+03  0.36854002366E+03  0.17300000000E+03 0. -1.
         -6    1    1    2    0  503 -0.51773868419E+02  0.82413472896E+02 -0.21264809141E+03  0.29089641584E+03  0.17300000000E+03 0. -1.
<mgrwt>
<rscale>  2 0.19849815E+03</rscale>
<asrwt>0</asrwt>
<pdfrwt beam="1">  1       21 0.58254187E-01 0.19849815E+03</pdfrwt>
<pdfrwt beam="2">  1       21 0.43197573E-01 0.19849815E+03</pdfrwt>
<totfact> 0.14169049E+04</totfact>
</mgrwt>
</event>
<event>
 4    2  0.4086940E+000  0.2289338E+03  0.7546771E-02  0.1127392E+00
         21   -1    0    0  503  502  0.00000000000E+00  0.00000000000E+00  0.98009913662E+03  0.98009913662E+03  0.00000000000E+00 0.  1.
         21   -1    0    0  501  503 -0.00000000000E+00 -0.00000000000E+00 -0.54875979144E+02  0.54875979144E+02  0.00000000000E+00 0. -1.
          6    1    1    2  501    0 -0.36899380494E+02  0.14532759704E+03  0.37992317190E+03  0.44356768512E+03  0.17300000000E+03 0. -1.
         -6    1    1    2    0  502  0.36899380494E+02 -0.14532759704E+03  0.54529998558E+03  0.59140743064E+03  0.17300000000E+03 0.  1.
<mgrwt>
<rscale>  2 0.22893378E+03</rscale>
<asrwt>0</asrwt>
<pdfrwt beam="1">  1       21 0.15078447E+00 0.22893378E+03</pdfrwt>
<pdfrwt beam="2">  1       21 0.84424591E-02 0.22893378E+03</pdfrwt>
<totfact> 0.31523744E+04</totfact>
</mgrwt>
</event>
<event>
 4    2  0.4086940E+000  0.1776014E+03  0.7546771E-02  0.1170145E+00
         21   -1    0    0  501  502  0.00000000000E+00  0.00000000000E+00  0.37203403163E+03  0.37203403163E+03  0.00000000000E+00 0.  1.
         21   -1    0    0  502  503 -0.00000000000E+00 -0.00000000000E+00 -0.85910438241E+02  0.85910438241E+02  0.00000000000E+00 0.  1.
          6    1    1    2  501    0 -0.40045450586E+02  0.31032111996E+01  0.16928893921E+03  0.24535894720E+03  0.17300000000E+03 0.  1.
         -6    1    1    2    0  503  0.40045450586E+02 -0.31032111996E+01  0.11683465418E+03  0.21258552267E+03  0.17300000000E+03 0.  1.
<mgrwt>
<rscale>  2 0.17760143E+03</rscale>
<asrwt>0</asrwt>
<pdfrwt beam="1">  1       21 0.57236004E-01 0.17760143E+03</pdfrwt>
<pdfrwt beam="2">  1       21 0.13216991E-01 0.17760143E+03</pdfrwt>
<totfact> 0.14213101E+05</totfact>
</mgrwt>
</event>
<event>
 4    2  0.4086940E+000  0.1745101E+03  0.7546771E-02  0.1173224E+00
         21   -1    0    0  501  502  0.00000000000E+00  0.00000000000E+00  0.12869091423E+03  0.12869091423E+03  0.00000000000E+00 0. -1.
         21   -1    0    0  502  503 -0.00000000000E+00 -0.00000000000E+00 -0.24950878992E+03  0.24950878992E+03  0.00000000000E+00 0. -1.
          6    1    1    2  501    0 -0.10380121594E+02 -0.20421335439E+02 -0.17468158574E+02  0.17538219530E+03  0.17300000000E+03 0. -1.
         -6    1    1    2    0  503  0.10380121594E+02  0.20421335439E+02 -0.10334971712E+03  0.20281750884E+03  0.17300000000E+03 0. -1.
<mgrwt>
<rscale>  2 0.17451011E+03</rscale>
<asrwt>0</asrwt>
<pdfrwt beam="1">  1       21 0.19798602E-01 0.17451011E+03</pdfrwt>
<pdfrwt beam="2">  1       21 0.38385967E-01 0.17451011E+03</pdfrwt>
<totfact> 0.15484817E+05</totfact>
</mgrwt>
</event>
<event>
 4    2  0.4086940E+000  0.1847179E+03  0.7546771E-02  0.1163314E+00
         21   -1    0    0  501  502  0.00000000000E+00  0.00000000000E+00  0.37894610259E+03  0.37894610259E+03  0.00000000000E+00 0. -1.
         21   -1    0    0  502  503 -0.00000000000E+00 -0.00000000000E+00 -0.10543337206E+03  0.10543337206E+03  0.00000000000E+00 0.  1.
          6    1    1    2  501    0 -0.37170650009E+02  0.53009816217E+02  0.22929413413E+03  0.29444269015E+03  0.17300000000E+03 0. -1.
         -6    1    1    2    0  503  0.37170650009E+02 -0.53009816217E+02  0.44218596402E+02  0.18993678450E+03  0.17300000000E+03 0.  1.
<mgrwt>
<rscale>  2 0.18471789E+03</rscale>
<asrwt>0</asrwt>
<pdfrwt beam="1">  1       21 0.58299400E-01 0.18471789E+03</pdfrwt>
<pdfrwt beam="2">  1       21 0.16220519E-01 0.18471789E+03</pdfrwt>
<totfact> 0.94000405E+04</totfact>
</mgrwt>
</event>
<event>
 4    2  0.4086940E+000  0.3167044E+03  0.7546771E-02  0.1077176E+00
         21   -1    0    0  501  502  0.00000000000E+00  0.00000000000E+00  0.19405519008E+03  0.19405519008E+03  0.00000000000E+00 0.  1.
         21   -1    0    0  502  503 -0.00000000000E+00 -0.00000000000E+00 -0.51748659835E+03  0.51748659835E+03  0.00000000000E+00 0. -1.
          6    1    1    2  501    0 -0.19385548815E+03 -0.18108758545E+03 -0.14945340939E+03  0.35019706662E+03  0.17300000000E+03 0.  1.
         -6    1    1    2    0  503  0.19385548815E+03  0.18108758545E+03 -0.17397799888E+03  0.36134472182E+03  0.17300000000E+03 0. -1.
<mgrwt>
<rscale>  2 0.31670438E+03</rscale>
<asrwt>0</asrwt>
<pdfrwt beam="1">  1       21 0.29854644E-01 0.31670438E+03</pdfrwt>
<pdfrwt beam="2">  1       21 0.79613323E-01 0.31670438E+03</pdfrwt>
<totfact> 0.14028357E+04</totfact>
</mgrwt>
</event>
<event>
 4    2  0.4086940E+000  0.1917060E+03  0.7546771E-02  0.1156932E+00
         21   -1    0    0  501  502  0.00000000000E+00  0.00000000000E+00  0.16670855314E+04  0.16670855314E+04  0.00000000000E+00 0. -1.
         21   -1    0    0  502  503 -0.00000000000E+00 -0.00000000000E+00 -0.22050697188E+02  0.22050697188E+02  0.00000000000E+00 0. -1.
          6    1    1    2  501    0 -0.56779941502E+02  0.59985155039E+02  0.80914361679E+03  0.83154348844E+03  0.17300000000E+03 0. -1.
         -6    1    1    2    0  503  0.56779941502E+02 -0.59985155039E+02  0.83589121739E+03  0.85759274011E+03  0.17300000000E+03 0. -1.
<mgrwt>
<rscale>  2 0.19170597E+03</rscale>
<asrwt>0</asrwt>
<pdfrwt beam="1">  1       21 0.25647460E+00 0.19170597E+03</pdfrwt>
<pdfrwt beam="2">  1       21 0.33924163E-02 0.19170597E+03</pdfrwt>
<totfact> 0.31461815E+04</totfact>
</mgrwt>
</event>
<event>
 4    2  0.4086940E+000  0.2106511E+03  0.7546771E-02  0.1141051E+00
         21   -1    0    0  501  502  0.00000000000E+00  0.00000000000E+00  0.80103284593E+03  0.80103284593E+03  0.00000000000E+00 0. -1.
         21   -1    0    0  502  503 -0.00000000000E+00 -0.00000000000E+00 -0.71367640369E+02  0.71367640369E+02  0.00000000000E+00 0. -1.
          6    1    1    2  501    0 -0.28321885353E+02  0.11680213982E+03  0.57118640803E+03  0.60879206776E+03  0.17300000000E+03 0. -1.
         -6    1    1    2    0  503  0.28321885353E+02 -0.11680213982E+03  0.15847879754E+03  0.26360841854E+03  0.17300000000E+03 0. -1.
<mgrwt>
<rscale>  2 0.21065106E+03</rscale>
<asrwt>0</asrwt>
<pdfrwt beam="1">  1       21 0.12323582E+00 0.21065106E+03</pdfrwt>
<pdfrwt beam="2">  1       21 0.10979638E-01 0.21065106E+03</pdfrwt>
<totfact> 0.33636785E+04</totfact>
</mgrwt>
</event>
<event>
 4    2  0.4086940E+000  0.2147685E+03  0.7546771E-02  0.1137844E+00
         21   -1    0    0  501  502  0.00000000000E+00  0.00000000000E+00  0.10569654835E+03  0.10569654835E+03  0.00000000000E+00 0.  1.
         21   -1    0    0  502  503 -0.00000000000E+00 -0.00000000000E+00 -0.43680737255E+03  0.43680737255E+03  0.00000000000E+00 0.  1.
          6    1    1    2  501    0 -0.11741118312E+03  0.49103401002E+02 -0.15722914357E+03  0.26617012135E+03  0.17300000000E+03 0.  1.
         -6    1    1    2    0  503  0.11741118312E+03 -0.49103401002E+02 -0.17388168064E+03  0.27633379955E+03  0.17300000000E+03 0.  1.
<mgrwt>
<rscale>  2 0.21476855E+03</rscale>
<asrwt>0</asrwt>
<pdfrwt beam="1">  1       21 0.16261007E-01 0.21476855E+03</pdfrwt>
<pdfrwt beam="2">  1       21 0.67201135E-01 0.21476855E+03</pdfrwt>
<totfact> 0.67924877E+04</totfact>
</mgrwt>
</event>
<event>
 4    2  0.4086940E+000  0.1808556E+03  0.7546771E-02  0.1166978E+00
         21   -1    0    0  501  502  0.00000000000E+00  0.00000000000E+00  0.59315730723E+02  0.59315730723E+02  0.00000000000E+00 0.  1.
         21   -1    0    0  502  503 -0.00000000000E+00 -0.00000000000E+00 -0.55997182075E+03  0.55997182075E+03  0.00000000000E+00 0.  1.
          6    1    1    2  501    0  0.30587212023E+02  0.42943718552E+02 -0.28856118671E+03  0.34055293124E+03  0.17300000000E+03 0.  1.
         -6    1    1    2    0  503 -0.30587212023E+02 -0.42943718552E+02 -0.21209490332E+03  0.27873462023E+03  0.17300000000E+03 0.  1.
<mgrwt>
<rscale>  2 0.18085558E+03</rscale>
<asrwt>0</asrwt>
<pdfrwt beam="1">  1       21 0.91254966E-02 0.18085558E+03</pdfrwt>
<pdfrwt beam="2">  1       21 0.86149515E-01 0.18085558E+03</pdfrwt>
<totfact> 0.11128004E+05</totfact>
</mgrwt>
</event>
<event>
 4    2  0.4086940E+000  0.2025367E+03  0.7546771E-02  0.1147616E+00
         21   -1    0    0  503  502  0.00000000000E+00  0.00000000000E+00  0.31710541393E+03  0.31710541393E+03  0.00000000000E+00 0.  1.
         21   -1    0    0  501  503 -0.00000000000E+00 -0.00000000000E+00 -0.13961806404E+03  0.13961806404E+03  0.00000000000E+00 0.  1.
          6    1    1    2  501    0 -0.10255208649E+03 -0.23982837070E+02  0.15063956822E+03  0.25241510737E+03  0.17300000000E+03 0.  1.
         -6    1    1    2    0  502  0.10255208649E+03  0.23982837070E+02  0.26847781676E+02  0.20430837060E+03  0.17300000000E+03 0.  1.
<mgrwt>
<rscale>  2 0.20253668E+03</rscale>
<asrwt>0</asrwt>
<pdfrwt beam="1">  1       21 0.48785448E-01 0.20253668E+03</pdfrwt>
<pdfrwt beam="2">  1       21 0.21479702E-01 0.20253668E+03</pdfrwt>
<totfact> 0.80639568E+04</totfact>
</mgrwt>
</event>
<event>
 4    2  0.4086940E+000  0.1774671E+03  0.7546771E-02  0.1170277E+00
         21   -1    0    0  501  502  0.00000000000E+00  0.00000000000E+00  0.93763407242E+02  0.93763407242E+02  0.00000000000E+00 0.  1.
         21   -1    0    0  502  503 -0.00000000000E+00 -0.00000000000E+00 -0.83240999208E+03  0.83240999208E+03  0.00000000000E+00 0.  1.
          6    1    1    2  501    0 -0.27830730056E+02  0.28124820225E+02 -0.11671557072E+02  0.17785044361E+03  0.17300000000E+03 0.  1.
         -6    1    1    2    0  503  0.27830730056E+02 -0.28124820225E+02 -0.72697502776E+03  0.74832295571E+03  0.17300000000E+03 0.  1.
<mgrwt>
<rscale>  2 0.17746705E+03</rscale>
<asrwt>0</asrwt>
<pdfrwt beam="1">  1       21 0.14425140E-01 0.17746705E+03</pdfrwt>
<pdfrwt beam="2">  1       21 0.12806307E+00 0.17746705E+03</pdfrwt>
<totfact> 0.19096295E+04</totfact>
</mgrwt>
</event>
<event>
 4    2  0.4086940E+000  0.2329610E+03  0.7546771E-02  0.1124573E+00
         21   -1    0    0  501  502  0.00000000000E+00  0.00000000000E+00  0.12997917196E+03  0.12997917196E+03  0.00000000000E+00 0.  1.
         21   -1    0    0  502  503 -0.00000000000E+00 -0.00000000000E+00 -0.60306238822E+03  0.60306238822E+03  0.00000000000E+00 0.  1.
          6    1    1    2  501    0  0.15346250176E+03  0.28126141106E+02 -0.33248898317E+02  0.23532171277E+03  0.17300000000E+03 0.  1.
         -6    1    1    2    0  503 -0.15346250176E+03 -0.28126141106E+02 -0.43983431795E+03  0.49771984741E+03  0.17300000000E+03 0.  1.
<mgrwt>
<rscale>  2 0.23296098E+03</rscale>
<asrwt>0</asrwt>
<pdfrwt beam="1">  1       21 0.19996796E-01 0.23296098E+03</pdfrwt>
<pdfrwt beam="2">  1       21 0.92778828E-01 0.23296098E+03</pdfrwt>
<totfact> 0.22090323E+04</totfact>
</mgrwt>
</event>
<event>
 4    2  0.4086940E+000  0.2172390E+03  0.7546771E-02  0.1135958E+00
         21   -1    0    0  501  502  0.00000000000E+00  0.00000000000E+00  0.46310239775E+02  0.46310239775E+02  0.00000000000E+00 0. -1.
         21   -1    0    0  502  503 -0.00000000000E+00 -0.00000000000E+00 -0.10202497631E+04  0.10202497631E+04  0.00000000000E+00 0. -1.
          6    1    1    2  501    0  0.94585657709E+02 -0.91199333682E+02 -0.46873440985E+03  0.51662821456E+03  0.17300000000E+03 0. -1.
         -6    1    1    2    0  503 -0.94585657709E+02  0.91199333682E+02 -0.50520511344E+03  0.54993178828E+03  0.17300000000E+03 0. -1.
<mgrwt>
<rscale>  2 0.21723896E+03</rscale>
<asrwt>0</asrwt>
<pdfrwt beam="1">  1       21 0.71246522E-02 0.21723896E+03</pdfrwt>
<pdfrwt beam="2">  1       21 0.15696150E+00 0.21723896E+03</pdfrwt>
<totfact> 0.38319193E+04</totfact>
</mgrwt>
</event>
<event>
 4    2  0.4086940E+000  0.4037008E+03  0.7546771E-02  0.1042506E+00
         21   -1    0    0  501  502  0.00000000000E+00  0.00000000000E+00  0.14691093234E+04  0.14691093234E+04  0.00000000000E+00 0.  1.
         21   -1    0    0  502  503 -0.00000000000E+00 -0.00000000000E+00 -0.13469557672E+03  0.13469557672E+03  0.00000000000E+00 0. -1.
          6    1    1    2  501    0 -0.25495604081E+03  0.26085000856E+03  0.33039945009E+03  0.52166857901E+03  0.17300000000E+03 0. -1.
         -6    1    1    2    0  503  0.25495604081E+03 -0.26085000856E+03  0.10040142966E+04  0.10821363211E+04  0.17300000000E+03 0.  1.
<mgrwt>
<rscale>  2 0.40370077E+03</rscale>
<asrwt>0</asrwt>
<pdfrwt beam="1">  1       21 0.22601681E+00 0.40370077E+03</pdfrwt>
<pdfrwt beam="2">  1       21 0.20722397E-01 0.40370077E+03</pdfrwt>
<totfact> 0.17067110E+03</totfact>
</mgrwt>
</event>
<event>
 4    2  0.4086940E+000  0.2100341E+03  0.7546771E-02  0.1141539E+00
         21   -1    0    0  501  502  0.00000000000E+00  0.00000000000E+00  0.57308236970E+03  0.57308236970E+03  0.00000000000E+00 0. -1.
         21   -1    0    0  502  503 -0.00000000000E+00 -0.00000000000E+00 -0.11378916499E+03  0.11378916499E+03  0.00000000000E+00 0. -1.
          6    1    1    2  501    0 -0.97069716909E+02  0.69012896019E+02  0.42498572035E+03  0.47405397611E+03  0.17300000000E+03 0. -1.
         -6    1    1    2    0  503  0.97069716909E+02 -0.69012896019E+02  0.34307484362E+02  0.21281755858E+03  0.17300000000E+03 0. -1.
<mgrwt>
<rscale>  2 0.21003407E+03</rscale>
<asrwt>0</asrwt>
<pdfrwt beam="1">  1       21 0.88166517E-01 0.21003407E+03</pdfrwt>
<pdfrwt beam="2">  1       21 0.17506026E-01 0.21003407E+03</pdfrwt>
<totfact> 0.32252745E+04</totfact>
</mgrwt>
</event>
<event>
 4    2  0.4086940E+000  0.1760685E+03  0.7546771E-02  0.1171663E+00
         21   -1    0    0  503  502  0.00000000000E+00  0.00000000000E+00  0.69347165547E+02  0.69347165547E+02  0.00000000000E+00 0.  1.
         21   -1    0    0  501  503 -0.00000000000E+00 -0.00000000000E+00 -0.51404131593E+03  0.51404131593E+03  0.00000000000E+00 0.  1.
          6    1    1    2  501    0  0.32442620911E+02 -0.43125938975E+01 -0.32766675176E+03  0.37197529801E+03  0.17300000000E+03 0.  1.
         -6    1    1    2    0  502 -0.32442620911E+02  0.43125938975E+01 -0.11702739863E+03  0.21141318347E+03  0.17300000000E+03 0.  1.
<mgrwt>
<rscale>  2 0.17606852E+03</rscale>
<asrwt>0</asrwt>
<pdfrwt beam="1">  1       21 0.10668794E-01 0.17606852E+03</pdfrwt>
<pdfrwt beam="2">  1       21 0.79083281E-01 0.17606852E+03</pdfrwt>
<totfact> 0.10280872E+05</totfact>
</mgrwt>
</event>
<event>
 4    2  0.4086940E+000  0.2540946E+03  0.7546771E-02  0.1110744E+00
         21   -1    0    0  503  502  0.00000000000E+00  0.00000000000E+00  0.13678501442E+03  0.13678501442E+03  0.00000000000E+00 0. -1.
         21   -1    0    0  501  503 -0.00000000000E+00 -0.00000000000E+00 -0.77277648222E+03  0.77277648222E+03  0.00000000000E+00 0. -1.
          6    1    1    2  501    0  0.55125482388E+02  0.17775331574E+03 -0.60171509202E+03  0.65316545532E+03  0.17300000000E+03 0. -1.
         -6    1    1    2    0  502 -0.55125482388E+02 -0.17775331574E+03 -0.34276375788E+02  0.25639604132E+03  0.17300000000E+03 0. -1.
<mgrwt>
<rscale>  2 0.25409459E+03</rscale>
<asrwt>0</asrwt>
<pdfrwt beam="1">  1       21 0.21043848E-01 0.25409459E+03</pdfrwt>
<pdfrwt beam="2">  1       21 0.11888869E+00 0.25409459E+03</pdfrwt>
<totfact> 0.10906079E+04</totfact>
</mgrwt>
</event>
<event>
 4    2  0.4086940E+000  0.2231254E+03  0.7546771E-02  0.1131574E+00
         21   -1    0    0  501  502  0.00000000000E+00  0.00000000000E+00  0.36264137921E+03  0.36264137921E+03  0.00000000000E+00 0. -1.
         21   -1    0    0  502  503 -0.00000000000E+00 -0.00000000000E+00 -0.13729232289E+03  0.13729232289E+03  0.00000000000E+00 0. -1.
          6    1    1    2  501    0  0.11058284118E+03  0.87334985370E+02  0.11076255044E+03  0.24910501202E+03  0.17300000000E+03 0. -1.
         -6    1    1    2    0  503 -0.11058284118E+03 -0.87334985370E+02  0.11458650588E+03  0.25082869007E+03  0.17300000000E+03 0. -1.
<mgrwt>
<rscale>  2 0.22312545E+03</rscale>
<asrwt>0</asrwt>
<pdfrwt beam="1">  1       21 0.55790981E-01 0.22312545E+03</pdfrwt>
<pdfrwt beam="2">  1       21 0.21121896E-01 0.22312545E+03</pdfrwt>
<totfact> 0.62213892E+04</totfact>
</mgrwt>
</event>
<event>
 4    2  0.4086940E+000  0.1872003E+03  0.7546771E-02  0.1161011E+00
         21   -1    0    0  501  502  0.00000000000E+00  0.00000000000E+00  0.24686545243E+03  0.24686545243E+03  0.00000000000E+00 0.  1.
         21   -1    0    0  502  503 -0.00000000000E+00 -0.00000000000E+00 -0.14199956669E+03  0.14199956669E+03  0.00000000000E+00 0. -1.
          6    1    1    2  501    0 -0.10998297133E+02 -0.70668236615E+02  0.49016213506E+02  0.19351111439E+03  0.17300000000E+03 0. -1.
         -6    1    1    2    0  503  0.10998297133E+02  0.70668236615E+02  0.55849672234E+02  0.19535390473E+03  0.17300000000E+03 0. -1.
<mgrwt>
<rscale>  2 0.18720033E+03</rscale>
<asrwt>0</asrwt>
<pdfrwt beam="1">  1       21 0.37979300E-01 0.18720033E+03</pdfrwt>
<pdfrwt beam="2">  1       21 0.21846087E-01 0.18720033E+03</pdfrwt>
<totfact> 0.13101997E+05</totfact>
</mgrwt>
</event>
<event>
 4    2  0.4086940E+000  0.2921516E+03  0.7546771E-02  0.1089231E+00
         21   -1    0    0  503  502  0.00000000000E+00  0.00000000000E+00  0.10895309909E+04  0.10895309909E+04  0.00000000000E+00 0. -1.
         21   -1    0    0  501  503 -0.00000000000E+00 -0.00000000000E+00 -0.85304993998E+02  0.85304993998E+02  0.00000000000E+00 0.  1.
          6    1    1    2  501    0  0.15750551183E+03 -0.17497310767E+03  0.66997681932E+03  0.73090458549E+03  0.17300000000E+03 0. -1.
         -6    1    1    2    0  502 -0.15750551183E+03  0.17497310767E+03  0.33424917759E+03  0.44393139941E+03  0.17300000000E+03 0. -1.
<mgrwt>
<rscale>  2 0.29215163E+03</rscale>
<asrwt>0</asrwt>
<pdfrwt beam="1">  1       21 0.16762014E+00 0.29215163E+03</pdfrwt>
<pdfrwt beam="2">  1       21 0.13123846E-01 0.29215163E+03</pdfrwt>
<totfact> 0.10395195E+04</totfact>
</mgrwt>
</event>
<event>
 4    2  0.4086940E+000  0.2486422E+03  0.7546771E-02  0.1114166E+00
         21   -1    0    0  503  502  0.00000000000E+00  0.00000000000E+00  0.52420659256E+03  0.52420659256E+03  0.00000000000E+00 0.  1.
         21   -1    0    0  501  503 -0.00000000000E+00 -0.00000000000E+00 -0.12098369375E+03  0.12098369375E+03  0.00000000000E+00 0. -1.
          6    1    1    2  501    0  0.16765812174E+03  0.61520029184E+02  0.15041235843E+03  0.29059738015E+03  0.17300000000E+03 0.  1.
         -6    1    1    2    0  502 -0.16765812174E+03 -0.61520029184E+02  0.25281054037E+03  0.35459290616E+03  0.17300000000E+03 0. -1.
<mgrwt>
<rscale>  2 0.24864223E+03</rscale>
<asrwt>0</asrwt>
<pdfrwt beam="1">  1       21 0.80647167E-01 0.24864223E+03</pdfrwt>
<pdfrwt beam="2">  1       21 0.18612876E-01 0.24864223E+03</pdfrwt>
<totfact> 0.34662124E+04</totfact>
</mgrwt>
</event>
<event>
 4    2  0.4086940E+000  0.1843356E+03  0.7546771E-02  0.1163672E+00
         21   -1    0    0  503  502  0.00000000000E+00  0.00000000000E+00  0.97362000721E+02  0.97362000721E+02  0.00000000000E+00 0.  1.
         21   -1    0    0  501  503 -0.00000000000E+00 -0.00000000000E+00 -0.14126195556E+04  0.14126195556E+04  0.00000000000E+00 0.  1.
          6    1    1    2  501    0 -0.13102965928E+02 -0.62281033872E+02 -0.13127499217E+04  0.13256288967E+04  0.17300000000E+03 0.  1.
         -6    1    1    2    0  502  0.13102965928E+02  0.62281033872E+02 -0.25076332293E+01  0.18435265965E+03  0.17300000000E+03 0.  1.
<mgrwt>
<rscale>  2 0.18433560E+03</rscale>
<asrwt>0</asrwt>
<pdfrwt beam="1">  1       21 0.14978771E-01 0.18433560E+03</pdfrwt>
<pdfrwt beam="2">  1       21 0.21732607E+00 0.18433560E+03</pdfrwt>
<totfact> 0.41436818E+03</totfact>
</mgrwt>
</event>
<event>
 4    2  0.4086940E+000  0.2636128E+03  0.7546771E-02  0.1104992E+00
         21   -1    0    0  503  502  0.00000000000E+00  0.00000000000E+00  0.20513898791E+03  0.20513898791E+03  0.00000000000E+00 0.  1.
         21   -1    0    0  501  503 -0.00000000000E+00 -0.00000000000E+00 -0.81732506890E+03  0.81732506890E+03  0.00000000000E+00 0. -1.
          6    1    1    2  501    0  0.18506400413E+03  0.72897298764E+02 -0.69728845566E+03  0.74545482237E+03  0.17300000000E+03 0. -1.
         -6    1    1    2    0  502 -0.18506400413E+03 -0.72897298764E+02  0.85102374673E+02  0.27700923445E+03  0.17300000000E+03 0.  1.
<mgrwt>
<rscale>  2 0.26361279E+03</rscale>
<asrwt>0</asrwt>
<pdfrwt beam="1">  1       21 0.31559844E-01 0.26361279E+03</pdfrwt>
<pdfrwt beam="2">  1       21 0.12574232E+00 0.26361279E+03</pdfrwt>
<totfact> 0.43081599E+03</totfact>
</mgrwt>
</event>
<event>
 4    2  0.4086940E+000  0.1762307E+03  0.7546771E-02  0.1171502E+00
         21   -1    0    0  501  502  0.00000000000E+00  0.00000000000E+00  0.67995933427E+03  0.67995933427E+03  0.00000000000E+00 0.  1.
         21   -1    0    0  502  503 -0.00000000000E+00 -0.00000000000E+00 -0.48013416015E+02  0.48013416015E+02  0.00000000000E+00 0.  1.
          6    1    1    2  501    0 -0.22612414434E+02  0.24838461064E+02  0.39629731525E+03  0.43371515135E+03  0.17300000000E+03 0.  1.
         -6    1    1    2    0  503  0.22612414434E+02 -0.24838461064E+02  0.23564860301E+03  0.29425759894E+03  0.17300000000E+03 0.  1.
<mgrwt>
<rscale>  2 0.17623073E+03</rscale>
<asrwt>0</asrwt>
<pdfrwt beam="1">  1       21 0.10460912E+00 0.17623073E+03</pdfrwt>
<pdfrwt beam="2">  1       21 0.73866799E-02 0.17623073E+03</pdfrwt>
<totfact> 0.10230318E+05</totfact>
</mgrwt>
</event>
<event>
 4    2  0.4086940E+000  0.1757416E+03  0.7546771E-02  0.1171989E+00
         21   -1    0    0  501  502  0.00000000000E+00  0.00000000000E+00  0.79210031543E+02  0.79210031543E+02  0.00000000000E+00 0. -1.
         21   -1    0    0  502  503 -0.00000000000E+00 -0.00000000000E+00 -0.67809265524E+03  0.67809265524E+03  0.00000000000E+00 0. -1.
          6    1    1    2  501    0  0.27767895644E+02 -0.13603720198E+02 -0.52595521443E+02  0.18344319586E+03  0.17300000000E+03 0. -1.
         -6    1    1    2    0  503 -0.27767895644E+02  0.13603720198E+02 -0.54628710226E+03  0.57385949092E+03  0.17300000000E+03 0. -1.
<mgrwt>
<rscale>  2 0.17574162E+03</rscale>
<asrwt>0</asrwt>
<pdfrwt beam="1">  1       21 0.12186159E-01 0.17574162E+03</pdfrwt>
<pdfrwt beam="2">  1       21 0.10432194E+00 0.17574162E+03</pdfrwt>
<totfact> 0.42742250E+04</totfact>
</mgrwt>
</event>
<event>
 4    2  0.4086940E+000  0.2261338E+03  0.7546771E-02  0.1129391E+00
         21   -1    0    0  501  502  0.00000000000E+00  0.00000000000E+00  0.84033521253E+03  0.84033521253E+03  0.00000000000E+00 0.  1.
         21   -1    0    0  502  503 -0.00000000000E+00 -0.00000000000E+00 -0.15399212638E+03  0.15399212638E+03  0.00000000000E+00 0.  1.
          6    1    1    2  501    0 -0.46055813762E+02  0.13815342260E+03  0.72982095269E+03  0.76405178433E+03  0.17300000000E+03 0.  1.
         -6    1    1    2    0  503  0.46055813762E+02 -0.13815342260E+03 -0.43477866540E+02  0.23027555458E+03  0.17300000000E+03 0.  1.
<mgrwt>
<rscale>  2 0.22613382E+03</rscale>
<asrwt>0</asrwt>
<pdfrwt beam="1">  1       21 0.12928234E+00 0.22613382E+03</pdfrwt>
<pdfrwt beam="2">  1       21 0.23691097E-01 0.22613382E+03</pdfrwt>
<totfact> 0.71760499E+03</totfact>
</mgrwt>
</event>
<event>
 4    2  0.4086940E+000  0.1928595E+03  0.7546771E-02  0.1155907E+00
         21   -1    0    0  501  502  0.00000000000E+00  0.00000000000E+00  0.21389614063E+03  0.21389614063E+03  0.00000000000E+00 0.  1.
         21   -1    0    0  502  503 -0.00000000000E+00 -0.00000000000E+00 -0.20486180036E+03  0.20486180036E+03  0.00000000000E+00 0.  1.
          6    1    1    2  501    0 -0.59982434575E+01 -0.85028183634E+02 -0.76892056809E+02  0.20762263686E+03  0.17300000000E+03 0.  1.
         -6    1    1    2    0  503  0.59982434575E+01  0.85028183634E+02  0.85926397083E+02  0.21113530414E+03  0.17300000000E+03 0.  1.
<mgrwt>
<rscale>  2 0.19285946E+03</rscale>
<asrwt>0</asrwt>
<pdfrwt beam="1">  1       21 0.32907098E-01 0.19285946E+03</pdfrwt>
<pdfrwt beam="2">  1       21 0.31517200E-01 0.19285946E+03</pdfrwt>
<totfact> 0.86022577E+04</totfact>
</mgrwt>
</event>
<event>
 4    2  0.4086940E+000  0.2197310E+03  0.7546771E-02  0.1134084E+00
         21   -1    0    0  501  502  0.00000000000E+00  0.00000000000E+00  0.61909738235E+03  0.61909738235E+03  0.00000000000E+00 0.  1.
         21   -1    0    0  502  503 -0.00000000000E+00 -0.00000000000E+00 -0.87810964930E+02  0.87810964930E+02  0.00000000000E+00 0. -1.
          6    1    1    2  501    0  0.84887450089E+02  0.10557858314E+03  0.38386461274E+03  0.44230505007E+03  0.17300000000E+03 0.  1.
         -6    1    1    2    0  503 -0.84887450089E+02 -0.10557858314E+03  0.14742180468E+03  0.26460329721E+03  0.17300000000E+03 0. -1.
<mgrwt>
<rscale>  2 0.21973101E+03</rscale>
<asrwt>0</asrwt>
<pdfrwt beam="1">  1       21 0.95245748E-01 0.21973101E+03</pdfrwt>
<pdfrwt beam="2">  1       21 0.13509380E-01 0.21973101E+03</pdfrwt>
<totfact> 0.43067768E+04</totfact>
</mgrwt>
</event>
<event>
 4    2  0.4086940E+000  0.1947714E+03  0.7546771E-02  0.1154227E+00
         21   -1    0    0  503  502  0.00000000000E+00  0.00000000000E+00  0.30706239908E+02  0.30706239908E+02  0.00000000000E+00 0.  1.
         21   -1    0    0  501  503 -0.00000000000E+00 -0.00000000000E+00 -0.13198865614E+04  0.13198865614E+04  0.00000000000E+00 0.  1.
          6    1    1    2  501    0  0.38745405884E+02 -0.80657957354E+02 -0.47378509703E+03  0.51225797283E+03  0.17300000000E+03 0.  1.
         -6    1    1    2    0  502 -0.38745405884E+02  0.80657957354E+02 -0.81539522447E+03  0.83833482848E+03  0.17300000000E+03 0.  1.
<mgrwt>
<rscale>  2 0.19477144E+03</rscale>
<asrwt>0</asrwt>
<pdfrwt beam="1">  1       21 0.47240368E-02 0.19477144E+03</pdfrwt>
<pdfrwt beam="2">  1       21 0.20305948E+00 0.19477144E+03</pdfrwt>
<totfact> 0.37954458E+04</totfact>
</mgrwt>
</event>
<event>
 4    2  0.4086940E+000  0.2397088E+03  0.7546771E-02  0.1119987E+00
         21   -1    0    0  501  502  0.00000000000E+00  0.00000000000E+00  0.26515648940E+03  0.26515648940E+03  0.00000000000E+00 0.  1.
         21   -1    0    0  502  503 -0.00000000000E+00 -0.00000000000E+00 -0.90246562258E+03  0.90246562258E+03  0.00000000000E+00 0.  1.
          6    1    1    2  501    0  0.16396410830E+03  0.25437837689E+02  0.19025868598E+03  0.30603705656E+03  0.17300000000E+03 0.  1.
         -6    1    1    2    0  503 -0.16396410830E+03 -0.25437837689E+02 -0.82756781916E+03  0.86158505541E+03  0.17300000000E+03 0.  1.
<mgrwt>
<rscale>  2 0.23970881E+03</rscale>
<asrwt>0</asrwt>
<pdfrwt beam="1">  1       21 0.40793305E-01 0.23970881E+03</pdfrwt>
<pdfrwt beam="2">  1       21 0.13884087E+00 0.23970881E+03</pdfrwt>
<totfact> 0.20321029E+03</totfact>
</mgrwt>
</event>
<event>
 4    2  0.4086940E+000  0.2088333E+03  0.7546771E-02  0.1142493E+00
         21   -1    0    0  501  502  0.00000000000E+00  0.00000000000E+00  0.12369314935E+04  0.12369314935E+04  0.00000000000E+00 0. -1.
         21   -1    0    0  502  503 -0.00000000000E+00 -0.00000000000E+00 -0.54803291344E+02  0.54803291344E+02  0.00000000000E+00 0.  1.
          6    1    1    2  501    0  0.93657161223E+02  0.70076132922E+02  0.97677750043E+03  0.99885214802E+03  0.17300000000E+03 0. -1.
         -6    1    1    2    0  503 -0.93657161223E+02 -0.70076132922E+02  0.20535070172E+03  0.29288263682E+03  0.17300000000E+03 0.  1.
<mgrwt>
<rscale>  2 0.20883325E+03</rscale>
<asrwt>0</asrwt>
<pdfrwt beam="1">  1       21 0.19029713E+00 0.20883325E+03</pdfrwt>
<pdfrwt beam="2">  1       21 0.84312765E-02 0.20883325E+03</pdfrwt>
<totfact> 0.16797321E+04</totfact>
</mgrwt>
</event>
<event>
 4    2  0.4086940E+000  0.2172184E+03  0.7546771E-02  0.1135974E+00
         21   -1    0    0  501  502  0.00000000000E+00  0.00000000000E+00  0.28082122321E+03  0.28082122321E+03  0.00000000000E+00 0. -1.
         21   -1    0    0  502  503 -0.00000000000E+00 -0.00000000000E+00 -0.17058449984E+03  0.17058449984E+03  0.00000000000E+00 0. -1.
          6    1    1    2  501    0  0.78489553161E+02 -0.10532915061E+03  0.82787192775E+02  0.23245980128E+03  0.17300000000E+03 0. -1.
         -6    1    1    2    0  503 -0.78489553161E+02  0.10532915061E+03  0.27449530595E+02  0.21894592176E+03  0.17300000000E+03 0. -1.
<mgrwt>
<rscale>  2 0.21721842E+03</rscale>
<asrwt>0</asrwt>
<pdfrwt beam="1">  1       21 0.43203265E-01 0.21721842E+03</pdfrwt>
<pdfrwt beam="2">  1       21 0.26243769E-01 0.21721842E+03</pdfrwt>
<totfact> 0.70339971E+04</totfact>
</mgrwt>
</event>
<event>
 4    2  0.4086940E+000  0.1768748E+03  0.7546771E-02  0.1170862E+00
         21   -1    0    0  501  502  0.00000000000E+00  0.00000000000E+00  0.21152274262E+02  0.21152274262E+02  0.00000000000E+00 0.  1.
         21   -1    0    0  502  503 -0.00000000000E+00 -0.00000000000E+00 -0.21253793986E+04  0.21253793986E+04  0.00000000000E+00 0.  1.
          6    1    1    2  501    0 -0.21505016263E+02 -0.29886697836E+02 -0.46024481093E+03  0.49306182819E+03  0.17300000000E+03 0.  1.
         -6    1    1    2    0  503  0.21505016263E+02  0.29886697836E+02 -0.16439823134E+04  0.16534698446E+04  0.17300000000E+03 0.  1.
<mgrwt>
<rscale>  2 0.17687476E+03</rscale>
<asrwt>0</asrwt>
<pdfrwt beam="1">  1       21 0.32541953E-02 0.17687476E+03</pdfrwt>
<pdfrwt beam="2">  1       21 0.32698152E+00 0.17687476E+03</pdfrwt>
<totfact> 0.13426309E+04</totfact>
</mgrwt>
</event>
<event>
 4    2  0.4086940E+000  0.1805621E+03  0.7546771E-02  0.1167260E+00
         21   -1    0    0  501  502  0.00000000000E+00  0.00000000000E+00  0.31389336395E+02  0.31389336395E+02  0.00000000000E+00 0.  1.
         21   -1    0    0  502  503 -0.00000000000E+00 -0.00000000000E+00 -0.15642627220E+04  0.15642627220E+04  0.00000000000E+00 0.  1.
          6    1    1    2  501    0  0.56566335175E+01 -0.51397298607E+02 -0.30396583457E+03  0.35355043260E+03  0.17300000000E+03 0.  1.
         -6    1    1    2    0  503 -0.56566335175E+01  0.51397298607E+02 -0.12289075510E+04  0.12421016258E+04  0.17300000000E+03 0.  1.
<mgrwt>
<rscale>  2 0.18056212E+03</rscale>
<asrwt>0</asrwt>
<pdfrwt beam="1">  1       21 0.48291295E-02 0.18056212E+03</pdfrwt>
<pdfrwt beam="2">  1       21 0.24065576E+00 0.18056212E+03</pdfrwt>
<totfact> 0.21767903E+04</totfact>
</mgrwt>
</event>
<event>
 4    2  0.4086940E+000  0.1734629E+03  0.7546771E-02  0.1174284E+00
         21   -1    0    0  501  502  0.00000000000E+00  0.00000000000E+00  0.17824000411E+03  0.17824000411E+03  0.00000000000E+00 0. -1.
         21   -1    0    0  502  503 -0.00000000000E+00 -0.00000000000E+00 -0.54108385756E+03  0.54108385756E+03  0.00000000000E+00 0. -1.
          6    1    1    2  501    0 -0.15449982706E+00  0.12663353297E+02  0.11690413619E+03  0.20917925673E+03  0.17300000000E+03 0. -1.
         -6    1    1    2    0  503  0.15449982706E+00 -0.12663353297E+02 -0.47974798964E+03  0.51014460494E+03  0.17300000000E+03 0. -1.
<mgrwt>
<rscale>  2 0.17346292E+03</rscale>
<asrwt>0</asrwt>
<pdfrwt beam="1">  1       21 0.27421539E-01 0.17346292E+03</pdfrwt>
<pdfrwt beam="2">  1       21 0.83243670E-01 0.17346292E+03</pdfrwt>
<totfact> 0.16140473E+04</totfact>
</mgrwt>
</event>
<event>
 4    2  0.4086940E+000  0.1901016E+03  0.7546771E-02  0.1158370E+00
         21   -1    0    0  501  502  0.00000000000E+00  0.00000000000E+00  0.91387803687E+03  0.91387803687E+03  0.00000000000E+00 0. -1.
         21   -1    0    0  502  503 -0.00000000000E+00 -0.00000000000E+00 -0.12431284929E+03  0.12431284929E+03  0.00000000000E+00 0. -1.
          6    1    1    2  501    0 -0.75849686899E+02  0.21364816687E+02  0.82343640038E+03  0.84509534129E+03  0.17300000000E+03 0. -1.
         -6    1    1    2    0  503  0.75849686899E+02 -0.21364816687E+02 -0.33871212800E+02  0.19309554488E+03  0.17300000000E+03 0. -1.
<mgrwt>
<rscale>  2 0.19010163E+03</rscale>
<asrwt>0</asrwt>
<pdfrwt beam="1">  1       21 0.14059662E+00 0.19010163E+03</pdfrwt>
<pdfrwt beam="2">  1       21 0.19125054E-01 0.19010163E+03</pdfrwt>
<totfact> 0.88972766E+03</totfact>
</mgrwt>
</event>
<event>
 4    2  0.4086940E+000  0.1865235E+03  0.7546771E-02  0.1161635E+00
         21   -1    0    0  503  502  0.00000000000E+00  0.00000000000E+00  0.21088916775E+03  0.21088916775E+03  0.00000000000E+00 0. -1.
         21   -1    0    0  501  503 -0.00000000000E+00 -0.00000000000E+00 -0.26428896502E+03  0.26428896502E+03  0.00000000000E+00 0. -1.
          6    1    1    2  501    0  0.28529202436E+02  0.63624712305E+02 -0.17234519435E+03  0.25395646364E+03  0.17300000000E+03 0. -1.
         -6    1    1    2    0  502 -0.28529202436E+02 -0.63624712305E+02  0.11894539708E+03  0.22122166913E+03  0.17300000000E+03 0. -1.
<mgrwt>
<rscale>  2 0.18652351E+03</rscale>
<asrwt>0</asrwt>
<pdfrwt beam="1">  1       21 0.32444487E-01 0.18652351E+03</pdfrwt>
<pdfrwt beam="2">  1       21 0.40659841E-01 0.18652351E+03</pdfrwt>
<totfact> 0.53418771E+04</totfact>
</mgrwt>
</event>
<event>
 4    2  0.4086940E+000  0.3318706E+03  0.7546771E-02  0.1070312E+00
         21   -1    0    0  501  502  0.00000000000E+00  0.00000000000E+00  0.58605856345E+03  0.58605856345E+03  0.00000000000E+00 0.  1.
         21   -1    0    0  502  503 -0.00000000000E+00 -0.00000000000E+00 -0.19878118404E+03  0.19878118404E+03  0.00000000000E+00 0.  1.
          6    1    1    2  501    0 -0.27018741217E+03 -0.84899103625E+02  0.28532366603E+03  0.43766161574E+03  0.17300000000E+03 0.  1.
         -6    1    1    2    0  503  0.27018741217E+03  0.84899103625E+02  0.10195371337E+03  0.34717813175E+03  0.17300000000E+03 0.  1.
<mgrwt>
<rscale>  2 0.33187060E+03</rscale>
<asrwt>0</asrwt>
<pdfrwt beam="1">  1       21 0.90162855E-01 0.33187060E+03</pdfrwt>
<pdfrwt beam="2">  1       21 0.30581721E-01 0.33187060E+03</pdfrwt>
<totfact> 0.99619475E+03</totfact>
</mgrwt>
</event>
<event>
 4    2  0.4086940E+000  0.2772515E+03  0.7546771E-02  0.1097200E+00
         21   -1    0    0  503  502  0.00000000000E+00  0.00000000000E+00  0.16782424947E+03  0.16782424947E+03  0.00000000000E+00 0.  1.
         21   -1    0    0  501  503 -0.00000000000E+00 -0.00000000000E+00 -0.48106962603E+03  0.48106962603E+03  0.00000000000E+00 0. -1.
          6    1    1    2  501    0  0.16482197783E+03 -0.14061684370E+03 -0.22762727469E+03  0.35872351093E+03  0.17300000000E+03 0. -1.
         -6    1    1    2    0  502 -0.16482197783E+03  0.14061684370E+03 -0.85618101878E+02  0.29017036458E+03  0.17300000000E+03 0.  1.
<mgrwt>
<rscale>  2 0.27725148E+03</rscale>
<asrwt>0</asrwt>
<pdfrwt beam="1">  1       21 0.25819116E-01 0.27725148E+03</pdfrwt>
<pdfrwt beam="2">  1       21 0.74010711E-01 0.27725148E+03</pdfrwt>
<totfact> 0.22339499E+04</totfact>
</mgrwt>
</event>
<event>
 4    2  0.4086940E+000  0.2205247E+03  0.7546771E-02  0.1133492E+00
         21   -1    0    0  503  502  0.00000000000E+00  0.00000000000E+00  0.82055678746E+02  0.82055678746E+02  0.00000000000E+00 0.  1.
         21   -1    0    0  501  503 -0.00000000000E+00 -0.00000000000E+00 -0.84141982626E+03  0.84141982626E+03  0.00000000000E+00 0. -1.
          6    1    1    2  501    0 -0.12122061925E+03 -0.63306349163E+02 -0.63074292077E+03  0.66818243353E+03  0.17300000000E+03 0. -1.
         -6    1    1    2    0  502  0.12122061925E+03  0.63306349163E+02 -0.12862122675E+03  0.25529307148E+03  0.17300000000E+03 0.  1.
<mgrwt>
<rscale>  2 0.22052468E+03</rscale>
<asrwt>0</asrwt>
<pdfrwt beam="1">  1       21 0.12623951E-01 0.22052468E+03</pdfrwt>
<pdfrwt beam="2">  1       21 0.12944920E+00 0.22052468E+03</pdfrwt>
<totfact> 0.23016054E+04</totfact>
</mgrwt>
</event>
<event>
 4    2  0.4086940E+000  0.3058667E+03  0.7546771E-02  0.1082344E+00
         21   -1    0    0  503  502  0.00000000000E+00  0.00000000000E+00  0.29066166351E+03  0.29066166351E+03  0.00000000000E+00 0.  1.
         21   -1    0    0  501  503 -0.00000000000E+00 -0.00000000000E+00 -0.32236527975E+03  0.32236527975E+03  0.00000000000E+00 0. -1.
          6    1    1    2  501    0 -0.24768674295E+03 -0.47715192769E+02 -0.27899814066E+02  0.30713655249E+03  0.17300000000E+03 0. -1.
         -6    1    1    2    0  502  0.24768674295E+03  0.47715192769E+02 -0.38038021812E+01  0.30589039077E+03  0.17300000000E+03 0.  1.
<mgrwt>
<rscale>  2 0.30586674E+03</rscale>
<asrwt>0</asrwt>
<pdfrwt beam="1">  1       21 0.44717179E-01 0.30586674E+03</pdfrwt>
<pdfrwt beam="2">  1       21 0.49594659E-01 0.30586674E+03</pdfrwt>
<totfact> 0.17580915E+04</totfact>
</mgrwt>
</event>
<event>
 4    2  0.4086940E+000  0.2468356E+03  0.7546771E-02  0.1115321E+00
         21   -1    0    0  503  502  0.00000000000E+00  0.00000000000E+00  0.28671058251E+03  0.28671058251E+03  0.00000000000E+00 0.  1.
         21   -1    0    0  501  503 -0.00000000000E+00 -0.00000000000E+00 -0.24909829021E+03  0.24909829021E+03  0.00000000000E+00 0.  1.
          6    1    1    2  501    0 -0.14113053234E+03  0.10526625013E+03 -0.83874225857E+02  0.26069655989E+03  0.17300000000E+03 0.  1.
         -6    1    1    2    0  502  0.14113053234E+03 -0.10526625013E+03  0.12148651815E+03  0.27511231283E+03  0.17300000000E+03 0.  1.
<mgrwt>
<rscale>  2 0.24683559E+03</rscale>
<asrwt>0</asrwt>
<pdfrwt beam="1">  1       21 0.44109321E-01 0.24683559E+03</pdfrwt>
<pdfrwt beam="2">  1       21 0.38322814E-01 0.24683559E+03</pdfrwt>
<totfact> 0.31554717E+04</totfact>
</mgrwt>
</event>
<event>
 4    2  0.4086940E+000  0.1745610E+03  0.7546771E-02  0.1173173E+00
         21   -1    0    0  503  502  0.00000000000E+00  0.00000000000E+00  0.50169732559E+03  0.50169732559E+03  0.00000000000E+00 0. -1.
         21   -1    0    0  501  503 -0.00000000000E+00 -0.00000000000E+00 -0.18107554681E+03  0.18107554681E+03  0.00000000000E+00 0. -1.
          6    1    1    2  501    0 -0.13299262652E+02  0.19122264454E+02 -0.11799279323E+03  0.21069843530E+03  0.17300000000E+03 0. -1.
         -6    1    1    2    0  502  0.13299262652E+02 -0.19122264454E+02  0.43861457201E+03  0.47207443710E+03  0.17300000000E+03 0. -1.
<mgrwt>
<rscale>  2 0.17456097E+03</rscale>
<asrwt>0</asrwt>
<pdfrwt beam="1">  1       21 0.77184203E-01 0.17456097E+03</pdfrwt>
<pdfrwt beam="2">  1       21 0.27857777E-01 0.17456097E+03</pdfrwt>
<totfact> 0.18552386E+04</totfact>
</mgrwt>
</event>
<event>
 4    2  0.4086940E+000  0.2200431E+03  0.7546771E-02  0.1133851E+00
         21   -1    0    0  501  502  0.00000000000E+00  0.00000000000E+00  0.19457792413E+03  0.19457792413E+03  0.00000000000E+00 0.  1.
         21   -1    0    0  502  503 -0.00000000000E+00 -0.00000000000E+00 -0.60658254518E+03  0.60658254518E+03  0.00000000000E+00 0. -1.
          6    1    1    2  501    0 -0.98696195293E+02 -0.93536155770E+02  0.10162812083E+03  0.24237827119E+03  0.17300000000E+03 0.  1.
         -6    1    1    2    0  503  0.98696195293E+02  0.93536155770E+02 -0.51363274188E+03  0.55878219811E+03  0.17300000000E+03 0. -1.
<mgrwt>
<rscale>  2 0.22004307E+03</rscale>
<asrwt>0</asrwt>
<pdfrwt beam="1">  1       21 0.29935066E-01 0.22004307E+03</pdfrwt>
<pdfrwt beam="2">  1       21 0.93320389E-01 0.22004307E+03</pdfrwt>
<totfact> 0.10145302E+04</totfact>
</mgrwt>
</event>
<event>
 4    2  0.4086940E+000  0.1870655E+03  0.7546771E-02  0.1161135E+00
         21   -1    0    0  503  502  0.00000000000E+00  0.00000000000E+00  0.12450773804E+03  0.12450773804E+03  0.00000000000E+00 0. -1.
         21   -1    0    0  501  503 -0.00000000000E+00 -0.00000000000E+00 -0.29590781963E+03  0.29590781963E+03  0.00000000000E+00 0. -1.
          6    1    1    2  501    0  0.60622233164E+02 -0.37275480939E+02 -0.13279513640E+03  0.22940807502E+03  0.17300000000E+03 0. -1.
         -6    1    1    2    0  502 -0.60622233164E+02  0.37275480939E+02 -0.38604945196E+02  0.19100748265E+03  0.17300000000E+03 0. -1.
<mgrwt>
<rscale>  2 0.18706554E+03</rscale>
<asrwt>0</asrwt>
<pdfrwt beam="1">  1       21 0.19155037E-01 0.18706554E+03</pdfrwt>
<pdfrwt beam="2">  1       21 0.45524280E-01 0.18706554E+03</pdfrwt>
<totfact> 0.11599092E+05</totfact>
</mgrwt>
</event>
<event>
 4    2  0.4086940E+000  0.2013251E+03  0.7546771E-02  0.1148626E+00
         21   -1    0    0  503  502  0.00000000000E+00  0.00000000000E+00  0.99946835463E+02  0.99946835463E+02  0.00000000000E+00 0. -1.
         21   -1    0    0  501  503 -0.00000000000E+00 -0.00000000000E+00 -0.46082313307E+03  0.46082313307E+03  0.00000000000E+00 0.  1.
          6    1    1    2  501    0 -0.40243435313E+02 -0.94780031229E+02 -0.27755834075E+03  0.34288543411E+03  0.17300000000E+03 0.  1.
         -6    1    1    2    0  502  0.40243435313E+02  0.94780031229E+02 -0.83317956859E+02  0.21788453442E+03  0.17300000000E+03 0. -1.
<mgrwt>
<rscale>  2 0.20132508E+03</rscale>
<asrwt>0</asrwt>
<pdfrwt beam="1">  1       21 0.15376436E-01 0.20132508E+03</pdfrwt>
<pdfrwt beam="2">  1       21 0.70895866E-01 0.20132508E+03</pdfrwt>
<totfact> 0.67283386E+04</totfact>
</mgrwt>
</event>
<event>
 4    2  0.4086940E+000  0.2363569E+03  0.7546771E-02  0.1122244E+00
         21   -1    0    0  501  502  0.00000000000E+00  0.00000000000E+00  0.18623230021E+04  0.18623230021E+04  0.00000000000E+00 0.  1.
         21   -1    0    0  502  503 -0.00000000000E+00 -0.00000000000E+00 -0.60972467857E+02  0.60972467857E+02  0.00000000000E+00 0.  1.
          6    1    1    2  501    0  0.38555249214E+02  0.15636206469E+03  0.15860943376E+04  0.16036083843E+04  0.17300000000E+03 0.  1.
         -6    1    1    2    0  503 -0.38555249214E+02 -0.15636206469E+03  0.21525619659E+03  0.31968708558E+03  0.17300000000E+03 0.  1.
<mgrwt>
<rscale>  2 0.23635694E+03</rscale>
<asrwt>0</asrwt>
<pdfrwt beam="1">  1       21 0.28651119E+00 0.23635694E+03</pdfrwt>
<pdfrwt beam="2">  1       21 0.93803811E-02 0.23635694E+03</pdfrwt>
<totfact> 0.35385066E+03</totfact>
</mgrwt>
</event>
<event>
 4    2  0.4086940E+000  0.1761291E+03  0.7546771E-02  0.1171603E+00
         21   -1    0    0  501  502  0.00000000000E+00  0.00000000000E+00  0.98791688434E+02  0.98791688434E+02  0.00000000000E+00 0. -1.
         21   -1    0    0  502  503 -0.00000000000E+00 -0.00000000000E+00 -0.41782903230E+03  0.41782903230E+03  0.00000000000E+00 0.  1.
          6    1    1    2  501    0 -0.30401810092E+02  0.12968176475E+02 -0.28827952729E+03  0.33782618240E+03  0.17300000000E+03 0. -1.
         -6    1    1    2    0  503  0.30401810092E+02 -0.12968176475E+02 -0.30757816573E+02  0.17879453833E+03  0.17300000000E+03 0. -1.
<mgrwt>
<rscale>  2 0.17612905E+03</rscale>
<asrwt>0</asrwt>
<pdfrwt beam="1">  1       21 0.15198721E-01 0.17612905E+03</pdfrwt>
<pdfrwt beam="2">  1       21 0.64281390E-01 0.17612905E+03</pdfrwt>
<totfact> 0.86092222E+04</totfact>
</mgrwt>
</event>
<event>
 4    2  0.4086940E+000  0.2393445E+03  0.7546771E-02  0.1120230E+00
         21   -1    0    0  501  502  0.00000000000E+00  0.00000000000E+00  0.11245474913E+04  0.11245474913E+04  0.00000000000E+00 0. -1.
         21   -1    0    0  502  503 -0.00000000000E+00 -0.00000000000E+00 -0.78458573853E+02  0.78458573853E+02  0.00000000000E+00 0.  1.
          6    1    1    2  501    0 -0.16136091166E+03 -0.36324405885E+02  0.87926671917E+03  0.91126053887E+03  0.17300000000E+03 0. -1.
         -6    1    1    2    0  503  0.16136091166E+03  0.36324405885E+02  0.16682219832E+03  0.29174552632E+03  0.17300000000E+03 0.  1.
<mgrwt>
<rscale>  2 0.23934453E+03</rscale>
<asrwt>0</asrwt>
<pdfrwt beam="1">  1       21 0.17300730E+00 0.23934453E+03</pdfrwt>
<pdfrwt beam="2">  1       21 0.12070551E-01 0.23934453E+03</pdfrwt>
<totfact> 0.11416203E+04</totfact>
</mgrwt>
</event>
<event>
 4    2  0.4086940E+000  0.2259758E+03  0.7546771E-02  0.1129505E+00
         21   -1    0    0  501  502  0.00000000000E+00  0.00000000000E+00  0.37317377233E+03  0.37317377233E+03  0.00000000000E+00 0.  1.
         21   -1    0    0  502  503 -0.00000000000E+00 -0.00000000000E+00 -0.13995617370E+03  0.13995617370E+03  0.00000000000E+00 0. -1.
          6    1    1    2  501    0  0.10435090074E+03 -0.10122727989E+03  0.15489277920E+03  0.27396504472E+03  0.17300000000E+03 0.  1.
         -6    1    1    2    0  503 -0.10435090074E+03  0.10122727989E+03  0.78324819428E+02  0.23916490131E+03  0.17300000000E+03 0.  1.
<mgrwt>
<rscale>  2 0.22597582E+03</rscale>
<asrwt>0</asrwt>
<pdfrwt beam="1">  1       21 0.57411349E-01 0.22597582E+03</pdfrwt>
<pdfrwt beam="2">  1       21 0.21531719E-01 0.22597582E+03</pdfrwt>
<totfact> 0.56375791E+04</totfact>
</mgrwt>
</event>
<event>
 4    2  0.4086940E+000  0.1935134E+03  0.7546771E-02  0.1155330E+00
         21   -1    0    0  501  502  0.00000000000E+00  0.00000000000E+00  0.14637254051E+03  0.14637254051E+03  0.00000000000E+00 0.  1.
         21   -1    0    0  502  503 -0.00000000000E+00 -0.00000000000E+00 -0.27321174579E+03  0.27321174579E+03  0.00000000000E+00 0. -1.
          6    1    1    2  501    0 -0.81813381875E+02 -0.28722649167E+02 -0.10513400316E+02  0.19379873997E+03  0.17300000000E+03 0.  1.
         -6    1    1    2    0  503  0.81813381875E+02  0.28722649167E+02 -0.11632580497E+03  0.22578554633E+03  0.17300000000E+03 0. -1.
<mgrwt>
<rscale>  2 0.19351336E+03</rscale>
<asrwt>0</asrwt>
<pdfrwt beam="1">  1       21 0.22518852E-01 0.19351336E+03</pdfrwt>
<pdfrwt beam="2">  1       21 0.42032576E-01 0.19351336E+03</pdfrwt>
<totfact> 0.10060375E+05</totfact>
</mgrwt>
</event>
<event>
 4    2  0.4086940E+000  0.2173314E+03  0.7546771E-02  0.1135888E+00
         21   -1    0    0  501  502  0.00000000000E+00  0.00000000000E+00  0.51521308352E+03  0.51521308352E+03  0.00000000000E+00 0.  1.
         21   -1    0    0  502  503 -0.00000000000E+00 -0.00000000000E+00 -0.92381599752E+02  0.92381599752E+02  0.00000000000E+00 0. -1.
          6    1    1    2  501    0  0.61363165202E+02  0.11635501644E+03  0.18487462982E+03  0.28532710464E+03  0.17300000000E+03 0.  1.
         -6    1    1    2    0  503 -0.61363165202E+02 -0.11635501644E+03  0.23795685395E+03  0.32226757863E+03  0.17300000000E+03 0.  1.
<mgrwt>
<rscale>  2 0.21733138E+03</rscale>
<asrwt>0</asrwt>
<pdfrwt beam="1">  1       21 0.79263550E-01 0.21733138E+03</pdfrwt>
<pdfrwt beam="2">  1       21 0.14212554E-01 0.21733138E+03</pdfrwt>
<totfact> 0.60066864E+04</totfact>
</mgrwt>
</event>
<event>
 4    2  0.4086940E+000  0.1938410E+03  0.7546771E-02  0.1155042E+00
         21   -1    0    0  503  502  0.00000000000E+00  0.00000000000E+00  0.71681281492E+03  0.71681281492E+03  0.00000000000E+00 0. -1.
         21   -1    0    0  501  503 -0.00000000000E+00 -0.00000000000E+00 -0.69815312583E+02  0.69815312583E+02  0.00000000000E+00 0. -1.
          6    1    1    2  501    0 -0.64852729591E+02  0.58646953619E+02  0.12716388889E+03  0.23182967097E+03  0.17300000000E+03 0. -1.
         -6    1    1    2    0  502  0.64852729591E+02 -0.58646953619E+02  0.51983361345E+03  0.55479845654E+03  0.17300000000E+03 0. -1.
<mgrwt>
<rscale>  2 0.19384102E+03</rscale>
<asrwt>0</asrwt>
<pdfrwt beam="1">  1       21 0.11027889E+00 0.19384102E+03</pdfrwt>
<pdfrwt beam="2">  1       21 0.10740818E-01 0.19384102E+03</pdfrwt>
<totfact> 0.46384077E+04</totfact>
</mgrwt>
</event>
<event>
 4    2  0.4086940E+000  0.2715418E+03  0.7546771E-02  0.1100400E+00
         21   -1    0    0  501  502  0.00000000000E+00  0.00000000000E+00  0.34413627744E+03  0.34413627744E+03  0.00000000000E+00 0. -1.
         21   -1    0    0  502  503 -0.00000000000E+00 -0.00000000000E+00 -0.81851431735E+03  0.81851431735E+03  0.00000000000E+00 0. -1.
          6    1    1    2  501    0  0.14559682272E+03  0.15035802646E+03  0.26228812028E+03  0.37753149398E+03  0.17300000000E+03 0. -1.
         -6    1    1    2    0  503 -0.14559682272E+03 -0.15035802646E+03 -0.73666616018E+03  0.78511910081E+03  0.17300000000E+03 0. -1.
<mgrwt>
<rscale>  2 0.27154184E+03</rscale>
<asrwt>0</asrwt>
<pdfrwt beam="1">  1       21 0.52944043E-01 0.27154184E+03</pdfrwt>
<pdfrwt beam="2">  1       21 0.12592528E+00 0.27154184E+03</pdfrwt>
<totfact> 0.14829689E+03</totfact>
</mgrwt>
</event>
<event>
 4    2  0.4086940E+000  0.1949879E+03  0.7546771E-02  0.1154038E+00
         21   -1    0    0  501  502  0.00000000000E+00  0.00000000000E+00  0.29722440579E+03  0.29722440579E+03  0.00000000000E+00 0.  1.
         21   -1    0    0  502  503 -0.00000000000E+00 -0.00000000000E+00 -0.14598416315E+03  0.14598416315E+03  0.00000000000E+00 0.  1.
          6    1    1    2  501    0 -0.74767023349E+01  0.89640348801E+02 -0.23378632923E+01  0.19500194567E+03  0.17300000000E+03 0. -1.
         -6    1    1    2    0  503  0.74767023349E+01 -0.89640348801E+02  0.15357810593E+03  0.24820662326E+03  0.17300000000E+03 0. -1.
<mgrwt>
<rscale>  2 0.19498793E+03</rscale>
<asrwt>0</asrwt>
<pdfrwt beam="1">  1       21 0.45726831E-01 0.19498793E+03</pdfrwt>
<pdfrwt beam="2">  1       21 0.22459102E-01 0.19498793E+03</pdfrwt>
<totfact> 0.85043994E+04</totfact>
</mgrwt>
</event>
<event>
 4    2  0.4086940E+000  0.1935206E+03  0.7546771E-02  0.1155324E+00
         21   -1    0    0  503  502  0.00000000000E+00  0.00000000000E+00  0.75858122882E+03  0.75858122882E+03  0.00000000000E+00 0. -1.
         21   -1    0    0  501  503 -0.00000000000E+00 -0.00000000000E+00 -0.73235860618E+02  0.73235860618E+02  0.00000000000E+00 0. -1.
          6    1    1    2  501    0  0.39500783092E+02 -0.77206881982E+02  0.10524258061E+03  0.22028666611E+03  0.17300000000E+03 0.  1.
         -6    1    1    2    0  502 -0.39500783092E+02  0.77206881982E+02  0.58010278759E+03  0.61153042333E+03  0.17300000000E+03 0.  1.
<mgrwt>
<rscale>  2 0.19352058E+03</rscale>
<asrwt>0</asrwt>
<pdfrwt beam="1">  1       21 0.11670480E+00 0.19352058E+03</pdfrwt>
<pdfrwt beam="2">  1       21 0.11267056E-01 0.19352058E+03</pdfrwt>
<totfact> 0.37124727E+04</totfact>
</mgrwt>
</event>
<event>
 4    2  0.4086940E+000  0.2150217E+03  0.7546771E-02  0.1137650E+00
         21   -1    0    0  503  502  0.00000000000E+00  0.00000000000E+00  0.54670236645E+03  0.54670236645E+03  0.00000000000E+00 0. -1.
         21   -1    0    0  501  503 -0.00000000000E+00 -0.00000000000E+00 -0.14596326108E+03  0.14596326108E+03  0.00000000000E+00 0. -1.
          6    1    1    2  501    0 -0.12623544528E+03 -0.19233455601E+02 -0.24243086815E+02  0.21638401216E+03  0.17300000000E+03 0. -1.
         -6    1    1    2    0  502  0.12623544528E+03  0.19233455601E+02  0.42498219219E+03  0.47628161537E+03  0.17300000000E+03 0. -1.
<mgrwt>
<rscale>  2 0.21502166E+03</rscale>
<asrwt>0</asrwt>
<pdfrwt beam="1">  1       21 0.84108055E-01 0.21502166E+03</pdfrwt>
<pdfrwt beam="2">  1       21 0.22455887E-01 0.21502166E+03</pdfrwt>
<totfact> 0.22498776E+04</totfact>
</mgrwt>
</event>
<event>
 4    2  0.4086940E+000  0.2044785E+03  0.7546771E-02  0.1146015E+00
         21   -1    0    0  503  502  0.00000000000E+00  0.00000000000E+00  0.27480811806E+03  0.27480811806E+03  0.00000000000E+00 0.  1.
         21   -1    0    0  501  503 -0.00000000000E+00 -0.00000000000E+00 -0.16649367610E+03  0.16649367610E+03  0.00000000000E+00 0.  1.
          6    1    1    2  501    0 -0.10875891161E+03 -0.73459127688E+01 -0.10612147765E+02  0.20475370807E+03  0.17300000000E+03 0.  1.
         -6    1    1    2    0  502  0.10875891161E+03  0.73459127688E+01  0.11892658973E+03  0.23654808609E+03  0.17300000000E+03 0.  1.
<mgrwt>
<rscale>  2 0.20447852E+03</rscale>
<asrwt>0</asrwt>
<pdfrwt beam="1">  1       21 0.42278172E-01 0.20447852E+03</pdfrwt>
<pdfrwt beam="2">  1       21 0.25614412E-01 0.20447852E+03</pdfrwt>
<totfact> 0.77445089E+04</totfact>
</mgrwt>
</event>
<event>
 4    2  0.4086940E+000  0.2452898E+03  0.7546771E-02  0.1116318E+00
         21   -1    0    0  501  502  0.00000000000E+00  0.00000000000E+00  0.64133881680E+03  0.64133881680E+03  0.00000000000E+00 0.  1.
         21   -1    0    0  502  503 -0.00000000000E+00 -0.00000000000E+00 -0.23237891740E+03  0.23237891740E+03  0.00000000000E+00 0.  1.
          6    1    1    2  501    0  0.23650574264E+02  0.17227511362E+03  0.54182023164E+03  0.59475728482E+03  0.17300000000E+03 0.  1.
         -6    1    1    2    0  503 -0.23650574264E+02 -0.17227511362E+03 -0.13286033223E+03  0.27896044938E+03  0.17300000000E+03 0.  1.
<mgrwt>
<rscale>  2 0.24528976E+03</rscale>
<asrwt>0</asrwt>
<pdfrwt beam="1">  1       21 0.98667509E-01 0.24528976E+03</pdfrwt>
<pdfrwt beam="2">  1       21 0.35750603E-01 0.24528976E+03</pdfrwt>
<totfact> 0.61629850E+03</totfact>
</mgrwt>
</event>
<event>
 4    2  0.4086940E+000  0.1920152E+03  0.7546771E-02  0.1156656E+00
         21   -1    0    0  503  502  0.00000000000E+00  0.00000000000E+00  0.35075946682E+03  0.35075946682E+03  0.00000000000E+00 0. -1.
         21   -1    0    0  501  503 -0.00000000000E+00 -0.00000000000E+00 -0.13517932072E+03  0.13517932072E+03  0.00000000000E+00 0.  1.
          6    1    1    2  501    0 -0.75685606227E+02  0.34821520355E+02 -0.67947021507E+01  0.19213541383E+03  0.17300000000E+03 0.  1.
         -6    1    1    2    0  502  0.75685606227E+02 -0.34821520355E+02  0.22237484826E+03  0.29380337372E+03  0.17300000000E+03 0. -1.
<mgrwt>
<rscale>  2 0.19201523E+03</rscale>
<asrwt>0</asrwt>
<pdfrwt beam="1">  1       21 0.53962995E-01 0.19201523E+03</pdfrwt>
<pdfrwt beam="2">  1       21 0.20796819E-01 0.19201523E+03</pdfrwt>
<totfact> 0.69692787E+04</totfact>
</mgrwt>
</event>
<event>
 4    2  0.4086940E+000  0.2014536E+03  0.7546771E-02  0.1148518E+00
         21   -1    0    0  503  502  0.00000000000E+00  0.00000000000E+00  0.21682075031E+03  0.21682075031E+03  0.00000000000E+00 0.  1.
         21   -1    0    0  501  503 -0.00000000000E+00 -0.00000000000E+00 -0.19033103591E+03  0.19033103591E+03  0.00000000000E+00 0. -1.
          6    1    1    2  501    0  0.57451039095E+01  0.10306087444E+03 -0.12967283216E+02  0.20187050427E+03  0.17300000000E+03 0.  1.
         -6    1    1    2    0  502 -0.57451039095E+01 -0.10306087444E+03  0.39456997621E+02  0.20528128195E+03  0.17300000000E+03 0. -1.
<mgrwt>
<rscale>  2 0.20145359E+03</rscale>
<asrwt>0</asrwt>
<pdfrwt beam="1">  1       21 0.33357038E-01 0.20145359E+03</pdfrwt>
<pdfrwt beam="2">  1       21 0.29281698E-01 0.20145359E+03</pdfrwt>
<totfact> 0.96337643E+04</totfact>
</mgrwt>
</event>
<event>
 4    2  0.4086940E+000  0.1932530E+03  0.7546771E-02  0.1155560E+00
         21   -1    0    0  501  502  0.00000000000E+00  0.00000000000E+00  0.60697604914E+02  0.60697604914E+02  0.00000000000E+00 0. -1.
         21   -1    0    0  502  503 -0.00000000000E+00 -0.00000000000E+00 -0.64426459620E+03  0.64426459620E+03  0.00000000000E+00 0. -1.
          6    1    1    2  501    0  0.40371067703E+02 -0.76078367938E+02 -0.21703566582E+03  0.29060492324E+03  0.17300000000E+03 0. -1.
         -6    1    1    2    0  503 -0.40371067703E+02  0.76078367938E+02 -0.36653132547E+03  0.41435727787E+03  0.17300000000E+03 0. -1.
<mgrwt>
<rscale>  2 0.19325305E+03</rscale>
<asrwt>0</asrwt>
<pdfrwt beam="1">  1       21 0.93380934E-02 0.19325305E+03</pdfrwt>
<pdfrwt beam="2">  1       21 0.99117626E-01 0.19325305E+03</pdfrwt>
<totfact> 0.76740834E+04</totfact>
</mgrwt>
</event>
<event>
 4    2  0.4086940E+000  0.1900441E+03  0.7546771E-02  0.1158422E+00
         21   -1    0    0  501  502  0.00000000000E+00  0.00000000000E+00  0.56330524608E+03  0.56330524608E+03  0.00000000000E+00 0.  1.
         21   -1    0    0  502  503 -0.00000000000E+00 -0.00000000000E+00 -0.73826690839E+02  0.73826690839E+02  0.00000000000E+00 0.  1.
          6    1    1    2  501    0 -0.48752937974E+01 -0.78511151781E+02  0.12920200871E+03  0.22980410897E+03  0.17300000000E+03 0.  1.
         -6    1    1    2    0  503  0.48752937974E+01  0.78511151781E+02  0.36027654652E+03  0.40732782794E+03  0.17300000000E+03 0.  1.
<mgrwt>
<rscale>  2 0.19004412E+03</rscale>
<asrwt>0</asrwt>
<pdfrwt beam="1">  1       21 0.86662343E-01 0.19004412E+03</pdfrwt>
<pdfrwt beam="2">  1       21 0.11357953E-01 0.19004412E+03</pdfrwt>
<totfact> 0.74287787E+04</totfact>
</mgrwt>
</event>
<event>
 4    2  0.4086940E+000  0.2490148E+03  0.7546771E-02  0.1113929E+00
         21   -1    0    0  501  502  0.00000000000E+00  0.00000000000E+00  0.58730740616E+03  0.58730740616E+03  0.00000000000E+00 0.  1.
         21   -1    0    0  502  503 -0.00000000000E+00 -0.00000000000E+00 -0.11108381200E+03  0.11108381200E+03  0.00000000000E+00 0.  1.
          6    1    1    2  501    0  0.52334682487E+02 -0.17129051935E+03  0.16038956199E+03  0.29619786057E+03  0.17300000000E+03 0.  1.
         -6    1    1    2    0  503 -0.52334682487E+02  0.17129051935E+03  0.31583403217E+03  0.40219335759E+03  0.17300000000E+03 0.  1.
<mgrwt>
<rscale>  2 0.24901478E+03</rscale>
<asrwt>0</asrwt>
<pdfrwt beam="1">  1       21 0.90354984E-01 0.24901478E+03</pdfrwt>
<pdfrwt beam="2">  1       21 0.17089818E-01 0.24901478E+03</pdfrwt>
<totfact> 0.31250145E+04</totfact>
</mgrwt>
</event>
<event>
 4    2  0.4086940E+000  0.1942546E+03  0.7546771E-02  0.1154679E+00
         21   -1    0    0  501  502  0.00000000000E+00  0.00000000000E+00  0.25984281656E+03  0.25984281656E+03  0.00000000000E+00 0.  1.
         21   -1    0    0  502  503 -0.00000000000E+00 -0.00000000000E+00 -0.21494109117E+03  0.21494109117E+03  0.00000000000E+00 0. -1.
          6    1    1    2  501    0 -0.83398975430E+02  0.29162412332E+02  0.15765277223E+03  0.25017840032E+03  0.17300000000E+03 0.  1.
         -6    1    1    2    0  503  0.83398975430E+02 -0.29162412332E+02 -0.11275104684E+03  0.22460550741E+03  0.17300000000E+03 0. -1.
<mgrwt>
<rscale>  2 0.19425456E+03</rscale>
<asrwt>0</asrwt>
<pdfrwt beam="1">  1       21 0.39975818E-01 0.19425456E+03</pdfrwt>
<pdfrwt beam="2">  1       21 0.33067860E-01 0.19425456E+03</pdfrwt>
<totfact> 0.53063528E+04</totfact>
</mgrwt>
</event>
<event>
 4    2  0.4086940E+000  0.1919763E+03  0.7546771E-02  0.1156691E+00
         21   -1    0    0  503  502  0.00000000000E+00  0.00000000000E+00  0.24400160568E+03  0.24400160568E+03  0.00000000000E+00 0. -1.
         21   -1    0    0  501  503 -0.00000000000E+00 -0.00000000000E+00 -0.16239963085E+03  0.16239963085E+03  0.00000000000E+00 0. -1.
          6    1    1    2  501    0  0.50306043011E+02 -0.66296231782E+02 -0.12932522418E+02  0.19241137817E+03  0.17300000000E+03 0.  1.
         -6    1    1    2    0  502 -0.50306043011E+02  0.66296231782E+02  0.94534497251E+02  0.21398985836E+03  0.17300000000E+03 0.  1.
<mgrwt>
<rscale>  2 0.19197627E+03</rscale>
<asrwt>0</asrwt>
<pdfrwt beam="1">  1       21 0.37538708E-01 0.19197627E+03</pdfrwt>
<pdfrwt beam="2">  1       21 0.24984559E-01 0.19197627E+03</pdfrwt>
<totfact> 0.10381945E+05</totfact>
</mgrwt>
</event>
<event>
 4    2  0.4086940E+000  0.2089388E+03  0.7546771E-02  0.1142409E+00
         21   -1    0    0  501  502  0.00000000000E+00  0.00000000000E+00  0.11843502491E+03  0.11843502491E+03  0.00000000000E+00 0. -1.
         21   -1    0    0  502  503 -0.00000000000E+00 -0.00000000000E+00 -0.38780086471E+03  0.38780086471E+03  0.00000000000E+00 0.  1.
          6    1    1    2  501    0 -0.11594001388E+03 -0.16862127858E+02 -0.78364125294E+02  0.22315096752E+03  0.17300000000E+03 0. -1.
         -6    1    1    2    0  503  0.11594001388E+03  0.16862127858E+02 -0.19100171450E+03  0.28308492209E+03  0.17300000000E+03 0. -1.
<mgrwt>
<rscale>  2 0.20893879E+03</rscale>
<asrwt>0</asrwt>
<pdfrwt beam="1">  1       21 0.18220773E-01 0.20893879E+03</pdfrwt>
<pdfrwt beam="2">  1       21 0.59661671E-01 0.20893879E+03</pdfrwt>
<totfact> 0.71476048E+04</totfact>
</mgrwt>
</event>
<event>
 4    2  0.4086940E+000  0.2281031E+03  0.7546771E-02  0.1127982E+00
         21   -1    0    0  501  502  0.00000000000E+00  0.00000000000E+00  0.14167859501E+03  0.14167859501E+03  0.00000000000E+00 0. -1.
         21   -1    0    0  502  503 -0.00000000000E+00 -0.00000000000E+00 -0.38526846932E+03  0.38526846932E+03  0.00000000000E+00 0.  1.
          6    1    1    2  501    0  0.87849746920E+02 -0.11993516254E+03 -0.17877879743E+03  0.28981525091E+03  0.17300000000E+03 0. -1.
         -6    1    1    2    0  503 -0.87849746920E+02  0.11993516254E+03 -0.64811076880E+02  0.23713181342E+03  0.17300000000E+03 0.  1.
<mgrwt>
<rscale>  2 0.22810309E+03</rscale>
<asrwt>0</asrwt>
<pdfrwt beam="1">  1       21 0.21796707E-01 0.22810309E+03</pdfrwt>
<pdfrwt beam="2">  1       21 0.59272072E-01 0.22810309E+03</pdfrwt>
<totfact> 0.51395684E+04</totfact>
</mgrwt>
</event>
<event>
 4    2  0.4086940E+000  0.2155867E+03  0.7546771E-02  0.1137217E+00
         21   -1    0    0  503  502  0.00000000000E+00  0.00000000000E+00  0.22895271690E+03  0.22895271690E+03  0.00000000000E+00 0.  1.
         21   -1    0    0  501  503 -0.00000000000E+00 -0.00000000000E+00 -0.21406334361E+03  0.21406334361E+03  0.00000000000E+00 0. -1.
          6    1    1    2  501    0 -0.10773557510E+03 -0.70297011070E+02 -0.42910296905E+02  0.21981564432E+03  0.17300000000E+03 0. -1.
         -6    1    1    2    0  502  0.10773557510E+03  0.70297011070E+02  0.57799670196E+02  0.22320041618E+03  0.17300000000E+03 0.  1.
<mgrwt>
<rscale>  2 0.21558670E+03</rscale>
<asrwt>0</asrwt>
<pdfrwt beam="1">  1       21 0.35223495E-01 0.21558670E+03</pdfrwt>
<pdfrwt beam="2">  1       21 0.32932822E-01 0.21558670E+03</pdfrwt>
<totfact> 0.68279876E+04</totfact>
</mgrwt>
</event>
<event>
 4    2  0.4086940E+000  0.1796572E+03  0.7546771E-02  0.1168135E+00
         21   -1    0    0  501  502  0.00000000000E+00  0.00000000000E+00  0.35916942244E+03  0.35916942244E+03  0.00000000000E+00 0.  1.
         21   -1    0    0  502  503 -0.00000000000E+00 -0.00000000000E+00 -0.27125186656E+03  0.27125186656E+03  0.00000000000E+00 0.  1.
          6    1    1    2  501    0  0.46032099905E+02  0.15124398291E+02  0.30172002339E+03  0.35115762011E+03  0.17300000000E+03 0.  1.
         -6    1    1    2    0  503 -0.46032099905E+02 -0.15124398291E+02 -0.21380246751E+03  0.27926366889E+03  0.17300000000E+03 0.  1.
<mgrwt>
<rscale>  2 0.17965718E+03</rscale>
<asrwt>0</asrwt>
<pdfrwt beam="1">  1       21 0.55256834E-01 0.17965718E+03</pdfrwt>
<pdfrwt beam="2">  1       21 0.41731057E-01 0.17965718E+03</pdfrwt>
<totfact> 0.17211189E+04</totfact>
</mgrwt>
</event>
<event>
 4    2  0.4086940E+000  0.2776388E+03  0.7546771E-02  0.1096986E+00
         21   -1    0    0  501  502  0.00000000000E+00  0.00000000000E+00  0.10465439255E+03  0.10465439255E+03  0.00000000000E+00 0.  1.
         21   -1    0    0  502  503 -0.00000000000E+00 -0.00000000000E+00 -0.91939754795E+03  0.91939754795E+03  0.00000000000E+00 0. -1.
          6    1    1    2  501    0 -0.21665016467E+03 -0.14730564929E+02 -0.17903059734E+03  0.33035622921E+03  0.17300000000E+03 0.  1.
         -6    1    1    2    0  503  0.21665016467E+03  0.14730564929E+02 -0.63571255806E+03  0.69369571129E+03  0.17300000000E+03 0. -1.
<mgrwt>
<rscale>  2 0.27763876E+03</rscale>
<asrwt>0</asrwt>
<pdfrwt beam="1">  1       21 0.16100675E-01 0.27763876E+03</pdfrwt>
<pdfrwt beam="2">  1       21 0.14144578E+00 0.27763876E+03</pdfrwt>
<totfact> 0.11390997E+04</totfact>
</mgrwt>
</event>
<event>
 4    2  0.4086940E+000  0.2643258E+03  0.7546771E-02  0.1104572E+00
         21   -1    0    0  503  502  0.00000000000E+00  0.00000000000E+00  0.16651073986E+03  0.16651073986E+03  0.00000000000E+00 0. -1.
         21   -1    0    0  501  503 -0.00000000000E+00 -0.00000000000E+00 -0.52041780575E+03  0.52041780575E+03  0.00000000000E+00 0.  1.
          6    1    1    2  501    0  0.11184452503E+03 -0.16561977609E+03 -0.32812558484E+03  0.42134843946E+03  0.17300000000E+03 0. -1.
         -6    1    1    2    0  502 -0.11184452503E+03  0.16561977609E+03 -0.25781481045E+02  0.26558010614E+03  0.17300000000E+03 0. -1.
<mgrwt>
<rscale>  2 0.26432576E+03</rscale>
<asrwt>0</asrwt>
<pdfrwt beam="1">  1       21 0.25617037E-01 0.26432576E+03</pdfrwt>
<pdfrwt beam="2">  1       21 0.80064277E-01 0.26432576E+03</pdfrwt>
<totfact> 0.19092619E+04</totfact>
</mgrwt>
</event>
<event>
 4    2  0.4086940E+000  0.1763479E+03  0.7546771E-02  0.1171385E+00
         21   -1    0    0  501  502  0.00000000000E+00  0.00000000000E+00  0.38322874666E+03  0.38322874666E+03  0.00000000000E+00 0. -1.
         21   -1    0    0  502  503 -0.00000000000E+00 -0.00000000000E+00 -0.87891046436E+02  0.87891046436E+02  0.00000000000E+00 0. -1.
          6    1    1    2  501    0  0.16031916550E+02 -0.30208613273E+02  0.21291108785E+03  0.27645924472E+03  0.17300000000E+03 0. -1.
         -6    1    1    2    0  503 -0.16031916550E+02  0.30208613273E+02  0.82426612374E+02  0.19466054837E+03  0.17300000000E+03 0. -1.
<mgrwt>
<rscale>  2 0.17634790E+03</rscale>
<asrwt>0</asrwt>
<pdfrwt beam="1">  1       21 0.58958268E-01 0.17634790E+03</pdfrwt>
<pdfrwt beam="2">  1       21 0.13521700E-01 0.17634790E+03</pdfrwt>
<totfact> 0.12812032E+05</totfact>
</mgrwt>
</event>
<event>
 4    2  0.4086940E+000  0.2578804E+03  0.7546771E-02  0.1108423E+00
         21   -1    0    0  503  502  0.00000000000E+00  0.00000000000E+00  0.14534706286E+04  0.14534706286E+04  0.00000000000E+00 0.  1.
         21   -1    0    0  501  503 -0.00000000000E+00 -0.00000000000E+00 -0.82114310506E+02  0.82114310506E+02  0.00000000000E+00 0.  1.
          6    1    1    2  501    0  0.17117369259E+03 -0.85281257521E+02  0.17476479068E+03  0.31152055788E+03  0.17300000000E+03 0.  1.
         -6    1    1    2    0  502 -0.17117369259E+03  0.85281257521E+02  0.11965915274E+04  0.12240643812E+04  0.17300000000E+03 0.  1.
<mgrwt>
<rscale>  2 0.25788045E+03</rscale>
<asrwt>0</asrwt>
<pdfrwt beam="1">  1       21 0.22361085E+00 0.25788045E+03</pdfrwt>
<pdfrwt beam="2">  1       21 0.12632972E-01 0.25788045E+03</pdfrwt>
<totfact> 0.48381315E+03</totfact>
</mgrwt>
</event>
<event>
 4    2  0.4086940E+000  0.2394396E+03  0.7546771E-02  0.1120167E+00
         21   -1    0    0  501  502  0.00000000000E+00  0.00000000000E+00  0.11788657555E+03  0.11788657555E+03  0.00000000000E+00 0.  1.
         21   -1    0    0  502  503 -0.00000000000E+00 -0.00000000000E+00 -0.50055718070E+03  0.50055718070E+03  0.00000000000E+00 0.  1.
          6    1    1    2  501    0  0.79122554759E+02 -0.14540268771E+03 -0.13919637649E+03  0.27696019839E+03  0.17300000000E+03 0.  1.
         -6    1    1    2    0  503 -0.79122554759E+02  0.14540268771E+03 -0.24347422865E+03  0.34148355785E+03  0.17300000000E+03 0.  1.
<mgrwt>
<rscale>  2 0.23943960E+03</rscale>
<asrwt>0</asrwt>
<pdfrwt beam="1">  1       21 0.18136396E-01 0.23943960E+03</pdfrwt>
<pdfrwt beam="2">  1       21 0.77008796E-01 0.23943960E+03</pdfrwt>
<totfact> 0.40556008E+04</totfact>
</mgrwt>
</event>
<event>
 4    2  0.4086940E+000  0.2259406E+03  0.7546771E-02  0.1129530E+00
         21   -1    0    0  503  502  0.00000000000E+00  0.00000000000E+00  0.10057386413E+04  0.10057386413E+04  0.00000000000E+00 0. -1.
         21   -1    0    0  501  503 -0.00000000000E+00 -0.00000000000E+00 -0.60313976428E+02  0.60313976428E+02  0.00000000000E+00 0. -1.
          6    1    1    2  501    0 -0.12729144844E+03 -0.70121575030E+02  0.26054416618E+03  0.34486578645E+03  0.17300000000E+03 0. -1.
         -6    1    1    2    0  502  0.12729144844E+03  0.70121575030E+02  0.68488049873E+03  0.72118683132E+03  0.17300000000E+03 0. -1.
<mgrwt>
<rscale>  2 0.22594059E+03</rscale>
<asrwt>0</asrwt>
<pdfrwt beam="1">  1       21 0.15472901E+00 0.22594059E+03</pdfrwt>
<pdfrwt beam="2">  1       21 0.92790741E-02 0.22594059E+03</pdfrwt>
<totfact> 0.24965805E+04</totfact>
</mgrwt>
</event>
<event>
 4    2  0.4086940E+000  0.2273989E+03  0.7546771E-02  0.1128484E+00
         21   -1    0    0  501  502  0.00000000000E+00  0.00000000000E+00  0.44692066514E+03  0.44692066514E+03  0.00000000000E+00 0. -1.
         21   -1    0    0  502  503 -0.00000000000E+00 -0.00000000000E+00 -0.11709051817E+03  0.11709051817E+03  0.00000000000E+00 0.  1.
          6    1    1    2  501    0  0.46494954332E+01  0.14751155205E+03  0.19560820617E+03  0.29995474011E+03  0.17300000000E+03 0. -1.
         -6    1    1    2    0  503 -0.46494954332E+01 -0.14751155205E+03  0.13422194081E+03  0.26405644319E+03  0.17300000000E+03 0.  1.
<mgrwt>
<rscale>  2 0.22739894E+03</rscale>
<asrwt>0</asrwt>
<pdfrwt beam="1">  1       21 0.68757025E-01 0.22739894E+03</pdfrwt>
<pdfrwt beam="2">  1       21 0.18013926E-01 0.22739894E+03</pdfrwt>
<totfact> 0.53169370E+04</totfact>
</mgrwt>
</event>
<event>
 4    2  0.4086940E+000  0.2069035E+03  0.7546771E-02  0.1144042E+00
         21   -1    0    0  501  502  0.00000000000E+00  0.00000000000E+00  0.10720370507E+03  0.10720370507E+03  0.00000000000E+00 0.  1.
         21   -1    0    0  502  503 -0.00000000000E+00 -0.00000000000E+00 -0.89218208706E+03  0.89218208706E+03  0.00000000000E+00 0.  1.
          6    1    1    2  501    0  0.24401307106E+02 -0.11083615060E+03 -0.21093289202E+02  0.20797596716E+03  0.17300000000E+03 0.  1.
         -6    1    1    2    0  503 -0.24401307106E+02  0.11083615060E+03 -0.76388509279E+03  0.79140982496E+03  0.17300000000E+03 0.  1.
<mgrwt>
<rscale>  2 0.20690354E+03</rscale>
<asrwt>0</asrwt>
<pdfrwt beam="1">  1       21 0.16492878E-01 0.20690354E+03</pdfrwt>
<pdfrwt beam="2">  1       21 0.13725878E+00 0.20690354E+03</pdfrwt>
<totfact> 0.12294171E+04</totfact>
</mgrwt>
</event>
<event>
 4    2  0.4086940E+000  0.1809115E+03  0.7546771E-02  0.1166924E+00
         21   -1    0    0  503  502  0.00000000000E+00  0.00000000000E+00  0.74818315159E+02  0.74818315159E+02  0.00000000000E+00 0.  1.
         21   -1    0    0  501  503 -0.00000000000E+00 -0.00000000000E+00 -0.58833355932E+03  0.58833355932E+03  0.00000000000E+00 0.  1.
          6    1    1    2  501    0  0.52637789791E+02 -0.54070147201E+01 -0.42467587663E+03  0.46160434672E+03  0.17300000000E+03 0.  1.
         -6    1    1    2    0  502 -0.52637789791E+02  0.54070147201E+01 -0.88839367536E+02  0.20154752776E+03  0.17300000000E+03 0.  1.
<mgrwt>
<rscale>  2 0.18091151E+03</rscale>
<asrwt>0</asrwt>
<pdfrwt beam="1">  1       21 0.11510510E-01 0.18091151E+03</pdfrwt>
<pdfrwt beam="2">  1       21 0.90512857E-01 0.18091151E+03</pdfrwt>
<totfact> 0.65894782E+04</totfact>
</mgrwt>
</event>
<event>
 4    2  0.4086940E+000  0.2029391E+03  0.7546771E-02  0.1147283E+00
         21   -1    0    0  501  502  0.00000000000E+00  0.00000000000E+00  0.62511014651E+03  0.62511014651E+03  0.00000000000E+00 0.  1.
         21   -1    0    0  502  503 -0.00000000000E+00 -0.00000000000E+00 -0.98067569973E+02  0.98067569973E+02  0.00000000000E+00 0.  1.
          6    1    1    2  501    0  0.10225964614E+03 -0.28253048489E+02  0.47066640363E+03  0.51255354207E+03  0.17300000000E+03 0.  1.
         -6    1    1    2    0  503 -0.10225964614E+03  0.28253048489E+02  0.56376172903E+02  0.21062417442E+03  0.17300000000E+03 0.  1.
<mgrwt>
<rscale>  2 0.20293908E+03</rscale>
<asrwt>0</asrwt>
<pdfrwt beam="1">  1       21 0.96170789E-01 0.20293908E+03</pdfrwt>
<pdfrwt beam="2">  1       21 0.15087319E-01 0.20293908E+03</pdfrwt>
<totfact> 0.34740827E+04</totfact>
</mgrwt>
</event>
<event>
 4    2  0.4086940E+000  0.1818075E+03  0.7546771E-02  0.1166065E+00
         21   -1    0    0  501  502  0.00000000000E+00  0.00000000000E+00  0.36668687819E+03  0.36668687819E+03  0.00000000000E+00 0.  1.
         21   -1    0    0  502  503 -0.00000000000E+00 -0.00000000000E+00 -0.94682792257E+02  0.94682792257E+02  0.00000000000E+00 0.  1.
          6    1    1    2  501    0  0.14217527534E+02  0.54063087241E+02  0.85484687606E+02  0.20090193455E+03  0.17300000000E+03 0.  1.
         -6    1    1    2    0  503 -0.14217527534E+02 -0.54063087241E+02  0.18651939833E+03  0.26046773590E+03  0.17300000000E+03 0.  1.
<mgrwt>
<rscale>  2 0.18180747E+03</rscale>
<asrwt>0</asrwt>
<pdfrwt beam="1">  1       21 0.56413365E-01 0.18180747E+03</pdfrwt>
<pdfrwt beam="2">  1       21 0.14566584E-01 0.18180747E+03</pdfrwt>
<totfact> 0.12277361E+05</totfact>
</mgrwt>
</event>
<event>
 4    2  0.4086940E+000  0.3295878E+03  0.7546771E-02  0.1071319E+00
         21   -1    0    0  503  502  0.00000000000E+00  0.00000000000E+00  0.13927409925E+04  0.13927409925E+04  0.00000000000E+00 0.  1.
         21   -1    0    0  501  503 -0.00000000000E+00 -0.00000000000E+00 -0.81986507675E+02  0.81986507675E+02  0.00000000000E+00 0. -1.
          6    1    1    2  501    0 -0.22560702199E+02 -0.27962500094E+03  0.49269933682E+03  0.59277378732E+03  0.17300000000E+03 0. -1.
         -6    1    1    2    0  502  0.22560702199E+02  0.27962500094E+03  0.81805514799E+03  0.88195371283E+03  0.17300000000E+03 0.  1.
<mgrwt>
<rscale>  2 0.32958781E+03</rscale>
<asrwt>0</asrwt>
<pdfrwt beam="1">  1       21 0.21426783E+00 0.32958781E+03</pdfrwt>
<pdfrwt beam="2">  1       21 0.12613310E-01 0.32958781E+03</pdfrwt>
<totfact> 0.53049339E+03</totfact>
</mgrwt>
</event>
<event>
 4    2  0.4086940E+000  0.4206571E+03  0.7546771E-02  0.1036853E+00
         21   -1    0    0  501  502  0.00000000000E+00  0.00000000000E+00  0.41731037504E+03  0.41731037504E+03  0.00000000000E+00 0.  1.
         21   -1    0    0  502  503 -0.00000000000E+00 -0.00000000000E+00 -0.45969729548E+03  0.45969729548E+03  0.00000000000E+00 0.  1.
          6    1    1    2  501    0  0.34191685133E+03  0.17354038861E+03  0.10094949027E+03  0.43260050773E+03  0.17300000000E+03 0.  1.
         -6    1    1    2    0  503 -0.34191685133E+03 -0.17354038861E+03 -0.14333641072E+03  0.44440716279E+03  0.17300000000E+03 0.  1.
<mgrwt>
<rscale>  2 0.42065710E+03</rscale>
<asrwt>0</asrwt>
<pdfrwt beam="1">  1       21 0.64201597E-01 0.42065710E+03</pdfrwt>
<pdfrwt beam="2">  1       21 0.70722660E-01 0.42065710E+03</pdfrwt>
<totfact> 0.35813124E+03</totfact>
</mgrwt>
</event>
<event>
 4    2  0.4086940E+000  0.1829457E+03  0.7546771E-02  0.1164982E+00
         21   -1    0    0  501  502  0.00000000000E+00  0.00000000000E+00  0.68631374477E+03  0.68631374477E+03  0.00000000000E+00 0.  1.
         21   -1    0    0  502  503 -0.00000000000E+00 -0.00000000000E+00 -0.52074107991E+02  0.52074107991E+02  0.00000000000E+00 0.  1.
          6    1    1    2  501    0  0.17412335348E+02 -0.56894036225E+02  0.41016641587E+03  0.44911647653E+03  0.17300000000E+03 0.  1.
         -6    1    1    2    0  503 -0.17412335348E+02  0.56894036225E+02  0.22407322091E+03  0.28927137624E+03  0.17300000000E+03 0.  1.
<mgrwt>
<rscale>  2 0.18294568E+03</rscale>
<asrwt>0</asrwt>
<pdfrwt beam="1">  1       21 0.10558672E+00 0.18294568E+03</pdfrwt>
<pdfrwt beam="2">  1       21 0.80114017E-02 0.18294568E+03</pdfrwt>
<totfact> 0.86658721E+04</totfact>
</mgrwt>
</event>
<event>
 4    2  0.4086940E+000  0.1820526E+03  0.7546771E-02  0.1165831E+00
         21   -1    0    0  503  502  0.00000000000E+00  0.00000000000E+00  0.62618272338E+03  0.62618272338E+03  0.00000000000E+00 0. -1.
         21   -1    0    0  501  503 -0.00000000000E+00 -0.00000000000E+00 -0.52944495072E+02  0.52944495072E+02  0.00000000000E+00 0. -1.
          6    1    1    2  501    0  0.48029770750E+02 -0.30121203384E+02  0.28078625363E+03  0.33464020380E+03  0.17300000000E+03 0.  1.
         -6    1    1    2    0  502 -0.48029770750E+02  0.30121203384E+02  0.29245197468E+03  0.34448701466E+03  0.17300000000E+03 0.  1.
<mgrwt>
<rscale>  2 0.18205259E+03</rscale>
<asrwt>0</asrwt>
<pdfrwt beam="1">  1       21 0.96335799E-01 0.18205259E+03</pdfrwt>
<pdfrwt beam="2">  1       21 0.81453074E-02 0.18205259E+03</pdfrwt>
<totfact> 0.10470655E+05</totfact>
</mgrwt>
</event>
<event>
 4    2  0.4086940E+000  0.2587702E+03  0.7546771E-02  0.1107884E+00
         21   -1    0    0  501  502  0.00000000000E+00  0.00000000000E+00  0.21153266705E+04  0.21153266705E+04  0.00000000000E+00 0. -1.
         21   -1    0    0  502  503 -0.00000000000E+00 -0.00000000000E+00 -0.31814183492E+02  0.31814183492E+02  0.00000000000E+00 0. -1.
          6    1    1    2  501    0 -0.64584551312E+02  0.18127842990E+03  0.11175416164E+04  0.11471099763E+04  0.17300000000E+03 0. -1.
         -6    1    1    2    0  503  0.64584551312E+02 -0.18127842990E+03  0.96597087067E+03  0.10000308777E+04  0.17300000000E+03 0. -1.
<mgrwt>
<rscale>  2 0.25877023E+03</rscale>
<asrwt>0</asrwt>
<pdfrwt beam="1">  1       21 0.32543476E+00 0.25877023E+03</pdfrwt>
<pdfrwt beam="2">  1       21 0.48944914E-02 0.25877023E+03</pdfrwt>
<totfact> 0.63428284E+03</totfact>
</mgrwt>
</event>
<event>
 4    2  0.4086940E+000  0.1843702E+03  0.7546771E-02  0.1163639E+00
         21   -1    0    0  501  502  0.00000000000E+00  0.00000000000E+00  0.48657978338E+03  0.48657978338E+03  0.00000000000E+00 0. -1.
         21   -1    0    0  502  503 -0.00000000000E+00 -0.00000000000E+00 -0.69866740242E+02  0.69866740242E+02  0.00000000000E+00 0. -1.
          6    1    1    2  501    0 -0.52295351631E+02 -0.36449505225E+02  0.20558514395E+03  0.27614782572E+03  0.17300000000E+03 0. -1.
         -6    1    1    2    0  503  0.52295351631E+02  0.36449505225E+02  0.21112789918E+03  0.28029869790E+03  0.17300000000E+03 0. -1.
<mgrwt>
<rscale>  2 0.18437020E+03</rscale>
<asrwt>0</asrwt>
<pdfrwt beam="1">  1       21 0.74858426E-01 0.18437020E+03</pdfrwt>
<pdfrwt beam="2">  1       21 0.10748730E-01 0.18437020E+03</pdfrwt>
<totfact> 0.11436077E+05</totfact>
</mgrwt>
</event>
<event>
 4    2  0.4086940E+000  0.1752313E+03  0.7546771E-02  0.1172500E+00
         21   -1    0    0  503  502  0.00000000000E+00  0.00000000000E+00  0.12263278001E+04  0.12263278001E+04  0.00000000000E+00 0.  1.
         21   -1    0    0  501  503 -0.00000000000E+00 -0.00000000000E+00 -0.39247812106E+02  0.39247812106E+02  0.00000000000E+00 0.  1.
          6    1    1    2  501    0  0.25653836574E+02  0.10903821721E+02  0.21279923161E+03  0.27566197713E+03  0.17300000000E+03 0.  1.
         -6    1    1    2    0  502 -0.25653836574E+02 -0.10903821721E+02  0.97428075640E+03  0.98991363509E+03  0.17300000000E+03 0.  1.
<mgrwt>
<rscale>  2 0.17523131E+03</rscale>
<asrwt>0</asrwt>
<pdfrwt beam="1">  1       21 0.18866579E+00 0.17523131E+03</pdfrwt>
<pdfrwt beam="2">  1       21 0.60381259E-02 0.17523131E+03</pdfrwt>
<totfact> 0.31425712E+04</totfact>
</mgrwt>
</event>
<event>
 4    2  0.4086940E+000  0.2402434E+03  0.7546771E-02  0.1119631E+00
         21   -1    0    0  501  502  0.00000000000E+00  0.00000000000E+00  0.23037368796E+03  0.23037368796E+03  0.00000000000E+00 0. -1.
         21   -1    0    0  502  503 -0.00000000000E+00 -0.00000000000E+00 -0.25163741541E+03  0.25163741541E+03  0.00000000000E+00 0.  1.
          6    1    1    2  501    0 -0.15133692676E+03 -0.69892910976E+02 -0.26577076381E+02  0.24170896838E+03  0.17300000000E+03 0. -1.
         -6    1    1    2    0  503  0.15133692676E+03  0.69892910976E+02  0.53133489265E+01  0.24030213499E+03  0.17300000000E+03 0.  1.
<mgrwt>
<rscale>  2 0.24024339E+03</rscale>
<asrwt>0</asrwt>
<pdfrwt beam="1">  1       21 0.35442106E-01 0.24024339E+03</pdfrwt>
<pdfrwt beam="2">  1       21 0.38713448E-01 0.24024339E+03</pdfrwt>
<totfact> 0.48321156E+04</totfact>
</mgrwt>
</event>
<event>
 4    2  0.4086940E+000  0.1774637E+03  0.7546771E-02  0.1170281E+00
         21   -1    0    0  501  502  0.00000000000E+00  0.00000000000E+00  0.46113769736E+03  0.46113769736E+03  0.00000000000E+00 0. -1.
         21   -1    0    0  502  503 -0.00000000000E+00 -0.00000000000E+00 -0.71895903911E+02  0.71895903911E+02  0.00000000000E+00 0. -1.
          6    1    1    2  501    0  0.30969068636E+02  0.24602363982E+02  0.25426718880E+03  0.31007283471E+03  0.17300000000E+03 0. -1.
         -6    1    1    2    0  503 -0.30969068636E+02 -0.24602363982E+02  0.13497460465E+03  0.22296076656E+03  0.17300000000E+03 0. -1.
<mgrwt>
<rscale>  2 0.17746369E+03</rscale>
<asrwt>0</asrwt>
<pdfrwt beam="1">  1       21 0.70944259E-01 0.17746369E+03</pdfrwt>
<pdfrwt beam="2">  1       21 0.11060909E-01 0.17746369E+03</pdfrwt>
<totfact> 0.12275645E+05</totfact>
</mgrwt>
</event>
<event>
 4    2  0.4086940E+000  0.2191144E+03  0.7546771E-02  0.1134545E+00
         21   -1    0    0  503  502  0.00000000000E+00  0.00000000000E+00  0.35908282532E+03  0.35908282532E+03  0.00000000000E+00 0.  1.
         21   -1    0    0  501  503 -0.00000000000E+00 -0.00000000000E+00 -0.21025680683E+03  0.21025680683E+03  0.00000000000E+00 0.  1.
          6    1    1    2  501    0  0.23606140727E+02  0.13238146573E+03 -0.97355932151E+02  0.23976922212E+03  0.17300000000E+03 0.  1.
         -6    1    1    2    0  502 -0.23606140727E+02 -0.13238146573E+03  0.24618195064E+03  0.32957041003E+03  0.17300000000E+03 0.  1.
<mgrwt>
<rscale>  2 0.21911436E+03</rscale>
<asrwt>0</asrwt>
<pdfrwt beam="1">  1       21 0.55243512E-01 0.21911436E+03</pdfrwt>
<pdfrwt beam="2">  1       21 0.32347201E-01 0.21911436E+03</pdfrwt>
<totfact> 0.28008402E+04</totfact>
</mgrwt>
</event>
<event>
 4    2  0.4086940E+000  0.2238322E+03  0.7546771E-02  0.1131058E+00
         21   -1    0    0  501  502  0.00000000000E+00  0.00000000000E+00  0.10461118906E+04  0.10461118906E+04  0.00000000000E+00 0.  1.
         21   -1    0    0  502  503 -0.00000000000E+00 -0.00000000000E+00 -0.98699527986E+02  0.98699527986E+02  0.00000000000E+00 0. -1.
          6    1    1    2  501    0 -0.10021566491E+03 -0.10064137992E+03  0.88439086470E+03  0.91227631144E+03  0.17300000000E+03 0.  1.
         -6    1    1    2    0  503  0.10021566491E+03  0.10064137992E+03  0.63021497876E+02  0.23253510711E+03  0.17300000000E+03 0. -1.
<mgrwt>
<rscale>  2 0.22383223E+03</rscale>
<asrwt>0</asrwt>
<pdfrwt beam="1">  1       21 0.16094028E+00 0.22383223E+03</pdfrwt>
<pdfrwt beam="2">  1       21 0.15184543E-01 0.22383223E+03</pdfrwt>
<totfact> 0.92852273E+03</totfact>
</mgrwt>
</event>
<event>
 4    2  0.4086940E+000  0.2490089E+03  0.7546771E-02  0.1113933E+00
         21   -1    0    0  503  502  0.00000000000E+00  0.00000000000E+00  0.47377365217E+03  0.47377365217E+03  0.00000000000E+00 0. -1.
         21   -1    0    0  501  503 -0.00000000000E+00 -0.00000000000E+00 -0.13313560441E+03  0.13313560441E+03  0.00000000000E+00 0.  1.
          6    1    1    2  501    0 -0.98105420193E+01 -0.17883009097E+03  0.13078292974E+03  0.28126432920E+03  0.17300000000E+03 0.  1.
         -6    1    1    2    0  502  0.98105420193E+01  0.17883009097E+03  0.20985511802E+03  0.32564492739E+03  0.17300000000E+03 0. -1.
<mgrwt>
<rscale>  2 0.24900893E+03</rscale>
<asrwt>0</asrwt>
<pdfrwt beam="1">  1       21 0.72888253E-01 0.24900893E+03</pdfrwt>
<pdfrwt beam="2">  1       21 0.20482401E-01 0.24900893E+03</pdfrwt>
<totfact> 0.36393389E+04</totfact>
</mgrwt>
</event>
<event>
 4    2  0.4086940E+000  0.1843468E+03  0.7546771E-02  0.1163661E+00
         21   -1    0    0  503  502  0.00000000000E+00  0.00000000000E+00  0.34748026582E+03  0.34748026582E+03  0.00000000000E+00 0.  1.
         21   -1    0    0  501  503 -0.00000000000E+00 -0.00000000000E+00 -0.12196754664E+03  0.12196754664E+03  0.00000000000E+00 0.  1.
          6    1    1    2  501    0  0.51608032269E+02 -0.37300874293E+02  0.82730411307E+01  0.18453234792E+03  0.17300000000E+03 0.  1.
         -6    1    1    2    0  502 -0.51608032269E+02  0.37300874293E+02  0.21723967805E+03  0.28491546454E+03  0.17300000000E+03 0.  1.
<mgrwt>
<rscale>  2 0.18434680E+03</rscale>
<asrwt>0</asrwt>
<pdfrwt beam="1">  1       21 0.53458502E-01 0.18434680E+03</pdfrwt>
<pdfrwt beam="2">  1       21 0.18764238E-01 0.18434680E+03</pdfrwt>
<totfact> 0.86380487E+04</totfact>
</mgrwt>
</event>
<event>
 4    2  0.4086940E+000  0.2383749E+03  0.7546771E-02  0.1120880E+00
         21   -1    0    0  503  502  0.00000000000E+00  0.00000000000E+00  0.17800784010E+04  0.17800784010E+04  0.00000000000E+00 0. -1.
         21   -1    0    0  501  503 -0.00000000000E+00 -0.00000000000E+00 -0.31944093749E+02  0.31944093749E+02  0.00000000000E+00 0. -1.
          6    1    1    2  501    0 -0.15721367940E+03 -0.46663149897E+02  0.89821695494E+03  0.92930957635E+03  0.17300000000E+03 0. -1.
         -6    1    1    2    0  502  0.15721367940E+03  0.46663149897E+02  0.84991735226E+03  0.88271291835E+03  0.17300000000E+03 0. -1.
<mgrwt>
<rscale>  2 0.23837489E+03</rscale>
<asrwt>0</asrwt>
<pdfrwt beam="1">  1       21 0.27385814E+00 0.23837489E+03</pdfrwt>
<pdfrwt beam="2">  1       21 0.49144774E-02 0.23837489E+03</pdfrwt>
<totfact> 0.12834115E+04</totfact>
</mgrwt>
</event>
<event>
 4    2  0.4086940E+000  0.2798456E+03  0.7546771E-02  0.1095773E+00
         21   -1    0    0  501  502  0.00000000000E+00  0.00000000000E+00  0.57105857675E+03  0.57105857675E+03  0.00000000000E+00 0.  1.
         21   -1    0    0  502  503 -0.00000000000E+00 -0.00000000000E+00 -0.13802046296E+03  0.13802046296E+03  0.00000000000E+00 0. -1.
          6    1    1    2  501    0 -0.14711253951E+03  0.16353123519E+03  0.24487578672E+03  0.37185711649E+03  0.17300000000E+03 0.  1.
         -6    1    1    2    0  503  0.14711253951E+03 -0.16353123519E+03  0.18816232708E+03  0.33722192321E+03  0.17300000000E+03 0. -1.
<mgrwt>
<rscale>  2 0.27984561E+03</rscale>
<asrwt>0</asrwt>
<pdfrwt beam="1">  1       21 0.87855164E-01 0.27984561E+03</pdfrwt>
<pdfrwt beam="2">  1       21 0.21233918E-01 0.27984561E+03</pdfrwt>
<totfact> 0.21913956E+04</totfact>
</mgrwt>
</event>
<event>
 4    2  0.4086940E+000  0.1932598E+03  0.7546771E-02  0.1155554E+00
         21   -1    0    0  503  502  0.00000000000E+00  0.00000000000E+00  0.65527312134E+03  0.65527312134E+03  0.00000000000E+00 0. -1.
         21   -1    0    0  501  503 -0.00000000000E+00 -0.00000000000E+00 -0.66725458432E+02  0.66725458432E+02  0.00000000000E+00 0.  1.
          6    1    1    2  501    0 -0.29025375369E+02  0.81104172968E+02  0.15643969673E+03  0.24864178651E+03  0.17300000000E+03 0.  1.
         -6    1    1    2    0  502  0.29025375369E+02 -0.81104172968E+02  0.43210796618E+03  0.47335679326E+03  0.17300000000E+03 0. -1.
<mgrwt>
<rscale>  2 0.19325982E+03</rscale>
<asrwt>0</asrwt>
<pdfrwt beam="1">  1       21 0.10081125E+00 0.19325982E+03</pdfrwt>
<pdfrwt beam="2">  1       21 0.10265456E-01 0.19325982E+03</pdfrwt>
<totfact> 0.62376326E+04</totfact>
</mgrwt>
</event>
<event>
 4    2  0.4086940E+000  0.3843604E+03  0.7546771E-02  0.1049334E+00
         21   -1    0    0  501  502  0.00000000000E+00  0.00000000000E+00  0.58567625976E+03  0.58567625976E+03  0.00000000000E+00 0. -1.
         21   -1    0    0  502  503 -0.00000000000E+00 -0.00000000000E+00 -0.10467997930E+04  0.10467997930E+04  0.00000000000E+00 0.  1.
          6    1    1    2  501    0  0.33199312447E+03 -0.87088979871E+02  0.48056560329E+03  0.61536673958E+03  0.17300000000E+03 0. -1.
         -6    1    1    2    0  503 -0.33199312447E+03  0.87088979871E+02 -0.94168913653E+03  0.10171093132E+04  0.17300000000E+03 0.  1.
<mgrwt>
<rscale>  2 0.38436041E+03</rscale>
<asrwt>0</asrwt>
<pdfrwt beam="1">  1       21 0.90104041E-01 0.38436041E+03</pdfrwt>
<pdfrwt beam="2">  1       21 0.16104612E+00 0.38436041E+03</pdfrwt>
<totfact> 0.21935914E+02</totfact>
</mgrwt>
</event>
<event>
 4    2  0.4086940E+000  0.1799223E+03  0.7546771E-02  0.1167878E+00
         21   -1    0    0  501  502  0.00000000000E+00  0.00000000000E+00  0.57047540310E+02  0.57047540310E+02  0.00000000000E+00 0. -1.
         21   -1    0    0  502  503 -0.00000000000E+00 -0.00000000000E+00 -0.62031328729E+03  0.62031328729E+03  0.00000000000E+00 0. -1.
          6    1    1    2  501    0  0.16262384334E+02  0.46675097031E+02 -0.18277014388E+03  0.25647018408E+03  0.17300000000E+03 0. -1.
         -6    1    1    2    0  503 -0.16262384334E+02 -0.46675097031E+02 -0.38049560310E+03  0.42089064352E+03  0.17300000000E+03 0. -1.
<mgrwt>
<rscale>  2 0.17992229E+03</rscale>
<asrwt>0</asrwt>
<pdfrwt beam="1">  1       21 0.87765448E-02 0.17992229E+03</pdfrwt>
<pdfrwt beam="2">  1       21 0.95432812E-01 0.17992229E+03</pdfrwt>
<totfact> 0.94057890E+04</totfact>
</mgrwt>
</event>
<event>
 4    2  0.4086940E+000  0.1871680E+03  0.7546771E-02  0.1161041E+00
         21   -1    0    0  503  502  0.00000000000E+00  0.00000000000E+00  0.24849656016E+03  0.24849656016E+03  0.00000000000E+00 0. -1.
         21   -1    0    0  501  503 -0.00000000000E+00 -0.00000000000E+00 -0.23435937047E+03  0.23435937047E+03  0.00000000000E+00 0. -1.
          6    1    1    2  501    0  0.63290207479E+02 -0.33124199054E+02 -0.14533069590E+03  0.23696597667E+03  0.17300000000E+03 0. -1.
         -6    1    1    2    0  502 -0.63290207479E+02  0.33124199054E+02  0.15946788559E+03  0.24588995397E+03  0.17300000000E+03 0. -1.
<mgrwt>
<rscale>  2 0.18716801E+03</rscale>
<asrwt>0</asrwt>
<pdfrwt beam="1">  1       21 0.38230240E-01 0.18716801E+03</pdfrwt>
<pdfrwt beam="2">  1       21 0.36055288E-01 0.18716801E+03</pdfrwt>
<totfact> 0.49071419E+04</totfact>
</mgrwt>
</event>
<event>
 4    2  0.4086940E+000  0.2863240E+03  0.7546771E-02  0.1092284E+00
         21   -1    0    0  501  502  0.00000000000E+00  0.00000000000E+00  0.61222630411E+03  0.61222630411E+03  0.00000000000E+00 0. -1.
         21   -1    0    0  502  503 -0.00000000000E+00 -0.00000000000E+00 -0.27329322162E+03  0.27329322162E+03  0.00000000000E+00 0. -1.
          6    1    1    2  501    0  0.20369119303E+03 -0.10277308749E+03  0.48566779175E+03  0.56378596433E+03  0.17300000000E+03 0. -1.
         -6    1    1    2    0  503 -0.20369119303E+03  0.10277308749E+03 -0.14673470926E+03  0.32173356140E+03  0.17300000000E+03 0. -1.
<mgrwt>
<rscale>  2 0.28632396E+03</rscale>
<asrwt>0</asrwt>
<pdfrwt beam="1">  1       21 0.94188661E-01 0.28632396E+03</pdfrwt>
<pdfrwt beam="2">  1       21 0.42045111E-01 0.28632396E+03</pdfrwt>
<totfact> 0.48362684E+03</totfact>
</mgrwt>
</event>
<event>
 4    2  0.4086940E+000  0.2184291E+03  0.7546771E-02  0.1135060E+00
         21   -1    0    0  503  502  0.00000000000E+00  0.00000000000E+00  0.77872938904E+02  0.77872938904E+02  0.00000000000E+00 0. -1.
         21   -1    0    0  501  503 -0.00000000000E+00 -0.00000000000E+00 -0.82498322560E+03  0.82498322560E+03  0.00000000000E+00 0. -1.
          6    1    1    2  501    0  0.81479633155E+02 -0.10556194377E+03 -0.60255936568E+03  0.64092826725E+03  0.17300000000E+03 0. -1.
         -6    1    1    2    0  502 -0.81479633155E+02  0.10556194377E+03 -0.14455092101E+03  0.26192789725E+03  0.17300000000E+03 0. -1.
<mgrwt>
<rscale>  2 0.21842906E+03</rscale>
<asrwt>0</asrwt>
<pdfrwt beam="1">  1       21 0.11980453E-01 0.21842906E+03</pdfrwt>
<pdfrwt beam="2">  1       21 0.12692048E+00 0.21842906E+03</pdfrwt>
<totfact> 0.26610286E+04</totfact>
</mgrwt>
</event>
<event>
 4    2  0.4086940E+000  0.3852987E+03  0.7546771E-02  0.1048993E+00
         21   -1    0    0  501  502  0.00000000000E+00  0.00000000000E+00  0.28842166018E+03  0.28842166018E+03  0.00000000000E+00 0. -1.
         21   -1    0    0  502  503 -0.00000000000E+00 -0.00000000000E+00 -0.51729377967E+03  0.51729377967E+03  0.00000000000E+00 0.  1.
          6    1    1    2  501    0 -0.17999898393E+03  0.29347307425E+03 -0.85994476358E+02  0.39477858286E+03  0.17300000000E+03 0. -1.
         -6    1    1    2    0  503  0.17999898393E+03 -0.29347307425E+03 -0.14287764313E+03  0.41093685698E+03  0.17300000000E+03 0.  1.
<mgrwt>
<rscale>  2 0.38529869E+03</rscale>
<asrwt>0</asrwt>
<pdfrwt beam="1">  1       21 0.44372563E-01 0.38529869E+03</pdfrwt>
<pdfrwt beam="2">  1       21 0.79583658E-01 0.38529869E+03</pdfrwt>
<totfact> 0.61281839E+03</totfact>
</mgrwt>
</event>
<event>
 4    2  0.4086940E+000  0.1849938E+03  0.7546771E-02  0.1163056E+00
         21   -1    0    0  501  502  0.00000000000E+00  0.00000000000E+00  0.35215856036E+03  0.35215856036E+03  0.00000000000E+00 0.  1.
         21   -1    0    0  502  503 -0.00000000000E+00 -0.00000000000E+00 -0.10499182855E+03  0.10499182855E+03  0.00000000000E+00 0.  1.
          6    1    1    2  501    0 -0.17698478565E+02 -0.63090819911E+02  0.18593302865E+03  0.26228568174E+03  0.17300000000E+03 0.  1.
         -6    1    1    2    0  503  0.17698478565E+02  0.63090819911E+02  0.61233703162E+02  0.19486470718E+03  0.17300000000E+03 0.  1.
<mgrwt>
<rscale>  2 0.18499375E+03</rscale>
<asrwt>0</asrwt>
<pdfrwt beam="1">  1       21 0.54178240E-01 0.18499375E+03</pdfrwt>
<pdfrwt beam="2">  1       21 0.16152589E-01 0.18499375E+03</pdfrwt>
<totfact> 0.11065011E+05</totfact>
</mgrwt>
</event>
<event>
 4    2  0.4086940E+000  0.1839597E+03  0.7546771E-02  0.1164025E+00
         21   -1    0    0  501  502  0.00000000000E+00  0.00000000000E+00  0.86198997442E+03  0.86198997442E+03  0.00000000000E+00 0.  1.
         21   -1    0    0  502  503 -0.00000000000E+00 -0.00000000000E+00 -0.15166529244E+03  0.15166529244E+03  0.00000000000E+00 0.  1.
          6    1    1    2  501    0 -0.54423854022E+02 -0.30825588958E+02  0.79148905434E+03  0.81258605450E+03  0.17300000000E+03 0.  1.
         -6    1    1    2    0  503  0.54423854022E+02  0.30825588958E+02 -0.81164372365E+02  0.20106921237E+03  0.17300000000E+03 0.  1.
<mgrwt>
<rscale>  2 0.18395970E+03</rscale>
<asrwt>0</asrwt>
<pdfrwt beam="1">  1       21 0.13261384E+00 0.18395970E+03</pdfrwt>
<pdfrwt beam="2">  1       21 0.23333122E-01 0.18395970E+03</pdfrwt>
<totfact> 0.71476303E+03</totfact>
</mgrwt>
</event>
<event>
 4    2  0.4086940E+000  0.1934756E+03  0.7546771E-02  0.1155363E+00
         21   -1    0    0  501  502  0.00000000000E+00  0.00000000000E+00  0.64963291732E+02  0.64963291732E+02  0.00000000000E+00 0.  1.
         21   -1    0    0  502  503 -0.00000000000E+00 -0.00000000000E+00 -0.79310326063E+03  0.79310326063E+03  0.00000000000E+00 0. -1.
          6    1    1    2  501    0  0.25693799739E+02  0.82726352275E+02 -0.13971063576E+03  0.23864593533E+03  0.17300000000E+03 0.  1.
         -6    1    1    2    0  503 -0.25693799739E+02 -0.82726352275E+02 -0.58842933314E+03  0.61942061703E+03  0.17300000000E+03 0. -1.
<mgrwt>
<rscale>  2 0.19347563E+03</rscale>
<asrwt>0</asrwt>
<pdfrwt beam="1">  1       21 0.99943522E-02 0.19347563E+03</pdfrwt>
<pdfrwt beam="2">  1       21 0.12201589E+00 0.19347563E+03</pdfrwt>
<totfact> 0.41139264E+04</totfact>
</mgrwt>
</event>
<event>
 4    2  0.4086940E+000  0.1962969E+03  0.7546771E-02  0.1152901E+00
         21   -1    0    0  503  502  0.00000000000E+00  0.00000000000E+00  0.51100058009E+03  0.51100058009E+03  0.00000000000E+00 0. -1.
         21   -1    0    0  501  503 -0.00000000000E+00 -0.00000000000E+00 -0.90335849843E+02  0.90335849843E+02  0.00000000000E+00 0.  1.
          6    1    1    2  501    0 -0.79210611052E+02 -0.48261294208E+02  0.88100002685E+02  0.21516060024E+03  0.17300000000E+03 0.  1.
         -6    1    1    2    0  502  0.79210611052E+02  0.48261294208E+02  0.33256472756E+03  0.38617582969E+03  0.17300000000E+03 0.  1.
<mgrwt>
<rscale>  2 0.19629690E+03</rscale>
<asrwt>0</asrwt>
<pdfrwt beam="1">  1       21 0.78615472E-01 0.19629690E+03</pdfrwt>
<pdfrwt beam="2">  1       21 0.13897823E-01 0.19629690E+03</pdfrwt>
<totfact> 0.64351724E+04</totfact>
</mgrwt>
</event>
<event>
 4    2  0.4086940E+000  0.1945302E+03  0.7546771E-02  0.1154438E+00
         21   -1    0    0  503  502  0.00000000000E+00  0.00000000000E+00  0.11579747611E+04  0.11579747611E+04  0.00000000000E+00 0.  1.
         21   -1    0    0  501  503 -0.00000000000E+00 -0.00000000000E+00 -0.37193862483E+02  0.37193862483E+02  0.00000000000E+00 0. -1.
          6    1    1    2  501    0 -0.64021507297E+02 -0.61759506651E+02  0.35219862155E+03  0.40235041827E+03  0.17300000000E+03 0. -1.
         -6    1    1    2    0  502  0.64021507297E+02  0.61759506651E+02  0.76858227705E+03  0.79281820530E+03  0.17300000000E+03 0.  1.
<mgrwt>
<rscale>  2 0.19453018E+03</rscale>
<asrwt>0</asrwt>
<pdfrwt beam="1">  1       21 0.17814994E+00 0.19453018E+03</pdfrwt>
<pdfrwt beam="2">  1       21 0.57221336E-02 0.19453018E+03</pdfrwt>
<totfact> 0.40008871E+04</totfact>
</mgrwt>
</event>
<event>
 4    2  0.4086940E+000  0.2431939E+03  0.7546771E-02  0.1117683E+00
         21   -1    0    0  501  502  0.00000000000E+00  0.00000000000E+00  0.26817630692E+03  0.26817630692E+03  0.00000000000E+00 0. -1.
         21   -1    0    0  502  503 -0.00000000000E+00 -0.00000000000E+00 -0.25252808205E+03  0.25252808205E+03  0.00000000000E+00 0. -1.
          6    1    1    2  501    0 -0.42283536773E+02 -0.16560904071E+03  0.10048775857E+03  0.26313692532E+03  0.17300000000E+03 0. -1.
         -6    1    1    2    0  503  0.42283536773E+02  0.16560904071E+03 -0.84839533699E+02  0.25756746364E+03  0.17300000000E+03 0. -1.
<mgrwt>
<rscale>  2 0.24319386E+03</rscale>
<asrwt>0</asrwt>
<pdfrwt beam="1">  1       21 0.41257893E-01 0.24319386E+03</pdfrwt>
<pdfrwt beam="2">  1       21 0.38850474E-01 0.24319386E+03</pdfrwt>
<totfact> 0.35258844E+04</totfact>
</mgrwt>
</event>
<event>
 4    2  0.4086940E+000  0.1810565E+03  0.7546771E-02  0.1166784E+00
         21   -1    0    0  503  502  0.00000000000E+00  0.00000000000E+00  0.47189660345E+03  0.47189660345E+03  0.00000000000E+00 0.  1.
         21   -1    0    0  501  503 -0.00000000000E+00 -0.00000000000E+00 -0.13761682051E+03  0.13761682051E+03  0.00000000000E+00 0.  1.
          6    1    1    2  501    0 -0.10634411020E+02 -0.52338965515E+02 -0.47321151989E+02  0.18713831632E+03  0.17300000000E+03 0.  1.
         -6    1    1    2    0  502  0.10634411020E+02  0.52338965515E+02  0.38160093493E+03  0.42237510763E+03  0.17300000000E+03 0.  1.
<mgrwt>
<rscale>  2 0.18105651E+03</rscale>
<asrwt>0</asrwt>
<pdfrwt beam="1">  1       21 0.72599477E-01 0.18105651E+03</pdfrwt>
<pdfrwt beam="2">  1       21 0.21171819E-01 0.18105651E+03</pdfrwt>
<totfact> 0.35681397E+04</totfact>
</mgrwt>
</event>
<event>
 4    2  0.4086940E+000  0.3757942E+03  0.7546771E-02  0.1052499E+00
         21   -1    0    0  503  502  0.00000000000E+00  0.00000000000E+00  0.12923586219E+04  0.12923586219E+04  0.00000000000E+00 0. -1.
         21   -1    0    0  501  503 -0.00000000000E+00 -0.00000000000E+00 -0.10927610565E+03  0.10927610565E+03  0.00000000000E+00 0.  1.
          6    1    1    2  501    0  0.11871876603E+03  0.31176618754E+03  0.58852487076E+03  0.69827131160E+03  0.17300000000E+03 0.  1.
         -6    1    1    2    0  502 -0.11871876603E+03 -0.31176618754E+03  0.59455764553E+03  0.70336341599E+03  0.17300000000E+03 0. -1.
<mgrwt>
<rscale>  2 0.37579423E+03</rscale>
<asrwt>0</asrwt>
<pdfrwt beam="1">  1       21 0.19882439E+00 0.37579423E+03</pdfrwt>
<pdfrwt beam="2">  1       21 0.16811709E-01 0.37579423E+03</pdfrwt>
<totfact> 0.38457496E+03</totfact>
</mgrwt>
</event>
<event>
 4    2  0.4086940E+000  0.1815633E+03  0.7546771E-02  0.1166299E+00
         21   -1    0    0  503  502  0.00000000000E+00  0.00000000000E+00  0.16698293596E+02  0.16698293596E+02  0.00000000000E+00 0. -1.
         21   -1    0    0  501  503 -0.00000000000E+00 -0.00000000000E+00 -0.23420912880E+04  0.23420912880E+04  0.00000000000E+00 0. -1.
          6    1    1    2  501    0 -0.23521696910E+02 -0.49829436962E+02 -0.69524590132E+03  0.71856252777E+03  0.17300000000E+03 0. -1.
         -6    1    1    2    0  502  0.23521696910E+02  0.49829436962E+02 -0.16301470931E+04  0.16402270539E+04  0.17300000000E+03 0. -1.
<mgrwt>
<rscale>  2 0.18156333E+03</rscale>
<asrwt>0</asrwt>
<pdfrwt beam="1">  1       21 0.25689673E-02 0.18156333E+03</pdfrwt>
<pdfrwt beam="2">  1       21 0.36032187E+00 0.18156333E+03</pdfrwt>
<totfact> 0.12582985E+04</totfact>
</mgrwt>
</event>
<event>
 4    2  0.4086940E+000  0.2345372E+03  0.7546771E-02  0.1123486E+00
         21   -1    0    0  501  502  0.00000000000E+00  0.00000000000E+00  0.30957875059E+03  0.30957875059E+03  0.00000000000E+00 0. -1.
         21   -1    0    0  502  503 -0.00000000000E+00 -0.00000000000E+00 -0.23748057543E+03  0.23748057543E+03  0.00000000000E+00 0. -1.
          6    1    1    2  501    0 -0.20913309565E+01  0.15834881116E+03  0.17330224241E+03  0.29161856403E+03  0.17300000000E+03 0. -1.
         -6    1    1    2    0  503  0.20913309565E+01 -0.15834881116E+03 -0.10120406724E+03  0.25544076199E+03  0.17300000000E+03 0. -1.
<mgrwt>
<rscale>  2 0.23453725E+03</rscale>
<asrwt>0</asrwt>
<pdfrwt beam="1">  1       21 0.47627500E-01 0.23453725E+03</pdfrwt>
<pdfrwt beam="2">  1       21 0.36535473E-01 0.23453725E+03</pdfrwt>
<totfact> 0.29801547E+04</totfact>
</mgrwt>
</event>
<event>
 4    2  0.4086940E+000  0.1966534E+03  0.7546771E-02  0.1152594E+00
         21   -1    0    0  501  502  0.00000000000E+00  0.00000000000E+00  0.21810357572E+03  0.21810357572E+03  0.00000000000E+00 0. -1.
         21   -1    0    0  502  503 -0.00000000000E+00 -0.00000000000E+00 -0.18353618641E+03  0.18353618641E+03  0.00000000000E+00 0. -1.
          6    1    1    2  501    0  0.81488667675E+02  0.45860068814E+02 -0.19695745357E+02  0.19763722133E+03  0.17300000000E+03 0. -1.
         -6    1    1    2    0  503 -0.81488667675E+02 -0.45860068814E+02  0.54263134667E+02  0.20400254081E+03  0.17300000000E+03 0. -1.
<mgrwt>
<rscale>  2 0.19665337E+03</rscale>
<asrwt>0</asrwt>
<pdfrwt beam="1">  1       21 0.33554396E-01 0.19665337E+03</pdfrwt>
<pdfrwt beam="2">  1       21 0.28236336E-01 0.19665337E+03</pdfrwt>
<totfact> 0.10238502E+05</totfact>
</mgrwt>
</event>
<event>
 4    2  0.4086940E+000  0.1734989E+03  0.7546771E-02  0.1174247E+00
         21   -1    0    0  503  502  0.00000000000E+00  0.00000000000E+00  0.39731335895E+03  0.39731335895E+03  0.00000000000E+00 0. -1.
         21   -1    0    0  501  503 -0.00000000000E+00 -0.00000000000E+00 -0.77306802222E+02  0.77306802222E+02  0.00000000000E+00 0. -1.
          6    1    1    2  501    0 -0.94310736087E+01  0.91609902195E+01  0.19353272380E+03  0.25991687916E+03  0.17300000000E+03 0. -1.
         -6    1    1    2    0  502  0.94310736087E+01 -0.91609902195E+01  0.12647383293E+03  0.21470328201E+03  0.17300000000E+03 0. -1.
<mgrwt>
<rscale>  2 0.17349890E+03</rscale>
<asrwt>0</asrwt>
<pdfrwt beam="1">  1       21 0.61125131E-01 0.17349890E+03</pdfrwt>
<pdfrwt beam="2">  1       21 0.11893354E-01 0.17349890E+03</pdfrwt>
<totfact> 0.14940919E+05</totfact>
</mgrwt>
</event>
<event>
 4    2  0.4086940E+000  0.1815106E+03  0.7546771E-02  0.1166349E+00
         21   -1    0    0  501  502  0.00000000000E+00  0.00000000000E+00  0.23140251431E+03  0.23140251431E+03  0.00000000000E+00 0.  1.
         21   -1    0    0  502  503 -0.00000000000E+00 -0.00000000000E+00 -0.31992418937E+03  0.31992418937E+03  0.00000000000E+00 0. -1.
          6    1    1    2  501    0  0.43332452761E+02 -0.33754753272E+02  0.16109830283E+03  0.24269064260E+03  0.17300000000E+03 0.  1.
         -6    1    1    2    0  503 -0.43332452761E+02  0.33754753272E+02 -0.24961997790E+03  0.30863606108E+03  0.17300000000E+03 0. -1.
<mgrwt>
<rscale>  2 0.18151056E+03</rscale>
<asrwt>0</asrwt>
<pdfrwt beam="1">  1       21 0.35600387E-01 0.18151056E+03</pdfrwt>
<pdfrwt beam="2">  1       21 0.49219106E-01 0.18151056E+03</pdfrwt>
<totfact> 0.30135616E+04</totfact>
</mgrwt>
</event>
<event>
 4    2  0.4086940E+000  0.1796178E+03  0.7546771E-02  0.1168173E+00
         21   -1    0    0  501  502  0.00000000000E+00  0.00000000000E+00  0.61613593846E+02  0.61613593846E+02  0.00000000000E+00 0. -1.
         21   -1    0    0  502  503 -0.00000000000E+00 -0.00000000000E+00 -0.52883367278E+03  0.52883367278E+03  0.00000000000E+00 0. -1.
          6    1    1    2  501    0 -0.35951070507E+02 -0.32265416960E+02 -0.20431629451E+03  0.27204353476E+03  0.17300000000E+03 0. -1.
         -6    1    1    2    0  503  0.35951070507E+02  0.32265416960E+02 -0.26290378443E+03  0.31840373187E+03  0.17300000000E+03 0. -1.
<mgrwt>
<rscale>  2 0.17961775E+03</rscale>
<asrwt>0</asrwt>
<pdfrwt beam="1">  1       21 0.94790143E-02 0.17961775E+03</pdfrwt>
<pdfrwt beam="2">  1       21 0.81359027E-01 0.17961775E+03</pdfrwt>
<totfact> 0.11863347E+05</totfact>
</mgrwt>
</event>
<event>
 4    2  0.4086940E+000  0.1850607E+03  0.7546771E-02  0.1162993E+00
         21   -1    0    0  501  502  0.00000000000E+00  0.00000000000E+00  0.51685533010E+02  0.51685533010E+02  0.00000000000E+00 0.  1.
         21   -1    0    0  502  503 -0.00000000000E+00 -0.00000000000E+00 -0.67042563631E+03  0.67042563631E+03  0.00000000000E+00 0.  1.
          6    1    1    2  501    0  0.64175031416E+02 -0.14143776249E+02 -0.27039281742E+03  0.32765798751E+03  0.17300000000E+03 0.  1.
         -6    1    1    2    0  503 -0.64175031416E+02  0.14143776249E+02 -0.34834728588E+03  0.39445318181E+03  0.17300000000E+03 0.  1.
<mgrwt>
<rscale>  2 0.18506075E+03</rscale>
<asrwt>0</asrwt>
<pdfrwt beam="1">  1       21 0.79516210E-02 0.18506075E+03</pdfrwt>
<pdfrwt beam="2">  1       21 0.10314240E+00 0.18506075E+03</pdfrwt>
<totfact> 0.92775583E+04</totfact>
</mgrwt>
</event>
<event>
 4    2  0.4086940E+000  0.2090218E+03  0.7546771E-02  0.1142343E+00
         21   -1    0    0  503  502  0.00000000000E+00  0.00000000000E+00  0.25172227303E+03  0.25172227303E+03  0.00000000000E+00 0. -1.
         21   -1    0    0  501  503 -0.00000000000E+00 -0.00000000000E+00 -0.24704879277E+03  0.24704879277E+03  0.00000000000E+00 0. -1.
          6    1    1    2  501    0  0.12563083545E+02 -0.11663309556E+03  0.13834849618E+03  0.25065996179E+03  0.17300000000E+03 0. -1.
         -6    1    1    2    0  502 -0.12563083545E+02  0.11663309556E+03 -0.13367501592E+03  0.24811110400E+03  0.17300000000E+03 0. -1.
<mgrwt>
<rscale>  2 0.20902179E+03</rscale>
<asrwt>0</asrwt>
<pdfrwt beam="1">  1       21 0.38726504E-01 0.20902179E+03</pdfrwt>
<pdfrwt beam="2">  1       21 0.38007506E-01 0.20902179E+03</pdfrwt>
<totfact> 0.42570609E+04</totfact>
</mgrwt>
</event>
<event>
 4    2  0.4086940E+000  0.2444416E+03  0.7546771E-02  0.1116869E+00
         21   -1    0    0  503  502  0.00000000000E+00  0.00000000000E+00  0.55185923692E+03  0.55185923692E+03  0.00000000000E+00 0.  1.
         21   -1    0    0  501  503 -0.00000000000E+00 -0.00000000000E+00 -0.11091016926E+03  0.11091016926E+03  0.00000000000E+00 0. -1.
          6    1    1    2  501    0 -0.15175603900E+03 -0.82418318192E+02  0.16937898841E+03  0.29739017512E+03  0.17300000000E+03 0.  1.
         -6    1    1    2    0  502  0.15175603900E+03  0.82418318192E+02  0.27157007925E+03  0.36537923106E+03  0.17300000000E+03 0. -1.
<mgrwt>
<rscale>  2 0.24444156E+03</rscale>
<asrwt>0</asrwt>
<pdfrwt beam="1">  1       21 0.84901419E-01 0.24444156E+03</pdfrwt>
<pdfrwt beam="2">  1       21 0.17063103E-01 0.24444156E+03</pdfrwt>
<totfact> 0.36279706E+04</totfact>
</mgrwt>
</event>
<event>
 4    2  0.4086940E+000  0.1748833E+03  0.7546771E-02  0.1172849E+00
         21   -1    0    0  501  502  0.00000000000E+00  0.00000000000E+00  0.13177573044E+04  0.13177573044E+04  0.00000000000E+00 0. -1.
         21   -1    0    0  502  503 -0.00000000000E+00 -0.00000000000E+00 -0.64814923607E+03  0.64814923607E+03  0.00000000000E+00 0. -1.
          6    1    1    2  501    0 -0.23243544890E+02 -0.10720162092E+02  0.12999978155E+04  0.13117082391E+04  0.17300000000E+03 0. -1.
         -6    1    1    2    0  503  0.23243544890E+02  0.10720162092E+02 -0.63038974714E+03  0.65419830139E+03  0.17300000000E+03 0. -1.
<mgrwt>
<rscale>  2 0.17488334E+03</rscale>
<asrwt>0</asrwt>
<pdfrwt beam="1">  1       21 0.20273189E+00 0.17488334E+03</pdfrwt>
<pdfrwt beam="2">  1       21 0.99715267E-01 0.17488334E+03</pdfrwt>
<totfact> 0.10950650E+02</totfact>
</mgrwt>
</event>
<event>
 4    2  0.4086940E+000  0.2536729E+03  0.7546771E-02  0.1111005E+00
         21   -1    0    0  501  502  0.00000000000E+00  0.00000000000E+00  0.69703084325E+02  0.69703084325E+02  0.00000000000E+00 0.  1.
         21   -1    0    0  502  503 -0.00000000000E+00 -0.00000000000E+00 -0.10372714768E+04  0.10372714768E+04  0.00000000000E+00 0.  1.
          6    1    1    2  501    0  0.16161541454E+03 -0.91111870574E+02 -0.30023638839E+03  0.39305445436E+03  0.17300000000E+03 0.  1.
         -6    1    1    2    0  503 -0.16161541454E+03  0.91111870574E+02 -0.66733200410E+03  0.71392010679E+03  0.17300000000E+03 0.  1.
<mgrwt>
<rscale>  2 0.25367285E+03</rscale>
<asrwt>0</asrwt>
<pdfrwt beam="1">  1       21 0.10723552E-01 0.25367285E+03</pdfrwt>
<pdfrwt beam="2">  1       21 0.15958022E+00 0.25367285E+03</pdfrwt>
<totfact> 0.17487632E+04</totfact>
</mgrwt>
</event>
<event>
 4    2  0.4086940E+000  0.3157706E+03  0.7546771E-02  0.1077612E+00
         21   -1    0    0  501  502  0.00000000000E+00  0.00000000000E+00  0.30552688622E+03  0.30552688622E+03  0.00000000000E+00 0.  1.
         21   -1    0    0  502  503 -0.00000000000E+00 -0.00000000000E+00 -0.36447341849E+03  0.36447341849E+03  0.00000000000E+00 0. -1.
          6    1    1    2  501    0  0.93304485253E+02  0.24713628960E+03  0.78860475562E+02  0.32546896505E+03  0.17300000000E+03 0.  1.
         -6    1    1    2    0  503 -0.93304485253E+02 -0.24713628960E+03 -0.13780700783E+03  0.34453133966E+03  0.17300000000E+03 0. -1.
<mgrwt>
<rscale>  2 0.31577060E+03</rscale>
<asrwt>0</asrwt>
<pdfrwt beam="1">  1       21 0.47004136E-01 0.31577060E+03</pdfrwt>
<pdfrwt beam="2">  1       21 0.56072834E-01 0.31577060E+03</pdfrwt>
<totfact> 0.12155674E+04</totfact>
</mgrwt>
</event>
<event>
 4    2  0.4086940E+000  0.1934541E+03  0.7546771E-02  0.1155382E+00
         21   -1    0    0  503  502  0.00000000000E+00  0.00000000000E+00  0.64438180039E+03  0.64438180039E+03  0.00000000000E+00 0. -1.
         21   -1    0    0  501  503 -0.00000000000E+00 -0.00000000000E+00 -0.64999836814E+02  0.64999836814E+02  0.00000000000E+00 0. -1.
          6    1    1    2  501    0  0.58231098108E+02 -0.64067459634E+02  0.40543536283E+03  0.44922414628E+03  0.17300000000E+03 0. -1.
         -6    1    1    2    0  502 -0.58231098108E+02  0.64067459634E+02  0.17394660074E+03  0.26015749092E+03  0.17300000000E+03 0. -1.
<mgrwt>
<rscale>  2 0.19345413E+03</rscale>
<asrwt>0</asrwt>
<pdfrwt beam="1">  1       21 0.99135657E-01 0.19345413E+03</pdfrwt>
<pdfrwt beam="2">  1       21 0.99999753E-02 0.19345413E+03</pdfrwt>
<totfact> 0.67978540E+04</totfact>
</mgrwt>
</event>
<event>
 4    2  0.4086940E+000  0.2012902E+03  0.7546771E-02  0.1148655E+00
         21   -1    0    0  501  502  0.00000000000E+00  0.00000000000E+00  0.53203433452E+03  0.53203433452E+03  0.00000000000E+00 0.  1.
         21   -1    0    0  502  503 -0.00000000000E+00 -0.00000000000E+00 -0.80571604213E+02  0.80571604213E+02  0.00000000000E+00 0.  1.
          6    1    1    2  501    0  0.99863872126E+02 -0.24818121059E+02  0.29743541547E+03  0.35914559508E+03  0.17300000000E+03 0.  1.
         -6    1    1    2    0  503 -0.99863872126E+02  0.24818121059E+02  0.15402731483E+03  0.25346034365E+03  0.17300000000E+03 0.  1.
<mgrwt>
<rscale>  2 0.20129017E+03</rscale>
<asrwt>0</asrwt>
<pdfrwt beam="1">  1       21 0.81851434E-01 0.20129017E+03</pdfrwt>
<pdfrwt beam="2">  1       21 0.12395632E-01 0.20129017E+03</pdfrwt>
<totfact> 0.72021193E+04</totfact>
</mgrwt>
</event>
<event>
 4    2  0.4086940E+000  0.2320530E+03  0.7546771E-02  0.1125203E+00
         21   -1    0    0  501  502  0.00000000000E+00  0.00000000000E+00  0.10179564549E+04  0.10179564549E+04  0.00000000000E+00 0. -1.
         21   -1    0    0  502  503 -0.00000000000E+00 -0.00000000000E+00 -0.16481023117E+03  0.16481023117E+03  0.00000000000E+00 0. -1.
          6    1    1    2  501    0  0.12483290694E+03  0.91303542682E+02  0.91389328233E+03  0.94289422686E+03  0.17300000000E+03 0. -1.
         -6    1    1    2    0  503 -0.12483290694E+03 -0.91303542682E+02 -0.60747058595E+02  0.23987245922E+03  0.17300000000E+03 0. -1.
<mgrwt>
<rscale>  2 0.23205299E+03</rscale>
<asrwt>0</asrwt>
<pdfrwt beam="1">  1       21 0.15660868E+00 0.23205299E+03</pdfrwt>
<pdfrwt beam="2">  1       21 0.25355421E-01 0.23205299E+03</pdfrwt>
<totfact> 0.38044087E+03</totfact>
</mgrwt>
</event>
<event>
 4    2  0.4086940E+000  0.2441915E+03  0.7546771E-02  0.1117032E+00
         21   -1    0    0  503  502  0.00000000000E+00  0.00000000000E+00  0.94168145058E+03  0.94168145058E+03  0.00000000000E+00 0.  1.
         21   -1    0    0  501  503 -0.00000000000E+00 -0.00000000000E+00 -0.84436188502E+02  0.84436188502E+02  0.00000000000E+00 0.  1.
          6    1    1    2  501    0 -0.46642660566E+02 -0.16590640520E+03  0.68518121316E+03  0.72739450640E+03  0.17300000000E+03 0.  1.
         -6    1    1    2    0  502  0.46642660566E+02  0.16590640520E+03  0.17206404892E+03  0.29872313268E+03  0.17300000000E+03 0.  1.
<mgrwt>
<rscale>  2 0.24419147E+03</rscale>
<asrwt>0</asrwt>
<pdfrwt beam="1">  1       21 0.14487406E+00 0.24419147E+03</pdfrwt>
<pdfrwt beam="2">  1       21 0.12990184E-01 0.24419147E+03</pdfrwt>
<totfact> 0.16128102E+04</totfact>
</mgrwt>
</event>
<event>
 4    2  0.4086940E+000  0.2382084E+03  0.7546771E-02  0.1120992E+00
         21   -1    0    0  503  502  0.00000000000E+00  0.00000000000E+00  0.21468155263E+04  0.21468155263E+04  0.00000000000E+00 0.  1.
         21   -1    0    0  501  503 -0.00000000000E+00 -0.00000000000E+00 -0.26488151257E+02  0.26488151257E+02  0.00000000000E+00 0. -1.
          6    1    1    2  501    0 -0.16316896506E+03 -0.13788284115E+02  0.11104849818E+04  0.11357465046E+04  0.17300000000E+03 0.  1.
         -6    1    1    2    0  502  0.16316896506E+03  0.13788284115E+02  0.10098423932E+04  0.10375571729E+04  0.17300000000E+03 0.  1.
<mgrwt>
<rscale>  2 0.23820837E+03</rscale>
<asrwt>0</asrwt>
<pdfrwt beam="1">  1       21 0.33027917E+00 0.23820837E+03</pdfrwt>
<pdfrwt beam="2">  1       21 0.40751019E-02 0.23820837E+03</pdfrwt>
<totfact> 0.82551597E+03</totfact>
</mgrwt>
</event>
<event>
 4    2  0.4086940E+000  0.2009293E+03  0.7546771E-02  0.1148957E+00
         21   -1    0    0  501  502  0.00000000000E+00  0.00000000000E+00  0.54417036659E+03  0.54417036659E+03  0.00000000000E+00 0.  1.
         21   -1    0    0  502  503 -0.00000000000E+00 -0.00000000000E+00 -0.10295670716E+03  0.10295670716E+03  0.00000000000E+00 0.  1.
          6    1    1    2  501    0  0.95289696085E+02  0.36925249109E+02  0.49578129495E+02  0.20695552934E+03  0.17300000000E+03 0.  1.
         -6    1    1    2    0  503 -0.95289696085E+02 -0.36925249109E+02  0.39163552993E+03  0.44017154441E+03  0.17300000000E+03 0.  1.
<mgrwt>
<rscale>  2 0.20092934E+03</rscale>
<asrwt>0</asrwt>
<pdfrwt beam="1">  1       21 0.83718516E-01 0.20092934E+03</pdfrwt>
<pdfrwt beam="2">  1       21 0.15839494E-01 0.20092934E+03</pdfrwt>
<totfact> 0.43873028E+04</totfact>
</mgrwt>
</event>
<event>
 4    2  0.4086940E+000  0.2114700E+03  0.7546771E-02  0.1140407E+00
         21   -1    0    0  503  502  0.00000000000E+00  0.00000000000E+00  0.19028889236E+03  0.19028889236E+03  0.00000000000E+00 0. -1.
         21   -1    0    0  501  503 -0.00000000000E+00 -0.00000000000E+00 -0.36579066962E+03  0.36579066962E+03  0.00000000000E+00 0.  1.
          6    1    1    2  501    0  0.73076636267E+02 -0.97213066275E+02 -0.25400190260E+03  0.33050951809E+03  0.17300000000E+03 0.  1.
         -6    1    1    2    0  502 -0.73076636267E+02  0.97213066275E+02  0.78500125341E+02  0.22557004389E+03  0.17300000000E+03 0. -1.
<mgrwt>
<rscale>  2 0.21147003E+03</rscale>
<asrwt>0</asrwt>
<pdfrwt beam="1">  1       21 0.29275215E-01 0.21147003E+03</pdfrwt>
<pdfrwt beam="2">  1       21 0.56275487E-01 0.21147003E+03</pdfrwt>
<totfact> 0.32873838E+04</totfact>
</mgrwt>
</event>
<event>
 4    2  0.4086940E+000  0.1872434E+03  0.7546771E-02  0.1160971E+00
         21   -1    0    0  501  502  0.00000000000E+00  0.00000000000E+00  0.88635038910E+02  0.88635038910E+02  0.00000000000E+00 0. -1.
         21   -1    0    0  502  503 -0.00000000000E+00 -0.00000000000E+00 -0.65820558532E+03  0.65820558532E+03  0.00000000000E+00 0. -1.
          6    1    1    2  501    0  0.68681469571E+02  0.20345278249E+02 -0.48897216477E+02  0.19352264051E+03  0.17300000000E+03 0. -1.
         -6    1    1    2    0  503 -0.68681469571E+02 -0.20345278249E+02 -0.52067332993E+03  0.55331798372E+03  0.17300000000E+03 0. -1.
<mgrwt>
<rscale>  2 0.18724336E+03</rscale>
<asrwt>0</asrwt>
<pdfrwt beam="1">  1       21 0.13636160E-01 0.18724336E+03</pdfrwt>
<pdfrwt beam="2">  1       21 0.10126240E+00 0.18724336E+03</pdfrwt>
<totfact> 0.37265746E+04</totfact>
</mgrwt>
</event>
<event>
 4    2  0.4086940E+000  0.1899229E+03  0.7546771E-02  0.1158531E+00
         21   -1    0    0  503  502  0.00000000000E+00  0.00000000000E+00  0.85507076138E+02  0.85507076138E+02  0.00000000000E+00 0.  1.
         21   -1    0    0  501  503 -0.00000000000E+00 -0.00000000000E+00 -0.42514727955E+03  0.42514727955E+03  0.00000000000E+00 0.  1.
          6    1    1    2  501    0  0.60075685438E+02 -0.50325306767E+02 -0.19232310334E+03  0.27029410012E+03  0.17300000000E+03 0.  1.
         -6    1    1    2    0  502 -0.60075685438E+02  0.50325306767E+02 -0.14731710007E+03  0.24036025557E+03  0.17300000000E+03 0.  1.
<mgrwt>
<rscale>  2 0.18992294E+03</rscale>
<asrwt>0</asrwt>
<pdfrwt beam="1">  1       21 0.13154935E-01 0.18992294E+03</pdfrwt>
<pdfrwt beam="2">  1       21 0.65407272E-01 0.18992294E+03</pdfrwt>
<totfact> 0.10709356E+05</totfact>
</mgrwt>
</event>
<event>
 4    2  0.4086940E+000  0.1951314E+03  0.7546771E-02  0.1153913E+00
         21   -1    0    0  501  502  0.00000000000E+00  0.00000000000E+00  0.46447950546E+03  0.46447950546E+03  0.00000000000E+00 0. -1.
         21   -1    0    0  502  503 -0.00000000000E+00 -0.00000000000E+00 -0.82227404059E+02  0.82227404059E+02  0.00000000000E+00 0. -1.
          6    1    1    2  501    0  0.30383138881E+02 -0.84994866801E+02  0.17601711300E+03  0.26278943392E+03  0.17300000000E+03 0. -1.
         -6    1    1    2    0  503 -0.30383138881E+02  0.84994866801E+02  0.20623498841E+03  0.28391747560E+03  0.17300000000E+03 0. -1.
<mgrwt>
<rscale>  2 0.19513140E+03</rscale>
<asrwt>0</asrwt>
<pdfrwt beam="1">  1       21 0.71458384E-01 0.19513140E+03</pdfrwt>
<pdfrwt beam="2">  1       21 0.12650370E-01 0.19513140E+03</pdfrwt>
<totfact> 0.94418452E+04</totfact>
</mgrwt>
</event>
<event>
 4    2  0.4086940E+000  0.1984933E+03  0.7546771E-02  0.1151016E+00
         21   -1    0    0  503  502  0.00000000000E+00  0.00000000000E+00  0.33961787081E+03  0.33961787081E+03  0.00000000000E+00 0. -1.
         21   -1    0    0  501  503 -0.00000000000E+00 -0.00000000000E+00 -0.34233399940E+03  0.34233399940E+03  0.00000000000E+00 0. -1.
          6    1    1    2  501    0  0.20203349775E+02  0.95196734579E+02 -0.27860230623E+03  0.34208016407E+03  0.17300000000E+03 0. -1.
         -6    1    1    2    0  502 -0.20203349775E+02 -0.95196734579E+02  0.27588617764E+03  0.33987170613E+03  0.17300000000E+03 0. -1.
<mgrwt>
<rscale>  2 0.19849331E+03</rscale>
<asrwt>0</asrwt>
<pdfrwt beam="1">  1       21 0.52248903E-01 0.19849331E+03</pdfrwt>
<pdfrwt beam="2">  1       21 0.52666769E-01 0.19849331E+03</pdfrwt>
<totfact> 0.11831544E+04</totfact>
</mgrwt>
</event>
<event>
 4    2  0.4086940E+000  0.1770166E+03  0.7546771E-02  0.1170722E+00
         21   -1    0    0  503  502  0.00000000000E+00  0.00000000000E+00  0.92035343621E+02  0.92035343621E+02  0.00000000000E+00 0.  1.
         21   -1    0    0  501  503 -0.00000000000E+00 -0.00000000000E+00 -0.39817187259E+03  0.39817187259E+03  0.00000000000E+00 0.  1.
          6    1    1    2  501    0  0.29166084922E+02  0.23563336634E+02 -0.24637757763E+03  0.30337567817E+03  0.17300000000E+03 0.  1.
         -6    1    1    2    0  502 -0.29166084922E+02 -0.23563336634E+02 -0.59758951335E+02  0.18683153804E+03  0.17300000000E+03 0.  1.
<mgrwt>
<rscale>  2 0.17701664E+03</rscale>
<asrwt>0</asrwt>
<pdfrwt beam="1">  1       21 0.14159284E-01 0.17701664E+03</pdfrwt>
<pdfrwt beam="2">  1       21 0.61257210E-01 0.17701664E+03</pdfrwt>
<totfact> 0.10858808E+05</totfact>
</mgrwt>
</event>
<event>
 4    2  0.4086940E+000  0.1879772E+03  0.7546771E-02  0.1160298E+00
         21   -1    0    0  503  502  0.00000000000E+00  0.00000000000E+00  0.34238283003E+02  0.34238283003E+02  0.00000000000E+00 0.  1.
         21   -1    0    0  501  503 -0.00000000000E+00 -0.00000000000E+00 -0.18367141576E+04  0.18367141576E+04  0.00000000000E+00 0. -1.
          6    1    1    2  501    0 -0.10336674676E+02  0.72798303809E+02 -0.15204233457E+04  0.15319995399E+04  0.17300000000E+03 0. -1.
         -6    1    1    2    0  502  0.10336674676E+02 -0.72798303809E+02 -0.28205252885E+03  0.33895290072E+03  0.17300000000E+03 0.  1.
<mgrwt>
<rscale>  2 0.18797723E+03</rscale>
<asrwt>0</asrwt>
<pdfrwt beam="1">  1       21 0.52674276E-02 0.18797723E+03</pdfrwt>
<pdfrwt beam="2">  1       21 0.28257144E+00 0.18797723E+03</pdfrwt>
<totfact> 0.10641084E+04</totfact>
</mgrwt>
</event>
<event>
 4    2  0.4086940E+000  0.2070588E+03  0.7546771E-02  0.1143916E+00
         21   -1    0    0  503  502  0.00000000000E+00  0.00000000000E+00  0.12361403408E+03  0.12361403408E+03  0.00000000000E+00 0.  1.
         21   -1    0    0  501  503 -0.00000000000E+00 -0.00000000000E+00 -0.40104002624E+03  0.40104002624E+03  0.00000000000E+00 0.  1.
          6    1    1    2  501    0 -0.70785561263E+02  0.89071606201E+02 -0.23515795945E+03  0.31332509093E+03  0.17300000000E+03 0.  1.
         -6    1    1    2    0  502  0.70785561263E+02 -0.89071606201E+02 -0.42268032714E+02  0.21132896939E+03  0.17300000000E+03 0.  1.
<mgrwt>
<rscale>  2 0.20705880E+03</rscale>
<asrwt>0</asrwt>
<pdfrwt beam="1">  1       21 0.19017544E-01 0.20705880E+03</pdfrwt>
<pdfrwt beam="2">  1       21 0.61698466E-01 0.20705880E+03</pdfrwt>
<totfact> 0.61455399E+04</totfact>
</mgrwt>
</event>
<event>
 4    2  0.4086940E+000  0.1832500E+03  0.7546771E-02  0.1164694E+00
         21   -1    0    0  503  502  0.00000000000E+00  0.00000000000E+00  0.63381995061E+03  0.63381995061E+03  0.00000000000E+00 0.  1.
         21   -1    0    0  501  503 -0.00000000000E+00 -0.00000000000E+00 -0.56821118244E+02  0.56821118244E+02  0.00000000000E+00 0. -1.
          6    1    1    2  501    0 -0.44298195806E+01 -0.60265590676E+02  0.37826842692E+03  0.42031841207E+03  0.17300000000E+03 0. -1.
         -6    1    1    2    0  502  0.44298195806E+01  0.60265590676E+02  0.19873040544E+03  0.27032265678E+03  0.17300000000E+03 0.  1.
<mgrwt>
<rscale>  2 0.18325001E+03</rscale>
<asrwt>0</asrwt>
<pdfrwt beam="1">  1       21 0.97510756E-01 0.18325001E+03</pdfrwt>
<pdfrwt beam="2">  1       21 0.87417110E-02 0.18325001E+03</pdfrwt>
<totfact> 0.89922596E+04</totfact>
</mgrwt>
</event>
<event>
 4    2  0.4086940E+000  0.1809249E+03  0.7546771E-02  0.1166911E+00
         21   -1    0    0  501  502  0.00000000000E+00  0.00000000000E+00  0.13764397537E+03  0.13764397537E+03  0.00000000000E+00 0.  1.
         21   -1    0    0  502  503 -0.00000000000E+00 -0.00000000000E+00 -0.67203866975E+03  0.67203866975E+03  0.00000000000E+00 0.  1.
          6    1    1    2  501    0 -0.41352886439E+02  0.33087362887E+02  0.58222720253E+02  0.19006241068E+03  0.17300000000E+03 0.  1.
         -6    1    1    2    0  503  0.41352886439E+02 -0.33087362887E+02 -0.59261741463E+03  0.61962023444E+03  0.17300000000E+03 0.  1.
<mgrwt>
<rscale>  2 0.18092494E+03</rscale>
<asrwt>0</asrwt>
<pdfrwt beam="1">  1       21 0.21175996E-01 0.18092494E+03</pdfrwt>
<pdfrwt beam="2">  1       21 0.10339057E+00 0.18092494E+03</pdfrwt>
<totfact> 0.15845691E+04</totfact>
</mgrwt>
</event>
<event>
 4    2  0.4086940E+000  0.2524818E+03  0.7546771E-02  0.1111746E+00
         21   -1    0    0  503  502  0.00000000000E+00  0.00000000000E+00  0.41082222166E+03  0.41082222166E+03  0.00000000000E+00 0.  1.
         21   -1    0    0  501  503 -0.00000000000E+00 -0.00000000000E+00 -0.55556405558E+03  0.55556405558E+03  0.00000000000E+00 0.  1.
          6    1    1    2  501    0 -0.81680739268E+02 -0.16476145689E+03 -0.48257291157E+03  0.54463170659E+03  0.17300000000E+03 0.  1.
         -6    1    1    2    0  502  0.81680739268E+02  0.16476145689E+03  0.33783107764E+03  0.42175457065E+03  0.17300000000E+03 0.  1.
<mgrwt>
<rscale>  2 0.25248184E+03</rscale>
<asrwt>0</asrwt>
<pdfrwt beam="1">  1       21 0.63203419E-01 0.25248184E+03</pdfrwt>
<pdfrwt beam="2">  1       21 0.85471393E-01 0.25248184E+03</pdfrwt>
<totfact> 0.26163237E+03</totfact>
</mgrwt>
</event>
<event>
 4    2  0.4086940E+000  0.1834827E+03  0.7546771E-02  0.1164474E+00
         21   -1    0    0  503  502  0.00000000000E+00  0.00000000000E+00  0.41166146069E+02  0.41166146069E+02  0.00000000000E+00 0. -1.
         21   -1    0    0  501  503 -0.00000000000E+00 -0.00000000000E+00 -0.83695540088E+03  0.83695540088E+03  0.00000000000E+00 0. -1.
          6    1    1    2  501    0 -0.28178122307E+02  0.54248298353E+02 -0.46430886820E+03  0.49924804410E+03  0.17300000000E+03 0. -1.
         -6    1    1    2    0  502  0.28178122307E+02 -0.54248298353E+02 -0.33148038661E+03  0.37887350284E+03  0.17300000000E+03 0. -1.
<mgrwt>
<rscale>  2 0.18348265E+03</rscale>
<asrwt>0</asrwt>
<pdfrwt beam="1">  1       21 0.63332534E-02 0.18348265E+03</pdfrwt>
<pdfrwt beam="2">  1       21 0.12876237E+00 0.18348265E+03</pdfrwt>
<totfact> 0.79926524E+04</totfact>
</mgrwt>
</event>
<event>
 4    2  0.4086940E+000  0.1939719E+03  0.7546771E-02  0.1154927E+00
         21   -1    0    0  503  502  0.00000000000E+00  0.00000000000E+00  0.31506625258E+02  0.31506625258E+02  0.00000000000E+00 0. -1.
         21   -1    0    0  501  503 -0.00000000000E+00 -0.00000000000E+00 -0.12752194567E+04  0.12752194567E+04  0.00000000000E+00 0.  1.
          6    1    1    2  501    0 -0.21368998049E+02  0.85084962558E+02 -0.78654654152E+03  0.81011144104E+03  0.17300000000E+03 0. -1.
         -6    1    1    2    0  502  0.21368998049E+02 -0.85084962558E+02 -0.45716628992E+03  0.49661464091E+03  0.17300000000E+03 0. -1.
<mgrwt>
<rscale>  2 0.19397187E+03</rscale>
<asrwt>0</asrwt>
<pdfrwt beam="1">  1       21 0.48471733E-02 0.19397187E+03</pdfrwt>
<pdfrwt beam="2">  1       21 0.19618760E+00 0.19397187E+03</pdfrwt>
<totfact> 0.40250799E+04</totfact>
</mgrwt>
</event>
<event>
 4    2  0.4086940E+000  0.1969411E+03  0.7546771E-02  0.1152346E+00
         21   -1    0    0  503  502  0.00000000000E+00  0.00000000000E+00  0.45229641139E+03  0.45229641139E+03  0.00000000000E+00 0.  1.
         21   -1    0    0  501  503 -0.00000000000E+00 -0.00000000000E+00 -0.13749175236E+03  0.13749175236E+03  0.00000000000E+00 0.  1.
          6    1    1    2  501    0  0.30205000314E+02  0.89131607510E+02 -0.23496436377E+02  0.19833776248E+03  0.17300000000E+03 0.  1.
         -6    1    1    2    0  502 -0.30205000314E+02 -0.89131607510E+02  0.33830109541E+03  0.39145040127E+03  0.17300000000E+03 0.  1.
<mgrwt>
<rscale>  2 0.19694107E+03</rscale>
<asrwt>0</asrwt>
<pdfrwt beam="1">  1       21 0.69584062E-01 0.19694107E+03</pdfrwt>
<pdfrwt beam="2">  1       21 0.21152578E-01 0.19694107E+03</pdfrwt>
<totfact> 0.38932264E+04</totfact>
</mgrwt>
</event>
<event>
 4    2  0.4086940E+000  0.1837079E+03  0.7546771E-02  0.1164262E+00
         21   -1    0    0  501  502  0.00000000000E+00  0.00000000000E+00  0.70257392784E+03  0.70257392784E+03  0.00000000000E+00 0. -1.
         21   -1    0    0  502  503 -0.00000000000E+00 -0.00000000000E+00 -0.67325209056E+02  0.67325209056E+02  0.00000000000E+00 0. -1.
          6    1    1    2  501    0 -0.57227253020E+02  0.23337658087E+02  0.52367595408E+03  0.55496406159E+03  0.17300000000E+03 0. -1.
         -6    1    1    2    0  503  0.57227253020E+02 -0.23337658087E+02  0.11157276470E+03  0.21493507530E+03  0.17300000000E+03 0. -1.
<mgrwt>
<rscale>  2 0.18370793E+03</rscale>
<asrwt>0</asrwt>
<pdfrwt beam="1">  1       21 0.10808829E+00 0.18370793E+03</pdfrwt>
<pdfrwt beam="2">  1       21 0.10357725E-01 0.18370793E+03</pdfrwt>
<totfact> 0.52189805E+04</totfact>
</mgrwt>
</event>
<event>
 4    2  0.4086940E+000  0.1950394E+03  0.7546771E-02  0.1153993E+00
         21   -1    0    0  501  502  0.00000000000E+00  0.00000000000E+00  0.49849335322E+03  0.49849335322E+03  0.00000000000E+00 0. -1.
         21   -1    0    0  502  503 -0.00000000000E+00 -0.00000000000E+00 -0.18533463667E+03  0.18533463667E+03  0.00000000000E+00 0.  1.
          6    1    1    2  501    0  0.25382590239E+02  0.86412434563E+02  0.41881968643E+03  0.46200683379E+03  0.17300000000E+03 0. -1.
         -6    1    1    2    0  503 -0.25382590239E+02 -0.86412434563E+02 -0.10566096988E+03  0.22182115609E+03  0.17300000000E+03 0.  1.
<mgrwt>
<rscale>  2 0.19503944E+03</rscale>
<asrwt>0</asrwt>
<pdfrwt beam="1">  1       21 0.76691284E-01 0.19503944E+03</pdfrwt>
<pdfrwt beam="2">  1       21 0.28513021E-01 0.19503944E+03</pdfrwt>
<totfact> 0.17765871E+04</totfact>
</mgrwt>
</event>
<event>
 4    2  0.4086940E+000  0.2118246E+03  0.7546771E-02  0.1140129E+00
         21   -1    0    0  503  502  0.00000000000E+00  0.00000000000E+00  0.11090107962E+03  0.11090107962E+03  0.00000000000E+00 0.  1.
         21   -1    0    0  501  503 -0.00000000000E+00 -0.00000000000E+00 -0.70581477952E+03  0.70581477952E+03  0.00000000000E+00 0. -1.
          6    1    1    2  501    0  0.11921599032E+03  0.26985661762E+02 -0.56422845303E+03  0.60268020168E+03  0.17300000000E+03 0. -1.
         -6    1    1    2    0  502 -0.11921599032E+03 -0.26985661762E+02 -0.30685246867E+02  0.21403565746E+03  0.17300000000E+03 0.  1.
<mgrwt>
<rscale>  2 0.21182464E+03</rscale>
<asrwt>0</asrwt>
<pdfrwt beam="1">  1       21 0.17061704E-01 0.21182464E+03</pdfrwt>
<pdfrwt beam="2">  1       21 0.10858689E+00 0.21182464E+03</pdfrwt>
<totfact> 0.20637217E+04</totfact>
</mgrwt>
</event>
<event>
 4    2  0.4086940E+000  0.1769164E+03  0.7546771E-02  0.1170821E+00
         21   -1    0    0  503  502  0.00000000000E+00  0.00000000000E+00  0.42623721201E+02  0.42623721201E+02  0.00000000000E+00 0. -1.
         21   -1    0    0  501  503 -0.00000000000E+00 -0.00000000000E+00 -0.77312441756E+03  0.77312441756E+03  0.00000000000E+00 0. -1.
          6    1    1    2  501    0  0.27659394289E+02  0.24604299475E+02 -0.27387124667E+03  0.32604428134E+03  0.17300000000E+03 0. -1.
         -6    1    1    2    0  502 -0.27659394289E+02 -0.24604299475E+02 -0.45662944969E+03  0.48970385742E+03  0.17300000000E+03 0. -1.
<mgrwt>
<rscale>  2 0.17691640E+03</rscale>
<asrwt>0</asrwt>
<pdfrwt beam="1">  1       21 0.65574957E-02 0.17691640E+03</pdfrwt>
<pdfrwt beam="2">  1       21 0.11894222E+00 0.17691640E+03</pdfrwt>
<totfact> 0.92026863E+04</totfact>
</mgrwt>
</event>
<event>
 4    2  0.4086940E+000  0.1800546E+03  0.7546771E-02  0.1167750E+00
         21   -1    0    0  503  502  0.00000000000E+00  0.00000000000E+00  0.54161611539E+03  0.54161611539E+03  0.00000000000E+00 0. -1.
         21   -1    0    0  501  503 -0.00000000000E+00 -0.00000000000E+00 -0.37181658514E+03  0.37181658514E+03  0.00000000000E+00 0. -1.
          6    1    1    2  501    0  0.49874114631E+02  0.17990812646E+01 -0.33344193510E+03  0.37895011292E+03  0.17300000000E+03 0. -1.
         -6    1    1    2    0  502 -0.49874114631E+02 -0.17990812646E+01  0.50324146535E+03  0.53448258760E+03  0.17300000000E+03 0. -1.
<mgrwt>
<rscale>  2 0.18005461E+03</rscale>
<asrwt>0</asrwt>
<pdfrwt beam="1">  1       21 0.83325556E-01 0.18005461E+03</pdfrwt>
<pdfrwt beam="2">  1       21 0.57202551E-01 0.18005461E+03</pdfrwt>
<totfact> 0.36369075E+03</totfact>
</mgrwt>
</event>
<event>
 4    2  0.4086940E+000  0.2290679E+03  0.7546771E-02  0.1127298E+00
         21   -1    0    0  501  502  0.00000000000E+00  0.00000000000E+00  0.19477994570E+03  0.19477994570E+03  0.00000000000E+00 0. -1.
         21   -1    0    0  502  503 -0.00000000000E+00 -0.00000000000E+00 -0.34672367659E+03  0.34672367659E+03  0.00000000000E+00 0. -1.
          6    1    1    2  501    0 -0.12727183205E+03  0.79655495462E+02  0.51895270740E+02  0.23487280881E+03  0.17300000000E+03 0. -1.
         -6    1    1    2    0  503  0.12727183205E+03 -0.79655495462E+02 -0.20383900164E+03  0.30663081349E+03  0.17300000000E+03 0. -1.
<mgrwt>
<rscale>  2 0.22906793E+03</rscale>
<asrwt>0</asrwt>
<pdfrwt beam="1">  1       21 0.29966146E-01 0.22906793E+03</pdfrwt>
<pdfrwt beam="2">  1       21 0.53342103E-01 0.22906793E+03</pdfrwt>
<totfact> 0.34884294E+04</totfact>
</mgrwt>
</event>
<event>
 4    2  0.4086940E+000  0.1976653E+03  0.7546771E-02  0.1151724E+00
         21   -1    0    0  501  502  0.00000000000E+00  0.00000000000E+00  0.47800658833E+03  0.47800658833E+03  0.00000000000E+00 0. -1.
         21   -1    0    0  502  503 -0.00000000000E+00 -0.00000000000E+00 -0.93648334299E+02  0.93648334299E+02  0.00000000000E+00 0.  1.
          6    1    1    2  501    0 -0.33262305444E+02 -0.89644828917E+02  0.29410993243E+03  0.35436172010E+03  0.17300000000E+03 0. -1.
         -6    1    1    2    0  503  0.33262305444E+02  0.89644828917E+02  0.90248321598E+02  0.21729320253E+03  0.17300000000E+03 0. -1.
<mgrwt>
<rscale>  2 0.19766531E+03</rscale>
<asrwt>0</asrwt>
<pdfrwt beam="1">  1       21 0.73539474E-01 0.19766531E+03</pdfrwt>
<pdfrwt beam="2">  1       21 0.14407436E-01 0.19766531E+03</pdfrwt>
<totfact> 0.69959029E+04</totfact>
</mgrwt>
</event>
<event>
 4    2  0.4086940E+000  0.1966200E+03  0.7546771E-02  0.1152622E+00
         21   -1    0    0  501  502  0.00000000000E+00  0.00000000000E+00  0.55104730714E+02  0.55104730714E+02  0.00000000000E+00 0.  1.
         21   -1    0    0  502  503 -0.00000000000E+00 -0.00000000000E+00 -0.14535600266E+04  0.14535600266E+04  0.00000000000E+00 0.  1.
          6    1    1    2  501    0 -0.68005536962E+02 -0.64075450801E+02 -0.15665930554E+03  0.25139919345E+03  0.17300000000E+03 0.  1.
         -6    1    1    2    0  503  0.68005536962E+02  0.64075450801E+02 -0.12417959904E+04  0.12572655639E+04  0.17300000000E+03 0.  1.
<mgrwt>
<rscale>  2 0.19661998E+03</rscale>
<asrwt>0</asrwt>
<pdfrwt beam="1">  1       21 0.84776508E-02 0.19661998E+03</pdfrwt>
<pdfrwt beam="2">  1       21 0.22362462E+00 0.19661998E+03</pdfrwt>
<totfact> 0.10331475E+04</totfact>
</mgrwt>
</event>
<event>
 4    2  0.4086940E+000  0.1937590E+03  0.7546771E-02  0.1155114E+00
         21   -1    0    0  501  502  0.00000000000E+00  0.00000000000E+00  0.13711143020E+04  0.13711143020E+04  0.00000000000E+00 0.  1.
         21   -1    0    0  502  503 -0.00000000000E+00 -0.00000000000E+00 -0.32782027340E+02  0.32782027340E+02  0.00000000000E+00 0.  1.
          6    1    1    2  501    0 -0.22645944914E+02 -0.84265789756E+02  0.95408613923E+03  0.97356197708E+03  0.17300000000E+03 0. -1.
         -6    1    1    2    0  503  0.22645944914E+02  0.84265789756E+02  0.38424613545E+03  0.43033435228E+03  0.17300000000E+03 0. -1.
<mgrwt>
<rscale>  2 0.19375903E+03</rscale>
<asrwt>0</asrwt>
<pdfrwt beam="1">  1       21 0.21094062E+00 0.19375903E+03</pdfrwt>
<pdfrwt beam="2">  1       21 0.50433899E-02 0.19375903E+03</pdfrwt>
<totfact> 0.30321341E+04</totfact>
</mgrwt>
</event>
<event>
 4    2  0.4086940E+000  0.1817081E+03  0.7546771E-02  0.1166160E+00
         21   -1    0    0  501  502  0.00000000000E+00  0.00000000000E+00  0.46923244567E+03  0.46923244567E+03  0.00000000000E+00 0.  1.
         21   -1    0    0  502  503 -0.00000000000E+00 -0.00000000000E+00 -0.74965844917E+02  0.74965844917E+02  0.00000000000E+00 0.  1.
          6    1    1    2  501    0  0.54225521742E+02 -0.12183359825E+02  0.26453704659E+03  0.32093253260E+03  0.17300000000E+03 0.  1.
         -6    1    1    2    0  503 -0.54225521742E+02  0.12183359825E+02  0.12972955417E+03  0.22326575799E+03  0.17300000000E+03 0.  1.
<mgrwt>
<rscale>  2 0.18170812E+03</rscale>
<asrwt>0</asrwt>
<pdfrwt beam="1">  1       21 0.72189606E-01 0.18170812E+03</pdfrwt>
<pdfrwt beam="2">  1       21 0.11533207E-01 0.18170812E+03</pdfrwt>
<totfact> 0.10948578E+05</totfact>
</mgrwt>
</event>
<event>
 4    2  0.4086940E+000  0.1755562E+03  0.7546771E-02  0.1172174E+00
         21   -1    0    0  501  502  0.00000000000E+00  0.00000000000E+00  0.16301680029E+04  0.16301680029E+04  0.00000000000E+00 0. -1.
         21   -1    0    0  502  503 -0.00000000000E+00 -0.00000000000E+00 -0.37103228894E+02  0.37103228894E+02  0.00000000000E+00 0. -1.
          6    1    1    2  501    0 -0.16665980931E+02 -0.24763376542E+02  0.13803441824E+04  0.13914632736E+04  0.17300000000E+03 0. -1.
         -6    1    1    2    0  503  0.16665980931E+02  0.24763376542E+02  0.21272059159E+03  0.27580795823E+03  0.17300000000E+03 0. -1.
<mgrwt>
<rscale>  2 0.17555620E+03</rscale>
<asrwt>0</asrwt>
<pdfrwt beam="1">  1       21 0.25079502E+00 0.17555620E+03</pdfrwt>
<pdfrwt beam="2">  1       21 0.57081903E-02 0.17555620E+03</pdfrwt>
<totfact> 0.14355043E+04</totfact>
</mgrwt>
</event>
<event>
 4    2  0.4086940E+000  0.1816586E+03  0.7546771E-02  0.1166207E+00
         21   -1    0    0  501  502  0.00000000000E+00  0.00000000000E+00  0.29756853723E+03  0.29756853723E+03  0.00000000000E+00 0.  1.
         21   -1    0    0  502  503 -0.00000000000E+00 -0.00000000000E+00 -0.11175888467E+03  0.11175888467E+03  0.00000000000E+00 0.  1.
          6    1    1    2  501    0 -0.30154745974E+02  0.46492297075E+02  0.74945139629E+02  0.19651110998E+03  0.17300000000E+03 0. -1.
         -6    1    1    2    0  503  0.30154745974E+02 -0.46492297075E+02  0.11086451294E+03  0.21281631192E+03  0.17300000000E+03 0. -1.
<mgrwt>
<rscale>  2 0.18165859E+03</rscale>
<asrwt>0</asrwt>
<pdfrwt beam="1">  1       21 0.45779775E-01 0.18165859E+03</pdfrwt>
<pdfrwt beam="2">  1       21 0.17193675E-01 0.18165859E+03</pdfrwt>
<totfact> 0.14026740E+05</totfact>
</mgrwt>
</event>
<event>
 4    2  0.4086940E+000  0.1745431E+03  0.7546771E-02  0.1173191E+00
         21   -1    0    0  501  502  0.00000000000E+00  0.00000000000E+00  0.44597419788E+03  0.44597419788E+03  0.00000000000E+00 0. -1.
         21   -1    0    0  502  503 -0.00000000000E+00 -0.00000000000E+00 -0.69219698790E+03  0.69219698790E+03  0.00000000000E+00 0. -1.
          6    1    1    2  501    0 -0.15288401992E+02 -0.17394182845E+02  0.41716386581E+03  0.45220679315E+03  0.17300000000E+03 0. -1.
         -6    1    1    2    0  503  0.15288401992E+02  0.17394182845E+02 -0.66338665583E+03  0.68596439264E+03  0.17300000000E+03 0. -1.
<mgrwt>
<rscale>  2 0.17454310E+03</rscale>
<asrwt>0</asrwt>
<pdfrwt beam="1">  1       21 0.68611416E-01 0.17454310E+03</pdfrwt>
<pdfrwt beam="2">  1       21 0.10649184E+00 0.17454310E+03</pdfrwt>
<totfact> 0.13927176E+03</totfact>
</mgrwt>
</event>
<event>
 4    2  0.4086940E+000  0.1747841E+03  0.7546771E-02  0.1172949E+00
         21   -1    0    0  503  502  0.00000000000E+00  0.00000000000E+00  0.28640980429E+03  0.28640980429E+03  0.00000000000E+00 0. -1.
         21   -1    0    0  501  503 -0.00000000000E+00 -0.00000000000E+00 -0.33323737335E+03  0.33323737335E+03  0.00000000000E+00 0. -1.
          6    1    1    2  501    0  0.22187444495E+02  0.11321744825E+02 -0.27888534974E+03  0.32912991797E+03  0.17300000000E+03 0. -1.
         -6    1    1    2    0  502 -0.22187444495E+02 -0.11321744825E+02  0.23205778068E+03  0.29051725968E+03  0.17300000000E+03 0. -1.
<mgrwt>
<rscale>  2 0.17478405E+03</rscale>
<asrwt>0</asrwt>
<pdfrwt beam="1">  1       21 0.44063047E-01 0.17478405E+03</pdfrwt>
<pdfrwt beam="2">  1       21 0.51267288E-01 0.17478405E+03</pdfrwt>
<totfact> 0.18090468E+04</totfact>
</mgrwt>
</event>
<event>
 4    2  0.4086940E+000  0.2437341E+03  0.7546771E-02  0.1117330E+00
         21   -1    0    0  503  502  0.00000000000E+00  0.00000000000E+00  0.26392772803E+02  0.26392772803E+02  0.00000000000E+00 0.  1.
         21   -1    0    0  501  503 -0.00000000000E+00 -0.00000000000E+00 -0.22935368734E+04  0.22935368734E+04  0.00000000000E+00 0.  1.
          6    1    1    2  501    0  0.16606825261E+03  0.43573674553E+02 -0.12918093528E+04  0.13146017396E+04  0.17300000000E+03 0.  1.
         -6    1    1    2    0  502 -0.16606825261E+03 -0.43573674553E+02 -0.97533474779E+03  0.10053279067E+04  0.17300000000E+03 0.  1.
<mgrwt>
<rscale>  2 0.24373414E+03</rscale>
<asrwt>0</asrwt>
<pdfrwt beam="1">  1       21 0.40604256E-02 0.24373414E+03</pdfrwt>
<pdfrwt beam="2">  1       21 0.35285191E+00 0.24373414E+03</pdfrwt>
<totfact> 0.60701966E+03</totfact>
</mgrwt>
</event>
<event>
 4    2  0.4086940E+000  0.2989269E+03  0.7546771E-02  0.1085778E+00
         21   -1    0    0  501  502  0.00000000000E+00  0.00000000000E+00  0.65934967465E+03  0.65934967465E+03  0.00000000000E+00 0. -1.
         21   -1    0    0  502  503 -0.00000000000E+00 -0.00000000000E+00 -0.18357989261E+03  0.18357989261E+03  0.00000000000E+00 0.  1.
          6    1    1    2  501    0 -0.89173086952E+02 -0.22688424543E+03  0.45352266323E+03  0.54317594417E+03  0.17300000000E+03 0. -1.
         -6    1    1    2    0  503  0.89173086952E+02  0.22688424543E+03  0.22247118808E+02  0.29975362309E+03  0.17300000000E+03 0. -1.
<mgrwt>
<rscale>  2 0.29892691E+03</rscale>
<asrwt>0</asrwt>
<pdfrwt beam="1">  1       21 0.10143841E+00 0.29892691E+03</pdfrwt>
<pdfrwt beam="2">  1       21 0.28243061E-01 0.29892691E+03</pdfrwt>
<totfact> 0.89306458E+03</totfact>
</mgrwt>
</event>
<event>
 4    2  0.4086940E+000  0.1872979E+03  0.7546771E-02  0.1160921E+00
         21   -1    0    0  501  502  0.00000000000E+00  0.00000000000E+00  0.69311512733E+02  0.69311512733E+02  0.00000000000E+00 0.  1.
         21   -1    0    0  502  503 -0.00000000000E+00 -0.00000000000E+00 -0.57824408309E+03  0.57824408309E+03  0.00000000000E+00 0.  1.
          6    1    1    2  501    0 -0.56974052188E+02 -0.43651374508E+02 -0.14012368569E+03  0.23391265979E+03  0.17300000000E+03 0.  1.
         -6    1    1    2    0  503  0.56974052188E+02  0.43651374508E+02 -0.36880888467E+03  0.41364293603E+03  0.17300000000E+03 0.  1.
<mgrwt>
<rscale>  2 0.18729785E+03</rscale>
<asrwt>0</asrwt>
<pdfrwt beam="1">  1       21 0.10663310E-01 0.18729785E+03</pdfrwt>
<pdfrwt beam="2">  1       21 0.88960625E-01 0.18729785E+03</pdfrwt>
<totfact> 0.78338511E+04</totfact>
</mgrwt>
</event>
<event>
 4    2  0.4086940E+000  0.1898162E+03  0.7546771E-02  0.1158627E+00
         21   -1    0    0  501  502  0.00000000000E+00  0.00000000000E+00  0.19861388397E+04  0.19861388397E+04  0.00000000000E+00 0.  1.
         21   -1    0    0  502  503 -0.00000000000E+00 -0.00000000000E+00 -0.46603045134E+02  0.46603045134E+02  0.00000000000E+00 0.  1.
          6    1    1    2  501    0 -0.34659091904E+02 -0.69999584720E+02  0.17640586186E+04  0.17742415293E+04  0.17300000000E+03 0.  1.
         -6    1    1    2    0  503  0.34659091904E+02  0.69999584720E+02  0.17547717595E+03  0.25850035550E+03  0.17300000000E+03 0.  1.
<mgrwt>
<rscale>  2 0.18981621E+03</rscale>
<asrwt>0</asrwt>
<pdfrwt beam="1">  1       21 0.30555976E+00 0.18981621E+03</pdfrwt>
<pdfrwt beam="2">  1       21 0.71697008E-02 0.18981621E+03</pdfrwt>
<totfact> 0.46176713E+03</totfact>
</mgrwt>
</event>
<event>
 4    2  0.4086940E+000  0.2216949E+03  0.7546771E-02  0.1132626E+00
         21   -1    0    0  501  502  0.00000000000E+00  0.00000000000E+00  0.10304633997E+03  0.10304633997E+03  0.00000000000E+00 0.  1.
         21   -1    0    0  502  503 -0.00000000000E+00 -0.00000000000E+00 -0.62758376439E+03  0.62758376439E+03  0.00000000000E+00 0.  1.
          6    1    1    2  501    0 -0.15553640077E+02 -0.13775966047E+03 -0.83297467761E+02  0.23682716885E+03  0.17300000000E+03 0.  1.
         -6    1    1    2    0  503  0.15553640077E+02  0.13775966047E+03 -0.44123995665E+03  0.49380293551E+03  0.17300000000E+03 0.  1.
<mgrwt>
<rscale>  2 0.22169493E+03</rscale>
<asrwt>0</asrwt>
<pdfrwt beam="1">  1       21 0.15853283E-01 0.22169493E+03</pdfrwt>
<pdfrwt beam="2">  1       21 0.96551347E-01 0.22169493E+03</pdfrwt>
<totfact> 0.31125667E+04</totfact>
</mgrwt>
</event>
<event>
 4    2  0.4086940E+000  0.1813789E+03  0.7546771E-02  0.1166475E+00
         21   -1    0    0  503  502  0.00000000000E+00  0.00000000000E+00  0.14324212777E+04  0.14324212777E+04  0.00000000000E+00 0. -1.
         21   -1    0    0  501  503 -0.00000000000E+00 -0.00000000000E+00 -0.24822233544E+02  0.24822233544E+02  0.00000000000E+00 0. -1.
          6    1    1    2  501    0 -0.54115720419E+02 -0.63864823437E+01  0.50459880496E+03  0.53620728484E+03  0.17300000000E+03 0. -1.
         -6    1    1    2    0  502  0.54115720419E+02  0.63864823437E+01  0.90300023920E+03  0.92103622640E+03  0.17300000000E+03 0. -1.
<mgrwt>
<rscale>  2 0.18137888E+03</rscale>
<asrwt>0</asrwt>
<pdfrwt beam="1">  1       21 0.22037244E+00 0.18137888E+03</pdfrwt>
<pdfrwt beam="2">  1       21 0.38188063E-02 0.18137888E+03</pdfrwt>
<totfact> 0.42725798E+04</totfact>
</mgrwt>
</event>
<event>
 4    2  0.4086940E+000  0.1911237E+03  0.7546771E-02  0.1157452E+00
         21   -1    0    0  501  502  0.00000000000E+00  0.00000000000E+00  0.23238779386E+03  0.23238779386E+03  0.00000000000E+00 0. -1.
         21   -1    0    0  502  503 -0.00000000000E+00 -0.00000000000E+00 -0.27213756663E+03  0.27213756663E+03  0.00000000000E+00 0.  1.
          6    1    1    2  501    0  0.18802027918E+02 -0.79030057984E+02  0.14407643284E+03  0.23934553436E+03  0.17300000000E+03 0. -1.
         -6    1    1    2    0  503 -0.18802027918E+02  0.79030057984E+02 -0.18382620560E+03  0.26517982613E+03  0.17300000000E+03 0.  1.
<mgrwt>
<rscale>  2 0.19112369E+03</rscale>
<asrwt>0</asrwt>
<pdfrwt beam="1">  1       21 0.35751968E-01 0.19112369E+03</pdfrwt>
<pdfrwt beam="2">  1       21 0.41867318E-01 0.19112369E+03</pdfrwt>
<totfact> 0.41459552E+04</totfact>
</mgrwt>
</event>
<event>
 4    2  0.4086940E+000  0.2629089E+03  0.7546771E-02  0.1105408E+00
         21   -1    0    0  501  502  0.00000000000E+00  0.00000000000E+00  0.17737092243E+04  0.17737092243E+04  0.00000000000E+00 0.  1.
         21   -1    0    0  502  503 -0.00000000000E+00 -0.00000000000E+00 -0.41148944811E+02  0.41148944811E+02  0.00000000000E+00 0.  1.
          6    1    1    2  501    0 -0.75024350685E+02  0.18320333459E+03  0.10751016316E+04  0.11067812039E+04  0.17300000000E+03 0.  1.
         -6    1    1    2    0  503  0.75024350685E+02 -0.18320333459E+03  0.65745864790E+03  0.70807696524E+03  0.17300000000E+03 0.  1.
<mgrwt>
<rscale>  2 0.26290895E+03</rscale>
<asrwt>0</asrwt>
<pdfrwt beam="1">  1       21 0.27287828E+00 0.26290895E+03</pdfrwt>
<pdfrwt beam="2">  1       21 0.63306083E-02 0.26290895E+03</pdfrwt>
<totfact> 0.82647082E+03</totfact>
</mgrwt>
</event>
<event>
 4    2  0.4086940E+000  0.1933213E+03  0.7546771E-02  0.1155499E+00
         21   -1    0    0  503  502  0.00000000000E+00  0.00000000000E+00  0.23028011587E+03  0.23028011587E+03  0.00000000000E+00 0. -1.
         21   -1    0    0  501  503 -0.00000000000E+00 -0.00000000000E+00 -0.21701504261E+03  0.21701504261E+03  0.00000000000E+00 0.  1.
          6    1    1    2  501    0 -0.12468039149E+02  0.85373762197E+02 -0.10567156034E+03  0.22031706683E+03  0.17300000000E+03 0.  1.
         -6    1    1    2    0  502  0.12468039149E+02 -0.85373762197E+02  0.11893663360E+03  0.22697809164E+03  0.17300000000E+03 0. -1.
<mgrwt>
<rscale>  2 0.19332132E+03</rscale>
<asrwt>0</asrwt>
<pdfrwt beam="1">  1       21 0.35427710E-01 0.19332132E+03</pdfrwt>
<pdfrwt beam="2">  1       21 0.33386929E-01 0.19332132E+03</pdfrwt>
<totfact> 0.66353320E+04</totfact>
</mgrwt>
</event>
<event>
 4    2  0.4086940E+000  0.1964775E+03  0.7546771E-02  0.1152745E+00
         21   -1    0    0  501  502  0.00000000000E+00  0.00000000000E+00  0.11491386671E+04  0.11491386671E+04  0.00000000000E+00 0. -1.
         21   -1    0    0  502  503 -0.00000000000E+00 -0.00000000000E+00 -0.50575581975E+02  0.50575581975E+02  0.00000000000E+00 0. -1.
          6    1    1    2  501    0 -0.42319489477E+01 -0.93040356922E+02  0.20168554923E+03  0.28156789266E+03  0.17300000000E+03 0. -1.
         -6    1    1    2    0  503  0.42319489477E+01  0.93040356922E+02  0.89687753594E+03  0.91814635646E+03  0.17300000000E+03 0. -1.
<mgrwt>
<rscale>  2 0.19647752E+03</rscale>
<asrwt>0</asrwt>
<pdfrwt beam="1">  1       21 0.17679055E+00 0.19647752E+03</pdfrwt>
<pdfrwt beam="2">  1       21 0.77808596E-02 0.19647752E+03</pdfrwt>
<totfact> 0.24041046E+04</totfact>
</mgrwt>
</event>
<event>
 4    2  0.4086940E+000  0.2392512E+03  0.7546771E-02  0.1120293E+00
         21   -1    0    0  503  502  0.00000000000E+00  0.00000000000E+00  0.31658015074E+03  0.31658015074E+03  0.00000000000E+00 0. -1.
         21   -1    0    0  501  503 -0.00000000000E+00 -0.00000000000E+00 -0.18193393946E+03  0.18193393946E+03  0.00000000000E+00 0. -1.
          6    1    1    2  501    0  0.49052929921E+02  0.15781611494E+03  0.86907218924E+02  0.25454661806E+03  0.17300000000E+03 0. -1.
         -6    1    1    2    0  502 -0.49052929921E+02 -0.15781611494E+03  0.47738992361E+02  0.24396747213E+03  0.17300000000E+03 0. -1.
<mgrwt>
<rscale>  2 0.23925116E+03</rscale>
<asrwt>0</asrwt>
<pdfrwt beam="1">  1       21 0.48704639E-01 0.23925116E+03</pdfrwt>
<pdfrwt beam="2">  1       21 0.27989837E-01 0.23925116E+03</pdfrwt>
<totfact> 0.48025749E+04</totfact>
</mgrwt>
</event>
<event>
 4    2  0.4086940E+000  0.1803406E+03  0.7546771E-02  0.1167474E+00
         21   -1    0    0  503  502  0.00000000000E+00  0.00000000000E+00  0.12115860733E+03  0.12115860733E+03  0.00000000000E+00 0. -1.
         21   -1    0    0  501  503 -0.00000000000E+00 -0.00000000000E+00 -0.27639348770E+03  0.27639348770E+03  0.00000000000E+00 0.  1.
          6    1    1    2  501    0  0.73627630620E+01  0.50393573340E+02 -0.11135590736E+03  0.21195013710E+03  0.17300000000E+03 0.  1.
         -6    1    1    2    0  502 -0.73627630620E+01 -0.50393573340E+02 -0.43878973001E+02  0.18560195792E+03  0.17300000000E+03 0. -1.
<mgrwt>
<rscale>  2 0.18034057E+03</rscale>
<asrwt>0</asrwt>
<pdfrwt beam="1">  1       21 0.18639786E-01 0.18034057E+03</pdfrwt>
<pdfrwt beam="2">  1       21 0.42522075E-01 0.18034057E+03</pdfrwt>
<totfact> 0.14059973E+05</totfact>
</mgrwt>
</event>
<event>
 4    2  0.4086940E+000  0.1890941E+03  0.7546771E-02  0.1159281E+00
         21   -1    0    0  503  502  0.00000000000E+00  0.00000000000E+00  0.13036574307E+04  0.13036574307E+04  0.00000000000E+00 0.  1.
         21   -1    0    0  501  503 -0.00000000000E+00 -0.00000000000E+00 -0.52843980216E+02  0.52843980216E+02  0.00000000000E+00 0. -1.
          6    1    1    2  501    0 -0.62547433182E+02 -0.43765265104E+02  0.15502892380E+03  0.24452105644E+03  0.17300000000E+03 0. -1.
         -6    1    1    2    0  502  0.62547433182E+02  0.43765265104E+02  0.10957845267E+04  0.11119803545E+04  0.17300000000E+03 0.  1.
<mgrwt>
<rscale>  2 0.18909410E+03</rscale>
<asrwt>0</asrwt>
<pdfrwt beam="1">  1       21 0.20056266E+00 0.18909410E+03</pdfrwt>
<pdfrwt beam="2">  1       21 0.81298440E-02 0.18909410E+03</pdfrwt>
<totfact> 0.15581366E+04</totfact>
</mgrwt>
</event>
<event>
 4    2  0.4086940E+000  0.2300468E+03  0.7546771E-02  0.1126607E+00
         21   -1    0    0  503  502  0.00000000000E+00  0.00000000000E+00  0.14980274734E+04  0.14980274734E+04  0.00000000000E+00 0. -1.
         21   -1    0    0  501  503 -0.00000000000E+00 -0.00000000000E+00 -0.41647974084E+02  0.41647974084E+02  0.00000000000E+00 0.  1.
          6    1    1    2  501    0  0.11371793424E+03  0.10030338040E+03  0.42828887100E+03  0.48616138648E+03  0.17300000000E+03 0.  1.
         -6    1    1    2    0  502 -0.11371793424E+03 -0.10030338040E+03  0.10280906283E+04  0.10535140610E+04  0.17300000000E+03 0. -1.
<mgrwt>
<rscale>  2 0.23004681E+03</rscale>
<asrwt>0</asrwt>
<pdfrwt beam="1">  1       21 0.23046572E+00 0.23004681E+03</pdfrwt>
<pdfrwt beam="2">  1       21 0.64073818E-02 0.23004681E+03</pdfrwt>
<totfact> 0.14850044E+04</totfact>
</mgrwt>
</event>
<event>
 4    2  0.4086940E+000  0.1918251E+03  0.7546771E-02  0.1156825E+00
         21   -1    0    0  501  502  0.00000000000E+00  0.00000000000E+00  0.28627486684E+02  0.28627486684E+02  0.00000000000E+00 0.  1.
         21   -1    0    0  502  503 -0.00000000000E+00 -0.00000000000E+00 -0.12863301177E+04  0.12863301177E+04  0.00000000000E+00 0.  1.
          6    1    1    2  501    0  0.30325088030E+02  0.77124844914E+02 -0.61086921508E+03  0.64027966592E+03  0.17300000000E+03 0.  1.
         -6    1    1    2    0  503 -0.30325088030E+02 -0.77124844914E+02 -0.64683341590E+03  0.67467793842E+03  0.17300000000E+03 0.  1.
<mgrwt>
<rscale>  2 0.19182506E+03</rscale>
<asrwt>0</asrwt>
<pdfrwt beam="1">  1       21 0.44042286E-02 0.19182506E+03</pdfrwt>
<pdfrwt beam="2">  1       21 0.19789695E+00 0.19182506E+03</pdfrwt>
<totfact> 0.46197347E+04</totfact>
</mgrwt>
</event>
<event>
 4    2  0.4086940E+000  0.1761586E+03  0.7546771E-02  0.1171573E+00
         21   -1    0    0  503  502  0.00000000000E+00  0.00000000000E+00  0.13621263785E+04  0.13621263785E+04  0.00000000000E+00 0.  1.
         21   -1    0    0  501  503 -0.00000000000E+00 -0.00000000000E+00 -0.48727249710E+02  0.48727249710E+02  0.00000000000E+00 0. -1.
          6    1    1    2  501    0 -0.26786778939E+02 -0.19629284919E+02  0.14195034582E+03  0.22623381938E+03  0.17300000000E+03 0. -1.
         -6    1    1    2    0  502  0.26786778939E+02  0.19629284919E+02  0.11714487830E+04  0.11846198088E+04  0.17300000000E+03 0.  1.
<mgrwt>
<rscale>  2 0.17615857E+03</rscale>
<asrwt>0</asrwt>
<pdfrwt beam="1">  1       21 0.20955788E+00 0.17615857E+03</pdfrwt>
<pdfrwt beam="2">  1       21 0.74965010E-02 0.17615857E+03</pdfrwt>
<totfact> 0.15905906E+04</totfact>
</mgrwt>
</event>
<event>
 4    2  0.4086940E+000  0.2159909E+03  0.7546771E-02  0.1136908E+00
         21   -1    0    0  501  502  0.00000000000E+00  0.00000000000E+00  0.81919167790E+03  0.81919167790E+03  0.00000000000E+00 0. -1.
         21   -1    0    0  502  503 -0.00000000000E+00 -0.00000000000E+00 -0.89473316038E+02  0.89473316038E+02  0.00000000000E+00 0. -1.
          6    1    1    2  501    0 -0.16431206873E+01 -0.12930733983E+03  0.63878413728E+03  0.67431243650E+03  0.17300000000E+03 0. -1.
         -6    1    1    2    0  503  0.16431206873E+01  0.12930733983E+03  0.90934224586E+02  0.23435255744E+03  0.17300000000E+03 0. -1.
<mgrwt>
<rscale>  2 0.21599094E+03</rscale>
<asrwt>0</asrwt>
<pdfrwt beam="1">  1       21 0.12602948E+00 0.21599094E+03</pdfrwt>
<pdfrwt beam="2">  1       21 0.13765126E-01 0.21599094E+03</pdfrwt>
<totfact> 0.21115750E+04</totfact>
</mgrwt>
</event>
<event>
 4    2  0.4086940E+000  0.2119092E+03  0.7546771E-02  0.1140063E+00
         21   -1    0    0  503  502  0.00000000000E+00  0.00000000000E+00  0.24224075024E+03  0.24224075024E+03  0.00000000000E+00 0. -1.
         21   -1    0    0  501  503 -0.00000000000E+00 -0.00000000000E+00 -0.19917565200E+03  0.19917565200E+03  0.00000000000E+00 0.  1.
          6    1    1    2  501    0 -0.11340139535E+03 -0.46006731890E+02 -0.36562960375E+02  0.21504033556E+03  0.17300000000E+03 0.  1.
         -6    1    1    2    0  502  0.11340139535E+03  0.46006731890E+02  0.79628058612E+02  0.22637606668E+03  0.17300000000E+03 0. -1.
<mgrwt>
<rscale>  2 0.21190917E+03</rscale>
<asrwt>0</asrwt>
<pdfrwt beam="1">  1       21 0.37267807E-01 0.21190917E+03</pdfrwt>
<pdfrwt beam="2">  1       21 0.30642408E-01 0.21190917E+03</pdfrwt>
<totfact> 0.70401066E+04</totfact>
</mgrwt>
</event>
<event>
 4    2  0.4086940E+000  0.2116274E+03  0.7546771E-02  0.1140284E+00
         21   -1    0    0  501  502  0.00000000000E+00  0.00000000000E+00  0.23575195059E+03  0.23575195059E+03  0.00000000000E+00 0.  1.
         21   -1    0    0  502  503 -0.00000000000E+00 -0.00000000000E+00 -0.20682969959E+03  0.20682969959E+03  0.00000000000E+00 0. -1.
          6    1    1    2  501    0  0.11409612675E+03 -0.42886188040E+02  0.77638645788E+02  0.22541941040E+03  0.17300000000E+03 0.  1.
         -6    1    1    2    0  503 -0.11409612675E+03  0.42886188040E+02 -0.48716394792E+02  0.21716223978E+03  0.17300000000E+03 0. -1.
<mgrwt>
<rscale>  2 0.21162739E+03</rscale>
<asrwt>0</asrwt>
<pdfrwt beam="1">  1       21 0.36269531E-01 0.21162739E+03</pdfrwt>
<pdfrwt beam="2">  1       21 0.31819954E-01 0.21162739E+03</pdfrwt>
<totfact> 0.69039216E+04</totfact>
</mgrwt>
</event>
<event>
 4    2  0.4086940E+000  0.2018159E+03  0.7546771E-02  0.1148216E+00
         21   -1    0    0  503  502  0.00000000000E+00  0.00000000000E+00  0.14173280125E+03  0.14173280125E+03  0.00000000000E+00 0.  1.
         21   -1    0    0  501  503 -0.00000000000E+00 -0.00000000000E+00 -0.10161618192E+04  0.10161618192E+04  0.00000000000E+00 0. -1.
          6    1    1    2  501    0  0.65512444079E+02  0.80677055429E+02 -0.92751184386E+03  0.94921435309E+03  0.17300000000E+03 0. -1.
         -6    1    1    2    0  502 -0.65512444079E+02 -0.80677055429E+02  0.53082825873E+02  0.20868026741E+03  0.17300000000E+03 0.  1.
<mgrwt>
<rscale>  2 0.20181593E+03</rscale>
<asrwt>0</asrwt>
<pdfrwt beam="1">  1       21 0.21805046E-01 0.20181593E+03</pdfrwt>
<pdfrwt beam="2">  1       21 0.15633259E+00 0.20181593E+03</pdfrwt>
<totfact> 0.52178611E+03</totfact>
</mgrwt>
</event>
<event>
 4    2  0.4086940E+000  0.1780684E+03  0.7546771E-02  0.1169686E+00
         21   -1    0    0  503  502  0.00000000000E+00  0.00000000000E+00  0.11374918029E+03  0.11374918029E+03  0.00000000000E+00 0. -1.
         21   -1    0    0  501  503 -0.00000000000E+00 -0.00000000000E+00 -0.29753515125E+03  0.29753515125E+03  0.00000000000E+00 0. -1.
          6    1    1    2  501    0  0.11904658648E+02  0.40467704449E+02 -0.40230902823E+02  0.18255651602E+03  0.17300000000E+03 0. -1.
         -6    1    1    2    0  502 -0.11904658648E+02 -0.40467704449E+02 -0.14355506813E+03  0.22872781551E+03  0.17300000000E+03 0. -1.
<mgrwt>
<rscale>  2 0.17806840E+03</rscale>
<asrwt>0</asrwt>
<pdfrwt beam="1">  1       21 0.17499874E-01 0.17806840E+03</pdfrwt>
<pdfrwt beam="2">  1       21 0.45774639E-01 0.17806840E+03</pdfrwt>
<totfact> 0.13598279E+05</totfact>
</mgrwt>
</event>
<event>
 4    2  0.4086940E+000  0.2905509E+03  0.7546771E-02  0.1090062E+00
         21   -1    0    0  501  502  0.00000000000E+00  0.00000000000E+00  0.14285766793E+04  0.14285766793E+04  0.00000000000E+00 0. -1.
         21   -1    0    0  502  503 -0.00000000000E+00 -0.00000000000E+00 -0.59120797590E+02  0.59120797590E+02  0.00000000000E+00 0.  1.
          6    1    1    2  501    0  0.16296222103E+03 -0.16713506976E+03  0.70066625463E+03  0.75852028147E+03  0.17300000000E+03 0. -1.
         -6    1    1    2    0  503 -0.16296222103E+03  0.16713506976E+03  0.66878962708E+03  0.72917719542E+03  0.17300000000E+03 0. -1.
<mgrwt>
<rscale>  2 0.29055089E+03</rscale>
<asrwt>0</asrwt>
<pdfrwt beam="1">  1       21 0.21978100E+00 0.29055089E+03</pdfrwt>
<pdfrwt beam="2">  1       21 0.90955084E-02 0.29055089E+03</pdfrwt>
<totfact> 0.90015982E+03</totfact>
</mgrwt>
</event>
<event>
 4    2  0.4086940E+000  0.1730076E+03  0.7546771E-02  0.1174747E+00
         21   -1    0    0  501  502  0.00000000000E+00  0.00000000000E+00  0.35501712783E+03  0.35501712783E+03  0.00000000000E+00 0. -1.
         21   -1    0    0  502  503 -0.00000000000E+00 -0.00000000000E+00 -0.14572378154E+03  0.14572378154E+03  0.00000000000E+00 0. -1.
          6    1    1    2  501    0 -0.57428283712E-03 -0.16179056778E+01  0.26718266688E+03  0.31830519176E+03  0.17300000000E+03 0. -1.
         -6    1    1    2    0  503  0.57428283712E-03  0.16179056778E+01 -0.57889320589E+02  0.18243571760E+03  0.17300000000E+03 0. -1.
<mgrwt>
<rscale>  2 0.17300757E+03</rscale>
<asrwt>0</asrwt>
<pdfrwt beam="1">  1       21 0.54618019E-01 0.17300757E+03</pdfrwt>
<pdfrwt beam="2">  1       21 0.22419043E-01 0.17300757E+03</pdfrwt>
<totfact> 0.59497775E+04</totfact>
</mgrwt>
</event>
<event>
 4    2  0.4086940E+000  0.1820731E+03  0.7546771E-02  0.1165812E+00
         21   -1    0    0  503  502  0.00000000000E+00  0.00000000000E+00  0.46292402713E+03  0.46292402713E+03  0.00000000000E+00 0. -1.
         21   -1    0    0  501  503 -0.00000000000E+00 -0.00000000000E+00 -0.75068657589E+02  0.75068657589E+02  0.00000000000E+00 0.  1.
          6    1    1    2  501    0  0.35618334040E+02  0.44192241317E+02  0.13619984190E+03  0.22737857605E+03  0.17300000000E+03 0.  1.
         -6    1    1    2    0  502 -0.35618334040E+02 -0.44192241317E+02  0.25165552765E+03  0.31061410868E+03  0.17300000000E+03 0. -1.
<mgrwt>
<rscale>  2 0.18207312E+03</rscale>
<asrwt>0</asrwt>
<pdfrwt beam="1">  1       21 0.71219080E-01 0.18207312E+03</pdfrwt>
<pdfrwt beam="2">  1       21 0.11549024E-01 0.18207312E+03</pdfrwt>
<totfact> 0.11252099E+05</totfact>
</mgrwt>
</event>
<event>
 4    2  0.4086940E+000  0.2835871E+03  0.7546771E-02  0.1093746E+00
         21   -1    0    0  501  502  0.00000000000E+00  0.00000000000E+00  0.12739924552E+03  0.12739924552E+03  0.00000000000E+00 0.  1.
         21   -1    0    0  502  503 -0.00000000000E+00 -0.00000000000E+00 -0.63578421306E+03  0.63578421306E+03  0.00000000000E+00 0. -1.
          6    1    1    2  501    0  0.11212945461E+03  0.19472962489E+03 -0.22199153751E+03  0.36014147793E+03  0.17300000000E+03 0.  1.
         -6    1    1    2    0  503 -0.11212945461E+03 -0.19472962489E+03 -0.28639343003E+03  0.40304198065E+03  0.17300000000E+03 0. -1.
<mgrwt>
<rscale>  2 0.28358710E+03</rscale>
<asrwt>0</asrwt>
<pdfrwt beam="1">  1       21 0.19599884E-01 0.28358710E+03</pdfrwt>
<pdfrwt beam="2">  1       21 0.97812955E-01 0.28358710E+03</pdfrwt>
<totfact> 0.19764680E+04</totfact>
</mgrwt>
</event>
<event>
 4    2  0.4086940E+000  0.2157970E+03  0.7546771E-02  0.1137056E+00
         21   -1    0    0  503  502  0.00000000000E+00  0.00000000000E+00  0.57913000067E+03  0.57913000067E+03  0.00000000000E+00 0.  1.
         21   -1    0    0  501  503 -0.00000000000E+00 -0.00000000000E+00 -0.25820745400E+03  0.25820745400E+03  0.00000000000E+00 0.  1.
          6    1    1    2  501    0  0.12887016693E+03  0.56419814973E+01 -0.18695313899E+03  0.28551677369E+03  0.17300000000E+03 0.  1.
         -6    1    1    2    0  502 -0.12887016693E+03 -0.56419814973E+01  0.50787568565E+03  0.55182068098E+03  0.17300000000E+03 0.  1.
<mgrwt>
<rscale>  2 0.21579702E+03</rscale>
<asrwt>0</asrwt>
<pdfrwt beam="1">  1       21 0.89096923E-01 0.21579702E+03</pdfrwt>
<pdfrwt beam="2">  1       21 0.39724224E-01 0.21579702E+03</pdfrwt>
<totfact> 0.64580327E+03</totfact>
</mgrwt>
</event>
<event>
 4    2  0.4086940E+000  0.2594822E+03  0.7546771E-02  0.1107455E+00
         21   -1    0    0  501  502  0.00000000000E+00  0.00000000000E+00  0.27278405284E+02  0.27278405284E+02  0.00000000000E+00 0.  1.
         21   -1    0    0  502  503 -0.00000000000E+00 -0.00000000000E+00 -0.25271118001E+04  0.25271118001E+04  0.00000000000E+00 0. -1.
          6    1    1    2  501    0 -0.12728944486E+03 -0.14560025021E+03 -0.10550617770E+04  0.10865019047E+04  0.17300000000E+03 0.  1.
         -6    1    1    2    0  503  0.12728944486E+03  0.14560025021E+03 -0.14447716178E+04  0.14678883007E+04  0.17300000000E+03 0. -1.
<mgrwt>
<rscale>  2 0.25948225E+03</rscale>
<asrwt>0</asrwt>
<pdfrwt beam="1">  1       21 0.41966775E-02 0.25948225E+03</pdfrwt>
<pdfrwt beam="2">  1       21 0.38878645E+00 0.25948225E+03</pdfrwt>
<totfact> 0.34127127E+03</totfact>
</mgrwt>
</event>
<event>
 4    2  0.4086940E+000  0.1751701E+03  0.7546771E-02  0.1172561E+00
         21   -1    0    0  501  502  0.00000000000E+00  0.00000000000E+00  0.75739714524E+02  0.75739714524E+02  0.00000000000E+00 0. -1.
         21   -1    0    0  502  503 -0.00000000000E+00 -0.00000000000E+00 -0.89290408671E+03  0.89290408671E+03  0.00000000000E+00 0. -1.
          6    1    1    2  501    0 -0.26460986803E+02 -0.74429511786E+01 -0.50617505232E+02  0.18233681247E+03  0.17300000000E+03 0. -1.
         -6    1    1    2    0  503  0.26460986803E+02  0.74429511786E+01 -0.76654686695E+03  0.78630698876E+03  0.17300000000E+03 0. -1.
<mgrwt>
<rscale>  2 0.17517015E+03</rscale>
<asrwt>0</asrwt>
<pdfrwt beam="1">  1       21 0.11652263E-01 0.17517015E+03</pdfrwt>
<pdfrwt beam="2">  1       21 0.13736986E+00 0.17517015E+03</pdfrwt>
<totfact> 0.23503764E+04</totfact>
</mgrwt>
</event>
<event>
 4    2  0.4086940E+000  0.1822848E+03  0.7546771E-02  0.1165610E+00
         21   -1    0    0  501  502  0.00000000000E+00  0.00000000000E+00  0.11138796787E+03  0.11138796787E+03  0.00000000000E+00 0.  1.
         21   -1    0    0  502  503 -0.00000000000E+00 -0.00000000000E+00 -0.68109708066E+03  0.68109708066E+03  0.00000000000E+00 0.  1.
          6    1    1    2  501    0  0.57271036989E+02 -0.43341827827E+01  0.12200660205E+02  0.18269267344E+03  0.17300000000E+03 0. -1.
         -6    1    1    2    0  503 -0.57271036989E+02  0.43341827827E+01 -0.58190977300E+03  0.60979237510E+03  0.17300000000E+03 0. -1.
<mgrwt>
<rscale>  2 0.18228482E+03</rscale>
<asrwt>0</asrwt>
<pdfrwt beam="1">  1       21 0.17136610E-01 0.18228482E+03</pdfrwt>
<pdfrwt beam="2">  1       21 0.10478417E+00 0.18228482E+03</pdfrwt>
<totfact> 0.22712677E+04</totfact>
</mgrwt>
</event>
<event>
 4    2  0.4086940E+000  0.2644391E+03  0.7546771E-02  0.1104505E+00
         21   -1    0    0  503  502  0.00000000000E+00  0.00000000000E+00  0.15160221358E+03  0.15160221358E+03  0.00000000000E+00 0.  1.
         21   -1    0    0  501  503 -0.00000000000E+00 -0.00000000000E+00 -0.54366901619E+03  0.54366901619E+03  0.00000000000E+00 0.  1.
          6    1    1    2  501    0 -0.19909502530E+03 -0.18978661836E+02 -0.33137916121E+03  0.42395774222E+03  0.17300000000E+03 0.  1.
         -6    1    1    2    0  502  0.19909502530E+03  0.18978661836E+02 -0.60687641391E+02  0.27131348754E+03  0.17300000000E+03 0.  1.
<mgrwt>
<rscale>  2 0.26443906E+03</rscale>
<asrwt>0</asrwt>
<pdfrwt beam="1">  1       21 0.23323417E-01 0.26443906E+03</pdfrwt>
<pdfrwt beam="2">  1       21 0.83641388E-01 0.26443906E+03</pdfrwt>
<totfact> 0.20679967E+04</totfact>
</mgrwt>
</event>
<event>
 4    2  0.4086940E+000  0.1846148E+03  0.7546771E-02  0.1163410E+00
         21   -1    0    0  501  502  0.00000000000E+00  0.00000000000E+00  0.27257222992E+03  0.27257222992E+03  0.00000000000E+00 0. -1.
         21   -1    0    0  502  503 -0.00000000000E+00 -0.00000000000E+00 -0.18206081062E+03  0.18206081062E+03  0.00000000000E+00 0. -1.
          6    1    1    2  501    0 -0.58429494620E+02  0.27196092036E+02  0.17247021677E+03  0.25264324439E+03  0.17300000000E+03 0. -1.
         -6    1    1    2    0  503  0.58429494620E+02 -0.27196092036E+02 -0.81958797469E+02  0.20198979614E+03  0.17300000000E+03 0. -1.
<mgrwt>
<rscale>  2 0.18461482E+03</rscale>
<asrwt>0</asrwt>
<pdfrwt beam="1">  1       21 0.41934189E-01 0.18461482E+03</pdfrwt>
<pdfrwt beam="2">  1       21 0.28009356E-01 0.18461482E+03</pdfrwt>
<totfact> 0.66875112E+04</totfact>
</mgrwt>
</event>
<event>
 4    2  0.4086940E+000  0.2148826E+03  0.7546771E-02  0.1137757E+00
         21   -1    0    0  503  502  0.00000000000E+00  0.00000000000E+00  0.10015800954E+04  0.10015800954E+04  0.00000000000E+00 0. -1.
         21   -1    0    0  501  503 -0.00000000000E+00 -0.00000000000E+00 -0.36333413782E+03  0.36333413782E+03  0.00000000000E+00 0. -1.
          6    1    1    2  501    0 -0.11643726578E+03  0.51844965198E+02 -0.31856916138E+03  0.38426663641E+03  0.17300000000E+03 0. -1.
         -6    1    1    2    0  502  0.11643726578E+03 -0.51844965198E+02  0.95681511894E+03  0.98064759680E+03  0.17300000000E+03 0. -1.
<mgrwt>
<rscale>  2 0.21488261E+03</rscale>
<asrwt>0</asrwt>
<pdfrwt beam="1">  1       21 0.15408924E+00 0.21488261E+03</pdfrwt>
<pdfrwt beam="2">  1       21 0.55897560E-01 0.21488261E+03</pdfrwt>
<totfact> 0.81990933E+02</totfact>
</mgrwt>
</event>
<event>
 4    2  0.4086940E+000  0.1861943E+03  0.7546771E-02  0.1161939E+00
         21   -1    0    0  503  502  0.00000000000E+00  0.00000000000E+00  0.22468732596E+03  0.22468732596E+03  0.00000000000E+00 0.  1.
         21   -1    0    0  501  503 -0.00000000000E+00 -0.00000000000E+00 -0.15575742790E+03  0.15575742790E+03  0.00000000000E+00 0.  1.
          6    1    1    2  501    0  0.27174896798E+02 -0.63252105194E+02  0.16037713674E+02  0.18688368599E+03  0.17300000000E+03 0. -1.
         -6    1    1    2    0  502 -0.27174896798E+02  0.63252105194E+02  0.52892184389E+02  0.19356106787E+03  0.17300000000E+03 0. -1.
<mgrwt>
<rscale>  2 0.18619426E+03</rscale>
<asrwt>0</asrwt>
<pdfrwt beam="1">  1       21 0.34567281E-01 0.18619426E+03</pdfrwt>
<pdfrwt beam="2">  1       21 0.23962681E-01 0.18619426E+03</pdfrwt>
<totfact> 0.13273371E+05</totfact>
</mgrwt>
</event>
<event>
 4    2  0.4086940E+000  0.2825836E+03  0.7546771E-02  0.1094286E+00
         21   -1    0    0  503  502  0.00000000000E+00  0.00000000000E+00  0.17007915756E+03  0.17007915756E+03  0.00000000000E+00 0.  1.
         21   -1    0    0  501  503 -0.00000000000E+00 -0.00000000000E+00 -0.13854028485E+04  0.13854028485E+04  0.00000000000E+00 0. -1.
          6    1    1    2  501    0  0.20428873885E+03 -0.90501881255E+02 -0.12400297649E+04  0.12718204658E+04  0.17300000000E+03 0. -1.
         -6    1    1    2    0  502 -0.20428873885E+03  0.90501881255E+02  0.24706073979E+02  0.28366154026E+03  0.17300000000E+03 0.  1.
<mgrwt>
<rscale>  2 0.28258358E+03</rscale>
<asrwt>0</asrwt>
<pdfrwt beam="1">  1       21 0.26166024E-01 0.28258358E+03</pdfrwt>
<pdfrwt beam="2">  1       21 0.21313890E+00 0.28258358E+03</pdfrwt>
<totfact> 0.14174457E+03</totfact>
</mgrwt>
</event>
<event>
 4    2  0.4086940E+000  0.1773852E+03  0.7546771E-02  0.1170358E+00
         21   -1    0    0  503  502  0.00000000000E+00  0.00000000000E+00  0.44944643735E+03  0.44944643735E+03  0.00000000000E+00 0. -1.
         21   -1    0    0  501  503 -0.00000000000E+00 -0.00000000000E+00 -0.12609356206E+03  0.12609356206E+03  0.00000000000E+00 0.  1.
          6    1    1    2  501    0 -0.39131196833E+02 -0.22956847615E+01 -0.30242922479E+02  0.17994486682E+03  0.17300000000E+03 0.  1.
         -6    1    1    2    0  502  0.39131196833E+02  0.22956847615E+01  0.35359579776E+03  0.39559513259E+03  0.17300000000E+03 0. -1.
<mgrwt>
<rscale>  2 0.17738523E+03</rscale>
<asrwt>0</asrwt>
<pdfrwt beam="1">  1       21 0.69145605E-01 0.17738523E+03</pdfrwt>
<pdfrwt beam="2">  1       21 0.19399010E-01 0.17738523E+03</pdfrwt>
<totfact> 0.46865618E+04</totfact>
</mgrwt>
</event>
<event>
 4    2  0.4086940E+000  0.1979342E+03  0.7546771E-02  0.1151494E+00
         21   -1    0    0  503  502  0.00000000000E+00  0.00000000000E+00  0.56281629337E+03  0.56281629337E+03  0.00000000000E+00 0. -1.
         21   -1    0    0  501  503 -0.00000000000E+00 -0.00000000000E+00 -0.71534813014E+02  0.71534813014E+02  0.00000000000E+00 0.  1.
          6    1    1    2  501    0 -0.71937576729E+02 -0.63827283492E+02  0.29766143395E+03  0.35746365735E+03  0.17300000000E+03 0.  1.
         -6    1    1    2    0  502  0.71937576729E+02  0.63827283492E+02  0.19362004641E+03  0.27688744904E+03  0.17300000000E+03 0.  1.
<mgrwt>
<rscale>  2 0.19793417E+03</rscale>
<asrwt>0</asrwt>
<pdfrwt beam="1">  1       21 0.86587119E-01 0.19793417E+03</pdfrwt>
<pdfrwt beam="2">  1       21 0.11005356E-01 0.19793417E+03</pdfrwt>
<totfact> 0.78456793E+04</totfact>
</mgrwt>
</event>
<event>
 4    2  0.4086940E+000  0.2310267E+03  0.7546771E-02  0.1125919E+00
         21   -1    0    0  503  502  0.00000000000E+00  0.00000000000E+00  0.22108879782E+03  0.22108879782E+03  0.00000000000E+00 0.  1.
         21   -1    0    0  501  503 -0.00000000000E+00 -0.00000000000E+00 -0.31124755224E+03  0.31124755224E+03  0.00000000000E+00 0.  1.
          6    1    1    2  501    0  0.15222260458E+03  0.16511229895E+02  0.80999840387E+02  0.24481486107E+03  0.17300000000E+03 0.  1.
         -6    1    1    2    0  502 -0.15222260458E+03 -0.16511229895E+02 -0.17115859481E+03  0.28752148900E+03  0.17300000000E+03 0.  1.
<mgrwt>
<rscale>  2 0.23102671E+03</rscale>
<asrwt>0</asrwt>
<pdfrwt beam="1">  1       21 0.34013661E-01 0.23102671E+03</pdfrwt>
<pdfrwt beam="2">  1       21 0.47884239E-01 0.23102671E+03</pdfrwt>
<totfact> 0.34047800E+04</totfact>
</mgrwt>
</event>
<event>
 4    2  0.4086940E+000  0.2129860E+03  0.7546771E-02  0.1139223E+00
         21   -1    0    0  501  502  0.00000000000E+00  0.00000000000E+00  0.90814580689E+03  0.90814580689E+03  0.00000000000E+00 0.  1.
         21   -1    0    0  502  503 -0.00000000000E+00 -0.00000000000E+00 -0.66869667474E+02  0.66869667474E+02  0.00000000000E+00 0.  1.
          6    1    1    2  501    0  0.20169688916E+02 -0.12258554400E+03  0.66585282860E+03  0.69908727732E+03  0.17300000000E+03 0.  1.
         -6    1    1    2    0  503 -0.20169688916E+02  0.12258554400E+03  0.17542331081E+03  0.27592819705E+03  0.17300000000E+03 0.  1.
<mgrwt>
<rscale>  2 0.21298599E+03</rscale>
<asrwt>0</asrwt>
<pdfrwt beam="1">  1       21 0.13971473E+00 0.21298599E+03</pdfrwt>
<pdfrwt beam="2">  1       21 0.10287642E-01 0.21298599E+03</pdfrwt>
<totfact> 0.27418063E+04</totfact>
</mgrwt>
</event>
<event>
 4    2  0.4086940E+000  0.2252626E+03  0.7546771E-02  0.1130019E+00
         21   -1    0    0  501  502  0.00000000000E+00  0.00000000000E+00  0.28340119506E+03  0.28340119506E+03  0.00000000000E+00 0. -1.
         21   -1    0    0  502  503 -0.00000000000E+00 -0.00000000000E+00 -0.19599185632E+03  0.19599185632E+03  0.00000000000E+00 0. -1.
          6    1    1    2  501    0  0.65815726110E+02  0.12838434334E+03  0.11417579651E+03  0.25254576204E+03  0.17300000000E+03 0. -1.
         -6    1    1    2    0  503 -0.65815726110E+02 -0.12838434334E+03 -0.26766457778E+02  0.22684728934E+03  0.17300000000E+03 0. -1.
<mgrwt>
<rscale>  2 0.22526262E+03</rscale>
<asrwt>0</asrwt>
<pdfrwt beam="1">  1       21 0.43600184E-01 0.22526262E+03</pdfrwt>
<pdfrwt beam="2">  1       21 0.30152593E-01 0.22526262E+03</pdfrwt>
<totfact> 0.52545265E+04</totfact>
</mgrwt>
</event>
<event>
 4    2  0.4086940E+000  0.2144653E+03  0.7546771E-02  0.1138078E+00
         21   -1    0    0  503  502  0.00000000000E+00  0.00000000000E+00  0.25212701838E+03  0.25212701838E+03  0.00000000000E+00 0. -1.
         21   -1    0    0  501  503 -0.00000000000E+00 -0.00000000000E+00 -0.18489559801E+03  0.18489559801E+03  0.00000000000E+00 0. -1.
          6    1    1    2  501    0 -0.46523221070E+02  0.11790662578E+03  0.83795096787E+01  0.21462897913E+03  0.17300000000E+03 0. -1.
         -6    1    1    2    0  502  0.46523221070E+02 -0.11790662578E+03  0.58851910693E+02  0.22239363726E+03  0.17300000000E+03 0. -1.
<mgrwt>
<rscale>  2 0.21446534E+03</rscale>
<asrwt>0</asrwt>
<pdfrwt beam="1">  1       21 0.38788772E-01 0.21446534E+03</pdfrwt>
<pdfrwt beam="2">  1       21 0.28445477E-01 0.21446534E+03</pdfrwt>
<totfact> 0.75023420E+04</totfact>
</mgrwt>
</event>
<event>
 4    2  0.4086940E+000  0.2368191E+03  0.7546771E-02  0.1121930E+00
         21   -1    0    0  503  502  0.00000000000E+00  0.00000000000E+00  0.62670734014E+03  0.62670734014E+03  0.00000000000E+00 0. -1.
         21   -1    0    0  501  503 -0.00000000000E+00 -0.00000000000E+00 -0.10716222691E+03  0.10716222691E+03  0.00000000000E+00 0. -1.
          6    1    1    2  501    0  0.58409125351E+02  0.15080671889E+03  0.11075813134E+03  0.26143958393E+03  0.17300000000E+03 0. -1.
         -6    1    1    2    0  502 -0.58409125351E+02 -0.15080671889E+03  0.40878698188E+03  0.47242998311E+03  0.17300000000E+03 0. -1.
<mgrwt>
<rscale>  2 0.23681911E+03</rscale>
<asrwt>0</asrwt>
<pdfrwt beam="1">  1       21 0.96416512E-01 0.23681911E+03</pdfrwt>
<pdfrwt beam="2">  1       21 0.16486497E-01 0.23681911E+03</pdfrwt>
<totfact> 0.28837696E+04</totfact>
</mgrwt>
</event>
<event>
 4    2  0.4086940E+000  0.1986783E+03  0.7546771E-02  0.1150859E+00
         21   -1    0    0  503  502  0.00000000000E+00  0.00000000000E+00  0.34567247437E+03  0.34567247437E+03  0.00000000000E+00 0. -1.
         21   -1    0    0  501  503 -0.00000000000E+00 -0.00000000000E+00 -0.12711973726E+03  0.12711973726E+03  0.00000000000E+00 0.  1.
          6    1    1    2  501    0 -0.74470814571E+02  0.63231101235E+02  0.18466276507E+03  0.27124419107E+03  0.17300000000E+03 0. -1.
         -6    1    1    2    0  502  0.74470814571E+02 -0.63231101235E+02  0.33889972046E+02  0.20154802056E+03  0.17300000000E+03 0.  1.
<mgrwt>
<rscale>  2 0.19867832E+03</rscale>
<asrwt>0</asrwt>
<pdfrwt beam="1">  1       21 0.53180380E-01 0.19867832E+03</pdfrwt>
<pdfrwt beam="2">  1       21 0.19556883E-01 0.19867832E+03</pdfrwt>
<totfact> 0.80388433E+04</totfact>
</mgrwt>
</event>
<event>
 4    2  0.4086940E+000  0.2706854E+03  0.7546771E-02  0.1100888E+00
         21   -1    0    0  501  502  0.00000000000E+00  0.00000000000E+00  0.22619154188E+03  0.22619154188E+03  0.00000000000E+00 0. -1.
         21   -1    0    0  502  503 -0.00000000000E+00 -0.00000000000E+00 -0.32665619090E+03  0.32665619090E+03  0.00000000000E+00 0.  1.
          6    1    1    2  501    0  0.20818496937E+03 -0.77011720469E+00 -0.24986735728E+02  0.27183618507E+03  0.17300000000E+03 0. -1.
         -6    1    1    2    0  503 -0.20818496937E+03  0.77011720469E+00 -0.75477913288E+02  0.28101154771E+03  0.17300000000E+03 0. -1.
<mgrwt>
<rscale>  2 0.27068538E+03</rscale>
<asrwt>0</asrwt>
<pdfrwt beam="1">  1       21 0.34798699E-01 0.27068538E+03</pdfrwt>
<pdfrwt beam="2">  1       21 0.50254799E-01 0.27068538E+03</pdfrwt>
<totfact> 0.28899974E+04</totfact>
</mgrwt>
</event>
<event>
 4    2  0.4086940E+000  0.1796755E+03  0.7546771E-02  0.1168117E+00
         21   -1    0    0  503  502  0.00000000000E+00  0.00000000000E+00  0.20551334436E+03  0.20551334436E+03  0.00000000000E+00 0.  1.
         21   -1    0    0  501  503 -0.00000000000E+00 -0.00000000000E+00 -0.17231266833E+03  0.17231266833E+03  0.00000000000E+00 0.  1.
          6    1    1    2  501    0  0.44668072882E+02  0.18948609368E+02 -0.39556739398E+02  0.18397831982E+03  0.17300000000E+03 0.  1.
         -6    1    1    2    0  502 -0.44668072882E+02 -0.18948609368E+02  0.72757415426E+02  0.19384769287E+03  0.17300000000E+03 0.  1.
<mgrwt>
<rscale>  2 0.17967550E+03</rscale>
<asrwt>0</asrwt>
<pdfrwt beam="1">  1       21 0.31617437E-01 0.17967550E+03</pdfrwt>
<pdfrwt beam="2">  1       21 0.26509641E-01 0.17967550E+03</pdfrwt>
<totfact> 0.13076423E+05</totfact>
</mgrwt>
</event>
<event>
 4    2  0.4086940E+000  0.1805637E+03  0.7546771E-02  0.1167259E+00
         21   -1    0    0  503  502  0.00000000000E+00  0.00000000000E+00  0.16265265668E+04  0.16265265668E+04  0.00000000000E+00 0.  1.
         21   -1    0    0  501  503 -0.00000000000E+00 -0.00000000000E+00 -0.22660327343E+02  0.22660327343E+02  0.00000000000E+00 0.  1.
          6    1    1    2  501    0 -0.50046723965E+02 -0.13021696801E+02  0.52178054571E+03  0.55213963547E+03  0.17300000000E+03 0.  1.
         -6    1    1    2    0  502  0.50046723965E+02  0.13021696801E+02  0.10820856938E+04  0.10970472587E+04  0.17300000000E+03 0.  1.
<mgrwt>
<rscale>  2 0.18056367E+03</rscale>
<asrwt>0</asrwt>
<pdfrwt beam="1">  1       21 0.25023476E+00 0.18056367E+03</pdfrwt>
<pdfrwt beam="2">  1       21 0.34862055E-02 0.18056367E+03</pdfrwt>
<totfact> 0.33012943E+04</totfact>
</mgrwt>
</event>
<event>
 4    2  0.4086940E+000  0.1752987E+03  0.7546771E-02  0.1172432E+00
         21   -1    0    0  501  502  0.00000000000E+00  0.00000000000E+00  0.49551175291E+03  0.49551175291E+03  0.00000000000E+00 0.  1.
         21   -1    0    0  502  503 -0.00000000000E+00 -0.00000000000E+00 -0.22997483271E+03  0.22997483271E+03  0.00000000000E+00 0.  1.
          6    1    1    2  501    0 -0.26141767555E+01  0.28174551572E+02  0.44276775422E+03  0.47620680744E+03  0.17300000000E+03 0.  1.
         -6    1    1    2    0  503  0.26141767555E+01 -0.28174551572E+02 -0.17723083403E+03  0.24927977817E+03  0.17300000000E+03 0.  1.
<mgrwt>
<rscale>  2 0.17529871E+03</rscale>
<asrwt>0</asrwt>
<pdfrwt beam="1">  1       21 0.76232577E-01 0.17529871E+03</pdfrwt>
<pdfrwt beam="2">  1       21 0.35380744E-01 0.17529871E+03</pdfrwt>
<totfact> 0.11947709E+04</totfact>
</mgrwt>
</event>
<event>
 4    2  0.4086940E+000  0.2662569E+03  0.7546771E-02  0.1103441E+00
         21   -1    0    0  503  502  0.00000000000E+00  0.00000000000E+00  0.14008900611E+04  0.14008900611E+04  0.00000000000E+00 0.  1.
         21   -1    0    0  501  503 -0.00000000000E+00 -0.00000000000E+00 -0.52717903258E+02  0.52717903258E+02  0.00000000000E+00 0. -1.
          6    1    1    2  501    0  0.10260143501E+03  0.17446115925E+03  0.52859846558E+03  0.59186914801E+03  0.17300000000E+03 0.  1.
         -6    1    1    2    0  502 -0.10260143501E+03 -0.17446115925E+03  0.81957369228E+03  0.86173881637E+03  0.17300000000E+03 0. -1.
<mgrwt>
<rscale>  2 0.26625693E+03</rscale>
<asrwt>0</asrwt>
<pdfrwt beam="1">  1       21 0.21552152E+00 0.26625693E+03</pdfrwt>
<pdfrwt beam="2">  1       21 0.81104477E-02 0.26625693E+03</pdfrwt>
<totfact> 0.11894734E+04</totfact>
</mgrwt>
</event>
<event>
 4    2  0.4086940E+000  0.1912369E+03  0.7546771E-02  0.1157350E+00
         21   -1    0    0  503  502  0.00000000000E+00  0.00000000000E+00  0.31101323169E+03  0.31101323169E+03  0.00000000000E+00 0. -1.
         21   -1    0    0  501  503 -0.00000000000E+00 -0.00000000000E+00 -0.14182316125E+03  0.14182316125E+03  0.00000000000E+00 0. -1.
          6    1    1    2  501    0 -0.69657157830E+02  0.42313539251E+02 -0.90008849855E+01  0.19144861235E+03  0.17300000000E+03 0.  1.
         -6    1    1    2    0  502  0.69657157830E+02 -0.42313539251E+02  0.17819095543E+03  0.26138778058E+03  0.17300000000E+03 0.  1.
<mgrwt>
<rscale>  2 0.19123691E+03</rscale>
<asrwt>0</asrwt>
<pdfrwt beam="1">  1       21 0.47848189E-01 0.19123691E+03</pdfrwt>
<pdfrwt beam="2">  1       21 0.21818948E-01 0.19123691E+03</pdfrwt>
<totfact> 0.81909779E+04</totfact>
</mgrwt>
</event>
<event>
 4    2  0.4086940E+000  0.1756971E+03  0.7546771E-02  0.1172034E+00
         21   -1    0    0  501  502  0.00000000000E+00  0.00000000000E+00  0.15599804382E+03  0.15599804382E+03  0.00000000000E+00 0. -1.
         21   -1    0    0  502  503 -0.00000000000E+00 -0.00000000000E+00 -0.23339947195E+03  0.23339947195E+03  0.00000000000E+00 0. -1.
          6    1    1    2  501    0  0.78681830630E+01  0.29640324995E+02  0.37248692104E+02  0.17960212202E+03  0.17300000000E+03 0. -1.
         -6    1    1    2    0  503 -0.78681830630E+01 -0.29640324995E+02 -0.11465012023E+03  0.20979539375E+03  0.17300000000E+03 0. -1.
<mgrwt>
<rscale>  2 0.17569706E+03</rscale>
<asrwt>0</asrwt>
<pdfrwt beam="1">  1       21 0.23999699E-01 0.17569706E+03</pdfrwt>
<pdfrwt beam="2">  1       21 0.35907611E-01 0.17569706E+03</pdfrwt>
<totfact> 0.12317538E+05</totfact>
</mgrwt>
</event>
<event>
 4    2  0.4086940E+000  0.2589191E+03  0.7546771E-02  0.1107794E+00
         21   -1    0    0  501  502  0.00000000000E+00  0.00000000000E+00  0.39410261766E+03  0.39410261766E+03  0.00000000000E+00 0. -1.
         21   -1    0    0  502  503 -0.00000000000E+00 -0.00000000000E+00 -0.17040610738E+03  0.17040610738E+03  0.00000000000E+00 0. -1.
          6    1    1    2  501    0 -0.19132782796E+03 -0.22444735641E+02  0.99997412389E+02  0.27755825766E+03  0.17300000000E+03 0. -1.
         -6    1    1    2    0  503  0.19132782796E+03  0.22444735641E+02  0.12369909789E+03  0.28695046738E+03  0.17300000000E+03 0. -1.
<mgrwt>
<rscale>  2 0.25891911E+03</rscale>
<asrwt>0</asrwt>
<pdfrwt beam="1">  1       21 0.60631172E-01 0.25891911E+03</pdfrwt>
<pdfrwt beam="2">  1       21 0.26216324E-01 0.25891911E+03</pdfrwt>
<totfact> 0.33943325E+04</totfact>
</mgrwt>
</event>
<event>
 4    2  0.4086940E+000  0.2022602E+03  0.7546771E-02  0.1147846E+00
         21   -1    0    0  503  502  0.00000000000E+00  0.00000000000E+00  0.10713146750E+03  0.10713146750E+03  0.00000000000E+00 0. -1.
         21   -1    0    0  501  503 -0.00000000000E+00 -0.00000000000E+00 -0.40776357266E+03  0.40776357266E+03  0.00000000000E+00 0. -1.
          6    1    1    2  501    0 -0.10367318954E+02 -0.10427229680E+03 -0.85427721798E+02  0.21956112778E+03  0.17300000000E+03 0. -1.
         -6    1    1    2    0  502  0.10367318954E+02  0.10427229680E+03 -0.21520438336E+03  0.29533391238E+03  0.17300000000E+03 0. -1.
<mgrwt>
<rscale>  2 0.20226021E+03</rscale>
<asrwt>0</asrwt>
<pdfrwt beam="1">  1       21 0.16481764E-01 0.20226021E+03</pdfrwt>
<pdfrwt beam="2">  1       21 0.62732857E-01 0.20226021E+03</pdfrwt>
<totfact> 0.77408722E+04</totfact>
</mgrwt>
</event>
<event>
 4    2  0.4086940E+000  0.2126297E+03  0.7546771E-02  0.1139500E+00
         21   -1    0    0  503  502  0.00000000000E+00  0.00000000000E+00  0.11609685877E+03  0.11609685877E+03  0.00000000000E+00 0.  1.
         21   -1    0    0  501  503 -0.00000000000E+00 -0.00000000000E+00 -0.62875390894E+03  0.62875390894E+03  0.00000000000E+00 0. -1.
          6    1    1    2  501    0 -0.11253024014E+03  0.51179545378E+02 -0.48609863042E+03  0.53056882618E+03  0.17300000000E+03 0. -1.
         -6    1    1    2    0  502  0.11253024014E+03 -0.51179545378E+02 -0.26558419743E+02  0.21428194154E+03  0.17300000000E+03 0.  1.
<mgrwt>
<rscale>  2 0.21262973E+03</rscale>
<asrwt>0</asrwt>
<pdfrwt beam="1">  1       21 0.17861055E-01 0.21262973E+03</pdfrwt>
<pdfrwt beam="2">  1       21 0.96731371E-01 0.21262973E+03</pdfrwt>
<totfact> 0.24995768E+04</totfact>
</mgrwt>
</event>
<event>
 4    2  0.4086940E+000  0.1778464E+03  0.7546771E-02  0.1169904E+00
         21   -1    0    0  501  502  0.00000000000E+00  0.00000000000E+00  0.48232918414E+03  0.48232918414E+03  0.00000000000E+00 0. -1.
         21   -1    0    0  502  503 -0.00000000000E+00 -0.00000000000E+00 -0.11513973988E+03  0.11513973988E+03  0.00000000000E+00 0.  1.
          6    1    1    2  501    0 -0.38479464162E+02  0.14821154952E+02  0.37959363998E+03  0.41919049048E+03  0.17300000000E+03 0. -1.
         -6    1    1    2    0  503  0.38479464162E+02 -0.14821154952E+02 -0.12404195721E+02  0.17827843355E+03  0.17300000000E+03 0.  1.
<mgrwt>
<rscale>  2 0.17784638E+03</rscale>
<asrwt>0</asrwt>
<pdfrwt beam="1">  1       21 0.74204489E-01 0.17784638E+03</pdfrwt>
<pdfrwt beam="2">  1       21 0.17713806E-01 0.17784638E+03</pdfrwt>
<totfact> 0.47429219E+04</totfact>
</mgrwt>
</event>
<event>
 4    2  0.4086940E+000  0.1921564E+03  0.7546771E-02  0.1156531E+00
         21   -1    0    0  503  502  0.00000000000E+00  0.00000000000E+00  0.10888192323E+03  0.10888192323E+03  0.00000000000E+00 0. -1.
         21   -1    0    0  501  503 -0.00000000000E+00 -0.00000000000E+00 -0.78325575840E+03  0.78325575840E+03  0.00000000000E+00 0.  1.
          6    1    1    2  501    0 -0.31896692651E+01  0.83575695065E+02 -0.67308522198E+03  0.69997699023E+03  0.17300000000E+03 0.  1.
         -6    1    1    2    0  502  0.31896692651E+01 -0.83575695065E+02 -0.12886131792E+01  0.19216069140E+03  0.17300000000E+03 0. -1.
<mgrwt>
<rscale>  2 0.19215637E+03</rscale>
<asrwt>0</asrwt>
<pdfrwt beam="1">  1       21 0.16751066E-01 0.19215637E+03</pdfrwt>
<pdfrwt beam="2">  1       21 0.12050088E+00 0.19215637E+03</pdfrwt>
<totfact> 0.16760230E+04</totfact>
</mgrwt>
</event>
<event>
 4    2  0.4086940E+000  0.1853748E+03  0.7546771E-02  0.1162700E+00
         21   -1    0    0  503  502  0.00000000000E+00  0.00000000000E+00  0.84886540222E+02  0.84886540222E+02  0.00000000000E+00 0.  1.
         21   -1    0    0  501  503 -0.00000000000E+00 -0.00000000000E+00 -0.43794874313E+03  0.43794874313E+03  0.00000000000E+00 0.  1.
          6    1    1    2  501    0  0.21217099694E+02  0.63123966868E+02 -0.24843017812E+03  0.30996992420E+03  0.17300000000E+03 0.  1.
         -6    1    1    2    0  502 -0.21217099694E+02 -0.63123966868E+02 -0.10463202479E+03  0.21286535915E+03  0.17300000000E+03 0.  1.
<mgrwt>
<rscale>  2 0.18537476E+03</rscale>
<asrwt>0</asrwt>
<pdfrwt beam="1">  1       21 0.13059468E-01 0.18537476E+03</pdfrwt>
<pdfrwt beam="2">  1       21 0.67376728E-01 0.18537476E+03</pdfrwt>
<totfact> 0.10187605E+05</totfact>
</mgrwt>
</event>
<event>
 4    2  0.4086940E+000  0.1841805E+03  0.7546771E-02  0.1163817E+00
         21   -1    0    0  501  502  0.00000000000E+00  0.00000000000E+00  0.67784445350E+02  0.67784445350E+02  0.00000000000E+00 0.  1.
         21   -1    0    0  502  503 -0.00000000000E+00 -0.00000000000E+00 -0.53371143583E+03  0.53371143583E+03  0.00000000000E+00 0. -1.
          6    1    1    2  501    0 -0.60416426966E+01  0.62904473720E+02 -0.30804692754E+03  0.35890860094E+03  0.17300000000E+03 0. -1.
         -6    1    1    2    0  503  0.60416426966E+01 -0.62904473720E+02 -0.15788006294E+03  0.24258728024E+03  0.17300000000E+03 0. -1.
<mgrwt>
<rscale>  2 0.18418055E+03</rscale>
<asrwt>0</asrwt>
<pdfrwt beam="1">  1       21 0.10428376E-01 0.18418055E+03</pdfrwt>
<pdfrwt beam="2">  1       21 0.82109451E-01 0.18418055E+03</pdfrwt>
<totfact> 0.98015867E+04</totfact>
</mgrwt>
</event>
<event>
 4    2  0.4086940E+000  0.1779531E+03  0.7546771E-02  0.1169799E+00
         21   -1    0    0  503  502  0.00000000000E+00  0.00000000000E+00  0.27675722902E+03  0.27675722902E+03  0.00000000000E+00 0. -1.
         21   -1    0    0  501  503 -0.00000000000E+00 -0.00000000000E+00 -0.12414190542E+03  0.12414190542E+03  0.00000000000E+00 0.  1.
          6    1    1    2  501    0 -0.18947913294E+02 -0.37138908600E+02  0.20220910384E+02  0.17909831704E+03  0.17300000000E+03 0.  1.
         -6    1    1    2    0  502  0.18947913294E+02  0.37138908600E+02  0.13239441322E+03  0.22180081740E+03  0.17300000000E+03 0. -1.
<mgrwt>
<rscale>  2 0.17795315E+03</rscale>
<asrwt>0</asrwt>
<pdfrwt beam="1">  1       21 0.42578035E-01 0.17795315E+03</pdfrwt>
<pdfrwt beam="2">  1       21 0.19098755E-01 0.17795315E+03</pdfrwt>
<totfact> 0.13414930E+05</totfact>
</mgrwt>
</event>
<event>
 4    2  0.4086940E+000  0.1762859E+03  0.7546771E-02  0.1171447E+00
         21   -1    0    0  501  502  0.00000000000E+00  0.00000000000E+00  0.61250360277E+03  0.61250360277E+03  0.00000000000E+00 0. -1.
         21   -1    0    0  502  503 -0.00000000000E+00 -0.00000000000E+00 -0.78330537804E+02  0.78330537804E+02  0.00000000000E+00 0. -1.
          6    1    1    2  501    0  0.32867333845E+02  0.82125662876E+01  0.47209910177E+03  0.50393875597E+03  0.17300000000E+03 0. -1.
         -6    1    1    2    0  503 -0.32867333845E+02 -0.82125662876E+01  0.62073963200E+02  0.18689538460E+03  0.17300000000E+03 0. -1.
<mgrwt>
<rscale>  2 0.17628587E+03</rscale>
<asrwt>0</asrwt>
<pdfrwt beam="1">  1       21 0.94231321E-01 0.17628587E+03</pdfrwt>
<pdfrwt beam="2">  1       21 0.12050852E-01 0.17628587E+03</pdfrwt>
<totfact> 0.55423193E+04</totfact>
</mgrwt>
</event>
<event>
 4    2  0.4086940E+000  0.2002099E+03  0.7546771E-02  0.1149562E+00
         21   -1    0    0  503  502  0.00000000000E+00  0.00000000000E+00  0.59693083864E+03  0.59693083864E+03  0.00000000000E+00 0.  1.
         21   -1    0    0  501  503 -0.00000000000E+00 -0.00000000000E+00 -0.74604392762E+02  0.74604392762E+02  0.00000000000E+00 0.  1.
          6    1    1    2  501    0  0.71184957883E+02 -0.71328214193E+02  0.15502848726E+03  0.25321501581E+03  0.17300000000E+03 0.  1.
         -6    1    1    2    0  502 -0.71184957883E+02  0.71328214193E+02  0.36729795862E+03  0.41832021559E+03  0.17300000000E+03 0.  1.
<mgrwt>
<rscale>  2 0.20020992E+03</rscale>
<asrwt>0</asrwt>
<pdfrwt beam="1">  1       21 0.91835511E-01 0.20020992E+03</pdfrwt>
<pdfrwt beam="2">  1       21 0.11477599E-01 0.20020992E+03</pdfrwt>
<totfact> 0.63467582E+04</totfact>
</mgrwt>
</event>
<event>
 4    2  0.4086940E+000  0.1750577E+03  0.7546771E-02  0.1172674E+00
         21   -1    0    0  501  502  0.00000000000E+00  0.00000000000E+00  0.55525579144E+03  0.55525579144E+03  0.00000000000E+00 0.  1.
         21   -1    0    0  502  503 -0.00000000000E+00 -0.00000000000E+00 -0.14313953811E+03  0.14313953811E+03  0.00000000000E+00 0.  1.
          6    1    1    2  501    0 -0.15999017247E+02 -0.21452984633E+02  0.47977747436E+03  0.51071677474E+03  0.17300000000E+03 0.  1.
         -6    1    1    2    0  503  0.15999017247E+02  0.21452984633E+02 -0.67661221030E+02  0.18767855481E+03  0.17300000000E+03 0.  1.
<mgrwt>
<rscale>  2 0.17505770E+03</rscale>
<asrwt>0</asrwt>
<pdfrwt beam="1">  1       21 0.85423967E-01 0.17505770E+03</pdfrwt>
<pdfrwt beam="2">  1       21 0.22021468E-01 0.17505770E+03</pdfrwt>
<totfact> 0.23066825E+04</totfact>
</mgrwt>
</event>
<event>
 4    2  0.4086940E+000  0.1786409E+03  0.7546771E-02  0.1169125E+00
         21   -1    0    0  501  502  0.00000000000E+00  0.00000000000E+00  0.23001398828E+02  0.23001398828E+02  0.00000000000E+00 0.  1.
         21   -1    0    0  502  503 -0.00000000000E+00 -0.00000000000E+00 -0.13916146630E+04  0.13916146630E+04  0.00000000000E+00 0.  1.
          6    1    1    2  501    0  0.25768304579E+02  0.36325581886E+02 -0.64546440238E+03  0.66972893634E+03  0.17300000000E+03 0.  1.
         -6    1    1    2    0  503 -0.25768304579E+02 -0.36325581886E+02 -0.72314886182E+03  0.74488712553E+03  0.17300000000E+03 0.  1.
<mgrwt>
<rscale>  2 0.17864085E+03</rscale>
<asrwt>0</asrwt>
<pdfrwt beam="1">  1       21 0.35386774E-02 0.17864085E+03</pdfrwt>
<pdfrwt beam="2">  1       21 0.21409452E+00 0.17864085E+03</pdfrwt>
<totfact> 0.53128671E+04</totfact>
</mgrwt>
</event>
<event>
 4    2  0.4086940E+000  0.1769031E+03  0.7546771E-02  0.1170834E+00
         21   -1    0    0  501  502  0.00000000000E+00  0.00000000000E+00  0.13188564913E+03  0.13188564913E+03  0.00000000000E+00 0.  1.
         21   -1    0    0  502  503 -0.00000000000E+00 -0.00000000000E+00 -0.26935140109E+03  0.26935140109E+03  0.00000000000E+00 0.  1.
          6    1    1    2  501    0 -0.15295597896E+02  0.33641550787E+02 -0.13795183658E+03  0.22433327544E+03  0.17300000000E+03 0.  1.
         -6    1    1    2    0  503  0.15295597896E+02 -0.33641550787E+02  0.48608462106E+00  0.17690377478E+03  0.17300000000E+03 0.  1.
<mgrwt>
<rscale>  2 0.17690311E+03</rscale>
<asrwt>0</asrwt>
<pdfrwt beam="1">  1       21 0.20290100E-01 0.17690311E+03</pdfrwt>
<pdfrwt beam="2">  1       21 0.41438677E-01 0.17690311E+03</pdfrwt>
<totfact> 0.12669055E+05</totfact>
</mgrwt>
</event>
<event>
 4    2  0.4086940E+000  0.2114558E+03  0.7546771E-02  0.1140418E+00
         21   -1    0    0  501  502  0.00000000000E+00  0.00000000000E+00  0.84914479857E+02  0.84914479857E+02  0.00000000000E+00 0. -1.
         21   -1    0    0  502  503 -0.00000000000E+00 -0.00000000000E+00 -0.61681637171E+03  0.61681637171E+03  0.00000000000E+00 0. -1.
          6    1    1    2  501    0  0.35967319476E+02 -0.11615032452E+03 -0.13174434764E+03  0.24913875470E+03  0.17300000000E+03 0. -1.
         -6    1    1    2    0  503 -0.35967319476E+02  0.11615032452E+03 -0.40015754422E+03  0.45259209688E+03  0.17300000000E+03 0. -1.
<mgrwt>
<rscale>  2 0.21145578E+03</rscale>
<asrwt>0</asrwt>
<pdfrwt beam="1">  1       21 0.13063766E-01 0.21145578E+03</pdfrwt>
<pdfrwt beam="2">  1       21 0.94894829E-01 0.21145578E+03</pdfrwt>
<totfact> 0.46347126E+04</totfact>
</mgrwt>
</event>
<event>
 4    2  0.4086940E+000  0.2979183E+03  0.7546771E-02  0.1086286E+00
         21   -1    0    0  501  502  0.00000000000E+00  0.00000000000E+00  0.21941342817E+03  0.21941342817E+03  0.00000000000E+00 0.  1.
         21   -1    0    0  502  503 -0.00000000000E+00 -0.00000000000E+00 -0.90440968609E+03  0.90440968609E+03  0.00000000000E+00 0. -1.
          6    1    1    2  501    0 -0.16129980367E+03  0.18113167054E+03  0.75261083767E+02  0.30727762604E+03  0.17300000000E+03 0.  1.
         -6    1    1    2    0  503  0.16129980367E+03 -0.18113167054E+03 -0.76025734169E+03  0.81654548822E+03  0.17300000000E+03 0. -1.
<mgrwt>
<rscale>  2 0.29791829E+03</rscale>
<asrwt>0</asrwt>
<pdfrwt beam="1">  1       21 0.33755912E-01 0.29791829E+03</pdfrwt>
<pdfrwt beam="2">  1       21 0.13913995E+00 0.29791829E+03</pdfrwt>
<totfact> 0.28466008E+03</totfact>
</mgrwt>
</event>
<event>
 4    2  0.4086940E+000  0.1943257E+03  0.7546771E-02  0.1154617E+00
         21   -1    0    0  503  502  0.00000000000E+00  0.00000000000E+00  0.40305715394E+03  0.40305715394E+03  0.00000000000E+00 0. -1.
         21   -1    0    0  501  503 -0.00000000000E+00 -0.00000000000E+00 -0.12353339236E+03  0.12353339236E+03  0.00000000000E+00 0. -1.
          6    1    1    2  501    0 -0.50896509900E+00 -0.88505387330E+02  0.10349958253E+02  0.19460109010E+03  0.17300000000E+03 0. -1.
         -6    1    1    2    0  502  0.50896509900E+00  0.88505387330E+02  0.26917380333E+03  0.33198945620E+03  0.17300000000E+03 0. -1.
<mgrwt>
<rscale>  2 0.19432566E+03</rscale>
<asrwt>0</asrwt>
<pdfrwt beam="1">  1       21 0.62008792E-01 0.19432566E+03</pdfrwt>
<pdfrwt beam="2">  1       21 0.19005138E-01 0.19432566E+03</pdfrwt>
<totfact> 0.61231972E+04</totfact>
</mgrwt>
</event>
<event>
 4    2  0.4086940E+000  0.1880701E+03  0.7546771E-02  0.1160214E+00
         21   -1    0    0  503  502  0.00000000000E+00  0.00000000000E+00  0.15825286556E+04  0.15825286556E+04  0.00000000000E+00 0.  1.
         21   -1    0    0  501  503 -0.00000000000E+00 -0.00000000000E+00 -0.25301143356E+02  0.25301143356E+02  0.00000000000E+00 0.  1.
          6    1    1    2  501    0  0.11114597701E+01 -0.73757204882E+02  0.50407993340E+03  0.53802131916E+03  0.17300000000E+03 0.  1.
         -6    1    1    2    0  502 -0.11114597701E+01  0.73757204882E+02  0.10531475788E+04  0.10698084797E+04  0.17300000000E+03 0.  1.
<mgrwt>
<rscale>  2 0.18807009E+03</rscale>
<asrwt>0</asrwt>
<pdfrwt beam="1">  1       21 0.24346587E+00 0.18807009E+03</pdfrwt>
<pdfrwt beam="2">  1       21 0.38924848E-02 0.18807009E+03</pdfrwt>
<totfact> 0.29915752E+04</totfact>
</mgrwt>
</event>
<event>
 4    2  0.4086940E+000  0.1877857E+03  0.7546771E-02  0.1160474E+00
         21   -1    0    0  503  502  0.00000000000E+00  0.00000000000E+00  0.48782196462E+02  0.48782196462E+02  0.00000000000E+00 0.  1.
         21   -1    0    0  501  503 -0.00000000000E+00 -0.00000000000E+00 -0.80544299942E+03  0.80544299942E+03  0.00000000000E+00 0.  1.
          6    1    1    2  501    0  0.62173018462E+02 -0.38327522735E+02 -0.51508061145E+03  0.54824403281E+03  0.17300000000E+03 0. -1.
         -6    1    1    2    0  502 -0.62173018462E+02  0.38327522735E+02 -0.24158019151E+03  0.30598116307E+03  0.17300000000E+03 0. -1.
<mgrwt>
<rscale>  2 0.18778574E+03</rscale>
<asrwt>0</asrwt>
<pdfrwt beam="1">  1       21 0.75049531E-02 0.18778574E+03</pdfrwt>
<pdfrwt beam="2">  1       21 0.12391431E+00 0.18778574E+03</pdfrwt>
<totfact> 0.65529181E+04</totfact>
</mgrwt>
</event>
<event>
 4    2  0.4086940E+000  0.6179700E+03  0.7546771E-02  0.9868810E-01
         21   -1    0    0  501  502  0.00000000000E+00  0.00000000000E+00  0.60831161377E+03  0.60831161377E+03  0.00000000000E+00 0. -1.
         21   -1    0    0  502  503 -0.00000000000E+00 -0.00000000000E+00 -0.64666404099E+03  0.64666404099E+03  0.00000000000E+00 0.  1.
          6    1    1    2  501    0  0.59256936999E+03  0.28626657015E+02  0.88048037651E+02  0.62421102255E+03  0.17300000000E+03 0. -1.
         -6    1    1    2    0  503 -0.59256936999E+03 -0.28626657015E+02 -0.12640046487E+03  0.63076463222E+03  0.17300000000E+03 0.  1.
<mgrwt>
<rscale>  2 0.61797002E+03</rscale>
<asrwt>0</asrwt>
<pdfrwt beam="1">  1       21 0.93586402E-01 0.61797002E+03</pdfrwt>
<pdfrwt beam="2">  1       21 0.99486776E-01 0.61797002E+03</pdfrwt>
<totfact> 0.63176079E+02</totfact>
</mgrwt>
</event>
<event>
 4    2  0.4086940E+000  0.2003622E+03  0.7546771E-02  0.1149434E+00
         21   -1    0    0  503  502  0.00000000000E+00  0.00000000000E+00  0.15701752027E+03  0.15701752027E+03  0.00000000000E+00 0. -1.
         21   -1    0    0  501  503 -0.00000000000E+00 -0.00000000000E+00 -0.30046499983E+03  0.30046499983E+03  0.00000000000E+00 0. -1.
          6    1    1    2  501    0  0.45503774156E+02  0.90251931158E+02 -0.16004230135E+03  0.25643428546E+03  0.17300000000E+03 0. -1.
         -6    1    1    2    0  502 -0.45503774156E+02 -0.90251931158E+02  0.16594821781E+02  0.20104823464E+03  0.17300000000E+03 0. -1.
<mgrwt>
<rscale>  2 0.20036218E+03</rscale>
<asrwt>0</asrwt>
<pdfrwt beam="1">  1       21 0.24156542E-01 0.20036218E+03</pdfrwt>
<pdfrwt beam="2">  1       21 0.46225384E-01 0.20036218E+03</pdfrwt>
<totfact> 0.72258286E+04</totfact>
</mgrwt>
</event>
<event>
 4    2  0.4086940E+000  0.1935629E+03  0.7546771E-02  0.1155286E+00
         21   -1    0    0  501  502  0.00000000000E+00  0.00000000000E+00  0.27080614028E+02  0.27080614028E+02  0.00000000000E+00 0.  1.
         21   -1    0    0  502  503 -0.00000000000E+00 -0.00000000000E+00 -0.13989582699E+04  0.13989582699E+04  0.00000000000E+00 0. -1.
          6    1    1    2  501    0  0.86790087361E+02  0.22563739868E+01 -0.61103951069E+03  0.64096481504E+03  0.17300000000E+03 0.  1.
         -6    1    1    2    0  503 -0.86790087361E+02 -0.22563739868E+01 -0.76083814520E+03  0.78507406891E+03  0.17300000000E+03 0.  1.
<mgrwt>
<rscale>  2 0.19356294E+03</rscale>
<asrwt>0</asrwt>
<pdfrwt beam="1">  1       21 0.41662464E-02 0.19356294E+03</pdfrwt>
<pdfrwt beam="2">  1       21 0.21522445E+00 0.19356294E+03</pdfrwt>
<totfact> 0.39374274E+04</totfact>
</mgrwt>
</event>
<event>
 4    2  0.4086940E+000  0.1972965E+03  0.7546771E-02  0.1152040E+00
         21   -1    0    0  503  502  0.00000000000E+00  0.00000000000E+00  0.70492054203E+03  0.70492054203E+03  0.00000000000E+00 0. -1.
         21   -1    0    0  501  503 -0.00000000000E+00 -0.00000000000E+00 -0.55263184315E+02  0.55263184315E+02  0.00000000000E+00 0. -1.
          6    1    1    2  501    0 -0.70509912536E+02 -0.63444836075E+02  0.31423548901E+03  0.37103886258E+03  0.17300000000E+03 0. -1.
         -6    1    1    2    0  502  0.70509912536E+02  0.63444836075E+02  0.33542186870E+03  0.38914486376E+03  0.17300000000E+03 0. -1.
<mgrwt>
<rscale>  2 0.19729646E+03</rscale>
<asrwt>0</asrwt>
<pdfrwt beam="1">  1       21 0.10844931E+00 0.19729646E+03</pdfrwt>
<pdfrwt beam="2">  1       21 0.85020288E-02 0.19729646E+03</pdfrwt>
<totfact> 0.72781437E+04</totfact>
</mgrwt>
</event>
<event>
 4    2  0.4086940E+000  0.3560730E+03  0.7546771E-02  0.1060150E+00
         21   -1    0    0  503  502  0.00000000000E+00  0.00000000000E+00  0.97780732852E+02  0.97780732852E+02  0.00000000000E+00 0. -1.
         21   -1    0    0  501  503 -0.00000000000E+00 -0.00000000000E+00 -0.15960558518E+04  0.15960558518E+04  0.00000000000E+00 0. -1.
          6    1    1    2  501    0 -0.24222158704E+03 -0.19541662732E+03 -0.11159494441E+04  0.11713800055E+04  0.17300000000E+03 0. -1.
         -6    1    1    2    0  502  0.24222158704E+03  0.19541662732E+03 -0.38232567483E+03  0.52245657915E+03  0.17300000000E+03 0. -1.
<mgrwt>
<rscale>  2 0.35607296E+03</rscale>
<asrwt>0</asrwt>
<pdfrwt beam="1">  1       21 0.15043189E-01 0.35607296E+03</pdfrwt>
<pdfrwt beam="2">  1       21 0.24554706E+00 0.35607296E+03</pdfrwt>
<totfact> 0.24174516E+03</totfact>
</mgrwt>
</event>
<event>
 4    2  0.4086940E+000  0.1969647E+03  0.7546771E-02  0.1152325E+00
         21   -1    0    0  501  502  0.00000000000E+00  0.00000000000E+00  0.16970192551E+03  0.16970192551E+03  0.00000000000E+00 0.  1.
         21   -1    0    0  502  503 -0.00000000000E+00 -0.00000000000E+00 -0.23935380251E+03  0.23935380251E+03  0.00000000000E+00 0.  1.
          6    1    1    2  501    0  0.93933907082E+02 -0.65216221913E+01  0.85116283648E+01  0.19714856904E+03  0.17300000000E+03 0.  1.
         -6    1    1    2    0  503 -0.93933907082E+02  0.65216221913E+01 -0.78163505364E+02  0.21190715898E+03  0.17300000000E+03 0.  1.
<mgrwt>
<rscale>  2 0.19696474E+03</rscale>
<asrwt>0</asrwt>
<pdfrwt beam="1">  1       21 0.26107989E-01 0.19696474E+03</pdfrwt>
<pdfrwt beam="2">  1       21 0.36823662E-01 0.19696474E+03</pdfrwt>
<totfact> 0.98982051E+04</totfact>
</mgrwt>
</event>
<event>
 4    2  0.4086940E+000  0.1852513E+03  0.7546771E-02  0.1162815E+00
         21   -1    0    0  503  502  0.00000000000E+00  0.00000000000E+00  0.11285719194E+04  0.11285719194E+04  0.00000000000E+00 0.  1.
         21   -1    0    0  501  503 -0.00000000000E+00 -0.00000000000E+00 -0.30408615288E+02  0.30408615288E+02  0.00000000000E+00 0.  1.
          6    1    1    2  501    0 -0.58509418275E+02  0.31075571477E+02  0.55069544191E+03  0.58101937395E+03  0.17300000000E+03 0.  1.
         -6    1    1    2    0  502  0.58509418275E+02 -0.31075571477E+02  0.54746786217E+03  0.57796116070E+03  0.17300000000E+03 0.  1.
<mgrwt>
<rscale>  2 0.18525130E+03</rscale>
<asrwt>0</asrwt>
<pdfrwt beam="1">  1       21 0.17362642E+00 0.18525130E+03</pdfrwt>
<pdfrwt beam="2">  1       21 0.46782494E-02 0.18525130E+03</pdfrwt>
<totfact> 0.60857402E+04</totfact>
</mgrwt>
</event>
<event>
 4    2  0.4086940E+000  0.1970795E+03  0.7546771E-02  0.1152227E+00
         21   -1    0    0  503  502  0.00000000000E+00  0.00000000000E+00  0.15368205908E+03  0.15368205908E+03  0.00000000000E+00 0.  1.
         21   -1    0    0  501  503 -0.00000000000E+00 -0.00000000000E+00 -0.70360545185E+03  0.70360545185E+03  0.00000000000E+00 0.  1.
          6    1    1    2  501    0 -0.34202782401E+02 -0.87985831402E+02 -0.61809221941E+03  0.64875136112E+03  0.17300000000E+03 0.  1.
         -6    1    1    2    0  502  0.34202782401E+02  0.87985831402E+02  0.68168826640E+02  0.20853614981E+03  0.17300000000E+03 0.  1.
<mgrwt>
<rscale>  2 0.19707952E+03</rscale>
<asrwt>0</asrwt>
<pdfrwt beam="1">  1       21 0.23643394E-01 0.19707952E+03</pdfrwt>
<pdfrwt beam="2">  1       21 0.10824699E+00 0.19707952E+03</pdfrwt>
<totfact> 0.11401305E+04</totfact>
</mgrwt>
</event>
<event>
 4    2  0.4086940E+000  0.1767291E+03  0.7546771E-02  0.1171007E+00
         21   -1    0    0  501  502  0.00000000000E+00  0.00000000000E+00  0.53626212790E+02  0.53626212790E+02  0.00000000000E+00 0.  1.
         21   -1    0    0  502  503 -0.00000000000E+00 -0.00000000000E+00 -0.66016905229E+03  0.66016905229E+03  0.00000000000E+00 0.  1.
          6    1    1    2  501    0  0.36086733080E+02  0.13801912328E+01 -0.18079447392E+03  0.25282365204E+03  0.17300000000E+03 0.  1.
         -6    1    1    2    0  503 -0.36086733080E+02 -0.13801912328E+01 -0.42574836558E+03  0.46097161304E+03  0.17300000000E+03 0.  1.
<mgrwt>
<rscale>  2 0.17672905E+03</rscale>
<asrwt>0</asrwt>
<pdfrwt beam="1">  1       21 0.82501867E-02 0.17672905E+03</pdfrwt>
<pdfrwt beam="2">  1       21 0.10156447E+00 0.17672905E+03</pdfrwt>
<totfact> 0.90597057E+04</totfact>
</mgrwt>
</event>
<event>
 4    2  0.4086940E+000  0.2071040E+03  0.7546771E-02  0.1143880E+00
         21   -1    0    0  503  502  0.00000000000E+00  0.00000000000E+00  0.20659223964E+03  0.20659223964E+03  0.00000000000E+00 0. -1.
         21   -1    0    0  501  503 -0.00000000000E+00 -0.00000000000E+00 -0.20998534036E+03  0.20998534036E+03  0.00000000000E+00 0. -1.
          6    1    1    2  501    0 -0.24106506059E+02 -0.11127426994E+03 -0.23816392892E+02  0.20846896017E+03  0.17300000000E+03 0. -1.
         -6    1    1    2    0  502  0.24106506059E+02  0.11127426994E+03  0.20423292176E+02  0.20810861983E+03  0.17300000000E+03 0. -1.
<mgrwt>
<rscale>  2 0.20710405E+03</rscale>
<asrwt>0</asrwt>
<pdfrwt beam="1">  1       21 0.31783421E-01 0.20710405E+03</pdfrwt>
<pdfrwt beam="2">  1       21 0.32305437E-01 0.20710405E+03</pdfrwt>
<totfact> 0.87217900E+04</totfact>
</mgrwt>
</event>
<event>
 4    2  0.4086940E+000  0.2226025E+03  0.7546771E-02  0.1131957E+00
         21   -1    0    0  501  502  0.00000000000E+00  0.00000000000E+00  0.13445553704E+03  0.13445553704E+03  0.00000000000E+00 0.  1.
         21   -1    0    0  502  503 -0.00000000000E+00 -0.00000000000E+00 -0.36856968927E+03  0.36856968927E+03  0.00000000000E+00 0.  1.
          6    1    1    2  501    0 -0.11549600276E+03  0.79268959387E+02 -0.11470309993E+03  0.25041704357E+03  0.17300000000E+03 0.  1.
         -6    1    1    2    0  503  0.11549600276E+03 -0.79268959387E+02 -0.11941105230E+03  0.25260818274E+03  0.17300000000E+03 0.  1.
<mgrwt>
<rscale>  2 0.22260255E+03</rscale>
<asrwt>0</asrwt>
<pdfrwt beam="1">  1       21 0.20685467E-01 0.22260255E+03</pdfrwt>
<pdfrwt beam="2">  1       21 0.56703029E-01 0.22260255E+03</pdfrwt>
<totfact> 0.62523514E+04</totfact>
</mgrwt>
</event>
<event>
 4    2  0.4086940E+000  0.1883787E+03  0.7546771E-02  0.1159932E+00
         21   -1    0    0  501  502  0.00000000000E+00  0.00000000000E+00  0.15760805671E+04  0.15760805671E+04  0.00000000000E+00 0.  1.
         21   -1    0    0  502  503 -0.00000000000E+00 -0.00000000000E+00 -0.22609054313E+02  0.22609054313E+02  0.00000000000E+00 0.  1.
          6    1    1    2  501    0 -0.71898296189E+02 -0.19701896098E+02  0.72536679735E+03  0.74942879609E+03  0.17300000000E+03 0. -1.
         -6    1    1    2    0  503  0.71898296189E+02  0.19701896098E+02  0.82810471539E+03  0.84926082528E+03  0.17300000000E+03 0. -1.
<mgrwt>
<rscale>  2 0.18837869E+03</rscale>
<asrwt>0</asrwt>
<pdfrwt beam="1">  1       21 0.24247385E+00 0.18837869E+03</pdfrwt>
<pdfrwt beam="2">  1       21 0.34783173E-02 0.18837869E+03</pdfrwt>
<totfact> 0.36577339E+04</totfact>
</mgrwt>
</event>
<event>
 4    2  0.4086940E+000  0.1759644E+03  0.7546771E-02  0.1171767E+00
         21   -1    0    0  501  502  0.00000000000E+00  0.00000000000E+00  0.73573148838E+02  0.73573148838E+02  0.00000000000E+00 0.  1.
         21   -1    0    0  502  503 -0.00000000000E+00 -0.00000000000E+00 -0.69033522616E+03  0.69033522616E+03  0.00000000000E+00 0.  1.
          6    1    1    2  501    0  0.19856676557E+02 -0.25301647926E+02 -0.69739228801E+02  0.18928027109E+03  0.17300000000E+03 0.  1.
         -6    1    1    2    0  503 -0.19856676557E+02  0.25301647926E+02 -0.54702284853E+03  0.57462810391E+03  0.17300000000E+03 0.  1.
<mgrwt>
<rscale>  2 0.17596437E+03</rscale>
<asrwt>0</asrwt>
<pdfrwt beam="1">  1       21 0.11318946E-01 0.17596437E+03</pdfrwt>
<pdfrwt beam="2">  1       21 0.10620541E+00 0.17596437E+03</pdfrwt>
<totfact> 0.46702280E+04</totfact>
</mgrwt>
</event>
<event>
 4    2  0.4086940E+000  0.1789889E+03  0.7546771E-02  0.1168785E+00
         21   -1    0    0  501  502  0.00000000000E+00  0.00000000000E+00  0.95191610711E+03  0.95191610711E+03  0.00000000000E+00 0.  1.
         21   -1    0    0  502  503 -0.00000000000E+00 -0.00000000000E+00 -0.40513588402E+02  0.40513588402E+02  0.00000000000E+00 0.  1.
          6    1    1    2  501    0 -0.19524613704E+02 -0.41555088452E+02  0.65986415361E+03  0.68370881020E+03  0.17300000000E+03 0.  1.
         -6    1    1    2    0  503  0.19524613704E+02  0.41555088452E+02  0.25153836510E+03  0.30872088532E+03  0.17300000000E+03 0.  1.
<mgrwt>
<rscale>  2 0.17898893E+03</rscale>
<asrwt>0</asrwt>
<pdfrwt beam="1">  1       21 0.14644862E+00 0.17898893E+03</pdfrwt>
<pdfrwt beam="2">  1       21 0.62328605E-02 0.17898893E+03</pdfrwt>
<totfact> 0.59229136E+04</totfact>
</mgrwt>
</event>
<event>
 4    2  0.4086940E+000  0.1812279E+03  0.7546771E-02  0.1166620E+00
         21   -1    0    0  501  502  0.00000000000E+00  0.00000000000E+00  0.51914304789E+03  0.51914304789E+03  0.00000000000E+00 0. -1.
         21   -1    0    0  502  503 -0.00000000000E+00 -0.00000000000E+00 -0.86688565170E+02  0.86688565170E+02  0.00000000000E+00 0. -1.
          6    1    1    2  501    0 -0.53802718996E+02 -0.44507083211E+01  0.37368653718E+03  0.41531333887E+03  0.17300000000E+03 0. -1.
         -6    1    1    2    0  503  0.53802718996E+02  0.44507083211E+01  0.58767945537E+02  0.19051827419E+03  0.17300000000E+03 0. -1.
<mgrwt>
<rscale>  2 0.18122787E+03</rscale>
<asrwt>0</asrwt>
<pdfrwt beam="1">  1       21 0.79868159E-01 0.18122787E+03</pdfrwt>
<pdfrwt beam="2">  1       21 0.13336703E-01 0.18122787E+03</pdfrwt>
<totfact> 0.67351877E+04</totfact>
</mgrwt>
</event>
<event>
 4    2  0.4086940E+000  0.2040292E+03  0.7546771E-02  0.1146383E+00
         21   -1    0    0  503  502  0.00000000000E+00  0.00000000000E+00  0.20463651533E+02  0.20463651533E+02  0.00000000000E+00 0. -1.
         21   -1    0    0  501  503 -0.00000000000E+00 -0.00000000000E+00 -0.22242663437E+04  0.22242663437E+04  0.00000000000E+00 0. -1.
          6    1    1    2  501    0 -0.70018184714E+02 -0.82439967697E+02 -0.14299606185E+04  0.14444428908E+04  0.17300000000E+03 0. -1.
         -6    1    1    2    0  502  0.70018184714E+02  0.82439967697E+02 -0.77384207368E+03  0.80028710439E+03  0.17300000000E+03 0. -1.
<mgrwt>
<rscale>  2 0.20402915E+03</rscale>
<asrwt>0</asrwt>
<pdfrwt beam="1">  1       21 0.31482568E-02 0.20402915E+03</pdfrwt>
<pdfrwt beam="2">  1       21 0.34219453E+00 0.20402915E+03</pdfrwt>
<totfact> 0.11208848E+04</totfact>
</mgrwt>
</event>
<event>
 4    2  0.4086940E+000  0.2636196E+03  0.7546771E-02  0.1104988E+00
         21   -1    0    0  503  502  0.00000000000E+00  0.00000000000E+00  0.68239897052E+02  0.68239897052E+02  0.00000000000E+00 0.  1.
         21   -1    0    0  501  503 -0.00000000000E+00 -0.00000000000E+00 -0.10195738492E+04  0.10195738492E+04  0.00000000000E+00 0.  1.
          6    1    1    2  501    0  0.53868042394E+02  0.19147985080E+03 -0.45718727082E+03  0.52774567725E+03  0.17300000000E+03 0.  1.
         -6    1    1    2    0  502 -0.53868042394E+02 -0.19147985080E+03 -0.49414668136E+03  0.56006806904E+03  0.17300000000E+03 0.  1.
<mgrwt>
<rscale>  2 0.26361961E+03</rscale>
<asrwt>0</asrwt>
<pdfrwt beam="1">  1       21 0.10498446E-01 0.26361961E+03</pdfrwt>
<pdfrwt beam="2">  1       21 0.15685751E+00 0.26361961E+03</pdfrwt>
<totfact> 0.18931275E+04</totfact>
</mgrwt>
</event>
<event>
 4    2  0.4086940E+000  0.2701586E+03  0.7546771E-02  0.1101189E+00
         21   -1    0    0  503  502  0.00000000000E+00  0.00000000000E+00  0.22910723150E+03  0.22910723150E+03  0.00000000000E+00 0.  1.
         21   -1    0    0  501  503 -0.00000000000E+00 -0.00000000000E+00 -0.33108383976E+03  0.33108383976E+03  0.00000000000E+00 0. -1.
          6    1    1    2  501    0 -0.10693965950E+03 -0.17782176616E+03  0.34757152788E+01  0.27018096138E+03  0.17300000000E+03 0.  1.
         -6    1    1    2    0  502  0.10693965950E+03  0.17782176616E+03 -0.10545232353E+03  0.29001010988E+03  0.17300000000E+03 0. -1.
<mgrwt>
<rscale>  2 0.27015860E+03</rscale>
<asrwt>0</asrwt>
<pdfrwt beam="1">  1       21 0.35247267E-01 0.27015860E+03</pdfrwt>
<pdfrwt beam="2">  1       21 0.50935975E-01 0.27015860E+03</pdfrwt>
<totfact> 0.27387027E+04</totfact>
</mgrwt>
</event>
<event>
 4    2  0.4086940E+000  0.2346313E+03  0.7546771E-02  0.1123422E+00
         21   -1    0    0  501  502  0.00000000000E+00  0.00000000000E+00  0.15056179648E+04  0.15056179648E+04  0.00000000000E+00 0. -1.
         21   -1    0    0  502  503 -0.00000000000E+00 -0.00000000000E+00 -0.45597677906E+02  0.45597677906E+02  0.00000000000E+00 0.  1.
          6    1    1    2  501    0 -0.12996143355E+03  0.90735256259E+02  0.38479010054E+03  0.45068312861E+03  0.17300000000E+03 0.  1.
         -6    1    1    2    0  503  0.12996143355E+03 -0.90735256259E+02  0.10752301863E+04  0.11005325140E+04  0.17300000000E+03 0. -1.
<mgrwt>
<rscale>  2 0.23463133E+03</rscale>
<asrwt>0</asrwt>
<pdfrwt beam="1">  1       21 0.23163350E+00 0.23463133E+03</pdfrwt>
<pdfrwt beam="2">  1       21 0.70150285E-02 0.23463133E+03</pdfrwt>
<totfact> 0.12446486E+04</totfact>
</mgrwt>
</event>
<event>
 4    2  0.4086940E+000  0.2298852E+03  0.7546771E-02  0.1126721E+00
         21   -1    0    0  501  502  0.00000000000E+00  0.00000000000E+00  0.35980204411E+03  0.35980204411E+03  0.00000000000E+00 0. -1.
         21   -1    0    0  502  503 -0.00000000000E+00 -0.00000000000E+00 -0.18364787289E+03  0.18364787289E+03  0.00000000000E+00 0. -1.
          6    1    1    2  501    0 -0.15066967208E+03 -0.14726267781E+02  0.20966186843E+03  0.31113552051E+03  0.17300000000E+03 0. -1.
         -6    1    1    2    0  503  0.15066967208E+03  0.14726267781E+02 -0.33507697202E+02  0.23231439650E+03  0.17300000000E+03 0. -1.
<mgrwt>
<rscale>  2 0.22988522E+03</rscale>
<asrwt>0</asrwt>
<pdfrwt beam="1">  1       21 0.55354161E-01 0.22988522E+03</pdfrwt>
<pdfrwt beam="2">  1       21 0.28253519E-01 0.22988522E+03</pdfrwt>
<totfact> 0.36158433E+04</totfact>
</mgrwt>
</event>
<event>
 4    2  0.4086940E+000  0.2690226E+03  0.7546771E-02  0.1101840E+00
         21   -1    0    0  501  502  0.00000000000E+00  0.00000000000E+00  0.84990085663E+03  0.84990085663E+03  0.00000000000E+00 0.  1.
         21   -1    0    0  502  503 -0.00000000000E+00 -0.00000000000E+00 -0.85166062443E+02  0.85166062443E+02  0.00000000000E+00 0.  1.
          6    1    1    2  501    0 -0.48302764168E+02  0.20027736335E+03  0.37700270656E+03  0.46314600295E+03  0.17300000000E+03 0.  1.
         -6    1    1    2    0  503  0.48302764168E+02 -0.20027736335E+03  0.38773208762E+03  0.47192091612E+03  0.17300000000E+03 0.  1.
<mgrwt>
<rscale>  2 0.26902264E+03</rscale>
<asrwt>0</asrwt>
<pdfrwt beam="1">  1       21 0.13075397E+00 0.26902264E+03</pdfrwt>
<pdfrwt beam="2">  1       21 0.13102472E-01 0.26902264E+03</pdfrwt>
<totfact> 0.20448607E+04</totfact>
</mgrwt>
</event>
<event>
 4    2  0.4086940E+000  0.1740821E+03  0.7546771E-02  0.1173657E+00
         21   -1    0    0  501  502  0.00000000000E+00  0.00000000000E+00  0.11659788245E+03  0.11659788245E+03  0.00000000000E+00 0. -1.
         21   -1    0    0  502  503 -0.00000000000E+00 -0.00000000000E+00 -0.26492747120E+03  0.26492747120E+03  0.00000000000E+00 0. -1.
          6    1    1    2  501    0 -0.11414085539E+02 -0.15661515546E+02 -0.47903416199E+02  0.18055276708E+03  0.17300000000E+03 0. -1.
         -6    1    1    2    0  503  0.11414085539E+02  0.15661515546E+02 -0.10042617255E+03  0.20097258656E+03  0.17300000000E+03 0. -1.
<mgrwt>
<rscale>  2 0.17408206E+03</rscale>
<asrwt>0</asrwt>
<pdfrwt beam="1">  1       21 0.17938136E-01 0.17408206E+03</pdfrwt>
<pdfrwt beam="2">  1       21 0.40758072E-01 0.17408206E+03</pdfrwt>
<totfact> 0.16480738E+05</totfact>
</mgrwt>
</event>
<event>
 4    2  0.4086940E+000  0.1805562E+03  0.7546771E-02  0.1167266E+00
         21   -1    0    0  501  502  0.00000000000E+00  0.00000000000E+00  0.50096490539E+03  0.50096490539E+03  0.00000000000E+00 0.  1.
         21   -1    0    0  502  503 -0.00000000000E+00 -0.00000000000E+00 -0.67904337969E+02  0.67904337969E+02  0.00000000000E+00 0.  1.
          6    1    1    2  501    0  0.46795329376E+02  0.21948556891E+02  0.15847554315E+03  0.24023954666E+03  0.17300000000E+03 0.  1.
         -6    1    1    2    0  503 -0.46795329376E+02 -0.21948556891E+02  0.27458502428E+03  0.32862969671E+03  0.17300000000E+03 0.  1.
<mgrwt>
<rscale>  2 0.18055620E+03</rscale>
<asrwt>0</asrwt>
<pdfrwt beam="1">  1       21 0.77071521E-01 0.18055620E+03</pdfrwt>
<pdfrwt beam="2">  1       21 0.10446822E-01 0.18055620E+03</pdfrwt>
<totfact> 0.11286065E+05</totfact>
</mgrwt>
</event>
<event>
 4    2  0.4086940E+000  0.2847909E+03  0.7546771E-02  0.1093101E+00
         21   -1    0    0  501  502  0.00000000000E+00  0.00000000000E+00  0.22432942979E+04  0.22432942979E+04  0.00000000000E+00 0. -1.
         21   -1    0    0  502  503 -0.00000000000E+00 -0.00000000000E+00 -0.41597372479E+02  0.41597372479E+02  0.00000000000E+00 0.  1.
          6    1    1    2  501    0 -0.22047286439E+03  0.50681212039E+02  0.15140905605E+04  0.15406414555E+04  0.17300000000E+03 0. -1.
         -6    1    1    2    0  503  0.22047286439E+03 -0.50681212039E+02  0.68760636494E+03  0.74425021484E+03  0.17300000000E+03 0.  1.
<mgrwt>
<rscale>  2 0.28479092E+03</rscale>
<asrwt>0</asrwt>
<pdfrwt beam="1">  1       21 0.34512210E+00 0.28479092E+03</pdfrwt>
<pdfrwt beam="2">  1       21 0.63995975E-02 0.28479092E+03</pdfrwt>
<totfact> 0.29864309E+03</totfact>
</mgrwt>
</event>
<event>
 4    2  0.4086940E+000  0.1793069E+03  0.7546771E-02  0.1168476E+00
         21   -1    0    0  503  502  0.00000000000E+00  0.00000000000E+00  0.24046445757E+03  0.24046445757E+03  0.00000000000E+00 0. -1.
         21   -1    0    0  501  503 -0.00000000000E+00 -0.00000000000E+00 -0.66661341036E+03  0.66661341036E+03  0.00000000000E+00 0. -1.
          6    1    1    2  501    0  0.11197296215E+02  0.45788415330E+02 -0.61858713733E+03  0.64405046766E+03  0.17300000000E+03 0. -1.
         -6    1    1    2    0  502 -0.11197296215E+02 -0.45788415330E+02  0.19243818455E+03  0.26302740027E+03  0.17300000000E+03 0. -1.
<mgrwt>
<rscale>  2 0.17930688E+03</rscale>
<asrwt>0</asrwt>
<pdfrwt beam="1">  1       21 0.36994533E-01 0.17930688E+03</pdfrwt>
<pdfrwt beam="2">  1       21 0.10255591E+00 0.17930688E+03</pdfrwt>
<totfact> 0.55056542E+03</totfact>
</mgrwt>
</event>
<event>
 4    2  0.4086940E+000  0.2325462E+03  0.7546771E-02  0.1124860E+00
         21   -1    0    0  503  502  0.00000000000E+00  0.00000000000E+00  0.10982948674E+03  0.10982948674E+03  0.00000000000E+00 0.  1.
         21   -1    0    0  501  503 -0.00000000000E+00 -0.00000000000E+00 -0.49273060630E+03  0.49273060630E+03  0.00000000000E+00 0. -1.
          6    1    1    2  501    0 -0.15538684758E+03 -0.19091486430E+01 -0.19950029601E+03  0.30639530897E+03  0.17300000000E+03 0.  1.
         -6    1    1    2    0  502  0.15538684758E+03  0.19091486430E+01 -0.18340082354E+03  0.29616478407E+03  0.17300000000E+03 0. -1.
<mgrwt>
<rscale>  2 0.23254616E+03</rscale>
<asrwt>0</asrwt>
<pdfrwt beam="1">  1       21 0.16896844E-01 0.23254616E+03</pdfrwt>
<pdfrwt beam="2">  1       21 0.75804708E-01 0.23254616E+03</pdfrwt>
<totfact> 0.48056985E+04</totfact>
</mgrwt>
</event>
<event>
 4    2  0.4086940E+000  0.1732333E+03  0.7546771E-02  0.1174517E+00
         21   -1    0    0  503  502  0.00000000000E+00  0.00000000000E+00  0.20394533280E+03  0.20394533280E+03  0.00000000000E+00 0. -1.
         21   -1    0    0  501  503 -0.00000000000E+00 -0.00000000000E+00 -0.16062647778E+03  0.16062647778E+03  0.00000000000E+00 0. -1.
          6    1    1    2  501    0  0.40182002711E+01 -0.80400283580E+01 -0.31147800236E+02  0.17601128785E+03  0.17300000000E+03 0. -1.
         -6    1    1    2    0  502 -0.40182002711E+01  0.80400283580E+01  0.74466655248E+02  0.18856052273E+03  0.17300000000E+03 0. -1.
<mgrwt>
<rscale>  2 0.17323333E+03</rscale>
<asrwt>0</asrwt>
<pdfrwt beam="1">  1       21 0.31376205E-01 0.17323333E+03</pdfrwt>
<pdfrwt beam="2">  1       21 0.24711766E-01 0.17323333E+03</pdfrwt>
<totfact> 0.15212242E+05</totfact>
</mgrwt>
</event>
<event>
 4    2  0.4086940E+000  0.2035965E+03  0.7546771E-02  0.1146740E+00
         21   -1    0    0  501  502  0.00000000000E+00  0.00000000000E+00  0.16101527697E+03  0.16101527697E+03  0.00000000000E+00 0.  1.
         21   -1    0    0  502  503 -0.00000000000E+00 -0.00000000000E+00 -0.28895117008E+03  0.28895117008E+03  0.00000000000E+00 0.  1.
          6    1    1    2  501    0 -0.30290158426E+02 -0.10298084067E+03 -0.13826640941E+03  0.24610799908E+03  0.17300000000E+03 0.  1.
         -6    1    1    2    0  503  0.30290158426E+02  0.10298084067E+03  0.10330516292E+02  0.20385844797E+03  0.17300000000E+03 0.  1.
<mgrwt>
<rscale>  2 0.20359653E+03</rscale>
<asrwt>0</asrwt>
<pdfrwt beam="1">  1       21 0.24771581E-01 0.20359653E+03</pdfrwt>
<pdfrwt beam="2">  1       21 0.44454026E-01 0.20359653E+03</pdfrwt>
<totfact> 0.74536815E+04</totfact>
</mgrwt>
</event>
<event>
 4    2  0.4086940E+000  0.1783245E+03  0.7546771E-02  0.1169435E+00
         21   -1    0    0  501  502  0.00000000000E+00  0.00000000000E+00  0.11122130985E+03  0.11122130985E+03  0.00000000000E+00 0.  1.
         21   -1    0    0  502  503 -0.00000000000E+00 -0.00000000000E+00 -0.44500992501E+03  0.44500992501E+03  0.00000000000E+00 0.  1.
          6    1    1    2  501    0  0.32190941226E+02  0.28885499333E+02 -0.60233164190E+00  0.17832552137E+03  0.17300000000E+03 0.  1.
         -6    1    1    2    0  503 -0.32190941226E+02 -0.28885499333E+02 -0.33318628352E+03  0.37790571350E+03  0.17300000000E+03 0.  1.
<mgrwt>
<rscale>  2 0.17832450E+03</rscale>
<asrwt>0</asrwt>
<pdfrwt beam="1">  1       21 0.17110971E-01 0.17832450E+03</pdfrwt>
<pdfrwt beam="2">  1       21 0.68463066E-01 0.17832450E+03</pdfrwt>
<totfact> 0.60368677E+04</totfact>
</mgrwt>
</event>
<event>
 4    2  0.4086940E+000  0.1805847E+03  0.7546771E-02  0.1167238E+00
         21   -1    0    0  503  502  0.00000000000E+00  0.00000000000E+00  0.38780549086E+03  0.38780549086E+03  0.00000000000E+00 0.  1.
         21   -1    0    0  501  503 -0.00000000000E+00 -0.00000000000E+00 -0.20144433517E+03  0.20144433517E+03  0.00000000000E+00 0.  1.
          6    1    1    2  501    0  0.30551940168E+02  0.41814213195E+02 -0.13169388714E+03  0.22350420440E+03  0.17300000000E+03 0.  1.
         -6    1    1    2    0  502 -0.30551940168E+02 -0.41814213195E+02  0.31805504283E+03  0.36574562164E+03  0.17300000000E+03 0.  1.
<mgrwt>
<rscale>  2 0.18058474E+03</rscale>
<asrwt>0</asrwt>
<pdfrwt beam="1">  1       21 0.59662383E-01 0.18058474E+03</pdfrwt>
<pdfrwt beam="2">  1       21 0.30991436E-01 0.18058474E+03</pdfrwt>
<totfact> 0.26407215E+04</totfact>
</mgrwt>
</event>
<event>
 4    2  0.4086940E+000  0.1748048E+03  0.7546771E-02  0.1172928E+00
         21   -1    0    0  501  502  0.00000000000E+00  0.00000000000E+00  0.22577835257E+03  0.22577835257E+03  0.00000000000E+00 0.  1.
         21   -1    0    0  502  503 -0.00000000000E+00 -0.00000000000E+00 -0.15726255148E+03  0.15726255148E+03  0.00000000000E+00 0.  1.
          6    1    1    2  501    0 -0.25028100373E+02  0.11518076725E+01  0.10576560956E+03  0.20431127388E+03  0.17300000000E+03 0.  1.
         -6    1    1    2    0  503  0.25028100373E+02 -0.11518076725E+01 -0.37249808466E+02  0.17872963017E+03  0.17300000000E+03 0.  1.
<mgrwt>
<rscale>  2 0.17480484E+03</rscale>
<asrwt>0</asrwt>
<pdfrwt beam="1">  1       21 0.34735131E-01 0.17480484E+03</pdfrwt>
<pdfrwt beam="2">  1       21 0.24194239E-01 0.17480484E+03</pdfrwt>
<totfact> 0.12959573E+05</totfact>
</mgrwt>
</event>
<event>
 4    2  0.4086940E+000  0.1845948E+03  0.7546771E-02  0.1163429E+00
         21   -1    0    0  501  502  0.00000000000E+00  0.00000000000E+00  0.23594906242E+03  0.23594906242E+03  0.00000000000E+00 0.  1.
         21   -1    0    0  502  503 -0.00000000000E+00 -0.00000000000E+00 -0.27908323577E+03  0.27908323577E+03  0.00000000000E+00 0.  1.
          6    1    1    2  501    0  0.29969940950E+02  0.56991642040E+02 -0.20044868391E+03  0.27249755872E+03  0.17300000000E+03 0.  1.
         -6    1    1    2    0  503 -0.29969940950E+02 -0.56991642040E+02  0.15731451056E+03  0.24253473948E+03  0.17300000000E+03 0.  1.
<mgrwt>
<rscale>  2 0.18459481E+03</rscale>
<asrwt>0</asrwt>
<pdfrwt beam="1">  1       21 0.36299856E-01 0.18459481E+03</pdfrwt>
<pdfrwt beam="2">  1       21 0.42935883E-01 0.18459481E+03</pdfrwt>
<totfact> 0.38334607E+04</totfact>
</mgrwt>
</event>
<event>
 4    2  0.4086940E+000  0.1754139E+03  0.7546771E-02  0.1172317E+00
         21   -1    0    0  501  502  0.00000000000E+00  0.00000000000E+00  0.87901083065E+03  0.87901083065E+03  0.00000000000E+00 0.  1.
         21   -1    0    0  502  503 -0.00000000000E+00 -0.00000000000E+00 -0.39363863841E+02  0.39363863841E+02  0.00000000000E+00 0. -1.
          6    1    1    2  501    0 -0.11285624759E+02  0.26714705746E+02  0.26702727127E+03  0.31948959988E+03  0.17300000000E+03 0. -1.
         -6    1    1    2    0  503  0.11285624759E+02 -0.26714705746E+02  0.57261969554E+03  0.59888509461E+03  0.17300000000E+03 0.  1.
<mgrwt>
<rscale>  2 0.17541391E+03</rscale>
<asrwt>0</asrwt>
<pdfrwt beam="1">  1       21 0.13523242E+00 0.17541391E+03</pdfrwt>
<pdfrwt beam="2">  1       21 0.60559797E-02 0.17541391E+03</pdfrwt>
<totfact> 0.76549119E+04</totfact>
</mgrwt>
</event>
<event>
 4    2  0.4086940E+000  0.1800297E+03  0.7546771E-02  0.1167774E+00
         21   -1    0    0  501  502  0.00000000000E+00  0.00000000000E+00  0.62689480914E+03  0.62689480914E+03  0.00000000000E+00 0.  1.
         21   -1    0    0  502  503 -0.00000000000E+00 -0.00000000000E+00 -0.51716104190E+02  0.51716104190E+02  0.00000000000E+00 0.  1.
          6    1    1    2  501    0 -0.20124125991E+01 -0.49775757209E+02  0.29351302544E+03  0.34432625795E+03  0.17300000000E+03 0.  1.
         -6    1    1    2    0  503  0.20124125991E+01  0.49775757209E+02  0.28166567951E+03  0.33428465538E+03  0.17300000000E+03 0.  1.
<mgrwt>
<rscale>  2 0.18002965E+03</rscale>
<asrwt>0</asrwt>
<pdfrwt beam="1">  1       21 0.96445350E-01 0.18002965E+03</pdfrwt>
<pdfrwt beam="2">  1       21 0.79563241E-02 0.18002965E+03</pdfrwt>
<totfact> 0.10886811E+05</totfact>
</mgrwt>
</event>
<event>
 4    2  0.4086940E+000  0.2120498E+03  0.7546771E-02  0.1139953E+00
         21   -1    0    0  503  502  0.00000000000E+00  0.00000000000E+00  0.85136957580E+02  0.85136957580E+02  0.00000000000E+00 0. -1.
         21   -1    0    0  501  503 -0.00000000000E+00 -0.00000000000E+00 -0.56369360726E+03  0.56369360726E+03  0.00000000000E+00 0. -1.
          6    1    1    2  501    0  0.97746330051E+02 -0.74038907031E+02 -0.32074106587E+03  0.38449959184E+03  0.17300000000E+03 0. -1.
         -6    1    1    2    0  502 -0.97746330051E+02  0.74038907031E+02 -0.15781558381E+03  0.26433097300E+03  0.17300000000E+03 0. -1.
<mgrwt>
<rscale>  2 0.21204977E+03</rscale>
<asrwt>0</asrwt>
<pdfrwt beam="1">  1       21 0.13097993E-01 0.21204977E+03</pdfrwt>
<pdfrwt beam="2">  1       21 0.86722094E-01 0.21204977E+03</pdfrwt>
<totfact> 0.56855747E+04</totfact>
</mgrwt>
</event>
<event>
 4    2  0.4086940E+000  0.2287057E+03  0.7546771E-02  0.1127554E+00
         21   -1    0    0  503  502  0.00000000000E+00  0.00000000000E+00  0.13060572327E+04  0.13060572327E+04  0.00000000000E+00 0.  1.
         21   -1    0    0  501  503 -0.00000000000E+00 -0.00000000000E+00 -0.40266860235E+02  0.40266860235E+02  0.00000000000E+00 0.  1.
          6    1    1    2  501    0 -0.52574301464E+02  0.14004730010E+03  0.68240844343E+03  0.71971354517E+03  0.17300000000E+03 0. -1.
         -6    1    1    2    0  502  0.52574301464E+02 -0.14004730010E+03  0.58338192903E+03  0.62661054775E+03  0.17300000000E+03 0. -1.
<mgrwt>
<rscale>  2 0.22870571E+03</rscale>
<asrwt>0</asrwt>
<pdfrwt beam="1">  1       21 0.20093185E+00 0.22870571E+03</pdfrwt>
<pdfrwt beam="2">  1       21 0.61949026E-02 0.22870571E+03</pdfrwt>
<totfact> 0.24102623E+04</totfact>
</mgrwt>
</event>
<event>
 4    2  0.4086940E+000  0.2049159E+03  0.7546771E-02  0.1145656E+00
         21   -1    0    0  501  502  0.00000000000E+00  0.00000000000E+00  0.13837064234E+03  0.13837064234E+03  0.00000000000E+00 0. -1.
         21   -1    0    0  502  503 -0.00000000000E+00 -0.00000000000E+00 -0.16739296381E+04  0.16739296381E+04  0.00000000000E+00 0. -1.
          6    1    1    2  501    0  0.17904384867E+02 -0.10835572207E+03  0.52129427405E+02  0.21144267948E+03  0.17300000000E+03 0. -1.
         -6    1    1    2    0  503 -0.17904384867E+02  0.10835572207E+03 -0.15876884231E+04  0.16008576009E+04  0.17300000000E+03 0. -1.
<mgrwt>
<rscale>  2 0.20491591E+03</rscale>
<asrwt>0</asrwt>
<pdfrwt beam="1">  1       21 0.21287791E-01 0.20491591E+03</pdfrwt>
<pdfrwt beam="2">  1       21 0.25752764E+00 0.20491591E+03</pdfrwt>
<totfact> 0.12156225E+03</totfact>
</mgrwt>
</event>
<event>
 4    2  0.4086940E+000  0.1767199E+03  0.7546771E-02  0.1171016E+00
         21   -1    0    0  501  502  0.00000000000E+00  0.00000000000E+00  0.61590743294E+03  0.61590743294E+03  0.00000000000E+00 0.  1.
         21   -1    0    0  502  503 -0.00000000000E+00 -0.00000000000E+00 -0.50887660385E+02  0.50887660385E+02  0.00000000000E+00 0.  1.
          6    1    1    2  501    0 -0.33709449603E+02 -0.12829064058E+02  0.26256419086E+03  0.31649623410E+03  0.17300000000E+03 0.  1.
         -6    1    1    2    0  503  0.33709449603E+02  0.12829064058E+02  0.30245558170E+03  0.35029885923E+03  0.17300000000E+03 0.  1.
<mgrwt>
<rscale>  2 0.17671987E+03</rscale>
<asrwt>0</asrwt>
<pdfrwt beam="1">  1       21 0.94754985E-01 0.17671987E+03</pdfrwt>
<pdfrwt beam="2">  1       21 0.78288713E-02 0.17671987E+03</pdfrwt>
<totfact> 0.11684653E+05</totfact>
</mgrwt>
</event>
<event>
 4    2  0.4086940E+000  0.2033807E+03  0.7546771E-02  0.1146918E+00
         21   -1    0    0  501  502  0.00000000000E+00  0.00000000000E+00  0.21932228686E+03  0.21932228686E+03  0.00000000000E+00 0.  1.
         21   -1    0    0  502  503 -0.00000000000E+00 -0.00000000000E+00 -0.21232483113E+03  0.21232483113E+03  0.00000000000E+00 0.  1.
          6    1    1    2  501    0  0.58276430965E+02  0.89658166061E+02  0.75645843490E+02  0.21699313995E+03  0.17300000000E+03 0.  1.
         -6    1    1    2    0  503 -0.58276430965E+02 -0.89658166061E+02 -0.68648387752E+02  0.21465397804E+03  0.17300000000E+03 0.  1.
<mgrwt>
<rscale>  2 0.20338075E+03</rscale>
<asrwt>0</asrwt>
<pdfrwt beam="1">  1       21 0.33741890E-01 0.20338075E+03</pdfrwt>
<pdfrwt beam="2">  1       21 0.32665359E-01 0.20338075E+03</pdfrwt>
<totfact> 0.75961912E+04</totfact>
</mgrwt>
</event>
<event>
 4    2  0.4086940E+000  0.3951629E+03  0.7546771E-02  0.1045468E+00
         21   -1    0    0  501  502  0.00000000000E+00  0.00000000000E+00  0.12354629721E+04  0.12354629721E+04  0.00000000000E+00 0.  1.
         21   -1    0    0  502  503 -0.00000000000E+00 -0.00000000000E+00 -0.13715259760E+03  0.13715259760E+03  0.00000000000E+00 0. -1.
          6    1    1    2  501    0 -0.34858335747E+03  0.68661099332E+02  0.35692673831E+03  0.53249450719E+03  0.17300000000E+03 0.  1.
         -6    1    1    2    0  503  0.34858335747E+03 -0.68661099332E+02  0.74138363622E+03  0.84012106254E+03  0.17300000000E+03 0. -1.
<mgrwt>
<rscale>  2 0.39516288E+03</rscale>
<asrwt>0</asrwt>
<pdfrwt beam="1">  1       21 0.19007122E+00 0.39516288E+03</pdfrwt>
<pdfrwt beam="2">  1       21 0.21100400E-01 0.39516288E+03</pdfrwt>
<totfact> 0.28422435E+03</totfact>
</mgrwt>
</event>
<event>
 4    2  0.4086940E+000  0.2091259E+03  0.7546771E-02  0.1142260E+00
         21   -1    0    0  503  502  0.00000000000E+00  0.00000000000E+00  0.16836981722E+03  0.16836981722E+03  0.00000000000E+00 0. -1.
         21   -1    0    0  501  503 -0.00000000000E+00 -0.00000000000E+00 -0.25992195714E+03  0.25992195714E+03  0.00000000000E+00 0. -1.
          6    1    1    2  501    0 -0.30464318419E+02  0.11347495620E+03 -0.40228239920E+02  0.21295997668E+03  0.17300000000E+03 0. -1.
         -6    1    1    2    0  502  0.30464318419E+02 -0.11347495620E+03 -0.51323899993E+02  0.21533179768E+03  0.17300000000E+03 0. -1.
<mgrwt>
<rscale>  2 0.20912590E+03</rscale>
<asrwt>0</asrwt>
<pdfrwt beam="1">  1       21 0.25903049E-01 0.20912590E+03</pdfrwt>
<pdfrwt beam="2">  1       21 0.39987993E-01 0.20912590E+03</pdfrwt>
<totfact> 0.84713594E+04</totfact>
</mgrwt>
</event>
<event>
 4    2  0.4086940E+000  0.2371595E+03  0.7546771E-02  0.1121700E+00
         21   -1    0    0  501  502  0.00000000000E+00  0.00000000000E+00  0.93453433117E+03  0.93453433117E+03  0.00000000000E+00 0.  1.
         21   -1    0    0  502  503 -0.00000000000E+00 -0.00000000000E+00 -0.76892474532E+02  0.76892474532E+02  0.00000000000E+00 0. -1.
          6    1    1    2  501    0  0.15944235612E+03 -0.29895584302E+02  0.66455515732E+03  0.70560482425E+03  0.17300000000E+03 0.  1.
         -6    1    1    2    0  503 -0.15944235612E+03  0.29895584302E+02  0.19308669932E+03  0.30582198145E+03  0.17300000000E+03 0. -1.
<mgrwt>
<rscale>  2 0.23715946E+03</rscale>
<asrwt>0</asrwt>
<pdfrwt beam="1">  1       21 0.14377450E+00 0.23715946E+03</pdfrwt>
<pdfrwt beam="2">  1       21 0.11829612E-01 0.23715946E+03</pdfrwt>
<totfact> 0.19554757E+04</totfact>
</mgrwt>
</event>
<event>
 4    2  0.4086940E+000  0.1884298E+03  0.7546771E-02  0.1159885E+00
         21   -1    0    0  501  502  0.00000000000E+00  0.00000000000E+00  0.15306989887E+04  0.15306989887E+04  0.00000000000E+00 0.  1.
         21   -1    0    0  502  503 -0.00000000000E+00 -0.00000000000E+00 -0.23465925276E+02  0.23465925276E+02  0.00000000000E+00 0.  1.
          6    1    1    2  501    0 -0.29726124181E+02 -0.68506491145E+02  0.83699116333E+03  0.85793938555E+03  0.17300000000E+03 0.  1.
         -6    1    1    2    0  503  0.29726124181E+02  0.68506491145E+02  0.67024190010E+03  0.69622552843E+03  0.17300000000E+03 0.  1.
<mgrwt>
<rscale>  2 0.18842978E+03</rscale>
<asrwt>0</asrwt>
<pdfrwt beam="1">  1       21 0.23549207E+00 0.18842978E+03</pdfrwt>
<pdfrwt beam="2">  1       21 0.36101436E-02 0.18842978E+03</pdfrwt>
<totfact> 0.37826154E+04</totfact>
</mgrwt>
</event>
<event>
 4    2  0.4086940E+000  0.2022690E+03  0.7546771E-02  0.1147839E+00
         21   -1    0    0  503  502  0.00000000000E+00  0.00000000000E+00  0.23734868509E+03  0.23734868509E+03  0.00000000000E+00 0. -1.
         21   -1    0    0  501  503 -0.00000000000E+00 -0.00000000000E+00 -0.31673282725E+03  0.31673282725E+03  0.00000000000E+00 0. -1.
          6    1    1    2  501    0  0.83380242617E+02 -0.63494102096E+02 -0.22672524687E+03  0.30383729763E+03  0.17300000000E+03 0. -1.
         -6    1    1    2    0  502 -0.83380242617E+02  0.63494102096E+02  0.14734110472E+03  0.25024421472E+03  0.17300000000E+03 0. -1.
<mgrwt>
<rscale>  2 0.20226904E+03</rscale>
<asrwt>0</asrwt>
<pdfrwt beam="1">  1       21 0.36515182E-01 0.20226904E+03</pdfrwt>
<pdfrwt beam="2">  1       21 0.48728127E-01 0.20226904E+03</pdfrwt>
<totfact> 0.28923671E+04</totfact>
</mgrwt>
</event>
<event>
 4    2  0.4086940E+000  0.2817931E+03  0.7546771E-02  0.1094714E+00
         21   -1    0    0  501  502  0.00000000000E+00  0.00000000000E+00  0.74221903667E+03  0.74221903667E+03  0.00000000000E+00 0.  1.
         21   -1    0    0  502  503 -0.00000000000E+00 -0.00000000000E+00 -0.25657935695E+03  0.25657935695E+03  0.00000000000E+00 0. -1.
          6    1    1    2  501    0  0.19045221864E+03 -0.11491878740E+03  0.62414239384E+03  0.68480734741E+03  0.17300000000E+03 0. -1.
         -6    1    1    2    0  503 -0.19045221864E+03  0.11491878740E+03 -0.13850271411E+03  0.31399104621E+03  0.17300000000E+03 0. -1.
<mgrwt>
<rscale>  2 0.28179314E+03</rscale>
<asrwt>0</asrwt>
<pdfrwt beam="1">  1       21 0.11418754E+00 0.28179314E+03</pdfrwt>
<pdfrwt beam="2">  1       21 0.39473748E-01 0.28179314E+03</pdfrwt>
<totfact> 0.34627315E+03</totfact>
</mgrwt>
</event>
<event>
 4    2  0.4086940E+000  0.2448302E+03  0.7546771E-02  0.1116616E+00
         21   -1    0    0  503  502  0.00000000000E+00  0.00000000000E+00  0.10095840439E+03  0.10095840439E+03  0.00000000000E+00 0.  1.
         21   -1    0    0  501  503 -0.00000000000E+00 -0.00000000000E+00 -0.12768284601E+04  0.12768284601E+04  0.00000000000E+00 0. -1.
          6    1    1    2  501    0  0.14944479494E+03  0.87630467465E+02 -0.10918160618E+04  0.11189299166E+04  0.17300000000E+03 0. -1.
         -6    1    1    2    0  502 -0.14944479494E+03 -0.87630467465E+02 -0.84053993918E+02  0.25885694786E+03  0.17300000000E+03 0.  1.
<mgrwt>
<rscale>  2 0.24483024E+03</rscale>
<asrwt>0</asrwt>
<pdfrwt beam="1">  1       21 0.15532062E-01 0.24483024E+03</pdfrwt>
<pdfrwt beam="2">  1       21 0.19643515E+00 0.24483024E+03</pdfrwt>
<totfact> 0.49899178E+03</totfact>
</mgrwt>
</event>
<event>
 4    2  0.4086940E+000  0.2796721E+03  0.7546771E-02  0.1095868E+00
         21   -1    0    0  503  502  0.00000000000E+00  0.00000000000E+00  0.12017227339E+04  0.12017227339E+04  0.00000000000E+00 0.  1.
         21   -1    0    0  501  503 -0.00000000000E+00 -0.00000000000E+00 -0.15490512364E+03  0.15490512364E+03  0.00000000000E+00 0. -1.
          6    1    1    2  501    0  0.66902153271E+02 -0.20931213344E+03  0.68973542966E+01  0.27975711039E+03  0.17300000000E+03 0. -1.
         -6    1    1    2    0  502 -0.66902153271E+02  0.20931213344E+03  0.10399202560E+04  0.10768707472E+04  0.17300000000E+03 0.  1.
<mgrwt>
<rscale>  2 0.27967207E+03</rscale>
<asrwt>0</asrwt>
<pdfrwt beam="1">  1       21 0.18488041E+00 0.27967207E+03</pdfrwt>
<pdfrwt beam="2">  1       21 0.23831558E-01 0.27967207E+03</pdfrwt>
<totfact> 0.26055825E+03</totfact>
</mgrwt>
</event>
<event>
 4    2  0.4086940E+000  0.1749589E+03  0.7546771E-02  0.1172773E+00
         21   -1    0    0  501  502  0.00000000000E+00  0.00000000000E+00  0.92703430169E+02  0.92703430169E+02  0.00000000000E+00 0.  1.
         21   -1    0    0  502  503 -0.00000000000E+00 -0.00000000000E+00 -0.60703397553E+03  0.60703397553E+03  0.00000000000E+00 0.  1.
          6    1    1    2  501    0 -0.18595313193E+02  0.18325919334E+02 -0.20895211777E+02  0.17620225557E+03  0.17300000000E+03 0.  1.
         -6    1    1    2    0  503  0.18595313193E+02 -0.18325919334E+02 -0.49343533358E+03  0.52353515013E+03  0.17300000000E+03 0.  1.
<mgrwt>
<rscale>  2 0.17495892E+03</rscale>
<asrwt>0</asrwt>
<pdfrwt beam="1">  1       21 0.14262067E-01 0.17495892E+03</pdfrwt>
<pdfrwt beam="2">  1       21 0.93389839E-01 0.17495892E+03</pdfrwt>
<totfact> 0.41836036E+04</totfact>
</mgrwt>
</event>
<event>
 4    2  0.4086940E+000  0.2029611E+03  0.7546771E-02  0.1147265E+00
         21   -1    0    0  501  502  0.00000000000E+00  0.00000000000E+00  0.28021691205E+03  0.28021691205E+03  0.00000000000E+00 0.  1.
         21   -1    0    0  502  503 -0.00000000000E+00 -0.00000000000E+00 -0.17682920661E+03  0.17682920661E+03  0.00000000000E+00 0. -1.
          6    1    1    2  501    0  0.94270161671E+02 -0.48758010972E+02  0.14554499487E+03  0.24975298306E+03  0.17300000000E+03 0.  1.
         -6    1    1    2    0  503 -0.94270161671E+02  0.48758010972E+02 -0.42157289429E+02  0.20729313560E+03  0.17300000000E+03 0. -1.
<mgrwt>
<rscale>  2 0.20296110E+03</rscale>
<asrwt>0</asrwt>
<pdfrwt beam="1">  1       21 0.43110294E-01 0.20296110E+03</pdfrwt>
<pdfrwt beam="2">  1       21 0.27204493E-01 0.20296110E+03</pdfrwt>
<totfact> 0.66330636E+04</totfact>
</mgrwt>
</event>
<event>
 4    2  0.4086940E+000  0.2685174E+03  0.7546771E-02  0.1102131E+00
         21   -1    0    0  501  502  0.00000000000E+00  0.00000000000E+00  0.28860132976E+03  0.28860132976E+03  0.00000000000E+00 0.  1.
         21   -1    0    0  502  503 -0.00000000000E+00 -0.00000000000E+00 -0.40214403831E+03  0.40214403831E+03  0.00000000000E+00 0. -1.
          6    1    1    2  501    0  0.10302929474E+03  0.17764453064E+03  0.15578076145E+03  0.31043398731E+03  0.17300000000E+03 0.  1.
         -6    1    1    2    0  503 -0.10302929474E+03 -0.17764453064E+03 -0.26932347000E+03  0.38031138076E+03  0.17300000000E+03 0. -1.
<mgrwt>
<rscale>  2 0.26851744E+03</rscale>
<asrwt>0</asrwt>
<pdfrwt beam="1">  1       21 0.44400205E-01 0.26851744E+03</pdfrwt>
<pdfrwt beam="2">  1       21 0.61868314E-01 0.26851744E+03</pdfrwt>
<totfact> 0.11301560E+04</totfact>
</mgrwt>
</event>
<event>
 4    2  0.4086940E+000  0.2450246E+03  0.7546771E-02  0.1116490E+00
         21   -1    0    0  501  502  0.00000000000E+00  0.00000000000E+00  0.36421165741E+03  0.36421165741E+03  0.00000000000E+00 0. -1.
         21   -1    0    0  502  503 -0.00000000000E+00 -0.00000000000E+00 -0.16534357753E+03  0.16534357753E+03  0.00000000000E+00 0. -1.
          6    1    1    2  501    0  0.17010083684E+03 -0.34259867857E+02  0.84836956166E+02  0.25929585876E+03  0.17300000000E+03 0. -1.
         -6    1    1    2    0  503 -0.17010083684E+03  0.34259867857E+02  0.11403112371E+03  0.27025937618E+03  0.17300000000E+03 0. -1.
<mgrwt>
<rscale>  2 0.24502456E+03</rscale>
<asrwt>0</asrwt>
<pdfrwt beam="1">  1       21 0.56032563E-01 0.24502456E+03</pdfrwt>
<pdfrwt beam="2">  1       21 0.25437473E-01 0.24502456E+03</pdfrwt>
<totfact> 0.42875742E+04</totfact>
</mgrwt>
</event>
<event>
 4    2  0.4086940E+000  0.2366920E+03  0.7546771E-02  0.1122016E+00
         21   -1    0    0  501  502  0.00000000000E+00  0.00000000000E+00  0.51301796612E+03  0.51301796612E+03  0.00000000000E+00 0.  1.
         21   -1    0    0  502  503 -0.00000000000E+00 -0.00000000000E+00 -0.11554380200E+03  0.11554380200E+03  0.00000000000E+00 0.  1.
          6    1    1    2  501    0  0.14720974321E+03  0.66508596407E+02  0.27236061814E+03  0.36083709372E+03  0.17300000000E+03 0.  1.
         -6    1    1    2    0  503 -0.14720974321E+03 -0.66508596407E+02  0.12511354598E+03  0.26772467440E+03  0.17300000000E+03 0.  1.
<mgrwt>
<rscale>  2 0.23669200E+03</rscale>
<asrwt>0</asrwt>
<pdfrwt beam="1">  1       21 0.78925840E-01 0.23669200E+03</pdfrwt>
<pdfrwt beam="2">  1       21 0.17775970E-01 0.23669200E+03</pdfrwt>
<totfact> 0.39867808E+04</totfact>
</mgrwt>
</event>
<event>
 4    2  0.4086940E+000  0.2294876E+03  0.7546771E-02  0.1127001E+00
         21   -1    0    0  503  502  0.00000000000E+00  0.00000000000E+00  0.24077707961E+03  0.24077707961E+03  0.00000000000E+00 0. -1.
         21   -1    0    0  501  503 -0.00000000000E+00 -0.00000000000E+00 -0.65870829106E+03  0.65870829106E+03  0.00000000000E+00 0.  1.
          6    1    1    2  501    0  0.27139336307E+02  0.14832057944E+03 -0.57653087180E+03  0.62052589310E+03  0.17300000000E+03 0.  1.
         -6    1    1    2    0  502 -0.27139336307E+02 -0.14832057944E+03  0.15859966036E+03  0.27895947757E+03  0.17300000000E+03 0. -1.
<mgrwt>
<rscale>  2 0.22948755E+03</rscale>
<asrwt>0</asrwt>
<pdfrwt beam="1">  1       21 0.37042627E-01 0.22948755E+03</pdfrwt>
<pdfrwt beam="2">  1       21 0.10133974E+00 0.22948755E+03</pdfrwt>
<totfact> 0.54400227E+03</totfact>
</mgrwt>
</event>
<event>
 4    2  0.4086940E+000  0.1938306E+03  0.7546771E-02  0.1155051E+00
         21   -1    0    0  503  502  0.00000000000E+00  0.00000000000E+00  0.18692766133E+03  0.18692766133E+03  0.00000000000E+00 0. -1.
         21   -1    0    0  501  503 -0.00000000000E+00 -0.00000000000E+00 -0.23143169994E+03  0.23143169994E+03  0.00000000000E+00 0. -1.
          6    1    1    2  501    0  0.87301931660E+02  0.44345612304E+01 -0.98119191443E+02  0.21725024358E+03  0.17300000000E+03 0. -1.
         -6    1    1    2    0  502 -0.87301931660E+02 -0.44345612304E+01  0.53615152835E+02  0.20110911769E+03  0.17300000000E+03 0. -1.
<mgrwt>
<rscale>  2 0.19383058E+03</rscale>
<asrwt>0</asrwt>
<pdfrwt beam="1">  1       21 0.28758102E-01 0.19383058E+03</pdfrwt>
<pdfrwt beam="2">  1       21 0.35604877E-01 0.19383058E+03</pdfrwt>
<totfact> 0.87957574E+04</totfact>
</mgrwt>
</event>
<event>
 4    2  0.4086940E+000  0.1820911E+03  0.7546771E-02  0.1165794E+00
         21   -1    0    0  503  502  0.00000000000E+00  0.00000000000E+00  0.46681049591E+03  0.46681049591E+03  0.00000000000E+00 0. -1.
         21   -1    0    0  501  503 -0.00000000000E+00 -0.00000000000E+00 -0.82093971399E+02  0.82093971399E+02  0.00000000000E+00 0.  1.
          6    1    1    2  501    0 -0.39013837954E+02 -0.41304930478E+02  0.91599615087E+02  0.20383244668E+03  0.17300000000E+03 0.  1.
         -6    1    1    2    0  502  0.39013837954E+02  0.41304930478E+02  0.29311690942E+03  0.34507202063E+03  0.17300000000E+03 0. -1.
<mgrwt>
<rscale>  2 0.18209112E+03</rscale>
<asrwt>0</asrwt>
<pdfrwt beam="1">  1       21 0.71816998E-01 0.18209112E+03</pdfrwt>
<pdfrwt beam="2">  1       21 0.12629842E-01 0.18209112E+03</pdfrwt>
<totfact> 0.94136518E+04</totfact>
</mgrwt>
</event>
<event>
 4    2  0.4086940E+000  0.1776689E+03  0.7546771E-02  0.1170078E+00
         21   -1    0    0  501  502  0.00000000000E+00  0.00000000000E+00  0.11216523580E+03  0.11216523580E+03  0.00000000000E+00 0. -1.
         21   -1    0    0  502  503 -0.00000000000E+00 -0.00000000000E+00 -0.75565392858E+03  0.75565392858E+03  0.00000000000E+00 0. -1.
          6    1    1    2  501    0 -0.40154139680E+02 -0.49871631292E+01  0.21996608325E+02  0.17902535437E+03  0.17300000000E+03 0. -1.
         -6    1    1    2    0  503  0.40154139680E+02  0.49871631292E+01 -0.66548530110E+03  0.68879381002E+03  0.17300000000E+03 0. -1.
<mgrwt>
<rscale>  2 0.17766887E+03</rscale>
<asrwt>0</asrwt>
<pdfrwt beam="1">  1       21 0.17256190E-01 0.17766887E+03</pdfrwt>
<pdfrwt beam="2">  1       21 0.11625445E+00 0.17766887E+03</pdfrwt>
<totfact> 0.17498784E+04</totfact>
</mgrwt>
</event>
<event>
 4    2  0.4086940E+000  0.2804972E+03  0.7546771E-02  0.1095418E+00
         21   -1    0    0  501  502  0.00000000000E+00  0.00000000000E+00  0.10575390095E+03  0.10575390095E+03  0.00000000000E+00 0.  1.
         21   -1    0    0  502  503 -0.00000000000E+00 -0.00000000000E+00 -0.92791185983E+03  0.92791185983E+03  0.00000000000E+00 0. -1.
          6    1    1    2  501    0  0.17307084675E+03  0.13709917909E+03 -0.18097390561E+03  0.33381170952E+03  0.17300000000E+03 0. -1.
         -6    1    1    2    0  503 -0.17307084675E+03 -0.13709917909E+03 -0.64118405327E+03  0.69985405126E+03  0.17300000000E+03 0.  1.
<mgrwt>
<rscale>  2 0.28049724E+03</rscale>
<asrwt>0</asrwt>
<pdfrwt beam="1">  1       21 0.16269831E-01 0.28049724E+03</pdfrwt>
<pdfrwt beam="2">  1       21 0.14275567E+00 0.28049724E+03</pdfrwt>
<totfact> 0.10889052E+04</totfact>
</mgrwt>
</event>
<event>
 4    2  0.4086940E+000  0.2545463E+03  0.7546771E-02  0.1110465E+00
         21   -1    0    0  503  502  0.00000000000E+00  0.00000000000E+00  0.19508268797E+03  0.19508268797E+03  0.00000000000E+00 0.  1.
         21   -1    0    0  501  503 -0.00000000000E+00 -0.00000000000E+00 -0.60668976371E+03  0.60668976371E+03  0.00000000000E+00 0.  1.
          6    1    1    2  501    0 -0.18115447619E+03 -0.45253660165E+02 -0.47548561967E+03  0.53933330373E+03  0.17300000000E+03 0.  1.
         -6    1    1    2    0  502  0.18115447619E+03  0.45253660165E+02  0.63878543924E+02  0.26243914795E+03  0.17300000000E+03 0.  1.
<mgrwt>
<rscale>  2 0.25454634E+03</rscale>
<asrwt>0</asrwt>
<pdfrwt beam="1">  1       21 0.30012722E-01 0.25454634E+03</pdfrwt>
<pdfrwt beam="2">  1       21 0.93336884E-01 0.25454634E+03</pdfrwt>
<totfact> 0.98863365E+03</totfact>
</mgrwt>
</event>
<event>
 4    2  0.4086940E+000  0.2024512E+03  0.7546771E-02  0.1147687E+00
         21   -1    0    0  501  502  0.00000000000E+00  0.00000000000E+00  0.16925483359E+03  0.16925483359E+03  0.00000000000E+00 0.  1.
         21   -1    0    0  502  503 -0.00000000000E+00 -0.00000000000E+00 -0.24933474062E+03  0.24933474062E+03  0.00000000000E+00 0. -1.
          6    1    1    2  501    0 -0.10464388208E+03  0.10351146947E+02 -0.75547200251E+02  0.21608763908E+03  0.17300000000E+03 0. -1.
         -6    1    1    2    0  503  0.10464388208E+03 -0.10351146947E+02 -0.45327067860E+01  0.20250193513E+03  0.17300000000E+03 0.  1.
<mgrwt>
<rscale>  2 0.20245120E+03</rscale>
<asrwt>0</asrwt>
<pdfrwt beam="1">  1       21 0.26039205E-01 0.20245120E+03</pdfrwt>
<pdfrwt beam="2">  1       21 0.38359191E-01 0.20245120E+03</pdfrwt>
<totfact> 0.91454513E+04</totfact>
</mgrwt>
</event>
<event>
 4    2  0.4086940E+000  0.1994130E+03  0.7546771E-02  0.1150235E+00
         21   -1    0    0  503  502  0.00000000000E+00  0.00000000000E+00  0.22343314556E+03  0.22343314556E+03  0.00000000000E+00 0. -1.
         21   -1    0    0  501  503 -0.00000000000E+00 -0.00000000000E+00 -0.25053493614E+03  0.25053493614E+03  0.00000000000E+00 0. -1.
          6    1    1    2  501    0 -0.98770993487E+02 -0.89904417971E+01 -0.14108698262E+03  0.24427663389E+03  0.17300000000E+03 0. -1.
         -6    1    1    2    0  502  0.98770993487E+02  0.89904417971E+01  0.11398519204E+03  0.22969144782E+03  0.17300000000E+03 0. -1.
<mgrwt>
<rscale>  2 0.19941298E+03</rscale>
<asrwt>0</asrwt>
<pdfrwt beam="1">  1       21 0.34374330E-01 0.19941298E+03</pdfrwt>
<pdfrwt beam="2">  1       21 0.38543836E-01 0.19941298E+03</pdfrwt>
<totfact> 0.52766658E+04</totfact>
</mgrwt>
</event>
<event>
 4    2  0.4086940E+000  0.2428782E+03  0.7546771E-02  0.1117890E+00
         21   -1    0    0  503  502  0.00000000000E+00  0.00000000000E+00  0.19321952459E+03  0.19321952459E+03  0.00000000000E+00 0. -1.
         21   -1    0    0  501  503 -0.00000000000E+00 -0.00000000000E+00 -0.34872738967E+03  0.34872738967E+03  0.00000000000E+00 0. -1.
          6    1    1    2  501    0 -0.12808796046E+03 -0.11249135703E+03 -0.17337815355E+03  0.29841215651E+03  0.17300000000E+03 0. -1.
         -6    1    1    2    0  502  0.12808796046E+03  0.11249135703E+03  0.17870288463E+02  0.24353475775E+03  0.17300000000E+03 0. -1.
<mgrwt>
<rscale>  2 0.24287822E+03</rscale>
<asrwt>0</asrwt>
<pdfrwt beam="1">  1       21 0.29726081E-01 0.24287822E+03</pdfrwt>
<pdfrwt beam="2">  1       21 0.53650367E-01 0.24287822E+03</pdfrwt>
<totfact> 0.34789325E+04</totfact>
</mgrwt>
</event>
<event>
 4    2  0.4086940E+000  0.2367672E+03  0.7546771E-02  0.1121965E+00
         21   -1    0    0  501  502  0.00000000000E+00  0.00000000000E+00  0.13904283602E+03  0.13904283602E+03  0.00000000000E+00 0.  1.
         21   -1    0    0  502  503 -0.00000000000E+00 -0.00000000000E+00 -0.61348718694E+03  0.61348718694E+03  0.00000000000E+00 0. -1.
          6    1    1    2  501    0  0.30026611845E+02 -0.15883363155E+03 -0.16918175603E+02  0.23737090091E+03  0.17300000000E+03 0.  1.
         -6    1    1    2    0  503 -0.30026611845E+02  0.15883363155E+03 -0.45752617532E+03  0.51515912205E+03  0.17300000000E+03 0. -1.
<mgrwt>
<rscale>  2 0.23676723E+03</rscale>
<asrwt>0</asrwt>
<pdfrwt beam="1">  1       21 0.21391206E-01 0.23676723E+03</pdfrwt>
<pdfrwt beam="2">  1       21 0.94382643E-01 0.23676723E+03</pdfrwt>
<totfact> 0.18653367E+04</totfact>
</mgrwt>
</event>
<event>
 4    2  0.4086940E+000  0.1850517E+03  0.7546771E-02  0.1163002E+00
         21   -1    0    0  503  502  0.00000000000E+00  0.00000000000E+00  0.31199445450E+02  0.31199445450E+02  0.00000000000E+00 0.  1.
         21   -1    0    0  501  503 -0.00000000000E+00 -0.00000000000E+00 -0.15186021132E+04  0.15186021132E+04  0.00000000000E+00 0.  1.
          6    1    1    2  501    0 -0.42438675175E+02 -0.50140826521E+02 -0.11517127495E+04  0.11664846338E+04  0.17300000000E+03 0.  1.
         -6    1    1    2    0  502  0.42438675175E+02  0.50140826521E+02 -0.33568991833E+03  0.38331692489E+03  0.17300000000E+03 0.  1.
<mgrwt>
<rscale>  2 0.18505173E+03</rscale>
<asrwt>0</asrwt>
<pdfrwt beam="1">  1       21 0.47999141E-02 0.18505173E+03</pdfrwt>
<pdfrwt beam="2">  1       21 0.23363112E+00 0.18505173E+03</pdfrwt>
<totfact> 0.24122056E+04</totfact>
</mgrwt>
</event>
<event>
 4    2  0.4086940E+000  0.1758945E+03  0.7546771E-02  0.1171837E+00
         21   -1    0    0  501  502  0.00000000000E+00  0.00000000000E+00  0.37453355454E+03  0.37453355454E+03  0.00000000000E+00 0. -1.
         21   -1    0    0  502  503 -0.00000000000E+00 -0.00000000000E+00 -0.82763690892E+02  0.82763690892E+02  0.00000000000E+00 0. -1.
          6    1    1    2  501    0 -0.31585735583E+02 -0.34947231785E+01  0.13591737328E+03  0.22228901039E+03  0.17300000000E+03 0. -1.
         -6    1    1    2    0  503  0.31585735583E+02  0.34947231785E+01  0.15585249037E+03  0.23500823504E+03  0.17300000000E+03 0. -1.
<mgrwt>
<rscale>  2 0.17589449E+03</rscale>
<asrwt>0</asrwt>
<pdfrwt beam="1">  1       21 0.57620546E-01 0.17589449E+03</pdfrwt>
<pdfrwt beam="2">  1       21 0.12732876E-01 0.17589449E+03</pdfrwt>
<totfact> 0.14992308E+05</totfact>
</mgrwt>
</event>
<event>
 4    2  0.4086940E+000  0.1825684E+03  0.7546771E-02  0.1165340E+00
         21   -1    0    0  501  502  0.00000000000E+00  0.00000000000E+00  0.45116097351E+03  0.45116097351E+03  0.00000000000E+00 0.  1.
         21   -1    0    0  502  503 -0.00000000000E+00 -0.00000000000E+00 -0.86709478881E+02  0.86709478881E+02  0.00000000000E+00 0.  1.
          6    1    1    2  501    0  0.49780766202E+02  0.30398800165E+02  0.28567800107E+03  0.33903264154E+03  0.17300000000E+03 0.  1.
         -6    1    1    2    0  503 -0.49780766202E+02 -0.30398800165E+02  0.78773493556E+02  0.19883781085E+03  0.17300000000E+03 0.  1.
<mgrwt>
<rscale>  2 0.18256838E+03</rscale>
<asrwt>0</asrwt>
<pdfrwt beam="1">  1       21 0.69409379E-01 0.18256838E+03</pdfrwt>
<pdfrwt beam="2">  1       21 0.13339920E-01 0.18256838E+03</pdfrwt>
<totfact> 0.91965302E+04</totfact>
</mgrwt>
</event>
<event>
 4    2  0.4086940E+000  0.1929555E+03  0.7546771E-02  0.1155822E+00
         21   -1    0    0  503  502  0.00000000000E+00  0.00000000000E+00  0.43165742219E+03  0.43165742219E+03  0.00000000000E+00 0. -1.
         21   -1    0    0  501  503 -0.00000000000E+00 -0.00000000000E+00 -0.87677408274E+02  0.87677408274E+02  0.00000000000E+00 0. -1.
          6    1    1    2  501    0 -0.56348790746E+02  0.64246725231E+02  0.13889499891E+03  0.23774702657E+03  0.17300000000E+03 0. -1.
         -6    1    1    2    0  502  0.56348790746E+02 -0.64246725231E+02  0.20508501500E+03  0.28158780389E+03  0.17300000000E+03 0. -1.
<mgrwt>
<rscale>  2 0.19295551E+03</rscale>
<asrwt>0</asrwt>
<pdfrwt beam="1">  1       21 0.66408833E-01 0.19295551E+03</pdfrwt>
<pdfrwt beam="2">  1       21 0.13488832E-01 0.19295551E+03</pdfrwt>
<totfact> 0.98912033E+04</totfact>
</mgrwt>
</event>
<event>
 4    2  0.4086940E+000  0.1786967E+03  0.7546771E-02  0.1169070E+00
         21   -1    0    0  501  502  0.00000000000E+00  0.00000000000E+00  0.47183588772E+02  0.47183588772E+02  0.00000000000E+00 0. -1.
         21   -1    0    0  502  503 -0.00000000000E+00 -0.00000000000E+00 -0.69574048447E+03  0.69574048447E+03  0.00000000000E+00 0. -1.
          6    1    1    2  501    0 -0.14470100981E+02  0.42357064325E+02 -0.26294269926E+03  0.31791723422E+03  0.17300000000E+03 0. -1.
         -6    1    1    2    0  503  0.14470100981E+02 -0.42357064325E+02 -0.38561419644E+03  0.42500683902E+03  0.17300000000E+03 0. -1.
<mgrwt>
<rscale>  2 0.17869668E+03</rscale>
<asrwt>0</asrwt>
<pdfrwt beam="1">  1       21 0.72590143E-02 0.17869668E+03</pdfrwt>
<pdfrwt beam="2">  1       21 0.10703699E+00 0.17869668E+03</pdfrwt>
<totfact> 0.99683088E+04</totfact>
</mgrwt>
</event>
<event>
 4    2  0.4086940E+000  0.1881741E+03  0.7546771E-02  0.1160119E+00
         21   -1    0    0  503  502  0.00000000000E+00  0.00000000000E+00  0.13002192446E+04  0.13002192446E+04  0.00000000000E+00 0.  1.
         21   -1    0    0  501  503 -0.00000000000E+00 -0.00000000000E+00 -0.91059725985E+02  0.91059725985E+02  0.00000000000E+00 0. -1.
          6    1    1    2  501    0  0.69006475060E+02  0.26806880143E+02  0.22180671094E+02  0.18947687087E+03  0.17300000000E+03 0. -1.
         -6    1    1    2    0  502 -0.69006475060E+02 -0.26806880143E+02  0.11869788475E+04  0.12018020997E+04  0.17300000000E+03 0.  1.
<mgrwt>
<rscale>  2 0.18817413E+03</rscale>
<asrwt>0</asrwt>
<pdfrwt beam="1">  1       21 0.20003372E+00 0.18817413E+03</pdfrwt>
<pdfrwt beam="2">  1       21 0.14009190E-01 0.18817413E+03</pdfrwt>
<totfact> 0.59845204E+03</totfact>
</mgrwt>
</event>
<event>
 4    2  0.4086940E+000  0.2080263E+03  0.7546771E-02  0.1143139E+00
         21   -1    0    0  501  502  0.00000000000E+00  0.00000000000E+00  0.76610824212E+02  0.76610824212E+02  0.00000000000E+00 0. -1.
         21   -1    0    0  502  503 -0.00000000000E+00 -0.00000000000E+00 -0.57713408467E+03  0.57713408467E+03  0.00000000000E+00 0. -1.
          6    1    1    2  501    0  0.10104914696E+03 -0.55991309895E+02 -0.29791609639E+03  0.36335789158E+03  0.17300000000E+03 0. -1.
         -6    1    1    2    0  503 -0.10104914696E+03  0.55991309895E+02 -0.20260716406E+03  0.29038701730E+03  0.17300000000E+03 0. -1.
<mgrwt>
<rscale>  2 0.20802634E+03</rscale>
<asrwt>0</asrwt>
<pdfrwt beam="1">  1       21 0.11786281E-01 0.20802634E+03</pdfrwt>
<pdfrwt beam="2">  1       21 0.88789860E-01 0.20802634E+03</pdfrwt>
<totfact> 0.65212685E+04</totfact>
</mgrwt>
</event>
<event>
 4    2  0.4086940E+000  0.1921518E+03  0.7546771E-02  0.1156535E+00
         21   -1    0    0  501  502  0.00000000000E+00  0.00000000000E+00  0.53561029157E+02  0.53561029157E+02  0.00000000000E+00 0. -1.
         21   -1    0    0  502  503 -0.00000000000E+00 -0.00000000000E+00 -0.83582682250E+03  0.83582682250E+03  0.00000000000E+00 0. -1.
          6    1    1    2  501    0 -0.37850965320E+02 -0.74569429653E+02 -0.57729338157E+03  0.60843236585E+03  0.17300000000E+03 0.  1.
         -6    1    1    2    0  503  0.37850965320E+02  0.74569429653E+02 -0.20497241177E+03  0.28095548580E+03  0.17300000000E+03 0.  1.
<mgrwt>
<rscale>  2 0.19215175E+03</rscale>
<asrwt>0</asrwt>
<pdfrwt beam="1">  1       21 0.82401592E-02 0.19215175E+03</pdfrwt>
<pdfrwt beam="2">  1       21 0.12858873E+00 0.19215175E+03</pdfrwt>
<totfact> 0.50655346E+04</totfact>
</mgrwt>
</event>
<event>
 4    2  0.4086940E+000  0.2115421E+03  0.7546771E-02  0.1140351E+00
         21   -1    0    0  503  502  0.00000000000E+00  0.00000000000E+00  0.18052882232E+03  0.18052882232E+03  0.00000000000E+00 0.  1.
         21   -1    0    0  501  503 -0.00000000000E+00 -0.00000000000E+00 -0.29761953056E+03  0.29761953056E+03  0.00000000000E+00 0.  1.
          6    1    1    2  501    0 -0.11512460497E+03  0.39590072337E+02 -0.15627788734E+03  0.26300727474E+03  0.17300000000E+03 0.  1.
         -6    1    1    2    0  502  0.11512460497E+03 -0.39590072337E+02  0.39187179093E+02  0.21514107814E+03  0.17300000000E+03 0.  1.
<mgrwt>
<rscale>  2 0.21154207E+03</rscale>
<asrwt>0</asrwt>
<pdfrwt beam="1">  1       21 0.27773665E-01 0.21154207E+03</pdfrwt>
<pdfrwt beam="2">  1       21 0.45787620E-01 0.21154207E+03</pdfrwt>
<totfact> 0.56092735E+04</totfact>
</mgrwt>
</event>
<event>
 4    2  0.4086940E+000  0.3999340E+03  0.7546771E-02  0.1043803E+00
         21   -1    0    0  501  502  0.00000000000E+00  0.00000000000E+00  0.37586285636E+03  0.37586285636E+03  0.00000000000E+00 0.  1.
         21   -1    0    0  502  503 -0.00000000000E+00 -0.00000000000E+00 -0.47484896425E+03  0.47484896425E+03  0.00000000000E+00 0. -1.
          6    1    1    2  501    0  0.24890706996E+03 -0.26088985049E+03  0.87565966899E+02  0.40940816079E+03  0.17300000000E+03 0.  1.
         -6    1    1    2    0  503 -0.24890706996E+03  0.26088985049E+03 -0.18655207479E+03  0.44130365982E+03  0.17300000000E+03 0. -1.
<mgrwt>
<rscale>  2 0.39993405E+03</rscale>
<asrwt>0</asrwt>
<pdfrwt beam="1">  1       21 0.57825055E-01 0.39993405E+03</pdfrwt>
<pdfrwt beam="2">  1       21 0.73053686E-01 0.39993405E+03</pdfrwt>
<totfact> 0.42194616E+03</totfact>
</mgrwt>
</event>
<event>
 4    2  0.4086940E+000  0.4602531E+03  0.7546771E-02  0.1024708E+00
         21   -1    0    0  501  502  0.00000000000E+00  0.00000000000E+00  0.80801790202E+03  0.80801790202E+03  0.00000000000E+00 0. -1.
         21   -1    0    0  502  503 -0.00000000000E+00 -0.00000000000E+00 -0.26720869451E+03  0.26720869451E+03  0.00000000000E+00 0. -1.
          6    1    1    2  501    0 -0.41725450671E+03  0.88332141648E+02  0.34427644220E+03  0.57476878766E+03  0.17300000000E+03 0. -1.
         -6    1    1    2    0  503  0.41725450671E+03 -0.88332141648E+02  0.19653276531E+03  0.50045780887E+03  0.17300000000E+03 0. -1.
<mgrwt>
<rscale>  2 0.46025307E+03</rscale>
<asrwt>0</asrwt>
<pdfrwt beam="1">  1       21 0.12431045E+00 0.46025307E+03</pdfrwt>
<pdfrwt beam="2">  1       21 0.41109030E-01 0.46025307E+03</pdfrwt>
<totfact> 0.23696927E+03</totfact>
</mgrwt>
</event>
<event>
 4    2  0.4086940E+000  0.2832663E+03  0.7546771E-02  0.1093918E+00
         21   -1    0    0  503  502  0.00000000000E+00  0.00000000000E+00  0.11589157130E+04  0.11589157130E+04  0.00000000000E+00 0. -1.
         21   -1    0    0  501  503 -0.00000000000E+00 -0.00000000000E+00 -0.13081859857E+03  0.13081859857E+03  0.00000000000E+00 0. -1.
          6    1    1    2  501    0  0.94623885096E+02 -0.20336453987E+03  0.71601728041E+02  0.29217567175E+03  0.17300000000E+03 0. -1.
         -6    1    1    2    0  502 -0.94623885096E+02  0.20336453987E+03  0.95649538638E+03  0.99755863982E+03  0.17300000000E+03 0. -1.
<mgrwt>
<rscale>  2 0.28326633E+03</rscale>
<asrwt>0</asrwt>
<pdfrwt beam="1">  1       21 0.17829472E+00 0.28326633E+03</pdfrwt>
<pdfrwt beam="2">  1       21 0.20125939E-01 0.28326633E+03</pdfrwt>
<totfact> 0.39787081E+03</totfact>
</mgrwt>
</event>
<event>
 4    2  0.4086940E+000  0.1870244E+03  0.7546771E-02  0.1161173E+00
         21   -1    0    0  503  502  0.00000000000E+00  0.00000000000E+00  0.97695195995E+02  0.97695195995E+02  0.00000000000E+00 0. -1.
         21   -1    0    0  501  503 -0.00000000000E+00 -0.00000000000E+00 -0.53736725871E+03  0.53736725871E+03  0.00000000000E+00 0. -1.
          6    1    1    2  501    0  0.17413236732E+02  0.68890464063E+02 -0.40327107789E+03  0.44452860326E+03  0.17300000000E+03 0.  1.
         -6    1    1    2    0  502 -0.17413236732E+02 -0.68890464063E+02 -0.36400984831E+02  0.19053385145E+03  0.17300000000E+03 0.  1.
<mgrwt>
<rscale>  2 0.18702438E+03</rscale>
<asrwt>0</asrwt>
<pdfrwt beam="1">  1       21 0.15030030E-01 0.18702438E+03</pdfrwt>
<pdfrwt beam="2">  1       21 0.82671886E-01 0.18702438E+03</pdfrwt>
<totfact> 0.50033631E+04</totfact>
</mgrwt>
</event>
<event>
 4    2  0.4086940E+000  0.2351067E+03  0.7546771E-02  0.1123096E+00
         21   -1    0    0  503  502  0.00000000000E+00  0.00000000000E+00  0.35037698155E+03  0.35037698155E+03  0.00000000000E+00 0.  1.
         21   -1    0    0  501  503 -0.00000000000E+00 -0.00000000000E+00 -0.16216638964E+03  0.16216638964E+03  0.00000000000E+00 0. -1.
          6    1    1    2  501    0 -0.12019965970E+03  0.10439453846E+03  0.13635299913E+03  0.27178542681E+03  0.17300000000E+03 0. -1.
         -6    1    1    2    0  502  0.12019965970E+03 -0.10439453846E+03  0.51857592781E+02  0.24075794438E+03  0.17300000000E+03 0. -1.
<mgrwt>
<rscale>  2 0.23510674E+03</rscale>
<asrwt>0</asrwt>
<pdfrwt beam="1">  1       21 0.53904151E-01 0.23510674E+03</pdfrwt>
<pdfrwt beam="2">  1       21 0.24948675E-01 0.23510674E+03</pdfrwt>
<totfact> 0.48526163E+04</totfact>
</mgrwt>
</event>
<event>
 4    2  0.4086940E+000  0.2263291E+03  0.7546771E-02  0.1129251E+00
         21   -1    0    0  501  502  0.00000000000E+00  0.00000000000E+00  0.83478484174E+03  0.83478484174E+03  0.00000000000E+00 0.  1.
         21   -1    0    0  502  503 -0.00000000000E+00 -0.00000000000E+00 -0.72963839998E+02  0.72963839998E+02  0.00000000000E+00 0.  1.
          6    1    1    2  501    0  0.62970608352E+02 -0.13164559024E+03  0.19993179457E+03  0.30198937304E+03  0.17300000000E+03 0.  1.
         -6    1    1    2    0  503 -0.62970608352E+02  0.13164559024E+03  0.56188920717E+03  0.60575930870E+03  0.17300000000E+03 0.  1.
<mgrwt>
<rscale>  2 0.22632909E+03</rscale>
<asrwt>0</asrwt>
<pdfrwt beam="1">  1       21 0.12842843E+00 0.22632909E+03</pdfrwt>
<pdfrwt beam="2">  1       21 0.11225207E-01 0.22632909E+03</pdfrwt>
<totfact> 0.28895291E+04</totfact>
</mgrwt>
</event>
<event>
 4    2  0.4086940E+000  0.2361437E+03  0.7546771E-02  0.1122389E+00
         21   -1    0    0  501  502  0.00000000000E+00  0.00000000000E+00  0.19769210692E+03  0.19769210692E+03  0.00000000000E+00 0. -1.
         21   -1    0    0  502  503 -0.00000000000E+00 -0.00000000000E+00 -0.47379704279E+03  0.47379704279E+03  0.00000000000E+00 0.  1.
          6    1    1    2  501    0 -0.55759430507E+02  0.15075062378E+03  0.75522149096E+02  0.24792631902E+03  0.17300000000E+03 0. -1.
         -6    1    1    2    0  503  0.55759430507E+02 -0.15075062378E+03 -0.35162708496E+03  0.42356283069E+03  0.17300000000E+03 0.  1.
<mgrwt>
<rscale>  2 0.23614374E+03</rscale>
<asrwt>0</asrwt>
<pdfrwt beam="1">  1       21 0.30414171E-01 0.23614374E+03</pdfrwt>
<pdfrwt beam="2">  1       21 0.72891852E-01 0.23614374E+03</pdfrwt>
<totfact> 0.17135265E+04</totfact>
</mgrwt>
</event>
<event>
 4    2  0.4086940E+000  0.1869867E+03  0.7546771E-02  0.1161208E+00
         21   -1    0    0  503  502  0.00000000000E+00  0.00000000000E+00  0.30800047667E+03  0.30800047667E+03  0.00000000000E+00 0.  1.
         21   -1    0    0  501  503 -0.00000000000E+00 -0.00000000000E+00 -0.11664418312E+03  0.11664418312E+03  0.00000000000E+00 0.  1.
          6    1    1    2  501    0  0.13904039897E+02 -0.69582262466E+02  0.60926321588E+02  0.19666222372E+03  0.17300000000E+03 0.  1.
         -6    1    1    2    0  502 -0.13904039897E+02  0.69582262466E+02  0.13042997196E+03  0.22798243608E+03  0.17300000000E+03 0.  1.
<mgrwt>
<rscale>  2 0.18698667E+03</rscale>
<asrwt>0</asrwt>
<pdfrwt beam="1">  1       21 0.47384688E-01 0.18698667E+03</pdfrwt>
<pdfrwt beam="2">  1       21 0.17945259E-01 0.18698667E+03</pdfrwt>
<totfact> 0.12052481E+05</totfact>
</mgrwt>
</event>
<event>
 4    2  0.4086940E+000  0.1747591E+03  0.7546771E-02  0.1172974E+00
         21   -1    0    0  501  502  0.00000000000E+00  0.00000000000E+00  0.72031495279E+02  0.72031495279E+02  0.00000000000E+00 0. -1.
         21   -1    0    0  502  503 -0.00000000000E+00 -0.00000000000E+00 -0.44209460661E+03  0.44209460661E+03  0.00000000000E+00 0. -1.
          6    1    1    2  501    0 -0.48586890942E+01  0.24251291574E+02 -0.13301276832E+03  0.21962041922E+03  0.17300000000E+03 0. -1.
         -6    1    1    2    0  503  0.48586890942E+01 -0.24251291574E+02 -0.23705034301E+03  0.29450568267E+03  0.17300000000E+03 0. -1.
<mgrwt>
<rscale>  2 0.17475907E+03</rscale>
<asrwt>0</asrwt>
<pdfrwt beam="1">  1       21 0.11081769E-01 0.17475907E+03</pdfrwt>
<pdfrwt beam="2">  1       21 0.68014555E-01 0.17475907E+03</pdfrwt>
<totfact> 0.13435516E+05</totfact>
</mgrwt>
</event>
<event>
 4    2  0.4086940E+000  0.2801211E+03  0.7546771E-02  0.1095623E+00
         21   -1    0    0  503  502  0.00000000000E+00  0.00000000000E+00  0.37359002445E+03  0.37359002445E+03  0.00000000000E+00 0. -1.
         21   -1    0    0  501  503 -0.00000000000E+00 -0.00000000000E+00 -0.23991778621E+03  0.23991778621E+03  0.00000000000E+00 0.  1.
          6    1    1    2  501    0  0.19989796090E+03 -0.92626372412E+02  0.17509230347E+03  0.33034096684E+03  0.17300000000E+03 0. -1.
         -6    1    1    2    0  502 -0.19989796090E+03  0.92626372412E+02 -0.41420065224E+02  0.28316684382E+03  0.17300000000E+03 0.  1.
<mgrwt>
<rscale>  2 0.28012112E+03</rscale>
<asrwt>0</asrwt>
<pdfrwt beam="1">  1       21 0.57475388E-01 0.28012112E+03</pdfrwt>
<pdfrwt beam="2">  1       21 0.36910429E-01 0.28012112E+03</pdfrwt>
<totfact> 0.19221079E+04</totfact>
</mgrwt>
</event>
<event>
 4    2  0.4086940E+000  0.2236675E+03  0.7546771E-02  0.1131178E+00
         21   -1    0    0  503  502  0.00000000000E+00  0.00000000000E+00  0.82501404846E+02  0.82501404846E+02  0.00000000000E+00 0. -1.
         21   -1    0    0  501  503 -0.00000000000E+00 -0.00000000000E+00 -0.65794356745E+03  0.65794356745E+03  0.00000000000E+00 0. -1.
          6    1    1    2  501    0 -0.13993161006E+03  0.22744305433E+02 -0.39136459805E+03  0.45076979438E+03  0.17300000000E+03 0. -1.
         -6    1    1    2    0  502  0.13993161006E+03 -0.22744305433E+02 -0.18407756455E+03  0.28967517791E+03  0.17300000000E+03 0. -1.
<mgrwt>
<rscale>  2 0.22366752E+03</rscale>
<asrwt>0</asrwt>
<pdfrwt beam="1">  1       21 0.12692524E-01 0.22366752E+03</pdfrwt>
<pdfrwt beam="2">  1       21 0.10122208E+00 0.22366752E+03</pdfrwt>
<totfact> 0.41652016E+04</totfact>
</mgrwt>
</event>
<event>
 4    2  0.4086940E+000  0.1813614E+03  0.7546771E-02  0.1166492E+00
         21   -1    0    0  501  502  0.00000000000E+00  0.00000000000E+00  0.39637316892E+03  0.39637316892E+03  0.00000000000E+00 0. -1.
         21   -1    0    0  502  503 -0.00000000000E+00 -0.00000000000E+00 -0.13952794239E+03  0.13952794239E+03  0.00000000000E+00 0. -1.
          6    1    1    2  501    0  0.54008994707E+02  0.67823482205E+01  0.29900080151E+03  0.34970480560E+03  0.17300000000E+03 0. -1.
         -6    1    1    2    0  503 -0.54008994707E+02 -0.67823482205E+01 -0.42155574983E+02  0.18619630571E+03  0.17300000000E+03 0. -1.
<mgrwt>
<rscale>  2 0.18136144E+03</rscale>
<asrwt>0</asrwt>
<pdfrwt beam="1">  1       21 0.60980487E-01 0.18136144E+03</pdfrwt>
<pdfrwt beam="2">  1       21 0.21465837E-01 0.18136144E+03</pdfrwt>
<totfact> 0.50862838E+04</totfact>
</mgrwt>
</event>
<event>
 4    2  0.4086940E+000  0.2156972E+03  0.7546771E-02  0.1137132E+00
         21   -1    0    0  501  502  0.00000000000E+00  0.00000000000E+00  0.26174391472E+03  0.26174391472E+03  0.00000000000E+00 0.  1.
         21   -1    0    0  502  503 -0.00000000000E+00 -0.00000000000E+00 -0.27792017716E+03  0.27792017716E+03  0.00000000000E+00 0.  1.
          6    1    1    2  501    0 -0.28152775208E+02  0.12571286577E+03  0.15390628198E+03  0.26497631405E+03  0.17300000000E+03 0.  1.
         -6    1    1    2    0  503  0.28152775208E+02 -0.12571286577E+03 -0.17008254442E+03  0.27468777783E+03  0.17300000000E+03 0.  1.
<mgrwt>
<rscale>  2 0.21569725E+03</rscale>
<asrwt>0</asrwt>
<pdfrwt beam="1">  1       21 0.40268294E-01 0.21569725E+03</pdfrwt>
<pdfrwt beam="2">  1       21 0.42756950E-01 0.21569725E+03</pdfrwt>
<totfact> 0.30883246E+04</totfact>
</mgrwt>
</event>
<event>
 4    2  0.4086940E+000  0.1948451E+03  0.7546771E-02  0.1154163E+00
         21   -1    0    0  501  502  0.00000000000E+00  0.00000000000E+00  0.36848091518E+03  0.36848091518E+03  0.00000000000E+00 0.  1.
         21   -1    0    0  502  503 -0.00000000000E+00 -0.00000000000E+00 -0.10467165611E+03  0.10467165611E+03  0.00000000000E+00 0.  1.
          6    1    1    2  501    0 -0.24062050095E+02 -0.86351848210E+02  0.10227780541E+03  0.22005765931E+03  0.17300000000E+03 0.  1.
         -6    1    1    2    0  503  0.24062050095E+02  0.86351848210E+02  0.16153145367E+03  0.25309491198E+03  0.17300000000E+03 0.  1.
<mgrwt>
<rscale>  2 0.19484513E+03</rscale>
<asrwt>0</asrwt>
<pdfrwt beam="1">  1       21 0.56689371E-01 0.19484513E+03</pdfrwt>
<pdfrwt beam="2">  1       21 0.16103332E-01 0.19484513E+03</pdfrwt>
<totfact> 0.10072151E+05</totfact>
</mgrwt>
</event>
<event>
 4    2  0.4086940E+000  0.2484850E+03  0.7546771E-02  0.1114266E+00
         21   -1    0    0  503  502  0.00000000000E+00  0.00000000000E+00  0.24372782716E+03  0.24372782716E+03  0.00000000000E+00 0.  1.
         21   -1    0    0  501  503 -0.00000000000E+00 -0.00000000000E+00 -0.30517606702E+03  0.30517606702E+03  0.00000000000E+00 0. -1.
          6    1    1    2  501    0 -0.13095083951E+03  0.12111010072E+03 -0.14384120939E+03  0.28711508561E+03  0.17300000000E+03 0. -1.
         -6    1    1    2    0  502  0.13095083951E+03 -0.12111010072E+03  0.82392969539E+02  0.26178880857E+03  0.17300000000E+03 0.  1.
<mgrwt>
<rscale>  2 0.24848497E+03</rscale>
<asrwt>0</asrwt>
<pdfrwt beam="1">  1       21 0.37496589E-01 0.24848497E+03</pdfrwt>
<pdfrwt beam="2">  1       21 0.46950164E-01 0.24848497E+03</pdfrwt>
<totfact> 0.28955875E+04</totfact>
</mgrwt>
</event>
<event>
 4    2  0.4086940E+000  0.1944811E+03  0.7546771E-02  0.1154481E+00
         21   -1    0    0  501  502  0.00000000000E+00  0.00000000000E+00  0.69147993838E+02  0.69147993838E+02  0.00000000000E+00 0. -1.
         21   -1    0    0  502  503 -0.00000000000E+00 -0.00000000000E+00 -0.63449307501E+03  0.63449307501E+03  0.00000000000E+00 0. -1.
          6    1    1    2  501    0 -0.47216091080E+02  0.75263195527E+02 -0.15201572267E+03  0.24684344795E+03  0.17300000000E+03 0. -1.
         -6    1    1    2    0  503  0.47216091080E+02 -0.75263195527E+02 -0.41332935850E+03  0.45679762089E+03  0.17300000000E+03 0. -1.
<mgrwt>
<rscale>  2 0.19448112E+03</rscale>
<asrwt>0</asrwt>
<pdfrwt beam="1">  1       21 0.10638153E-01 0.19448112E+03</pdfrwt>
<pdfrwt beam="2">  1       21 0.97614317E-01 0.19448112E+03</pdfrwt>
<totfact> 0.63157858E+04</totfact>
</mgrwt>
</event>
<event>
 4    2  0.4086940E+000  0.1944640E+03  0.7546771E-02  0.1154496E+00
         21   -1    0    0  503  502  0.00000000000E+00  0.00000000000E+00  0.50419053545E+02  0.50419053545E+02  0.00000000000E+00 0.  1.
         21   -1    0    0  501  503 -0.00000000000E+00 -0.00000000000E+00 -0.13922618483E+04  0.13922618483E+04  0.00000000000E+00 0.  1.
          6    1    1    2  501    0  0.30807463815E+02  0.83295466522E+02 -0.11608387802E+04  0.11770144044E+04  0.17300000000E+03 0.  1.
         -6    1    1    2    0  502 -0.30807463815E+02 -0.83295466522E+02 -0.18100401452E+03  0.26566649740E+03  0.17300000000E+03 0.  1.
<mgrwt>
<rscale>  2 0.19446397E+03</rscale>
<asrwt>0</asrwt>
<pdfrwt beam="1">  1       21 0.77567784E-02 0.19446397E+03</pdfrwt>
<pdfrwt beam="2">  1       21 0.21419410E+00 0.19446397E+03</pdfrwt>
<totfact> 0.13813167E+04</totfact>
</mgrwt>
</event>
<event>
 4    2  0.4086940E+000  0.3208823E+03  0.7546771E-02  0.1075244E+00
         21   -1    0    0  503  502  0.00000000000E+00  0.00000000000E+00  0.27482245910E+03  0.27482245910E+03  0.00000000000E+00 0.  1.
         21   -1    0    0  501  503 -0.00000000000E+00 -0.00000000000E+00 -0.43313146374E+03  0.43313146374E+03  0.00000000000E+00 0. -1.
          6    1    1    2  501    0  0.82376102193E+02  0.25739197748E+03 -0.20921061389E+03  0.38305943827E+03  0.17300000000E+03 0.  1.
         -6    1    1    2    0  502 -0.82376102193E+02 -0.25739197748E+03  0.50901609241E+02  0.32489448457E+03  0.17300000000E+03 0.  1.
<mgrwt>
<rscale>  2 0.32088230E+03</rscale>
<asrwt>0</asrwt>
<pdfrwt beam="1">  1       21 0.42280378E-01 0.32088230E+03</pdfrwt>
<pdfrwt beam="2">  1       21 0.66635610E-01 0.32088230E+03</pdfrwt>
<totfact> 0.10371763E+04</totfact>
</mgrwt>
</event>
<event>
 4    2  0.4086940E+000  0.1897941E+03  0.7546771E-02  0.1158647E+00
         21   -1    0    0  501  502  0.00000000000E+00  0.00000000000E+00  0.82644644770E+02  0.82644644770E+02  0.00000000000E+00 0.  1.
         21   -1    0    0  502  503 -0.00000000000E+00 -0.00000000000E+00 -0.66623003180E+03  0.66623003180E+03  0.00000000000E+00 0.  1.
          6    1    1    2  501    0  0.46314513182E+02  0.62831355631E+02 -0.71613434978E+02  0.20285536091E+03  0.17300000000E+03 0.  1.
         -6    1    1    2    0  503 -0.46314513182E+02 -0.62831355631E+02 -0.51197195205E+03  0.54601931566E+03  0.17300000000E+03 0.  1.
<mgrwt>
<rscale>  2 0.18979413E+03</rscale>
<asrwt>0</asrwt>
<pdfrwt beam="1">  1       21 0.12714561E-01 0.18979413E+03</pdfrwt>
<pdfrwt beam="2">  1       21 0.10249692E+00 0.18979413E+03</pdfrwt>
<totfact> 0.41012582E+04</totfact>
</mgrwt>
</event>
<event>
 4    2  0.4086940E+000  0.1787298E+03  0.7546771E-02  0.1169038E+00
         21   -1    0    0  501  502  0.00000000000E+00  0.00000000000E+00  0.78098925617E+03  0.78098925617E+03  0.00000000000E+00 0. -1.
         21   -1    0    0  502  503 -0.00000000000E+00 -0.00000000000E+00 -0.41130572525E+02  0.41130572525E+02  0.00000000000E+00 0. -1.
          6    1    1    2  501    0 -0.12527970508E+02  0.43109214997E+02  0.40054408688E+03  0.43861135416E+03  0.17300000000E+03 0. -1.
         -6    1    1    2    0  503  0.12527970508E+02 -0.43109214997E+02  0.33931459677E+03  0.38350847454E+03  0.17300000000E+03 0. -1.
<mgrwt>
<rscale>  2 0.17872984E+03</rscale>
<asrwt>0</asrwt>
<pdfrwt beam="1">  1       21 0.12015218E+00 0.17872984E+03</pdfrwt>
<pdfrwt beam="2">  1       21 0.63277810E-02 0.17872984E+03</pdfrwt>
<totfact> 0.95338056E+04</totfact>
</mgrwt>
</event>
<event>
 4    2  0.4086940E+000  0.1749598E+03  0.7546771E-02  0.1172772E+00
         21   -1    0    0  501  502  0.00000000000E+00  0.00000000000E+00  0.53174725299E+03  0.53174725299E+03  0.00000000000E+00 0.  1.
         21   -1    0    0  502  503 -0.00000000000E+00 -0.00000000000E+00 -0.23261046359E+03  0.23261046359E+03  0.00000000000E+00 0.  1.
          6    1    1    2  501    0 -0.23032309110E+02 -0.12305565130E+02  0.48110035693E+03  0.51192623261E+03  0.17300000000E+03 0.  1.
         -6    1    1    2    0  503  0.23032309110E+02  0.12305565130E+02 -0.18196356753E+03  0.25243148398E+03  0.17300000000E+03 0.  1.
<mgrwt>
<rscale>  2 0.17495975E+03</rscale>
<asrwt>0</asrwt>
<pdfrwt beam="1">  1       21 0.81807269E-01 0.17495975E+03</pdfrwt>
<pdfrwt beam="2">  1       21 0.35786225E-01 0.17495975E+03</pdfrwt>
<totfact> 0.99689855E+03</totfact>
</mgrwt>
</event>
<event>
 4    2  0.4086940E+000  0.1857135E+03  0.7546771E-02  0.1162385E+00
         21   -1    0    0  501  502  0.00000000000E+00  0.00000000000E+00  0.46192966755E+02  0.46192966755E+02  0.00000000000E+00 0. -1.
         21   -1    0    0  502  503 -0.00000000000E+00 -0.00000000000E+00 -0.85465784543E+03  0.85465784543E+03  0.00000000000E+00 0. -1.
          6    1    1    2  501    0  0.67378857625E+02 -0.45400075255E+01 -0.24410186695E+03  0.30671687852E+03  0.17300000000E+03 0. -1.
         -6    1    1    2    0  503 -0.67378857625E+02  0.45400075255E+01 -0.56436301172E+03  0.59413393366E+03  0.17300000000E+03 0. -1.
<mgrwt>
<rscale>  2 0.18571355E+03</rscale>
<asrwt>0</asrwt>
<pdfrwt beam="1">  1       21 0.71066105E-02 0.18571355E+03</pdfrwt>
<pdfrwt beam="2">  1       21 0.13148582E+00 0.18571355E+03</pdfrwt>
<totfact> 0.62113450E+04</totfact>
</mgrwt>
</event>
<event>
 4    2  0.4086940E+000  0.2019191E+03  0.7546771E-02  0.1148130E+00
         21   -1    0    0  503  502  0.00000000000E+00  0.00000000000E+00  0.11251905300E+03  0.11251905300E+03  0.00000000000E+00 0.  1.
         21   -1    0    0  501  503 -0.00000000000E+00 -0.00000000000E+00 -0.36418611220E+03  0.36418611220E+03  0.00000000000E+00 0.  1.
          6    1    1    2  501    0  0.38793451290E+02  0.96630123313E+02 -0.14275633319E+03  0.24728664190E+03  0.17300000000E+03 0.  1.
         -6    1    1    2    0  502 -0.38793451290E+02 -0.96630123313E+02 -0.10891072600E+03  0.22941852330E+03  0.17300000000E+03 0.  1.
<mgrwt>
<rscale>  2 0.20191907E+03</rscale>
<asrwt>0</asrwt>
<pdfrwt beam="1">  1       21 0.17310624E-01 0.20191907E+03</pdfrwt>
<pdfrwt beam="2">  1       21 0.56028633E-01 0.20191907E+03</pdfrwt>
<totfact> 0.90143648E+04</totfact>
</mgrwt>
</event>
<event>
 4    2  0.4086940E+000  0.1763208E+03  0.7546771E-02  0.1171412E+00
         21   -1    0    0  501  502  0.00000000000E+00  0.00000000000E+00  0.48936274314E+02  0.48936274314E+02  0.00000000000E+00 0. -1.
         21   -1    0    0  502  503 -0.00000000000E+00 -0.00000000000E+00 -0.66757901653E+03  0.66757901653E+03  0.00000000000E+00 0. -1.
          6    1    1    2  501    0 -0.27702006667E+02 -0.19814877813E+02 -0.38810384954E+03  0.42627881555E+03  0.17300000000E+03 0.  1.
         -6    1    1    2    0  503  0.27702006667E+02  0.19814877813E+02 -0.23053889267E+03  0.29023647529E+03  0.17300000000E+03 0.  1.
<mgrwt>
<rscale>  2 0.17632082E+03</rscale>
<asrwt>0</asrwt>
<pdfrwt beam="1">  1       21 0.75286582E-02 0.17632082E+03</pdfrwt>
<pdfrwt beam="2">  1       21 0.10270446E+00 0.17632082E+03</pdfrwt>
<totfact> 0.10342617E+05</totfact>
</mgrwt>
</event>
<event>
 4    2  0.4086940E+000  0.1895934E+03  0.7546771E-02  0.1158829E+00
         21   -1    0    0  503  502  0.00000000000E+00  0.00000000000E+00  0.21381513027E+03  0.21381513027E+03  0.00000000000E+00 0. -1.
         21   -1    0    0  501  503 -0.00000000000E+00 -0.00000000000E+00 -0.31733585116E+03  0.31733585116E+03  0.00000000000E+00 0. -1.
          6    1    1    2  501    0 -0.73803076798E+02 -0.23869367850E+02 -0.23387398120E+03  0.30106922784E+03  0.17300000000E+03 0. -1.
         -6    1    1    2    0  502  0.73803076798E+02  0.23869367850E+02  0.13035326031E+03  0.23008175360E+03  0.17300000000E+03 0. -1.
<mgrwt>
<rscale>  2 0.18959336E+03</rscale>
<asrwt>0</asrwt>
<pdfrwt beam="1">  1       21 0.32894635E-01 0.18959336E+03</pdfrwt>
<pdfrwt beam="2">  1       21 0.48820900E-01 0.18959336E+03</pdfrwt>
<totfact> 0.35682469E+04</totfact>
</mgrwt>
</event>
<event>
 4    2  0.4086940E+000  0.2562299E+03  0.7546771E-02  0.1109430E+00
         21   -1    0    0  503  502  0.00000000000E+00  0.00000000000E+00  0.79759490247E+02  0.79759490247E+02  0.00000000000E+00 0.  1.
         21   -1    0    0  501  503 -0.00000000000E+00 -0.00000000000E+00 -0.84386981577E+03  0.84386981577E+03  0.00000000000E+00 0. -1.
          6    1    1    2  501    0  0.39697811979E+02 -0.18479407530E+03 -0.30968545717E+03  0.40194383802E+03  0.17300000000E+03 0. -1.
         -6    1    1    2    0  502 -0.39697811979E+02  0.18479407530E+03 -0.45442486836E+03  0.52168546800E+03  0.17300000000E+03 0.  1.
<mgrwt>
<rscale>  2 0.25622991E+03</rscale>
<asrwt>0</asrwt>
<pdfrwt beam="1">  1       21 0.12270691E-01 0.25622991E+03</pdfrwt>
<pdfrwt beam="2">  1       21 0.12982613E+00 0.25622991E+03</pdfrwt>
<totfact> 0.23593818E+04</totfact>
</mgrwt>
</event>
<event>
 4    2  0.4086940E+000  0.1877208E+03  0.7546771E-02  0.1160533E+00
         21   -1    0    0  501  502  0.00000000000E+00  0.00000000000E+00  0.62611216101E+03  0.62611216101E+03  0.00000000000E+00 0. -1.
         21   -1    0    0  502  503 -0.00000000000E+00 -0.00000000000E+00 -0.63826423731E+02  0.63826423731E+02  0.00000000000E+00 0. -1.
          6    1    1    2  501    0  0.27409152203E+02  0.67519255313E+02  0.16254388901E+03  0.24831356652E+03  0.17300000000E+03 0. -1.
         -6    1    1    2    0  503 -0.27409152203E+02 -0.67519255313E+02  0.39974184828E+03  0.44162501823E+03  0.17300000000E+03 0. -1.
<mgrwt>
<rscale>  2 0.18772083E+03</rscale>
<asrwt>0</asrwt>
<pdfrwt beam="1">  1       21 0.96324944E-01 0.18772083E+03</pdfrwt>
<pdfrwt beam="2">  1       21 0.98194502E-02 0.18772083E+03</pdfrwt>
<totfact> 0.75309535E+04</totfact>
</mgrwt>
</event>
<event>
 4    2  0.4086940E+000  0.1817678E+03  0.7546771E-02  0.1166103E+00
         21   -1    0    0  503  502  0.00000000000E+00  0.00000000000E+00  0.24219029725E+02  0.24219029725E+02  0.00000000000E+00 0.  1.
         21   -1    0    0  501  503 -0.00000000000E+00 -0.00000000000E+00 -0.16500262476E+04  0.16500262476E+04  0.00000000000E+00 0. -1.
          6    1    1    2  501    0  0.27252716677E+02  0.48660276164E+02 -0.11613185942E+04  0.11754575323E+04  0.17300000000E+03 0.  1.
         -6    1    1    2    0  502 -0.27252716677E+02 -0.48660276164E+02 -0.46448862360E+03  0.49878774493E+03  0.17300000000E+03 0.  1.
<mgrwt>
<rscale>  2 0.18176780E+03</rscale>
<asrwt>0</asrwt>
<pdfrwt beam="1">  1       21 0.37260040E-02 0.18176780E+03</pdfrwt>
<pdfrwt beam="2">  1       21 0.25385023E+00 0.18176780E+03</pdfrwt>
<totfact> 0.28115488E+04</totfact>
</mgrwt>
</event>
<event>
 4    2  0.4086940E+000  0.1823900E+03  0.7546771E-02  0.1165510E+00
         21   -1    0    0  501  502  0.00000000000E+00  0.00000000000E+00  0.31605263460E+03  0.31605263460E+03  0.00000000000E+00 0.  1.
         21   -1    0    0  502  503 -0.00000000000E+00 -0.00000000000E+00 -0.43775632318E+03  0.43775632318E+03  0.00000000000E+00 0.  1.
          6    1    1    2  501    0 -0.96754795788E+01  0.56951650313E+02  0.26763032767E+03  0.32387049521E+03  0.17300000000E+03 0.  1.
         -6    1    1    2    0  503  0.96754795788E+01 -0.56951650313E+02 -0.38933401625E+03  0.42993846256E+03  0.17300000000E+03 0.  1.
<mgrwt>
<rscale>  2 0.18238998E+03</rscale>
<asrwt>0</asrwt>
<pdfrwt beam="1">  1       21 0.48623482E-01 0.18238998E+03</pdfrwt>
<pdfrwt beam="2">  1       21 0.67347127E-01 0.18238998E+03</pdfrwt>
<totfact> 0.82059669E+03</totfact>
</mgrwt>
</event>
<event>
 4    2  0.4086940E+000  0.2307226E+03  0.7546771E-02  0.1126132E+00
         21   -1    0    0  503  502  0.00000000000E+00  0.00000000000E+00  0.21219141531E+03  0.21219141531E+03  0.00000000000E+00 0. -1.
         21   -1    0    0  501  503 -0.00000000000E+00 -0.00000000000E+00 -0.25089263792E+03  0.25089263792E+03  0.00000000000E+00 0. -1.
          6    1    1    2  501    0 -0.45609364518E+01 -0.15258803131E+03 -0.17256543795E+02  0.23136701957E+03  0.17300000000E+03 0. -1.
         -6    1    1    2    0  502  0.45609364518E+01  0.15258803131E+03 -0.21444678821E+02  0.23171703366E+03  0.17300000000E+03 0. -1.
<mgrwt>
<rscale>  2 0.23072258E+03</rscale>
<asrwt>0</asrwt>
<pdfrwt beam="1">  1       21 0.32644833E-01 0.23072258E+03</pdfrwt>
<pdfrwt beam="2">  1       21 0.38598867E-01 0.23072258E+03</pdfrwt>
<totfact> 0.57465646E+04</totfact>
</mgrwt>
</event>
<event>
 4    2  0.4086940E+000  0.1832024E+03  0.7546771E-02  0.1164739E+00
         21   -1    0    0  501  502  0.00000000000E+00  0.00000000000E+00  0.10131507546E+03  0.10131507546E+03  0.00000000000E+00 0.  1.
         21   -1    0    0  502  503 -0.00000000000E+00 -0.00000000000E+00 -0.49906974246E+03  0.49906974246E+03  0.00000000000E+00 0.  1.
          6    1    1    2  501    0 -0.51459690934E+02  0.31401159931E+02 -0.24813516538E+02  0.18487520991E+03  0.17300000000E+03 0.  1.
         -6    1    1    2    0  503  0.51459690934E+02 -0.31401159931E+02 -0.37294115047E+03  0.41550960801E+03  0.17300000000E+03 0.  1.
<mgrwt>
<rscale>  2 0.18320244E+03</rscale>
<asrwt>0</asrwt>
<pdfrwt beam="1">  1       21 0.15586935E-01 0.18320244E+03</pdfrwt>
<pdfrwt beam="2">  1       21 0.76779959E-01 0.18320244E+03</pdfrwt>
<totfact> 0.55423762E+04</totfact>
</mgrwt>
</event>
<event>
 4    2  0.4086940E+000  0.1780197E+03  0.7546771E-02  0.1169733E+00
         21   -1    0    0  503  502  0.00000000000E+00  0.00000000000E+00  0.13210639660E+04  0.13210639660E+04  0.00000000000E+00 0. -1.
         21   -1    0    0  501  503 -0.00000000000E+00 -0.00000000000E+00 -0.51847619996E+02  0.51847619996E+02  0.00000000000E+00 0.  1.
          6    1    1    2  501    0  0.41721530632E+02 -0.46166509938E+01  0.13142282760E+03  0.22127575375E+03  0.17300000000E+03 0.  1.
         -6    1    1    2    0  502 -0.41721530632E+02  0.46166509938E+01  0.11377935184E+04  0.11516358323E+04  0.17300000000E+03 0. -1.
<mgrwt>
<rscale>  2 0.17801966E+03</rscale>
<asrwt>0</asrwt>
<pdfrwt beam="1">  1       21 0.20324059E+00 0.17801966E+03</pdfrwt>
<pdfrwt beam="2">  1       21 0.79765579E-02 0.17801966E+03</pdfrwt>
<totfact> 0.15625846E+04</totfact>
</mgrwt>
</event>
<event>
 4    2  0.4086940E+000  0.1742126E+03  0.7546771E-02  0.1173525E+00
         21   -1    0    0  503  502  0.00000000000E+00  0.00000000000E+00  0.63117365339E+02  0.63117365339E+02  0.00000000000E+00 0.  1.
         21   -1    0    0  501  503 -0.00000000000E+00 -0.00000000000E+00 -0.10089860732E+04  0.10089860732E+04  0.00000000000E+00 0.  1.
          6    1    1    2  501    0 -0.37273473499E+00  0.20516042821E+02 -0.86076008570E+03  0.87821294233E+03  0.17300000000E+03 0.  1.
         -6    1    1    2    0  502  0.37273473499E+00 -0.20516042821E+02 -0.85108622117E+02  0.19389049616E+03  0.17300000000E+03 0.  1.
<mgrwt>
<rscale>  2 0.17421265E+03</rscale>
<asrwt>0</asrwt>
<pdfrwt beam="1">  1       21 0.97103631E-02 0.17421265E+03</pdfrwt>
<pdfrwt beam="2">  1       21 0.15522864E+00 0.17421265E+03</pdfrwt>
<totfact> 0.23623731E+04</totfact>
</mgrwt>
</event>
<event>
 4    2  0.4086940E+000  0.1766558E+03  0.7546771E-02  0.1171079E+00
         21   -1    0    0  503  502  0.00000000000E+00  0.00000000000E+00  0.16119825919E+03  0.16119825919E+03  0.00000000000E+00 0. -1.
         21   -1    0    0  501  503 -0.00000000000E+00 -0.00000000000E+00 -0.20650965471E+03  0.20650965471E+03  0.00000000000E+00 0. -1.
          6    1    1    2  501    0  0.29220746257E+02 -0.20601686907E+02  0.23320525985E+02  0.17818846328E+03  0.17300000000E+03 0. -1.
         -6    1    1    2    0  502 -0.29220746257E+02  0.20601686907E+02 -0.68631921504E+02  0.18951945062E+03  0.17300000000E+03 0. -1.
<mgrwt>
<rscale>  2 0.17665583E+03</rscale>
<asrwt>0</asrwt>
<pdfrwt beam="1">  1       21 0.24799732E-01 0.17665583E+03</pdfrwt>
<pdfrwt beam="2">  1       21 0.31770716E-01 0.17665583E+03</pdfrwt>
<totfact> 0.14728032E+05</totfact>
</mgrwt>
</event>
<event>
 4    2  0.4086940E+000  0.1795540E+03  0.7546771E-02  0.1168235E+00
         21   -1    0    0  503  502  0.00000000000E+00  0.00000000000E+00  0.27202511257E+02  0.27202511257E+02  0.00000000000E+00 0.  1.
         21   -1    0    0  501  503 -0.00000000000E+00 -0.00000000000E+00 -0.15198454251E+04  0.15198454251E+04  0.00000000000E+00 0.  1.
          6    1    1    2  501    0 -0.46736839752E+02 -0.11239119274E+02 -0.11093032074E+04  0.11237407423E+04  0.17300000000E+03 0.  1.
         -6    1    1    2    0  502  0.46736839752E+02  0.11239119274E+02 -0.38333970644E+03  0.42330719404E+03  0.17300000000E+03 0.  1.
<mgrwt>
<rscale>  2 0.17955403E+03</rscale>
<asrwt>0</asrwt>
<pdfrwt beam="1">  1       21 0.41850016E-02 0.17955403E+03</pdfrwt>
<pdfrwt beam="2">  1       21 0.23382238E+00 0.17955403E+03</pdfrwt>
<totfact> 0.30444897E+04</totfact>
</mgrwt>
</event>
<event>
 4    2  0.4086940E+000  0.1741314E+03  0.7546771E-02  0.1173607E+00
         21   -1    0    0  501  502  0.00000000000E+00  0.00000000000E+00  0.84298863113E+02  0.84298863113E+02  0.00000000000E+00 0.  1.
         21   -1    0    0  502  503 -0.00000000000E+00 -0.00000000000E+00 -0.36467151246E+03  0.36467151246E+03  0.00000000000E+00 0.  1.
          6    1    1    2  501    0 -0.45164643866E+01 -0.19296060278E+02 -0.16641482236E+03  0.24086433836E+03  0.17300000000E+03 0.  1.
         -6    1    1    2    0  503  0.45164643866E+01  0.19296060278E+02 -0.11395782699E+03  0.20810603721E+03  0.17300000000E+03 0.  1.
<mgrwt>
<rscale>  2 0.17413138E+03</rscale>
<asrwt>0</asrwt>
<pdfrwt beam="1">  1       21 0.12969056E-01 0.17413138E+03</pdfrwt>
<pdfrwt beam="2">  1       21 0.56103309E-01 0.17413138E+03</pdfrwt>
<totfact> 0.15360269E+05</totfact>
</mgrwt>
</event>
<event>
 4    2  0.4086940E+000  0.1895594E+03  0.7546771E-02  0.1158859E+00
         21   -1    0    0  501  502  0.00000000000E+00  0.00000000000E+00  0.17494447795E+03  0.17494447795E+03  0.00000000000E+00 0.  1.
         21   -1    0    0  502  503 -0.00000000000E+00 -0.00000000000E+00 -0.20727661389E+03  0.20727661389E+03  0.00000000000E+00 0.  1.
          6    1    1    2  501    0  0.26194578570E+02  0.72921829953E+02 -0.34373813022E+02  0.19265074163E+03  0.17300000000E+03 0.  1.
         -6    1    1    2    0  503 -0.26194578570E+02 -0.72921829953E+02  0.20416770808E+01  0.18957035020E+03  0.17300000000E+03 0.  1.
<mgrwt>
<rscale>  2 0.18955936E+03</rscale>
<asrwt>0</asrwt>
<pdfrwt beam="1">  1       21 0.26914535E-01 0.18955936E+03</pdfrwt>
<pdfrwt beam="2">  1       21 0.31888710E-01 0.18955936E+03</pdfrwt>
<totfact> 0.12448478E+05</totfact>
</mgrwt>
</event>
<event>
 4    2  0.4086940E+000  0.2265964E+03  0.7546771E-02  0.1129059E+00
         21   -1    0    0  501  502  0.00000000000E+00  0.00000000000E+00  0.35370274636E+03  0.35370274636E+03  0.00000000000E+00 0. -1.
         21   -1    0    0  502  503 -0.00000000000E+00 -0.00000000000E+00 -0.15792276426E+03  0.15792276426E+03  0.00000000000E+00 0. -1.
          6    1    1    2  501    0 -0.20083310711E+02  0.14496067586E+03  0.17059335348E+03  0.28363361784E+03  0.17300000000E+03 0. -1.
         -6    1    1    2    0  503  0.20083310711E+02 -0.14496067586E+03  0.25186628611E+02  0.22799189278E+03  0.17300000000E+03 0. -1.
<mgrwt>
<rscale>  2 0.22659642E+03</rscale>
<asrwt>0</asrwt>
<pdfrwt beam="1">  1       21 0.54415807E-01 0.22659642E+03</pdfrwt>
<pdfrwt beam="2">  1       21 0.24295810E-01 0.22659642E+03</pdfrwt>
<totfact> 0.50224149E+04</totfact>
</mgrwt>
</event>
<event>
 4    2  0.4086940E+000  0.2409941E+03  0.7546771E-02  0.1119132E+00
         21   -1    0    0  501  502  0.00000000000E+00  0.00000000000E+00  0.46944237555E+02  0.46944237555E+02  0.00000000000E+00 0. -1.
         21   -1    0    0  502  503 -0.00000000000E+00 -0.00000000000E+00 -0.12548332185E+04  0.12548332185E+04  0.00000000000E+00 0.  1.
          6    1    1    2  501    0  0.13461109581E+03  0.10014503439E+03 -0.68115980583E+03  0.72253502068E+03  0.17300000000E+03 0.  1.
         -6    1    1    2    0  503 -0.13461109581E+03 -0.10014503439E+03 -0.52672917513E+03  0.57924243539E+03  0.17300000000E+03 0.  1.
<mgrwt>
<rscale>  2 0.24099414E+03</rscale>
<asrwt>0</asrwt>
<pdfrwt beam="1">  1       21 0.72221910E-02 0.24099414E+03</pdfrwt>
<pdfrwt beam="2">  1       21 0.19305125E+00 0.24099414E+03</pdfrwt>
<totfact> 0.20649337E+04</totfact>
</mgrwt>
</event>
<event>
 4    2  0.4086940E+000  0.1813712E+03  0.7546771E-02  0.1166483E+00
         21   -1    0    0  503  502  0.00000000000E+00  0.00000000000E+00  0.19964229748E+03  0.19964229748E+03  0.00000000000E+00 0.  1.
         21   -1    0    0  501  503 -0.00000000000E+00 -0.00000000000E+00 -0.19123064467E+03  0.19123064467E+03  0.00000000000E+00 0.  1.
          6    1    1    2  501    0 -0.10798759209E+02 -0.53384423697E+02 -0.68489859696E+02  0.19387204743E+03  0.17300000000E+03 0.  1.
         -6    1    1    2    0  502  0.10798759209E+02  0.53384423697E+02  0.76901512502E+02  0.19700089472E+03  0.17300000000E+03 0.  1.
<mgrwt>
<rscale>  2 0.18137119E+03</rscale>
<asrwt>0</asrwt>
<pdfrwt beam="1">  1       21 0.30714200E-01 0.18137119E+03</pdfrwt>
<pdfrwt beam="2">  1       21 0.29420099E-01 0.18137119E+03</pdfrwt>
<totfact> 0.11311492E+05</totfact>
</mgrwt>
</event>
<event>
 4    2  0.4086940E+000  0.1779208E+03  0.7546771E-02  0.1169831E+00
         21   -1    0    0  503  502  0.00000000000E+00  0.00000000000E+00  0.54280742081E+02  0.54280742081E+02  0.00000000000E+00 0. -1.
         21   -1    0    0  501  503 -0.00000000000E+00 -0.00000000000E+00 -0.12568928660E+04  0.12568928660E+04  0.00000000000E+00 0. -1.
          6    1    1    2  501    0 -0.17148120457E+02 -0.37851600976E+02 -0.10812785719E+04  0.10958189411E+04  0.17300000000E+03 0. -1.
         -6    1    1    2    0  502  0.17148120457E+02  0.37851600976E+02 -0.12133355206E+03  0.21535466697E+03  0.17300000000E+03 0. -1.
<mgrwt>
<rscale>  2 0.17792077E+03</rscale>
<asrwt>0</asrwt>
<pdfrwt beam="1">  1       21 0.83508827E-02 0.17792077E+03</pdfrwt>
<pdfrwt beam="2">  1       21 0.19336815E+00 0.17792077E+03</pdfrwt>
<totfact> 0.16697470E+04</totfact>
</mgrwt>
</event>
<event>
 4    2  0.4086940E+000  0.1853417E+03  0.7546771E-02  0.1162731E+00
         21   -1    0    0  503  502  0.00000000000E+00  0.00000000000E+00  0.69527569659E+03  0.69527569659E+03  0.00000000000E+00 0.  1.
         21   -1    0    0  501  503 -0.00000000000E+00 -0.00000000000E+00 -0.62173729324E+02  0.62173729324E+02  0.00000000000E+00 0.  1.
          6    1    1    2  501    0 -0.20327146405E+02  0.63319361270E+02  0.14493456452E+03  0.23528187858E+03  0.17300000000E+03 0. -1.
         -6    1    1    2    0  502  0.20327146405E+02 -0.63319361270E+02  0.48816740274E+03  0.52216754734E+03  0.17300000000E+03 0. -1.
<mgrwt>
<rscale>  2 0.18534167E+03</rscale>
<asrwt>0</asrwt>
<pdfrwt beam="1">  1       21 0.10696549E+00 0.18534167E+03</pdfrwt>
<pdfrwt beam="2">  1       21 0.95651896E-02 0.18534167E+03</pdfrwt>
<totfact> 0.61538694E+04</totfact>
</mgrwt>
</event>
<event>
 4    2  0.4086940E+000  0.1851498E+03  0.7546771E-02  0.1162910E+00
         21   -1    0    0  503  502  0.00000000000E+00  0.00000000000E+00  0.11525273605E+03  0.11525273605E+03  0.00000000000E+00 0. -1.
         21   -1    0    0  501  503 -0.00000000000E+00 -0.00000000000E+00 -0.45397786094E+03  0.45397786094E+03  0.00000000000E+00 0. -1.
          6    1    1    2  501    0  0.60254096502E+01  0.65689878840E+02 -0.33649252220E+03  0.38406728999E+03  0.17300000000E+03 0. -1.
         -6    1    1    2    0  502 -0.60254096502E+01 -0.65689878840E+02 -0.22326026946E+01  0.18516330700E+03  0.17300000000E+03 0. -1.
<mgrwt>
<rscale>  2 0.18514985E+03</rscale>
<asrwt>0</asrwt>
<pdfrwt beam="1">  1       21 0.17731191E-01 0.18514985E+03</pdfrwt>
<pdfrwt beam="2">  1       21 0.69842746E-01 0.18514985E+03</pdfrwt>
<totfact> 0.53942235E+04</totfact>
</mgrwt>
</event>
<event>
 4    2  0.4086940E+000  0.1944121E+03  0.7546771E-02  0.1154541E+00
         21   -1    0    0  503  502  0.00000000000E+00  0.00000000000E+00  0.19545173014E+02  0.19545173014E+02  0.00000000000E+00 0. -1.
         21   -1    0    0  501  503 -0.00000000000E+00 -0.00000000000E+00 -0.19522077251E+04  0.19522077251E+04  0.00000000000E+00 0.  1.
          6    1    1    2  501    0 -0.81857182261E+02 -0.34153382165E+02 -0.87054504162E+03  0.89198919349E+03  0.17300000000E+03 0.  1.
         -6    1    1    2    0  502  0.81857182261E+02  0.34153382165E+02 -0.10621175104E+04  0.10797637046E+04  0.17300000000E+03 0. -1.
<mgrwt>
<rscale>  2 0.19441207E+03</rscale>
<asrwt>0</asrwt>
<pdfrwt beam="1">  1       21 0.30069501E-02 0.19441207E+03</pdfrwt>
<pdfrwt beam="2">  1       21 0.30033961E+00 0.19441207E+03</pdfrwt>
<totfact> 0.21382235E+04</totfact>
</mgrwt>
</event>
<event>
 4    2  0.4086940E+000  0.1822195E+03  0.7546771E-02  0.1165672E+00
         21   -1    0    0  501  502  0.00000000000E+00  0.00000000000E+00  0.35995104428E+02  0.35995104428E+02  0.00000000000E+00 0. -1.
         21   -1    0    0  502  503 -0.00000000000E+00 -0.00000000000E+00 -0.92339772225E+03  0.92339772225E+03  0.00000000000E+00 0. -1.
          6    1    1    2  501    0  0.34928731356E+02 -0.45331421844E+02 -0.42839441427E+03  0.46553810613E+03  0.17300000000E+03 0. -1.
         -6    1    1    2    0  503 -0.34928731356E+02  0.45331421844E+02 -0.45900820355E+03  0.49385472055E+03  0.17300000000E+03 0. -1.
<mgrwt>
<rscale>  2 0.18221952E+03</rscale>
<asrwt>0</asrwt>
<pdfrwt beam="1">  1       21 0.55377086E-02 0.18221952E+03</pdfrwt>
<pdfrwt beam="2">  1       21 0.14206118E+00 0.18221952E+03</pdfrwt>
<totfact> 0.78307175E+04</totfact>
</mgrwt>
</event>
<event>
 4    2  0.4086940E+000  0.1763191E+03  0.7546771E-02  0.1171414E+00
         21   -1    0    0  501  502  0.00000000000E+00  0.00000000000E+00  0.33693866236E+03  0.33693866236E+03  0.00000000000E+00 0.  1.
         21   -1    0    0  502  503 -0.00000000000E+00 -0.00000000000E+00 -0.39456786605E+03  0.39456786605E+03  0.00000000000E+00 0.  1.
          6    1    1    2  501    0  0.30845584211E+02 -0.14420860351E+02  0.29133049467E+03  0.34053174360E+03  0.17300000000E+03 0.  1.
         -6    1    1    2    0  503 -0.30845584211E+02  0.14420860351E+02 -0.34895969835E+03  0.39097478480E+03  0.17300000000E+03 0.  1.
<mgrwt>
<rscale>  2 0.17631906E+03</rscale>
<asrwt>0</asrwt>
<pdfrwt beam="1">  1       21 0.51836717E-01 0.17631906E+03</pdfrwt>
<pdfrwt beam="2">  1       21 0.60702749E-01 0.17631906E+03</pdfrwt>
<totfact> 0.90346718E+03</totfact>
</mgrwt>
</event>
<event>
 4    2  0.4086940E+000  0.1987540E+03  0.7546771E-02  0.1150794E+00
         21   -1    0    0  501  502  0.00000000000E+00  0.00000000000E+00  0.86207481001E+02  0.86207481001E+02  0.00000000000E+00 0. -1.
         21   -1    0    0  502  503 -0.00000000000E+00 -0.00000000000E+00 -0.60703054548E+03  0.60703054548E+03  0.00000000000E+00 0. -1.
          6    1    1    2  501    0 -0.91206699622E+02 -0.35433170741E+02 -0.88800978037E+02  0.21768965374E+03  0.17300000000E+03 0. -1.
         -6    1    1    2    0  503  0.91206699622E+02  0.35433170741E+02 -0.43202208645E+03  0.47554837275E+03  0.17300000000E+03 0. -1.
<mgrwt>
<rscale>  2 0.19875405E+03</rscale>
<asrwt>0</asrwt>
<pdfrwt beam="1">  1       21 0.13262689E-01 0.19875405E+03</pdfrwt>
<pdfrwt beam="2">  1       21 0.93389314E-01 0.19875405E+03</pdfrwt>
<totfact> 0.47123219E+04</totfact>
</mgrwt>
</event>
<event>
 4    2  0.4086940E+000  0.1817431E+03  0.7546771E-02  0.1166127E+00
         21   -1    0    0  501  502  0.00000000000E+00  0.00000000000E+00  0.34686984563E+03  0.34686984563E+03  0.00000000000E+00 0.  1.
         21   -1    0    0  502  503 -0.00000000000E+00 -0.00000000000E+00 -0.17134740278E+03  0.17134740278E+03  0.00000000000E+00 0.  1.
          6    1    1    2  501    0 -0.35431298812E+02  0.42967126741E+02  0.26046443536E+03  0.31760395621E+03  0.17300000000E+03 0.  1.
         -6    1    1    2    0  503  0.35431298812E+02 -0.42967126741E+02 -0.84941992505E+02  0.20061329220E+03  0.17300000000E+03 0.  1.
<mgrwt>
<rscale>  2 0.18174309E+03</rscale>
<asrwt>0</asrwt>
<pdfrwt beam="1">  1       21 0.53364591E-01 0.18174309E+03</pdfrwt>
<pdfrwt beam="2">  1       21 0.26361139E-01 0.18174309E+03</pdfrwt>
<totfact> 0.45733947E+04</totfact>
</mgrwt>
</event>
<event>
 4    2  0.4086940E+000  0.1774474E+03  0.7546771E-02  0.1170297E+00
         21   -1    0    0  503  502  0.00000000000E+00  0.00000000000E+00  0.43359365454E+03  0.43359365454E+03  0.00000000000E+00 0.  1.
         21   -1    0    0  501  503 -0.00000000000E+00 -0.00000000000E+00 -0.20270292748E+03  0.20270292748E+03  0.00000000000E+00 0.  1.
          6    1    1    2  501    0 -0.16101286951E+02  0.36046196286E+02 -0.13941934512E+03  0.22566642085E+03  0.17300000000E+03 0.  1.
         -6    1    1    2    0  502  0.16101286951E+02 -0.36046196286E+02  0.37031007217E+03  0.41063016117E+03  0.17300000000E+03 0.  1.
<mgrwt>
<rscale>  2 0.17744740E+03</rscale>
<asrwt>0</asrwt>
<pdfrwt beam="1">  1       21 0.66706716E-01 0.17744740E+03</pdfrwt>
<pdfrwt beam="2">  1       21 0.31185066E-01 0.17744740E+03</pdfrwt>
<totfact> 0.20535175E+04</totfact>
</mgrwt>
</event>
<event>
 4    2  0.4086940E+000  0.1942206E+03  0.7546771E-02  0.1154709E+00
         21   -1    0    0  501  502  0.00000000000E+00  0.00000000000E+00  0.11570990517E+04  0.11570990517E+04  0.00000000000E+00 0.  1.
         21   -1    0    0  502  503 -0.00000000000E+00 -0.00000000000E+00 -0.34794617017E+02  0.34794617017E+02  0.00000000000E+00 0. -1.
          6    1    1    2  501    0  0.67712224959E+02 -0.56636558850E+02  0.71081450402E+03  0.73687102286E+03  0.17300000000E+03 0. -1.
         -6    1    1    2    0  503 -0.67712224959E+02  0.56636558850E+02  0.41148993069E+03  0.45502264589E+03  0.17300000000E+03 0. -1.
<mgrwt>
<rscale>  2 0.19422061E+03</rscale>
<asrwt>0</asrwt>
<pdfrwt beam="1">  1       21 0.17801521E+00 0.19422061E+03</pdfrwt>
<pdfrwt beam="2">  1       21 0.53530189E-02 0.19422061E+03</pdfrwt>
<totfact> 0.44929328E+04</totfact>
</mgrwt>
</event>
<event>
 4    2  0.4086940E+000  0.2679411E+03  0.7546771E-02  0.1102464E+00
         21   -1    0    0  503  502  0.00000000000E+00  0.00000000000E+00  0.52287902619E+03  0.52287902619E+03  0.00000000000E+00 0. -1.
         21   -1    0    0  501  503 -0.00000000000E+00 -0.00000000000E+00 -0.27511206857E+03  0.27511206857E+03  0.00000000000E+00 0. -1.
          6    1    1    2  501    0 -0.12651487467E+03  0.16080239684E+03 -0.15850920205E+03  0.31131590303E+03  0.17300000000E+03 0. -1.
         -6    1    1    2    0  502  0.12651487467E+03 -0.16080239684E+03  0.40627615967E+03  0.48667519174E+03  0.17300000000E+03 0. -1.
<mgrwt>
<rscale>  2 0.26794108E+03</rscale>
<asrwt>0</asrwt>
<pdfrwt beam="1">  1       21 0.80442927E-01 0.26794108E+03</pdfrwt>
<pdfrwt beam="2">  1       21 0.42324934E-01 0.26794108E+03</pdfrwt>
<totfact> 0.69512146E+03</totfact>
</mgrwt>
</event>
<event>
 4    2  0.4086940E+000  0.1795016E+03  0.7546771E-02  0.1168286E+00
         21   -1    0    0  501  502  0.00000000000E+00  0.00000000000E+00  0.17040814085E+03  0.17040814085E+03  0.00000000000E+00 0.  1.
         21   -1    0    0  502  503 -0.00000000000E+00 -0.00000000000E+00 -0.27130605529E+03  0.27130605529E+03  0.00000000000E+00 0.  1.
          6    1    1    2  501    0  0.99411804265E+01  0.46829348928E+02  0.71137629988E+02  0.19308386103E+03  0.17300000000E+03 0.  1.
         -6    1    1    2    0  503 -0.99411804265E+01 -0.46829348928E+02 -0.17203554443E+03  0.24863033511E+03  0.17300000000E+03 0.  1.
<mgrwt>
<rscale>  2 0.17950157E+03</rscale>
<asrwt>0</asrwt>
<pdfrwt beam="1">  1       21 0.26216637E-01 0.17950157E+03</pdfrwt>
<pdfrwt beam="2">  1       21 0.41739393E-01 0.17950157E+03</pdfrwt>
<totfact> 0.76836249E+04</totfact>
</mgrwt>
</event>
<event>
 4    2  0.4086940E+000  0.2309423E+03  0.7546771E-02  0.1125978E+00
         21   -1    0    0  501  502  0.00000000000E+00  0.00000000000E+00  0.84794777002E+03  0.84794777002E+03  0.00000000000E+00 0.  1.
         21   -1    0    0  502  503 -0.00000000000E+00 -0.00000000000E+00 -0.66917321037E+02  0.66917321037E+02  0.00000000000E+00 0.  1.
          6    1    1    2  501    0  0.14927445155E+03  0.33503166352E+02  0.50262085684E+03  0.55313836404E+03  0.17300000000E+03 0.  1.
         -6    1    1    2    0  503 -0.14927445155E+03 -0.33503166352E+02  0.27840959214E+03  0.36172672702E+03  0.17300000000E+03 0.  1.
<mgrwt>
<rscale>  2 0.23094225E+03</rscale>
<asrwt>0</asrwt>
<pdfrwt beam="1">  1       21 0.13045350E+00 0.23094225E+03</pdfrwt>
<pdfrwt beam="2">  1       21 0.10294973E-01 0.23094225E+03</pdfrwt>
<totfact> 0.32321292E+04</totfact>
</mgrwt>
</event>
<event>
 4    2  0.4086940E+000  0.1735361E+03  0.7546771E-02  0.1174210E+00
         21   -1    0    0  503  502  0.00000000000E+00  0.00000000000E+00  0.25957629342E+02  0.25957629342E+02  0.00000000000E+00 0.  1.
         21   -1    0    0  501  503 -0.00000000000E+00 -0.00000000000E+00 -0.12143779159E+04  0.12143779159E+04  0.00000000000E+00 0.  1.
          6    1    1    2  501    0 -0.12417391932E+02  0.56203766641E+01 -0.72526046099E+03  0.74573287210E+03  0.17300000000E+03 0. -1.
         -6    1    1    2    0  502  0.12417391932E+02 -0.56203766641E+01 -0.46315982552E+03  0.49460267310E+03  0.17300000000E+03 0. -1.
<mgrwt>
<rscale>  2 0.17353611E+03</rscale>
<asrwt>0</asrwt>
<pdfrwt beam="1">  1       21 0.39934809E-02 0.17353611E+03</pdfrwt>
<pdfrwt beam="2">  1       21 0.18682740E+00 0.17353611E+03</pdfrwt>
<totfact> 0.65071530E+04</totfact>
</mgrwt>
</event>
<event>
 4    2  0.4086940E+000  0.2685707E+03  0.7546771E-02  0.1102100E+00
         21   -1    0    0  501  502  0.00000000000E+00  0.00000000000E+00  0.12741019093E+03  0.12741019093E+03  0.00000000000E+00 0. -1.
         21   -1    0    0  502  503 -0.00000000000E+00 -0.00000000000E+00 -0.17270684411E+04  0.17270684411E+04  0.00000000000E+00 0. -1.
          6    1    1    2  501    0 -0.14608802810E+02 -0.20490926399E+03 -0.39603673675E+02  0.27147499804E+03  0.17300000000E+03 0. -1.
         -6    1    1    2    0  503  0.14608802810E+02  0.20490926399E+03 -0.15600545765E+04  0.15830036340E+04  0.17300000000E+03 0. -1.
<mgrwt>
<rscale>  2 0.26857071E+03</rscale>
<asrwt>0</asrwt>
<pdfrwt beam="1">  1       21 0.19601568E-01 0.26857071E+03</pdfrwt>
<pdfrwt beam="2">  1       21 0.26570284E+00 0.26857071E+03</pdfrwt>
<totfact> 0.11906449E+03</totfact>
</mgrwt>
</event>
<event>
 4    2  0.4086940E+000  0.2073955E+03  0.7546771E-02  0.1143645E+00
         21   -1    0    0  501  502  0.00000000000E+00  0.00000000000E+00  0.34699663247E+03  0.34699663247E+03  0.00000000000E+00 0.  1.
         21   -1    0    0  502  503 -0.00000000000E+00 -0.00000000000E+00 -0.16327473769E+03  0.16327473769E+03  0.00000000000E+00 0.  1.
          6    1    1    2  501    0 -0.50984983110E+02 -0.10239343492E+03  0.21706039967E+03  0.30021342595E+03  0.17300000000E+03 0.  1.
         -6    1    1    2    0  503  0.50984983110E+02  0.10239343492E+03 -0.33338504895E+02  0.21005794421E+03  0.17300000000E+03 0.  1.
<mgrwt>
<rscale>  2 0.20739548E+03</rscale>
<asrwt>0</asrwt>
<pdfrwt beam="1">  1       21 0.53384097E-01 0.20739548E+03</pdfrwt>
<pdfrwt beam="2">  1       21 0.25119191E-01 0.20739548E+03</pdfrwt>
<totfact> 0.49502387E+04</totfact>
</mgrwt>
</event>
<event>
 4    2  0.4086940E+000  0.1848421E+03  0.7546771E-02  0.1163197E+00
         21   -1    0    0  503  502  0.00000000000E+00  0.00000000000E+00  0.51609051059E+03  0.51609051059E+03  0.00000000000E+00 0.  1.
         21   -1    0    0  501  503 -0.00000000000E+00 -0.00000000000E+00 -0.18834837383E+03  0.18834837383E+03  0.00000000000E+00 0. -1.
          6    1    1    2  501    0  0.40645767797E+02 -0.50847882341E+02 -0.11977151434E+03  0.22025394713E+03  0.17300000000E+03 0. -1.
         -6    1    1    2    0  502 -0.40645767797E+02  0.50847882341E+02  0.44751365110E+03  0.48418493729E+03  0.17300000000E+03 0.  1.
<mgrwt>
<rscale>  2 0.18484206E+03</rscale>
<asrwt>0</asrwt>
<pdfrwt beam="1">  1       21 0.79398540E-01 0.18484206E+03</pdfrwt>
<pdfrwt beam="2">  1       21 0.28976673E-01 0.18484206E+03</pdfrwt>
<totfact> 0.16027848E+04</totfact>
</mgrwt>
</event>
<event>
 4    2  0.4086940E+000  0.2616195E+03  0.7546771E-02  0.1106174E+00
         21   -1    0    0  501  502  0.00000000000E+00  0.00000000000E+00  0.73439214354E+02  0.73439214354E+02  0.00000000000E+00 0. -1.
         21   -1    0    0  502  503 -0.00000000000E+00 -0.00000000000E+00 -0.10170391985E+04  0.10170391985E+04  0.00000000000E+00 0. -1.
          6    1    1    2  501    0  0.56967997903E+02 -0.18780421158E+03 -0.31413047534E+03  0.40880647036E+03  0.17300000000E+03 0. -1.
         -6    1    1    2    0  503 -0.56967997903E+02  0.18780421158E+03 -0.62946950885E+03  0.68167194253E+03  0.17300000000E+03 0. -1.
<mgrwt>
<rscale>  2 0.26161952E+03</rscale>
<asrwt>0</asrwt>
<pdfrwt beam="1">  1       21 0.11298342E-01 0.26161952E+03</pdfrwt>
<pdfrwt beam="2">  1       21 0.15646755E+00 0.26161952E+03</pdfrwt>
<totfact> 0.16730542E+04</totfact>
</mgrwt>
</event>
<event>
 4    2  0.4086940E+000  0.3006929E+03  0.7546771E-02  0.1084895E+00
         21   -1    0    0  503  502  0.00000000000E+00  0.00000000000E+00  0.19837998363E+04  0.19837998363E+04  0.00000000000E+00 0. -1.
         21   -1    0    0  501  503 -0.00000000000E+00 -0.00000000000E+00 -0.45589442234E+02  0.45589442234E+02  0.00000000000E+00 0.  1.
          6    1    1    2  501    0  0.17459981436E+03 -0.17321116545E+03  0.95253268885E+03  0.99886672101E+03  0.17300000000E+03 0.  1.
         -6    1    1    2    0  502 -0.17459981436E+03  0.17321116545E+03  0.98567770524E+03  0.10305225575E+04  0.17300000000E+03 0. -1.
<mgrwt>
<rscale>  2 0.30069287E+03</rscale>
<asrwt>0</asrwt>
<pdfrwt beam="1">  1       21 0.30519991E+00 0.30069287E+03</pdfrwt>
<pdfrwt beam="2">  1       21 0.70137619E-02 0.30069287E+03</pdfrwt>
<totfact> 0.43392777E+03</totfact>
</mgrwt>
</event>
<event>
 4    2  0.4086940E+000  0.1846731E+03  0.7546771E-02  0.1163356E+00
         21   -1    0    0  503  502  0.00000000000E+00  0.00000000000E+00  0.41524413011E+03  0.41524413011E+03  0.00000000000E+00 0. -1.
         21   -1    0    0  501  503 -0.00000000000E+00 -0.00000000000E+00 -0.12802813182E+03  0.12802813182E+03  0.00000000000E+00 0. -1.
          6    1    1    2  501    0  0.40497686592E+02  0.50349534659E+02 -0.19033274141E+02  0.18565129621E+03  0.17300000000E+03 0. -1.
         -6    1    1    2    0  502 -0.40497686592E+02 -0.50349534659E+02  0.30624927243E+03  0.35762096572E+03  0.17300000000E+03 0. -1.
<mgrwt>
<rscale>  2 0.18467306E+03</rscale>
<asrwt>0</asrwt>
<pdfrwt beam="1">  1       21 0.63883712E-01 0.18467306E+03</pdfrwt>
<pdfrwt beam="2">  1       21 0.19696636E-01 0.18467306E+03</pdfrwt>
<totfact> 0.53950191E+04</totfact>
</mgrwt>
</event>
<event>
 4    2  0.4086940E+000  0.2032186E+03  0.7546771E-02  0.1147052E+00
         21   -1    0    0  501  502  0.00000000000E+00  0.00000000000E+00  0.14813807422E+03  0.14813807422E+03  0.00000000000E+00 0.  1.
         21   -1    0    0  502  503 -0.00000000000E+00 -0.00000000000E+00 -0.59000173968E+03  0.59000173968E+03  0.00000000000E+00 0.  1.
          6    1    1    2  501    0  0.47431488646E+02  0.95493649362E+02  0.47119304890E+02  0.20860971233E+03  0.17300000000E+03 0.  1.
         -6    1    1    2    0  503 -0.47431488646E+02 -0.95493649362E+02 -0.48898297035E+03  0.52953010157E+03  0.17300000000E+03 0.  1.
<mgrwt>
<rscale>  2 0.20321856E+03</rscale>
<asrwt>0</asrwt>
<pdfrwt beam="1">  1       21 0.22790473E-01 0.20321856E+03</pdfrwt>
<pdfrwt beam="2">  1       21 0.90769499E-01 0.20321856E+03</pdfrwt>
<totfact> 0.18479081E+04</totfact>
</mgrwt>
</event>
<event>
 4    2  0.4086940E+000  0.2015442E+03  0.7546771E-02  0.1148443E+00
         21   -1    0    0  501  502  0.00000000000E+00  0.00000000000E+00  0.13420651732E+03  0.13420651732E+03  0.00000000000E+00 0. -1.
         21   -1    0    0  502  503 -0.00000000000E+00 -0.00000000000E+00 -0.32976810837E+03  0.32976810837E+03  0.00000000000E+00 0. -1.
          6    1    1    2  501    0  0.62936749102E+02 -0.82036736274E+02 -0.16428404954E+03  0.26001790212E+03  0.17300000000E+03 0. -1.
         -6    1    1    2    0  503 -0.62936749102E+02  0.82036736274E+02 -0.31277541506E+02  0.20395672357E+03  0.17300000000E+03 0. -1.
<mgrwt>
<rscale>  2 0.20154419E+03</rscale>
<asrwt>0</asrwt>
<pdfrwt beam="1">  1       21 0.20647157E-01 0.20154419E+03</pdfrwt>
<pdfrwt beam="2">  1       21 0.50733554E-01 0.20154419E+03</pdfrwt>
<totfact> 0.80079527E+04</totfact>
</mgrwt>
</event>
<event>
 4    2  0.4086940E+000  0.1736326E+03  0.7546771E-02  0.1174112E+00
         21   -1    0    0  501  502  0.00000000000E+00  0.00000000000E+00  0.47531362783E+03  0.47531362783E+03  0.00000000000E+00 0. -1.
         21   -1    0    0  502  503 -0.00000000000E+00 -0.00000000000E+00 -0.67856296695E+02  0.67856296695E+02  0.00000000000E+00 0. -1.
          6    1    1    2  501    0 -0.12480912503E+02  0.79695406509E+01  0.27310627051E+03  0.32362836981E+03  0.17300000000E+03 0. -1.
         -6    1    1    2    0  503  0.12480912503E+02 -0.79695406509E+01  0.13435106063E+03  0.21954155471E+03  0.17300000000E+03 0. -1.
<mgrwt>
<rscale>  2 0.17363262E+03</rscale>
<asrwt>0</asrwt>
<pdfrwt beam="1">  1       21 0.73125171E-01 0.17363262E+03</pdfrwt>
<pdfrwt beam="2">  1       21 0.10439431E-01 0.17363262E+03</pdfrwt>
<totfact> 0.12737538E+05</totfact>
</mgrwt>
</event>
<event>
 4    2  0.4086940E+000  0.2262075E+03  0.7546771E-02  0.1129338E+00
         21   -1    0    0  503  502  0.00000000000E+00  0.00000000000E+00  0.13859763015E+04  0.13859763015E+04  0.00000000000E+00 0. -1.
         21   -1    0    0  501  503 -0.00000000000E+00 -0.00000000000E+00 -0.10956057062E+03  0.10956057062E+03  0.00000000000E+00 0.  1.
          6    1    1    2  501    0  0.59013526012E+02 -0.13325997548E+03  0.29329514656E+02  0.22810093763E+03  0.17300000000E+03 0.  1.
         -6    1    1    2    0  502 -0.59013526012E+02  0.13325997548E+03  0.12470862162E+04  0.12674359345E+04  0.17300000000E+03 0. -1.
<mgrwt>
<rscale>  2 0.22620747E+03</rscale>
<asrwt>0</asrwt>
<pdfrwt beam="1">  1       21 0.21322711E+00 0.22620747E+03</pdfrwt>
<pdfrwt beam="2">  1       21 0.16855473E-01 0.22620747E+03</pdfrwt>
<totfact> 0.34011629E+03</totfact>
</mgrwt>
</event>
<event>
 4    2  0.4086940E+000  0.2187161E+03  0.7546771E-02  0.1134844E+00
         21   -1    0    0  503  502  0.00000000000E+00  0.00000000000E+00  0.10105054028E+04  0.10105054028E+04  0.00000000000E+00 0.  1.
         21   -1    0    0  501  503 -0.00000000000E+00 -0.00000000000E+00 -0.32881940232E+03  0.32881940232E+03  0.00000000000E+00 0. -1.
          6    1    1    2  501    0  0.12419713763E+03  0.49827723906E+02 -0.27874209663E+03  0.35430761705E+03  0.17300000000E+03 0. -1.
         -6    1    1    2    0  502 -0.12419713763E+03 -0.49827723906E+02  0.96042809708E+03  0.98501718803E+03  0.17300000000E+03 0.  1.
<mgrwt>
<rscale>  2 0.21871610E+03</rscale>
<asrwt>0</asrwt>
<pdfrwt beam="1">  1       21 0.15546237E+00 0.21871610E+03</pdfrwt>
<pdfrwt beam="2">  1       21 0.50587601E-01 0.21871610E+03</pdfrwt>
<totfact> 0.98480649E+02</totfact>
</mgrwt>
</event>
<event>
 4    2  0.4086940E+000  0.2361221E+03  0.7546771E-02  0.1122403E+00
         21   -1    0    0  501  502  0.00000000000E+00  0.00000000000E+00  0.42355864114E+03  0.42355864114E+03  0.00000000000E+00 0.  1.
         21   -1    0    0  502  503 -0.00000000000E+00 -0.00000000000E+00 -0.17104335214E+04  0.17104335214E+04  0.00000000000E+00 0. -1.
          6    1    1    2  501    0 -0.15276882474E+03  0.49863212976E+02  0.38167986130E+03  0.44881306837E+03  0.17300000000E+03 0.  1.
         -6    1    1    2    0  503  0.15276882474E+03 -0.49863212976E+02 -0.16685547415E+04  0.16851790941E+04  0.17300000000E+03 0. -1.
<mgrwt>
<rscale>  2 0.23612212E+03</rscale>
<asrwt>0</asrwt>
<pdfrwt beam="1">  1       21 0.65162867E-01 0.23612212E+03</pdfrwt>
<pdfrwt beam="2">  1       21 0.26314362E+00 0.23612212E+03</pdfrwt>
<totfact> 0.11359990E+02</totfact>
</mgrwt>
</event>
<event>
 4    2  0.4086940E+000  0.1870905E+03  0.7546771E-02  0.1161112E+00
         21   -1    0    0  503  502  0.00000000000E+00  0.00000000000E+00  0.53688792219E+03  0.53688792219E+03  0.00000000000E+00 0. -1.
         21   -1    0    0  501  503 -0.00000000000E+00 -0.00000000000E+00 -0.21988189283E+03  0.21988189283E+03  0.00000000000E+00 0.  1.
          6    1    1    2  501    0 -0.12965109843E+02 -0.70041124915E+02 -0.15886610420E+03  0.24544101596E+03  0.17300000000E+03 0.  1.
         -6    1    1    2    0  502  0.12965109843E+02  0.70041124915E+02  0.47587213356E+03  0.51132879906E+03  0.17300000000E+03 0. -1.
<mgrwt>
<rscale>  2 0.18709049E+03</rscale>
<asrwt>0</asrwt>
<pdfrwt beam="1">  1       21 0.82598141E-01 0.18709049E+03</pdfrwt>
<pdfrwt beam="2">  1       21 0.33827984E-01 0.18709049E+03</pdfrwt>
<totfact> 0.10810285E+04</totfact>
</mgrwt>
</event>
<event>
 4    2  0.4086940E+000  0.2432941E+03  0.7546771E-02  0.1117618E+00
         21   -1    0    0  501  502  0.00000000000E+00  0.00000000000E+00  0.19046370911E+04  0.19046370911E+04  0.00000000000E+00 0. -1.
         21   -1    0    0  502  503 -0.00000000000E+00 -0.00000000000E+00 -0.21527800468E+03  0.21527800468E+03  0.00000000000E+00 0.  1.
          6    1    1    2  501    0 -0.14183805529E+03  0.95629312382E+02  0.18251480620E+04  0.18412923308E+04  0.17300000000E+03 0. -1.
         -6    1    1    2    0  503  0.14183805529E+03 -0.95629312382E+02 -0.13578897552E+03  0.27862276502E+03  0.17300000000E+03 0.  1.
<mgrwt>
<rscale>  2 0.24329406E+03</rscale>
<asrwt>0</asrwt>
<pdfrwt beam="1">  1       21 0.29302108E+00 0.24329406E+03</pdfrwt>
<pdfrwt beam="2">  1       21 0.33119694E-01 0.24329406E+03</pdfrwt>
<totfact> 0.30736068E+02</totfact>
</mgrwt>
</event>
<event>
 4    2  0.4086940E+000  0.2226186E+03  0.7546771E-02  0.1131946E+00
         21   -1    0    0  503  502  0.00000000000E+00  0.00000000000E+00  0.10275439774E+03  0.10275439774E+03  0.00000000000E+00 0.  1.
         21   -1    0    0  501  503 -0.00000000000E+00 -0.00000000000E+00 -0.48431534783E+03  0.48431534783E+03  0.00000000000E+00 0.  1.
          6    1    1    2  501    0 -0.15642666222E+01  0.14009858513E+03 -0.20968759268E+03  0.30582339186E+03  0.17300000000E+03 0.  1.
         -6    1    1    2    0  502  0.15642666222E+01 -0.14009858513E+03 -0.17187335741E+03  0.28124635371E+03  0.17300000000E+03 0.  1.
<mgrwt>
<rscale>  2 0.22261864E+03</rscale>
<asrwt>0</asrwt>
<pdfrwt beam="1">  1       21 0.15808368E-01 0.22261864E+03</pdfrwt>
<pdfrwt beam="2">  1       21 0.74510056E-01 0.22261864E+03</pdfrwt>
<totfact> 0.56711101E+04</totfact>
</mgrwt>
</event>
<event>
 4    2  0.4086940E+000  0.1778047E+03  0.7546771E-02  0.1169945E+00
         21   -1    0    0  501  502  0.00000000000E+00  0.00000000000E+00  0.49089975210E+03  0.49089975210E+03  0.00000000000E+00 0.  1.
         21   -1    0    0  502  503 -0.00000000000E+00 -0.00000000000E+00 -0.66618075815E+02  0.66618075815E+02  0.00000000000E+00 0.  1.
          6    1    1    2  501    0 -0.33792882179E+02  0.23313871096E+02  0.26299317504E+03  0.31745851003E+03  0.17300000000E+03 0. -1.
         -6    1    1    2    0  503  0.33792882179E+02 -0.23313871096E+02  0.16128850125E+03  0.24005931789E+03  0.17300000000E+03 0. -1.
<mgrwt>
<rscale>  2 0.17780466E+03</rscale>
<asrwt>0</asrwt>
<pdfrwt beam="1">  1       21 0.75523036E-01 0.17780466E+03</pdfrwt>
<pdfrwt beam="2">  1       21 0.10248935E-01 0.17780466E+03</pdfrwt>
<totfact> 0.12228689E+05</totfact>
</mgrwt>
</event>
<event>
 4    2  0.4086940E+000  0.2940192E+03  0.7546771E-02  0.1088269E+00
         21   -1    0    0  501  502  0.00000000000E+00  0.00000000000E+00  0.40446664419E+02  0.40446664419E+02  0.00000000000E+00 0.  1.
         21   -1    0    0  502  503 -0.00000000000E+00 -0.00000000000E+00 -0.32032395771E+04  0.32032395771E+04  0.00000000000E+00 0. -1.
          6    1    1    2  501    0  0.18221999564E+03 -0.15268973793E+03 -0.64582434403E+03  0.70960296379E+03  0.17300000000E+03 0.  1.
         -6    1    1    2    0  503 -0.18221999564E+03  0.15268973793E+03 -0.25169685687E+04  0.25340832778E+04  0.17300000000E+03 0. -1.
<mgrwt>
<rscale>  2 0.29401919E+03</rscale>
<asrwt>0</asrwt>
<pdfrwt beam="1">  1       21 0.62225627E-02 0.29401919E+03</pdfrwt>
<pdfrwt beam="2">  1       21 0.49280617E+00 0.29401919E+03</pdfrwt>
<totfact> 0.34328505E+02</totfact>
</mgrwt>
</event>
<event>
 4    2  0.4086940E+000  0.1878002E+03  0.7546771E-02  0.1160460E+00
         21   -1    0    0  501  502  0.00000000000E+00  0.00000000000E+00  0.14794962809E+04  0.14794962809E+04  0.00000000000E+00 0. -1.
         21   -1    0    0  502  503 -0.00000000000E+00 -0.00000000000E+00 -0.32171460045E+02  0.32171460045E+02  0.00000000000E+00 0. -1.
          6    1    1    2  501    0 -0.69923123550E+02  0.21229311896E+02  0.11083351497E+04  0.11241333243E+04  0.17300000000E+03 0. -1.
         -6    1    1    2    0  503  0.69923123550E+02 -0.21229311896E+02  0.33898967124E+03  0.38753441666E+03  0.17300000000E+03 0. -1.
<mgrwt>
<rscale>  2 0.18780023E+03</rscale>
<asrwt>0</asrwt>
<pdfrwt beam="1">  1       21 0.22761476E+00 0.18780023E+03</pdfrwt>
<pdfrwt beam="2">  1       21 0.49494565E-02 0.18780023E+03</pdfrwt>
<totfact> 0.24836919E+04</totfact>
</mgrwt>
</event>
<event>
 4    2  0.4086940E+000  0.2264435E+03  0.7546771E-02  0.1129168E+00
         21   -1    0    0  501  502  0.00000000000E+00  0.00000000000E+00  0.18541176913E+03  0.18541176913E+03  0.00000000000E+00 0. -1.
         21   -1    0    0  502  503 -0.00000000000E+00 -0.00000000000E+00 -0.42991912860E+03  0.42991912860E+03  0.00000000000E+00 0.  1.
          6    1    1    2  501    0 -0.12718453283E+03  0.71914917631E+02  0.61504384192E+02  0.23464750168E+03  0.17300000000E+03 0. -1.
         -6    1    1    2    0  503  0.12718453283E+03 -0.71914917631E+02 -0.30601174366E+03  0.38068339605E+03  0.17300000000E+03 0.  1.
<mgrwt>
<rscale>  2 0.22644350E+03</rscale>
<asrwt>0</asrwt>
<pdfrwt beam="1">  1       21 0.28524888E-01 0.22644350E+03</pdfrwt>
<pdfrwt beam="2">  1       21 0.66141404E-01 0.22644350E+03</pdfrwt>
<totfact> 0.24203809E+04</totfact>
</mgrwt>
</event>
<event>
 4    2  0.4086940E+000  0.2805851E+03  0.7546771E-02  0.1095370E+00
         21   -1    0    0  501  502  0.00000000000E+00  0.00000000000E+00  0.17925436376E+04  0.17925436376E+04  0.00000000000E+00 0. -1.
         21   -1    0    0  502  503 -0.00000000000E+00 -0.00000000000E+00 -0.86413072772E+02  0.86413072772E+02  0.00000000000E+00 0.  1.
          6    1    1    2  501    0 -0.16406896756E+03  0.14792006740E+03  0.15118714772E+04  0.15376876588E+04  0.17300000000E+03 0. -1.
         -6    1    1    2    0  503  0.16406896756E+03 -0.14792006740E+03  0.19425908770E+03  0.34126905164E+03  0.17300000000E+03 0.  1.
<mgrwt>
<rscale>  2 0.28058505E+03</rscale>
<asrwt>0</asrwt>
<pdfrwt beam="1">  1       21 0.27577592E+00 0.28058505E+03</pdfrwt>
<pdfrwt beam="2">  1       21 0.13294320E-01 0.28058505E+03</pdfrwt>
<totfact> 0.21051360E+03</totfact>
</mgrwt>
</event>
<event>
 4    2  0.4086940E+000  0.2669854E+03  0.7546771E-02  0.1103017E+00
         21   -1    0    0  501  502  0.00000000000E+00  0.00000000000E+00  0.32915105194E+03  0.32915105194E+03  0.00000000000E+00 0. -1.
         21   -1    0    0  502  503 -0.00000000000E+00 -0.00000000000E+00 -0.35504782465E+03  0.35504782465E+03  0.00000000000E+00 0. -1.
          6    1    1    2  501    0  0.17487811354E+03 -0.10377798716E+03  0.20070679401E+03  0.33401263805E+03  0.17300000000E+03 0. -1.
         -6    1    1    2    0  503 -0.17487811354E+03  0.10377798716E+03 -0.22660356672E+03  0.35018623854E+03  0.17300000000E+03 0. -1.
<mgrwt>
<rscale>  2 0.26698544E+03</rscale>
<asrwt>0</asrwt>
<pdfrwt beam="1">  1       21 0.50638623E-01 0.26698544E+03</pdfrwt>
<pdfrwt beam="2">  1       21 0.54622742E-01 0.26698544E+03</pdfrwt>
<totfact> 0.11242395E+04</totfact>
</mgrwt>
</event>
<event>
 4    2  0.4086940E+000  0.1740081E+03  0.7546771E-02  0.1173731E+00
         21   -1    0    0  501  502  0.00000000000E+00  0.00000000000E+00  0.26031971166E+03  0.26031971166E+03  0.00000000000E+00 0.  1.
         21   -1    0    0  502  503 -0.00000000000E+00 -0.00000000000E+00 -0.12953158221E+03  0.12953158221E+03  0.00000000000E+00 0.  1.
          6    1    1    2  501    0 -0.16529998783E+02 -0.87511040697E+01  0.12766099103E+03  0.21581508592E+03  0.17300000000E+03 0. -1.
         -6    1    1    2    0  503  0.16529998783E+02  0.87511040697E+01  0.31271384148E+01  0.17403620795E+03  0.17300000000E+03 0. -1.
<mgrwt>
<rscale>  2 0.17400811E+03</rscale>
<asrwt>0</asrwt>
<pdfrwt beam="1">  1       21 0.40049186E-01 0.17400811E+03</pdfrwt>
<pdfrwt beam="2">  1       21 0.19927936E-01 0.17400811E+03</pdfrwt>
<totfact> 0.14050895E+05</totfact>
</mgrwt>
</event>
<event>
 4    2  0.4086940E+000  0.1919582E+03  0.7546771E-02  0.1156707E+00
         21   -1    0    0  503  502  0.00000000000E+00  0.00000000000E+00  0.80496495636E+03  0.80496495636E+03  0.00000000000E+00 0. -1.
         21   -1    0    0  501  503 -0.00000000000E+00 -0.00000000000E+00 -0.46499592771E+02  0.46499592771E+02  0.00000000000E+00 0.  1.
          6    1    1    2  501    0  0.42961154186E+02 -0.71226896480E+02  0.43234715713E+03  0.47304544796E+03  0.17300000000E+03 0. -1.
         -6    1    1    2    0  502 -0.42961154186E+02  0.71226896480E+02  0.32611820646E+03  0.37841910117E+03  0.17300000000E+03 0.  1.
<mgrwt>
<rscale>  2 0.19195815E+03</rscale>
<asrwt>0</asrwt>
<pdfrwt beam="1">  1       21 0.12384075E+00 0.19195815E+03</pdfrwt>
<pdfrwt beam="2">  1       21 0.71537841E-02 0.19195815E+03</pdfrwt>
<totfact> 0.71162246E+04</totfact>
</mgrwt>
</event>
<event>
 4    2  0.4086940E+000  0.2557005E+03  0.7546771E-02  0.1109754E+00
         21   -1    0    0  501  502  0.00000000000E+00  0.00000000000E+00  0.22460231847E+04  0.22460231847E+04  0.00000000000E+00 0.  1.
         21   -1    0    0  502  503 -0.00000000000E+00 -0.00000000000E+00 -0.35109185832E+02  0.35109185832E+02  0.00000000000E+00 0. -1.
          6    1    1    2  501    0  0.18695518780E+03  0.22394257038E+02  0.63400227605E+03  0.68362389589E+03  0.17300000000E+03 0. -1.
         -6    1    1    2    0  503 -0.18695518780E+03 -0.22394257038E+02  0.15769117228E+04  0.15975084747E+04  0.17300000000E+03 0.  1.
<mgrwt>
<rscale>  2 0.25570050E+03</rscale>
<asrwt>0</asrwt>
<pdfrwt beam="1">  1       21 0.34554192E+00 0.25570050E+03</pdfrwt>
<pdfrwt beam="2">  1       21 0.54014150E-02 0.25570050E+03</pdfrwt>
<totfact> 0.40854124E+03</totfact>
</mgrwt>
</event>
<event>
 4    2  0.4086940E+000  0.2611747E+03  0.7546771E-02  0.1106439E+00
         21   -1    0    0  503  502  0.00000000000E+00  0.00000000000E+00  0.10692514142E+04  0.10692514142E+04  0.00000000000E+00 0.  1.
         21   -1    0    0  501  503 -0.00000000000E+00 -0.00000000000E+00 -0.10493533356E+03  0.10493533356E+03  0.00000000000E+00 0.  1.
          6    1    1    2  501    0 -0.16046265428E+03  0.11195974347E+03  0.11455135558E+03  0.28519162092E+03  0.17300000000E+03 0.  1.
         -6    1    1    2    0  502  0.16046265428E+03 -0.11195974347E+03  0.84976472503E+03  0.88899512680E+03  0.17300000000E+03 0.  1.
<mgrwt>
<rscale>  2 0.26117475E+03</rscale>
<asrwt>0</asrwt>
<pdfrwt beam="1">  1       21 0.16450021E+00 0.26117475E+03</pdfrwt>
<pdfrwt beam="2">  1       21 0.16143898E-01 0.26117475E+03</pdfrwt>
<totfact> 0.76264790E+03</totfact>
</mgrwt>
</event>
<event>
 4    2  0.4086940E+000  0.1757149E+03  0.7546771E-02  0.1172016E+00
         21   -1    0    0  503  502  0.00000000000E+00  0.00000000000E+00  0.15854177864E+04  0.15854177864E+04  0.00000000000E+00 0.  1.
         21   -1    0    0  501  503 -0.00000000000E+00 -0.00000000000E+00 -0.20603181428E+02  0.20603181428E+02  0.00000000000E+00 0.  1.
          6    1    1    2  501    0 -0.21394719883E+02 -0.22113549963E+02  0.97032864665E+03  0.98611025024E+03  0.17300000000E+03 0.  1.
         -6    1    1    2    0  502  0.21394719883E+02  0.22113549963E+02  0.59448595833E+03  0.61991071759E+03  0.17300000000E+03 0.  1.
<mgrwt>
<rscale>  2 0.17571495E+03</rscale>
<asrwt>0</asrwt>
<pdfrwt beam="1">  1       21 0.24391033E+00 0.17571495E+03</pdfrwt>
<pdfrwt beam="2">  1       21 0.31697215E-02 0.17571495E+03</pdfrwt>
<totfact> 0.42283727E+04</totfact>
</mgrwt>
</event>
<event>
 4    2  0.4086940E+000  0.2064788E+03  0.7546771E-02  0.1144385E+00
         21   -1    0    0  503  502  0.00000000000E+00  0.00000000000E+00  0.30691839502E+03  0.30691839502E+03  0.00000000000E+00 0. -1.
         21   -1    0    0  501  503 -0.00000000000E+00 -0.00000000000E+00 -0.15484364826E+03  0.15484364826E+03  0.00000000000E+00 0. -1.
          6    1    1    2  501    0  0.10463759434E+03 -0.41898138977E+02  0.19705444765E+01  0.20648816732E+03  0.17300000000E+03 0. -1.
         -6    1    1    2    0  502 -0.10463759434E+03  0.41898138977E+02  0.15010420228E+03  0.25527387595E+03  0.17300000000E+03 0. -1.
<mgrwt>
<rscale>  2 0.20647876E+03</rscale>
<asrwt>0</asrwt>
<pdfrwt beam="1">  1       21 0.47218214E-01 0.20647876E+03</pdfrwt>
<pdfrwt beam="2">  1       21 0.23822100E-01 0.20647876E+03</pdfrwt>
<totfact> 0.70820614E+04</totfact>
</mgrwt>
</event>
<event>
 4    2  0.4086940E+000  0.1825957E+03  0.7546771E-02  0.1165314E+00
         21   -1    0    0  501  502  0.00000000000E+00  0.00000000000E+00  0.27545880958E+03  0.27545880958E+03  0.00000000000E+00 0.  1.
         21   -1    0    0  502  503 -0.00000000000E+00 -0.00000000000E+00 -0.12887677529E+03  0.12887677529E+03  0.00000000000E+00 0.  1.
          6    1    1    2  501    0 -0.57682380311E+02  0.92161328936E+01  0.12314817928E+03  0.22024229422E+03  0.17300000000E+03 0.  1.
         -6    1    1    2    0  503  0.57682380311E+02 -0.92161328936E+01  0.23433855007E+02  0.18409329066E+03  0.17300000000E+03 0.  1.
<mgrwt>
<rscale>  2 0.18259571E+03</rscale>
<asrwt>0</asrwt>
<pdfrwt beam="1">  1       21 0.42378278E-01 0.18259571E+03</pdfrwt>
<pdfrwt beam="2">  1       21 0.19827196E-01 0.18259571E+03</pdfrwt>
<totfact> 0.12612557E+05</totfact>
</mgrwt>
</event>
<event>
 4    2  0.4086940E+000  0.1875954E+03  0.7546771E-02  0.1160648E+00
         21   -1    0    0  501  502  0.00000000000E+00  0.00000000000E+00  0.11051591741E+04  0.11051591741E+04  0.00000000000E+00 0.  1.
         21   -1    0    0  502  503 -0.00000000000E+00 -0.00000000000E+00 -0.45170260200E+02  0.45170260200E+02  0.00000000000E+00 0.  1.
          6    1    1    2  501    0 -0.71987765030E+02  0.89889353581E+01  0.84240786229E+03  0.86304289912E+03  0.17300000000E+03 0.  1.
         -6    1    1    2    0  503  0.71987765030E+02 -0.89889353581E+01  0.21758105159E+03  0.28728653516E+03  0.17300000000E+03 0.  1.
<mgrwt>
<rscale>  2 0.18759541E+03</rscale>
<asrwt>0</asrwt>
<pdfrwt beam="1">  1       21 0.17002447E+00 0.18759541E+03</pdfrwt>
<pdfrwt beam="2">  1       21 0.69492717E-02 0.18759541E+03</pdfrwt>
<totfact> 0.32778655E+04</totfact>
</mgrwt>
</event>
<event>
 4    2  0.4086940E+000  0.1803084E+03  0.7546771E-02  0.1167505E+00
         21   -1    0    0  501  502  0.00000000000E+00  0.00000000000E+00  0.57594393981E+03  0.57594393981E+03  0.00000000000E+00 0.  1.
         21   -1    0    0  502  503 -0.00000000000E+00 -0.00000000000E+00 -0.59754100479E+02  0.59754100479E+02  0.00000000000E+00 0.  1.
          6    1    1    2  501    0  0.48399109994E+02 -0.15480914147E+02  0.18333537585E+03  0.25714391416E+03  0.17300000000E+03 0. -1.
         -6    1    1    2    0  503 -0.48399109994E+02  0.15480914147E+02  0.33285446347E+03  0.37855412612E+03  0.17300000000E+03 0. -1.
<mgrwt>
<rscale>  2 0.18030844E+03</rscale>
<asrwt>0</asrwt>
<pdfrwt beam="1">  1       21 0.88606756E-01 0.18030844E+03</pdfrwt>
<pdfrwt beam="2">  1       21 0.91929389E-02 0.18030844E+03</pdfrwt>
<totfact> 0.10300535E+05</totfact>
</mgrwt>
</event>
<event>
 4    2  0.4086940E+000  0.2037453E+03  0.7546771E-02  0.1146617E+00
         21   -1    0    0  501  502  0.00000000000E+00  0.00000000000E+00  0.10986522007E+04  0.10986522007E+04  0.00000000000E+00 0.  1.
         21   -1    0    0  502  503 -0.00000000000E+00 -0.00000000000E+00 -0.40267440842E+02  0.40267440842E+02  0.00000000000E+00 0.  1.
          6    1    1    2  501    0 -0.28219456499E+02  0.10385952657E+03  0.67059586432E+03  0.70086443213E+03  0.17300000000E+03 0.  1.
         -6    1    1    2    0  503  0.28219456499E+02 -0.10385952657E+03  0.38778889549E+03  0.43805520936E+03  0.17300000000E+03 0.  1.
<mgrwt>
<rscale>  2 0.20374528E+03</rscale>
<asrwt>0</asrwt>
<pdfrwt beam="1">  1       21 0.16902339E+00 0.20374528E+03</pdfrwt>
<pdfrwt beam="2">  1       21 0.61949917E-02 0.20374528E+03</pdfrwt>
<totfact> 0.40188338E+04</totfact>
</mgrwt>
</event>
<event>
 4    2  0.4086940E+000  0.1841376E+03  0.7546771E-02  0.1163858E+00
         21   -1    0    0  501  502  0.00000000000E+00  0.00000000000E+00  0.68161171565E+02  0.68161171565E+02  0.00000000000E+00 0.  1.
         21   -1    0    0  502  503 -0.00000000000E+00 -0.00000000000E+00 -0.63920088854E+03  0.63920088854E+03  0.00000000000E+00 0.  1.
          6    1    1    2  501    0 -0.61356307836E+02  0.14596692401E+02 -0.11896451979E+03  0.21922412483E+03  0.17300000000E+03 0.  1.
         -6    1    1    2    0  503  0.61356307836E+02 -0.14596692401E+02 -0.45207519718E+03  0.48813793527E+03  0.17300000000E+03 0.  1.
<mgrwt>
<rscale>  2 0.18413761E+03</rscale>
<asrwt>0</asrwt>
<pdfrwt beam="1">  1       21 0.10486335E-01 0.18413761E+03</pdfrwt>
<pdfrwt beam="2">  1       21 0.98338594E-01 0.18413761E+03</pdfrwt>
<totfact> 0.63974719E+04</totfact>
</mgrwt>
</event>
<event>
 4    2  0.4086940E+000  0.1823236E+03  0.7546771E-02  0.1165573E+00
         21   -1    0    0  503  502  0.00000000000E+00  0.00000000000E+00  0.12612813343E+03  0.12612813343E+03  0.00000000000E+00 0. -1.
         21   -1    0    0  501  503 -0.00000000000E+00 -0.00000000000E+00 -0.30611932403E+03  0.30611932403E+03  0.00000000000E+00 0.  1.
          6    1    1    2  501    0 -0.41631279357E+02  0.39745634806E+02 -0.17058403012E+03  0.24968137744E+03  0.17300000000E+03 0.  1.
         -6    1    1    2    0  502  0.41631279357E+02 -0.39745634806E+02 -0.94071604798E+01  0.18256608002E+03  0.17300000000E+03 0. -1.
<mgrwt>
<rscale>  2 0.18232356E+03</rscale>
<asrwt>0</asrwt>
<pdfrwt beam="1">  1       21 0.19404328E-01 0.18232356E+03</pdfrwt>
<pdfrwt beam="2">  1       21 0.47095280E-01 0.18232356E+03</pdfrwt>
<totfact> 0.10577375E+05</totfact>
</mgrwt>
</event>
<event>
 4    2  0.4086940E+000  0.1731562E+03  0.7546771E-02  0.1174596E+00
         21   -1    0    0  503  502  0.00000000000E+00  0.00000000000E+00  0.62085210306E+02  0.62085210306E+02  0.00000000000E+00 0. -1.
         21   -1    0    0  501  503 -0.00000000000E+00 -0.00000000000E+00 -0.10316838080E+04  0.10316838080E+04  0.00000000000E+00 0. -1.
          6    1    1    2  501    0  0.43207948465E+01  0.59486307765E+01 -0.88364923552E+03  0.90045489998E+03  0.17300000000E+03 0. -1.
         -6    1    1    2    0  502 -0.43207948465E+01 -0.59486307765E+01 -0.85949362141E+02  0.19331411829E+03  0.17300000000E+03 0. -1.
<mgrwt>
<rscale>  2 0.17315616E+03</rscale>
<asrwt>0</asrwt>
<pdfrwt beam="1">  1       21 0.95515711E-02 0.17315616E+03</pdfrwt>
<pdfrwt beam="2">  1       21 0.15872058E+00 0.17315616E+03</pdfrwt>
<totfact> 0.22933714E+04</totfact>
</mgrwt>
</event>
<event>
 4    2  0.4086940E+000  0.2052452E+03  0.7546771E-02  0.1145388E+00
         21   -1    0    0  501  502  0.00000000000E+00  0.00000000000E+00  0.60126078165E+02  0.60126078165E+02  0.00000000000E+00 0.  1.
         21   -1    0    0  502  503 -0.00000000000E+00 -0.00000000000E+00 -0.18309761364E+04  0.18309761364E+04  0.00000000000E+00 0. -1.
          6    1    1    2  501    0  0.35287742214E+01 -0.11038181248E+03 -0.14248953147E+03  0.24985768620E+03  0.17300000000E+03 0.  1.
         -6    1    1    2    0  503 -0.35287742214E+01  0.11038181248E+03 -0.16283605268E+04  0.16412445284E+04  0.17300000000E+03 0. -1.
<mgrwt>
<rscale>  2 0.20524521E+03</rscale>
<asrwt>0</asrwt>
<pdfrwt beam="1">  1       21 0.92501659E-02 0.20524521E+03</pdfrwt>
<pdfrwt beam="2">  1       21 0.28168864E+00 0.20524521E+03</pdfrwt>
<totfact> 0.39945203E+03</totfact>
</mgrwt>
</event>
<event>
 4    2  0.4086940E+000  0.2039306E+03  0.7546771E-02  0.1146464E+00
         21   -1    0    0  503  502  0.00000000000E+00  0.00000000000E+00  0.10734635015E+04  0.10734635015E+04  0.00000000000E+00 0.  1.
         21   -1    0    0  501  503 -0.00000000000E+00 -0.00000000000E+00 -0.43815799587E+02  0.43815799587E+02  0.00000000000E+00 0.  1.
          6    1    1    2  501    0  0.10651638338E+03  0.17690958004E+02  0.70493146370E+03  0.73383654749E+03  0.17300000000E+03 0.  1.
         -6    1    1    2    0  502 -0.10651638338E+03 -0.17690958004E+02  0.32471623822E+03  0.38344275360E+03  0.17300000000E+03 0.  1.
<mgrwt>
<rscale>  2 0.20393065E+03</rscale>
<asrwt>0</asrwt>
<pdfrwt beam="1">  1       21 0.16514821E+00 0.20393065E+03</pdfrwt>
<pdfrwt beam="2">  1       21 0.67408931E-02 0.20393065E+03</pdfrwt>
<totfact> 0.37027940E+04</totfact>
</mgrwt>
</event>
<event>
 4    2  0.4086940E+000  0.2277889E+03  0.7546771E-02  0.1128206E+00
         21   -1    0    0  501  502  0.00000000000E+00  0.00000000000E+00  0.25271750149E+03  0.25271750149E+03  0.00000000000E+00 0.  1.
         21   -1    0    0  502  503 -0.00000000000E+00 -0.00000000000E+00 -0.21520901373E+03  0.21520901373E+03  0.00000000000E+00 0. -1.
          6    1    1    2  501    0 -0.11873042529E+03 -0.88667201472E+02  0.68908612780E+02  0.23798357805E+03  0.17300000000E+03 0.  1.
         -6    1    1    2    0  503  0.11873042529E+03  0.88667201472E+02 -0.31400125020E+02  0.22994293718E+03  0.17300000000E+03 0. -1.
<mgrwt>
<rscale>  2 0.22778891E+03</rscale>
<asrwt>0</asrwt>
<pdfrwt beam="1">  1       21 0.38879616E-01 0.22778891E+03</pdfrwt>
<pdfrwt beam="2">  1       21 0.33109079E-01 0.22778891E+03</pdfrwt>
<totfact> 0.55138290E+04</totfact>
</mgrwt>
</event>
<event>
 4    2  0.4086940E+000  0.1911097E+03  0.7546771E-02  0.1157464E+00
         21   -1    0    0  501  502  0.00000000000E+00  0.00000000000E+00  0.33416188281E+03  0.33416188281E+03  0.00000000000E+00 0. -1.
         21   -1    0    0  502  503 -0.00000000000E+00 -0.00000000000E+00 -0.19573402928E+03  0.19573402928E+03  0.00000000000E+00 0. -1.
          6    1    1    2  501    0 -0.62337292255E+02 -0.52038347010E+02  0.24528055562E+03  0.31094288629E+03  0.17300000000E+03 0. -1.
         -6    1    1    2    0  503  0.62337292255E+02  0.52038347010E+02 -0.10685270209E+03  0.21895302580E+03  0.17300000000E+03 0. -1.
<mgrwt>
<rscale>  2 0.19110973E+03</rscale>
<asrwt>0</asrwt>
<pdfrwt beam="1">  1       21 0.51409520E-01 0.19110973E+03</pdfrwt>
<pdfrwt beam="2">  1       21 0.30112928E-01 0.19110973E+03</pdfrwt>
<totfact> 0.38064773E+04</totfact>
</mgrwt>
</event>
<event>
 4    2  0.4086940E+000  0.1821765E+03  0.7546771E-02  0.1165713E+00
         21   -1    0    0  503  502  0.00000000000E+00  0.00000000000E+00  0.11911073591E+04  0.11911073591E+04  0.00000000000E+00 0.  1.
         21   -1    0    0  501  503 -0.00000000000E+00 -0.00000000000E+00 -0.30752826335E+02  0.30752826335E+02  0.00000000000E+00 0.  1.
          6    1    1    2  501    0  0.49418727597E+02 -0.28584562230E+02  0.76744184196E+03  0.78876819702E+03  0.17300000000E+03 0.  1.
         -6    1    1    2    0  502 -0.49418727597E+02  0.28584562230E+02  0.39291269079E+03  0.43309198840E+03  0.17300000000E+03 0.  1.
<mgrwt>
<rscale>  2 0.18217653E+03</rscale>
<asrwt>0</asrwt>
<pdfrwt beam="1">  1       21 0.18324725E+00 0.18217653E+03</pdfrwt>
<pdfrwt beam="2">  1       21 0.47312050E-02 0.18217653E+03</pdfrwt>
<totfact> 0.51425325E+04</totfact>
</mgrwt>
</event>
<event>
 4    2  0.4086940E+000  0.1964805E+03  0.7546771E-02  0.1152743E+00
         21   -1    0    0  503  502  0.00000000000E+00  0.00000000000E+00  0.17577478061E+04  0.17577478061E+04  0.00000000000E+00 0.  1.
         21   -1    0    0  501  503 -0.00000000000E+00 -0.00000000000E+00 -0.83512886666E+02  0.83512886666E+02  0.00000000000E+00 0.  1.
          6    1    1    2  501    0  0.78382443985E+02  0.50316863907E+02  0.46759530631E+02  0.20196793811E+03  0.17300000000E+03 0.  1.
         -6    1    1    2    0  502 -0.78382443985E+02 -0.50316863907E+02  0.16274753888E+04  0.16392927547E+04  0.17300000000E+03 0.  1.
<mgrwt>
<rscale>  2 0.19648052E+03</rscale>
<asrwt>0</asrwt>
<pdfrwt beam="1">  1       21 0.27042271E+00 0.19648052E+03</pdfrwt>
<pdfrwt beam="2">  1       21 0.12848138E-01 0.19648052E+03</pdfrwt>
<totfact> 0.26127191E+03</totfact>
</mgrwt>
</event>
<event>
 4    2  0.4086940E+000  0.1755901E+03  0.7546771E-02  0.1172141E+00
         21   -1    0    0  501  502  0.00000000000E+00  0.00000000000E+00  0.12712157586E+04  0.12712157586E+04  0.00000000000E+00 0.  1.
         21   -1    0    0  502  503 -0.00000000000E+00 -0.00000000000E+00 -0.25602488841E+02  0.25602488841E+02  0.00000000000E+00 0.  1.
          6    1    1    2  501    0 -0.28020803788E+02  0.10849860673E+02  0.77162439631E+03  0.79135080331E+03  0.17300000000E+03 0.  1.
         -6    1    1    2    0  503  0.28020803788E+02 -0.10849860673E+02  0.47398887345E+03  0.50546744413E+03  0.17300000000E+03 0.  1.
<mgrwt>
<rscale>  2 0.17559010E+03</rscale>
<asrwt>0</asrwt>
<pdfrwt beam="1">  1       21 0.19557161E+00 0.17559010E+03</pdfrwt>
<pdfrwt beam="2">  1       21 0.39388454E-02 0.17559010E+03</pdfrwt>
<totfact> 0.58294894E+04</totfact>
</mgrwt>
</event>
<event>
 4    2  0.4086940E+000  0.2115962E+03  0.7546771E-02  0.1140308E+00
         21   -1    0    0  501  502  0.00000000000E+00  0.00000000000E+00  0.12687907808E+04  0.12687907808E+04  0.00000000000E+00 0.  1.
         21   -1    0    0  502  503 -0.00000000000E+00 -0.00000000000E+00 -0.38435561147E+02  0.38435561147E+02  0.00000000000E+00 0. -1.
          6    1    1    2  501    0 -0.60925902224E+02  0.10550815267E+03  0.42813110314E+03  0.47756588794E+03  0.17300000000E+03 0.  1.
         -6    1    1    2    0  503  0.60925902224E+02 -0.10550815267E+03  0.80222411654E+03  0.82966045404E+03  0.17300000000E+03 0.  1.
<mgrwt>
<rscale>  2 0.21159616E+03</rscale>
<asrwt>0</asrwt>
<pdfrwt beam="1">  1       21 0.19519855E+00 0.21159616E+03</pdfrwt>
<pdfrwt beam="2">  1       21 0.59131642E-02 0.21159616E+03</pdfrwt>
<totfact> 0.28771967E+04</totfact>
</mgrwt>
</event>
<event>
 4    2  0.4086940E+000  0.1883539E+03  0.7546771E-02  0.1159954E+00
         21   -1    0    0  501  502  0.00000000000E+00  0.00000000000E+00  0.15436138841E+03  0.15436138841E+03  0.00000000000E+00 0.  1.
         21   -1    0    0  502  503 -0.00000000000E+00 -0.00000000000E+00 -0.32408004477E+03  0.32408004477E+03  0.00000000000E+00 0.  1.
          6    1    1    2  501    0 -0.74420378986E+02  0.31289067403E+01  0.44146363778E+02  0.19345822366E+03  0.17300000000E+03 0.  1.
         -6    1    1    2    0  503  0.74420378986E+02 -0.31289067403E+01 -0.21386502014E+03  0.28498320951E+03  0.17300000000E+03 0.  1.
<mgrwt>
<rscale>  2 0.18835388E+03</rscale>
<asrwt>0</asrwt>
<pdfrwt beam="1">  1       21 0.23747906E-01 0.18835388E+03</pdfrwt>
<pdfrwt beam="2">  1       21 0.49858468E-01 0.18835388E+03</pdfrwt>
<totfact> 0.64145618E+04</totfact>
</mgrwt>
</event>
<event>
 4    2  0.4086940E+000  0.1766797E+03  0.7546771E-02  0.1171056E+00
         21   -1    0    0  503  502  0.00000000000E+00  0.00000000000E+00  0.27849204136E+03  0.27849204136E+03  0.00000000000E+00 0. -1.
         21   -1    0    0  501  503 -0.00000000000E+00 -0.00000000000E+00 -0.21550159429E+03  0.21550159429E+03  0.00000000000E+00 0. -1.
          6    1    1    2  501    0  0.18417735885E+02  0.30781804917E+02 -0.13960636902E+03  0.22517919704E+03  0.17300000000E+03 0. -1.
         -6    1    1    2    0  502 -0.18417735885E+02 -0.30781804917E+02  0.20259681609E+03  0.26881443860E+03  0.17300000000E+03 0. -1.
<mgrwt>
<rscale>  2 0.17667975E+03</rscale>
<asrwt>0</asrwt>
<pdfrwt beam="1">  1       21 0.42844930E-01 0.17667975E+03</pdfrwt>
<pdfrwt beam="2">  1       21 0.33154091E-01 0.17667975E+03</pdfrwt>
<totfact> 0.46251320E+04</totfact>
</mgrwt>
</event>
<event>
 4    2  0.4086940E+000  0.1755403E+03  0.7546771E-02  0.1172190E+00
         21   -1    0    0  503  502  0.00000000000E+00  0.00000000000E+00  0.23390996432E+03  0.23390996432E+03  0.00000000000E+00 0.  1.
         21   -1    0    0  501  503 -0.00000000000E+00 -0.00000000000E+00 -0.23937001649E+03  0.23937001649E+03  0.00000000000E+00 0.  1.
          6    1    1    2  501    0 -0.29728262604E+02  0.12692350030E+01 -0.16141210686E+03  0.23847064557E+03  0.17300000000E+03 0.  1.
         -6    1    1    2    0  502  0.29728262604E+02 -0.12692350030E+01  0.15595205470E+03  0.23480933525E+03  0.17300000000E+03 0.  1.
<mgrwt>
<rscale>  2 0.17554025E+03</rscale>
<asrwt>0</asrwt>
<pdfrwt beam="1">  1       21 0.35986149E-01 0.17554025E+03</pdfrwt>
<pdfrwt beam="2">  1       21 0.36826156E-01 0.17554025E+03</pdfrwt>
<totfact> 0.53378171E+04</totfact>
</mgrwt>
</event>
<event>
 4    2  0.4086940E+000  0.2616871E+03  0.7546771E-02  0.1106134E+00
         21   -1    0    0  501  502  0.00000000000E+00  0.00000000000E+00  0.23920116883E+03  0.23920116883E+03  0.00000000000E+00 0.  1.
         21   -1    0    0  502  503 -0.00000000000E+00 -0.00000000000E+00 -0.30574076233E+03  0.30574076233E+03  0.00000000000E+00 0.  1.
          6    1    1    2  501    0 -0.19614092616E+03  0.89361474338E+01  0.35460545339E+02  0.26407871539E+03  0.17300000000E+03 0.  1.
         -6    1    1    2    0  503  0.19614092616E+03 -0.89361474338E+01 -0.10200013884E+03  0.28086321577E+03  0.17300000000E+03 0.  1.
<mgrwt>
<rscale>  2 0.26168706E+03</rscale>
<asrwt>0</asrwt>
<pdfrwt beam="1">  1       21 0.36800180E-01 0.26168706E+03</pdfrwt>
<pdfrwt beam="2">  1       21 0.47037040E-01 0.26168706E+03</pdfrwt>
<totfact> 0.29782789E+04</totfact>
</mgrwt>
</event>
<event>
 4    2  0.4086940E+000  0.2989996E+03  0.7546771E-02  0.1085742E+00
         21   -1    0    0  501  502  0.00000000000E+00  0.00000000000E+00  0.73310407739E+03  0.73310407739E+03  0.00000000000E+00 0.  1.
         21   -1    0    0  502  503 -0.00000000000E+00 -0.00000000000E+00 -0.17764892624E+03  0.17764892624E+03  0.00000000000E+00 0.  1.
          6    1    1    2  501    0 -0.20731988439E+03  0.12841420799E+03  0.53271551668E+03  0.61088997781E+03  0.17300000000E+03 0.  1.
         -6    1    1    2    0  503  0.20731988439E+03 -0.12841420799E+03  0.22739634465E+02  0.29986302582E+03  0.17300000000E+03 0.  1.
<mgrwt>
<rscale>  2 0.29899957E+03</rscale>
<asrwt>0</asrwt>
<pdfrwt beam="1">  1       21 0.11278524E+00 0.29899957E+03</pdfrwt>
<pdfrwt beam="2">  1       21 0.27330604E-01 0.29899957E+03</pdfrwt>
<totfact> 0.73505978E+03</totfact>
</mgrwt>
</event>
<event>
 4    2  0.4086940E+000  0.1965835E+03  0.7546771E-02  0.1152654E+00
         21   -1    0    0  501  502  0.00000000000E+00  0.00000000000E+00  0.12575144520E+03  0.12575144520E+03  0.00000000000E+00 0.  1.
         21   -1    0    0  502  503 -0.00000000000E+00 -0.00000000000E+00 -0.43872069390E+03  0.43872069390E+03  0.00000000000E+00 0.  1.
          6    1    1    2  501    0  0.90669780989E+02 -0.22249983364E+02 -0.31094910485E+03  0.36787826350E+03  0.17300000000E+03 0.  1.
         -6    1    1    2    0  503 -0.90669780989E+02  0.22249983364E+02 -0.20201438528E+01  0.19659387561E+03  0.17300000000E+03 0.  1.
<mgrwt>
<rscale>  2 0.19658350E+03</rscale>
<asrwt>0</asrwt>
<pdfrwt beam="1">  1       21 0.19346376E-01 0.19658350E+03</pdfrwt>
<pdfrwt beam="2">  1       21 0.67495492E-01 0.19658350E+03</pdfrwt>
<totfact> 0.49203907E+04</totfact>
</mgrwt>
</event>
<event>
 4    2  0.4086940E+000  0.2235578E+03  0.7546771E-02  0.1131258E+00
         21   -1    0    0  503  502  0.00000000000E+00  0.00000000000E+00  0.29110414925E+03  0.29110414925E+03  0.00000000000E+00 0. -1.
         21   -1    0    0  501  503 -0.00000000000E+00 -0.00000000000E+00 -0.27351427598E+03  0.27351427598E+03  0.00000000000E+00 0. -1.
          6    1    1    2  501    0  0.25336753232E+02 -0.13930946023E+03 -0.16346028592E+03  0.27694284942E+03  0.17300000000E+03 0. -1.
         -6    1    1    2    0  502 -0.25336753232E+02  0.13930946023E+03  0.18105015919E+03  0.28767557581E+03  0.17300000000E+03 0. -1.
<mgrwt>
<rscale>  2 0.22355777E+03</rscale>
<asrwt>0</asrwt>
<pdfrwt beam="1">  1       21 0.44785254E-01 0.22355777E+03</pdfrwt>
<pdfrwt beam="2">  1       21 0.42079119E-01 0.22355777E+03</pdfrwt>
<totfact> 0.25573307E+04</totfact>
</mgrwt>
</event>
<event>
 4    2  0.4086940E+000  0.3457842E+03  0.7546771E-02  0.1064359E+00
         21   -1    0    0  503  502  0.00000000000E+00  0.00000000000E+00  0.20446755421E+03  0.20446755421E+03  0.00000000000E+00 0. -1.
         21   -1    0    0  501  503 -0.00000000000E+00 -0.00000000000E+00 -0.59372843825E+03  0.59372843825E+03  0.00000000000E+00 0.  1.
          6    1    1    2  501    0 -0.25755859172E+03  0.15264757915E+03 -0.24365071233E+03  0.42300399668E+03  0.17300000000E+03 0. -1.
         -6    1    1    2    0  502  0.25755859172E+03 -0.15264757915E+03 -0.14561017171E+03  0.37519199577E+03  0.17300000000E+03 0.  1.
<mgrwt>
<rscale>  2 0.34578420E+03</rscale>
<asrwt>0</asrwt>
<pdfrwt beam="1">  1       21 0.31456547E-01 0.34578420E+03</pdfrwt>
<pdfrwt beam="2">  1       21 0.91342837E-01 0.34578420E+03</pdfrwt>
<totfact> 0.90845013E+03</totfact>
</mgrwt>
</event>
<event>
 4    2  0.4086940E+000  0.2223663E+03  0.7546771E-02  0.1132131E+00
         21   -1    0    0  501  502  0.00000000000E+00  0.00000000000E+00  0.75984389788E+02  0.75984389788E+02  0.00000000000E+00 0. -1.
         21   -1    0    0  502  503 -0.00000000000E+00 -0.00000000000E+00 -0.71473886672E+03  0.71473886672E+03  0.00000000000E+00 0. -1.
          6    1    1    2  501    0 -0.63612408572E+02  0.12438332745E+03 -0.20107932361E+03  0.29979934132E+03  0.17300000000E+03 0. -1.
         -6    1    1    2    0  503  0.63612408572E+02 -0.12438332745E+03 -0.43767515332E+03  0.49092391519E+03  0.17300000000E+03 0. -1.
<mgrwt>
<rscale>  2 0.22236625E+03</rscale>
<asrwt>0</asrwt>
<pdfrwt beam="1">  1       21 0.11689906E-01 0.22236625E+03</pdfrwt>
<pdfrwt beam="2">  1       21 0.10995983E+00 0.22236625E+03</pdfrwt>
<totfact> 0.39568316E+04</totfact>
</mgrwt>
</event>
<event>
 4    2  0.4086940E+000  0.1802166E+03  0.7546771E-02  0.1167594E+00
         21   -1    0    0  501  502  0.00000000000E+00  0.00000000000E+00  0.12175531959E+04  0.12175531959E+04  0.00000000000E+00 0.  1.
         21   -1    0    0  502  503 -0.00000000000E+00 -0.00000000000E+00 -0.41684876346E+02  0.41684876346E+02  0.00000000000E+00 0. -1.
          6    1    1    2  501    0  0.26662172815E+02 -0.42873855194E+02  0.96574936911E+03  0.98242042063E+03  0.17300000000E+03 0.  1.
         -6    1    1    2    0  503 -0.26662172815E+02  0.42873855194E+02  0.21011895047E+03  0.27681765165E+03  0.17300000000E+03 0. -1.
<mgrwt>
<rscale>  2 0.18021664E+03</rscale>
<asrwt>0</asrwt>
<pdfrwt beam="1">  1       21 0.18731585E+00 0.18021664E+03</pdfrwt>
<pdfrwt beam="2">  1       21 0.64130588E-02 0.18021664E+03</pdfrwt>
<totfact> 0.28829713E+04</totfact>
</mgrwt>
</event>
<event>
 4    2  0.4086940E+000  0.3396309E+03  0.7546771E-02  0.1066953E+00
         21   -1    0    0  501  502  0.00000000000E+00  0.00000000000E+00  0.44252902149E+03  0.44252902149E+03  0.00000000000E+00 0.  1.
         21   -1    0    0  502  503 -0.00000000000E+00 -0.00000000000E+00 -0.28095188108E+03  0.28095188108E+03  0.00000000000E+00 0. -1.
          6    1    1    2  501    0 -0.22490212161E+03 -0.18665257597E+03 -0.16430963663E+02  0.34002812382E+03  0.17300000000E+03 0. -1.
         -6    1    1    2    0  503  0.22490212161E+03  0.18665257597E+03  0.17800810407E+03  0.38345277876E+03  0.17300000000E+03 0.  1.
<mgrwt>
<rscale>  2 0.33963090E+03</rscale>
<asrwt>0</asrwt>
<pdfrwt beam="1">  1       21 0.68081388E-01 0.33963090E+03</pdfrwt>
<pdfrwt beam="2">  1       21 0.43223366E-01 0.33963090E+03</pdfrwt>
<totfact> 0.93758642E+03</totfact>
</mgrwt>
</event>
<event>
 4    2  0.4086940E+000  0.2507186E+03  0.7546771E-02  0.1112852E+00
         21   -1    0    0  501  502  0.00000000000E+00  0.00000000000E+00  0.23069547728E+03  0.23069547728E+03  0.00000000000E+00 0.  1.
         21   -1    0    0  502  503 -0.00000000000E+00 -0.00000000000E+00 -0.36876627850E+03  0.36876627850E+03  0.00000000000E+00 0.  1.
          6    1    1    2  501    0  0.11400505460E+03 -0.14118658033E+03  0.84122382200E+02  0.26445486973E+03  0.17300000000E+03 0.  1.
         -6    1    1    2    0  503 -0.11400505460E+03  0.14118658033E+03 -0.22219318342E+03  0.33500688604E+03  0.17300000000E+03 0.  1.
<mgrwt>
<rscale>  2 0.25071857E+03</rscale>
<asrwt>0</asrwt>
<pdfrwt beam="1">  1       21 0.35491612E-01 0.25071857E+03</pdfrwt>
<pdfrwt beam="2">  1       21 0.56733273E-01 0.25071857E+03</pdfrwt>
<totfact> 0.21669717E+04</totfact>
</mgrwt>
</event>
<event>
 4    2  0.4086940E+000  0.2370745E+03  0.7546771E-02  0.1121757E+00
         21   -1    0    0  503  502  0.00000000000E+00  0.00000000000E+00  0.33847735626E+03  0.33847735626E+03  0.00000000000E+00 0. -1.
         21   -1    0    0  501  503 -0.00000000000E+00 -0.00000000000E+00 -0.60386916897E+03  0.60386916897E+03  0.00000000000E+00 0. -1.
          6    1    1    2  501    0 -0.52165303684E+02  0.15347345369E+03 -0.53389169775E+03  0.58416150577E+03  0.17300000000E+03 0. -1.
         -6    1    1    2    0  502  0.52165303684E+02 -0.15347345369E+03  0.26849988504E+03  0.35818501946E+03  0.17300000000E+03 0. -1.
<mgrwt>
<rscale>  2 0.23707450E+03</rscale>
<asrwt>0</asrwt>
<pdfrwt beam="1">  1       21 0.52073440E-01 0.23707450E+03</pdfrwt>
<pdfrwt beam="2">  1       21 0.92902947E-01 0.23707450E+03</pdfrwt>
<totfact> 0.32994129E+03</totfact>
</mgrwt>
</event>
<event>
 4    2  0.4086940E+000  0.2730504E+03  0.7546771E-02  0.1099546E+00
         21   -1    0    0  501  502  0.00000000000E+00  0.00000000000E+00  0.23644766662E+03  0.23644766662E+03  0.00000000000E+00 0.  1.
         21   -1    0    0  502  503 -0.00000000000E+00 -0.00000000000E+00 -0.36251585949E+03  0.36251585949E+03  0.00000000000E+00 0.  1.
          6    1    1    2  501    0  0.33792819853E+02 -0.20853188359E+03  0.45025233802E+02  0.27673773292E+03  0.17300000000E+03 0.  1.
         -6    1    1    2    0  503 -0.33792819853E+02  0.20853188359E+03 -0.17109342668E+03  0.32222579319E+03  0.17300000000E+03 0.  1.
<mgrwt>
<rscale>  2 0.27305036E+03</rscale>
<asrwt>0</asrwt>
<pdfrwt beam="1">  1       21 0.36376564E-01 0.27305036E+03</pdfrwt>
<pdfrwt beam="2">  1       21 0.55771671E-01 0.27305036E+03</pdfrwt>
<totfact> 0.21177925E+04</totfact>
</mgrwt>
</event>
<event>
 4    2  0.4086940E+000  0.2058978E+03  0.7546771E-02  0.1144856E+00
         21   -1    0    0  503  502  0.00000000000E+00  0.00000000000E+00  0.44547753092E+02  0.44547753092E+02  0.00000000000E+00 0.  1.
         21   -1    0    0  501  503 -0.00000000000E+00 -0.00000000000E+00 -0.95978306449E+03  0.95978306449E+03  0.00000000000E+00 0. -1.
          6    1    1    2  501    0  0.11006512310E+03  0.18723215787E+02 -0.50384243353E+03  0.54428952585E+03  0.17300000000E+03 0. -1.
         -6    1    1    2    0  502 -0.11006512310E+03 -0.18723215787E+02 -0.41139287787E+03  0.46004129173E+03  0.17300000000E+03 0. -1.
<mgrwt>
<rscale>  2 0.20589777E+03</rscale>
<asrwt>0</asrwt>
<pdfrwt beam="1">  1       21 0.68535010E-02 0.20589777E+03</pdfrwt>
<pdfrwt beam="2">  1       21 0.14765892E+00 0.20589777E+03</pdfrwt>
<totfact> 0.48507608E+04</totfact>
</mgrwt>
</event>
<event>
 4    2  0.4086940E+000  0.1842599E+03  0.7546771E-02  0.1163743E+00
         21   -1    0    0  503  502  0.00000000000E+00  0.00000000000E+00  0.17425588080E+03  0.17425588080E+03  0.00000000000E+00 0. -1.
         21   -1    0    0  501  503 -0.00000000000E+00 -0.00000000000E+00 -0.20597621064E+03  0.20597621064E+03  0.00000000000E+00 0.  1.
          6    1    1    2  501    0  0.63341389997E+02 -0.32550668652E+01 -0.60069222669E+02  0.19380412446E+03  0.17300000000E+03 0. -1.
         -6    1    1    2    0  502 -0.63341389997E+02  0.32550668652E+01  0.28348892834E+02  0.18642796698E+03  0.17300000000E+03 0. -1.
<mgrwt>
<rscale>  2 0.18425994E+03</rscale>
<asrwt>0</asrwt>
<pdfrwt beam="1">  1       21 0.26808597E-01 0.18425994E+03</pdfrwt>
<pdfrwt beam="2">  1       21 0.31688648E-01 0.18425994E+03</pdfrwt>
<totfact> 0.12721678E+05</totfact>
</mgrwt>
</event>
<event>
 4    2  0.4086940E+000  0.1992094E+03  0.7546771E-02  0.1150408E+00
         21   -1    0    0  501  502  0.00000000000E+00  0.00000000000E+00  0.27817670961E+03  0.27817670961E+03  0.00000000000E+00 0. -1.
         21   -1    0    0  502  503 -0.00000000000E+00 -0.00000000000E+00 -0.21029519532E+03  0.21029519532E+03  0.00000000000E+00 0. -1.
          6    1    1    2  501    0 -0.98767680698E+02  0.58538888358E+00  0.17245188412E+03  0.26348443933E+03  0.17300000000E+03 0. -1.
         -6    1    1    2    0  503  0.98767680698E+02 -0.58538888358E+00 -0.10457036984E+03  0.22498746560E+03  0.17300000000E+03 0. -1.
<mgrwt>
<rscale>  2 0.19920943E+03</rscale>
<asrwt>0</asrwt>
<pdfrwt beam="1">  1       21 0.42796417E-01 0.19920943E+03</pdfrwt>
<pdfrwt beam="2">  1       21 0.32353107E-01 0.19920943E+03</pdfrwt>
<totfact> 0.48115211E+04</totfact>
</mgrwt>
</event>
<event>
 4    2  0.4086940E+000  0.1904835E+03  0.7546771E-02  0.1158026E+00
         21   -1    0    0  503  502  0.00000000000E+00  0.00000000000E+00  0.20485397863E+03  0.20485397863E+03  0.00000000000E+00 0.  1.
         21   -1    0    0  501  503 -0.00000000000E+00 -0.00000000000E+00 -0.22950555571E+03  0.22950555571E+03  0.00000000000E+00 0.  1.
          6    1    1    2  501    0 -0.39060510709E+02  0.69492642019E+02 -0.11608441334E+03  0.22306846889E+03  0.17300000000E+03 0.  1.
         -6    1    1    2    0  502  0.39060510709E+02 -0.69492642019E+02  0.91432836263E+02  0.21129106545E+03  0.17300000000E+03 0.  1.
<mgrwt>
<rscale>  2 0.19048347E+03</rscale>
<asrwt>0</asrwt>
<pdfrwt beam="1">  1       21 0.31515997E-01 0.19048347E+03</pdfrwt>
<pdfrwt beam="2">  1       21 0.35308547E-01 0.19048347E+03</pdfrwt>
<totfact> 0.74908419E+04</totfact>
</mgrwt>
</event>
<event>
 4    2  0.4086940E+000  0.2076965E+03  0.7546771E-02  0.1143403E+00
         21   -1    0    0  501  502  0.00000000000E+00  0.00000000000E+00  0.14695273796E+03  0.14695273796E+03  0.00000000000E+00 0.  1.
         21   -1    0    0  502  503 -0.00000000000E+00 -0.00000000000E+00 -0.13290983434E+04  0.13290983434E+04  0.00000000000E+00 0.  1.
          6    1    1    2  501    0 -0.30970486799E+02  0.11067828640E+03  0.60372859524E+02  0.21629317211E+03  0.17300000000E+03 0.  1.
         -6    1    1    2    0  503  0.30970486799E+02 -0.11067828640E+03 -0.12425184649E+04  0.12597579092E+04  0.17300000000E+03 0.  1.
<mgrwt>
<rscale>  2 0.20769654E+03</rscale>
<asrwt>0</asrwt>
<pdfrwt beam="1">  1       21 0.22608115E-01 0.20769654E+03</pdfrwt>
<pdfrwt beam="2">  1       21 0.20447666E+00 0.20769654E+03</pdfrwt>
<totfact> 0.22703125E+03</totfact>
</mgrwt>
</event>
<event>
 4    2  0.4086940E+000  0.1740716E+03  0.7546771E-02  0.1173667E+00
         21   -1    0    0  501  502  0.00000000000E+00  0.00000000000E+00  0.88403767911E+03  0.88403767911E+03  0.00000000000E+00 0.  1.
         21   -1    0    0  502  503 -0.00000000000E+00 -0.00000000000E+00 -0.20044367571E+03  0.20044367571E+03  0.00000000000E+00 0.  1.
          6    1    1    2  501    0 -0.18626754765E+02 -0.49980758843E+01  0.83550446026E+03  0.85344515927E+03  0.17300000000E+03 0.  1.
         -6    1    1    2    0  503  0.18626754765E+02  0.49980758843E+01 -0.15191045686E+03  0.23103619556E+03  0.17300000000E+03 0.  1.
<mgrwt>
<rscale>  2 0.17407164E+03</rscale>
<asrwt>0</asrwt>
<pdfrwt beam="1">  1       21 0.13600579E+00 0.17407164E+03</pdfrwt>
<pdfrwt beam="2">  1       21 0.30837489E-01 0.17407164E+03</pdfrwt>
<totfact> 0.39573181E+03</totfact>
</mgrwt>
</event>
<event>
 4    2  0.4086940E+000  0.1740305E+03  0.7546771E-02  0.1173709E+00
         21   -1    0    0  501  502  0.00000000000E+00  0.00000000000E+00  0.47788641944E+03  0.47788641944E+03  0.00000000000E+00 0.  1.
         21   -1    0    0  502  503 -0.00000000000E+00 -0.00000000000E+00 -0.13975471334E+03  0.13975471334E+03  0.00000000000E+00 0.  1.
          6    1    1    2  501    0 -0.63664112450E+01  0.17806740151E+02 -0.59235595816E+02  0.18383543456E+03  0.17300000000E+03 0.  1.
         -6    1    1    2    0  503  0.63664112450E+01 -0.17806740151E+02  0.39736730191E+03  0.43380569823E+03  0.17300000000E+03 0.  1.
<mgrwt>
<rscale>  2 0.17403049E+03</rscale>
<asrwt>0</asrwt>
<pdfrwt beam="1">  1       21 0.73520987E-01 0.17403049E+03</pdfrwt>
<pdfrwt beam="2">  1       21 0.21500725E-01 0.17403049E+03</pdfrwt>
<totfact> 0.33838555E+04</totfact>
</mgrwt>
</event>
<event>
 4    2  0.4086940E+000  0.2567781E+03  0.7546771E-02  0.1109095E+00
         21   -1    0    0  503  502  0.00000000000E+00  0.00000000000E+00  0.13949836957E+04  0.13949836957E+04  0.00000000000E+00 0. -1.
         21   -1    0    0  501  503 -0.00000000000E+00 -0.00000000000E+00 -0.57564760524E+02  0.57564760524E+02  0.00000000000E+00 0.  1.
          6    1    1    2  501    0 -0.16530699728E+03 -0.93164320302E+02  0.36151076397E+03  0.44342420592E+03  0.17300000000E+03 0.  1.
         -6    1    1    2    0  502  0.16530699728E+03  0.93164320302E+02  0.97590817120E+03  0.10091242503E+04  0.17300000000E+03 0. -1.
<mgrwt>
<rscale>  2 0.25677810E+03</rscale>
<asrwt>0</asrwt>
<pdfrwt beam="1">  1       21 0.21461285E+00 0.25677810E+03</pdfrwt>
<pdfrwt beam="2">  1       21 0.88561180E-02 0.25677810E+03</pdfrwt>
<totfact> 0.10388877E+04</totfact>
</mgrwt>
</event>
<event>
 4    2  0.4086940E+000  0.3375277E+03  0.7546771E-02  0.1067854E+00
         21   -1    0    0  501  502  0.00000000000E+00  0.00000000000E+00  0.33359254166E+03  0.33359254166E+03  0.00000000000E+00 0.  1.
         21   -1    0    0  502  503 -0.00000000000E+00 -0.00000000000E+00 -0.77575693047E+03  0.77575693047E+03  0.00000000000E+00 0. -1.
          6    1    1    2  501    0 -0.26133582752E+03  0.12529785514E+03  0.19391414335E+03  0.38926554207E+03  0.17300000000E+03 0.  1.
         -6    1    1    2    0  503  0.26133582752E+03 -0.12529785514E+03 -0.63607853217E+03  0.72008393006E+03  0.17300000000E+03 0. -1.
<mgrwt>
<rscale>  2 0.33752773E+03</rscale>
<asrwt>0</asrwt>
<pdfrwt beam="1">  1       21 0.51321930E-01 0.33752773E+03</pdfrwt>
<pdfrwt beam="2">  1       21 0.11934722E+00 0.33752773E+03</pdfrwt>
<totfact> 0.17430691E+03</totfact>
</mgrwt>
</event>
<event>
 4    2  0.4086940E+000  0.2034490E+03  0.7546771E-02  0.1146861E+00
         21   -1    0    0  503  502  0.00000000000E+00  0.00000000000E+00  0.86281087194E+03  0.86281087194E+03  0.00000000000E+00 0. -1.
         21   -1    0    0  501  503 -0.00000000000E+00 -0.00000000000E+00 -0.48729808441E+02  0.48729808441E+02  0.00000000000E+00 0. -1.
          6    1    1    2  501    0 -0.10454319999E+03  0.23091048298E+02  0.35023493019E+03  0.40503824943E+03  0.17300000000E+03 0. -1.
         -6    1    1    2    0  502  0.10454319999E+03 -0.23091048298E+02  0.46384613330E+03  0.50650243095E+03  0.17300000000E+03 0. -1.
<mgrwt>
<rscale>  2 0.20344895E+03</rscale>
<asrwt>0</asrwt>
<pdfrwt beam="1">  1       21 0.13274012E+00 0.20344895E+03</pdfrwt>
<pdfrwt beam="2">  1       21 0.74968942E-02 0.20344895E+03</pdfrwt>
<totfact> 0.54767018E+04</totfact>
</mgrwt>
</event>
<event>
 4    2  0.4086940E+000  0.2115647E+03  0.7546771E-02  0.1140333E+00
         21   -1    0    0  503  502  0.00000000000E+00  0.00000000000E+00  0.55940894322E+03  0.55940894322E+03  0.00000000000E+00 0.  1.
         21   -1    0    0  501  503 -0.00000000000E+00 -0.00000000000E+00 -0.80255280367E+02  0.80255280367E+02  0.00000000000E+00 0.  1.
          6    1    1    2  501    0  0.34620938875E+02  0.11675616169E+03  0.25717419714E+03  0.33301378106E+03  0.17300000000E+03 0.  1.
         -6    1    1    2    0  502 -0.34620938875E+02 -0.11675616169E+03  0.22197946571E+03  0.30665044252E+03  0.17300000000E+03 0.  1.
<mgrwt>
<rscale>  2 0.21156467E+03</rscale>
<asrwt>0</asrwt>
<pdfrwt beam="1">  1       21 0.86062912E-01 0.21156467E+03</pdfrwt>
<pdfrwt beam="2">  1       21 0.12346967E-01 0.21156467E+03</pdfrwt>
<totfact> 0.64369391E+04</totfact>
</mgrwt>
</event>
<event>
 4    2  0.4086940E+000  0.2080946E+03  0.7546771E-02  0.1143084E+00
         21   -1    0    0  503  502  0.00000000000E+00  0.00000000000E+00  0.38119388288E+03  0.38119388288E+03  0.00000000000E+00 0.  1.
         21   -1    0    0  501  503 -0.00000000000E+00 -0.00000000000E+00 -0.15674889161E+03  0.15674889161E+03  0.00000000000E+00 0. -1.
          6    1    1    2  501    0  0.77227546118E+01  0.11538945442E+03 -0.28898642817E+02  0.21009164354E+03  0.17300000000E+03 0. -1.
         -6    1    1    2    0  502 -0.77227546118E+01 -0.11538945442E+03  0.25334363408E+03  0.32785113094E+03  0.17300000000E+03 0.  1.
<mgrwt>
<rscale>  2 0.20809461E+03</rscale>
<asrwt>0</asrwt>
<pdfrwt beam="1">  1       21 0.58645212E-01 0.20809461E+03</pdfrwt>
<pdfrwt beam="2">  1       21 0.24115214E-01 0.20809461E+03</pdfrwt>
<totfact> 0.43804955E+04</totfact>
</mgrwt>
</event>
<event>
 4    2  0.4086940E+000  0.2111676E+03  0.7546771E-02  0.1140645E+00
         21   -1    0    0  501  502  0.00000000000E+00  0.00000000000E+00  0.49195648131E+03  0.49195648131E+03  0.00000000000E+00 0. -1.
         21   -1    0    0  502  503 -0.00000000000E+00 -0.00000000000E+00 -0.99099566353E+02  0.99099566353E+02  0.00000000000E+00 0. -1.
          6    1    1    2  501    0  0.11172654050E+03 -0.46689576775E+02  0.28276507844E+03  0.35291334066E+03  0.17300000000E+03 0. -1.
         -6    1    1    2    0  503 -0.11172654050E+03  0.46689576775E+02  0.11009183652E+03  0.23814270700E+03  0.17300000000E+03 0. -1.
<mgrwt>
<rscale>  2 0.21116756E+03</rscale>
<asrwt>0</asrwt>
<pdfrwt beam="1">  1       21 0.75685611E-01 0.21116756E+03</pdfrwt>
<pdfrwt beam="2">  1       21 0.15246087E-01 0.21116756E+03</pdfrwt>
<totfact> 0.58811977E+04</totfact>
</mgrwt>
</event>
<event>
 4    2  0.4086940E+000  0.1940675E+03  0.7546771E-02  0.1154843E+00
         21   -1    0    0  501  502  0.00000000000E+00  0.00000000000E+00  0.76945776524E+03  0.76945776524E+03  0.00000000000E+00 0. -1.
         21   -1    0    0  502  503 -0.00000000000E+00 -0.00000000000E+00 -0.49948453084E+02  0.49948453084E+02  0.00000000000E+00 0. -1.
          6    1    1    2  501    0 -0.23774433944E+01 -0.87906397643E+02  0.30172449643E+03  0.35874762540E+03  0.17300000000E+03 0. -1.
         -6    1    1    2    0  503  0.23774433944E+01  0.87906397643E+02  0.41778481573E+03  0.46065859293E+03  0.17300000000E+03 0. -1.
<mgrwt>
<rscale>  2 0.19406748E+03</rscale>
<asrwt>0</asrwt>
<pdfrwt beam="1">  1       21 0.11837811E+00 0.19406748E+03</pdfrwt>
<pdfrwt beam="2">  1       21 0.76843779E-02 0.19406748E+03</pdfrwt>
<totfact> 0.70251382E+04</totfact>
</mgrwt>
</event>
<event>
 4    2  0.4086940E+000  0.1840305E+03  0.7546771E-02  0.1163958E+00
         21   -1    0    0  501  502  0.00000000000E+00  0.00000000000E+00  0.14786680396E+03  0.14786680396E+03  0.00000000000E+00 0.  1.
         21   -1    0    0  502  503 -0.00000000000E+00 -0.00000000000E+00 -0.38240264603E+03  0.38240264603E+03  0.00000000000E+00 0.  1.
          6    1    1    2  501    0  0.35332959209E+02  0.51863421250E+02  0.50638649070E+02  0.19087038861E+03  0.17300000000E+03 0.  1.
         -6    1    1    2    0  503 -0.35332959209E+02 -0.51863421250E+02 -0.28517449114E+03  0.33939906138E+03  0.17300000000E+03 0.  1.
<mgrwt>
<rscale>  2 0.18403052E+03</rscale>
<asrwt>0</asrwt>
<pdfrwt beam="1">  1       21 0.22748740E-01 0.18403052E+03</pdfrwt>
<pdfrwt beam="2">  1       21 0.58831175E-01 0.18403052E+03</pdfrwt>
<totfact> 0.49178598E+04</totfact>
</mgrwt>
</event>
<event>
 4    2  0.4086940E+000  0.1900285E+03  0.7546771E-02  0.1158436E+00
         21   -1    0    0  501  502  0.00000000000E+00  0.00000000000E+00  0.58053594922E+03  0.58053594922E+03  0.00000000000E+00 0.  1.
         21   -1    0    0  502  503 -0.00000000000E+00 -0.00000000000E+00 -0.62837484364E+02  0.62837484364E+02  0.00000000000E+00 0.  1.
          6    1    1    2  501    0  0.56737166955E+02 -0.54430894835E+02  0.22651362163E+03  0.29566746390E+03  0.17300000000E+03 0.  1.
         -6    1    1    2    0  503 -0.56737166955E+02  0.54430894835E+02  0.29118484322E+03  0.34770596968E+03  0.17300000000E+03 0.  1.
<mgrwt>
<rscale>  2 0.19002849E+03</rscale>
<asrwt>0</asrwt>
<pdfrwt beam="1">  1       21 0.89313219E-01 0.19002849E+03</pdfrwt>
<pdfrwt beam="2">  1       21 0.96673057E-02 0.19002849E+03</pdfrwt>
<totfact> 0.92213386E+04</totfact>
</mgrwt>
</event>
<event>
 4    2  0.4086940E+000  0.3377483E+03  0.7546771E-02  0.1067759E+00
         21   -1    0    0  501  502  0.00000000000E+00  0.00000000000E+00  0.53429748952E+03  0.53429748952E+03  0.00000000000E+00 0. -1.
         21   -1    0    0  502  503 -0.00000000000E+00 -0.00000000000E+00 -0.26749257033E+03  0.26749257033E+03  0.00000000000E+00 0.  1.
          6    1    1    2  501    0  0.46139110253E+02 -0.28638457538E+03  0.31350965294E+03  0.46082778236E+03  0.17300000000E+03 0. -1.
         -6    1    1    2    0  503 -0.46139110253E+02  0.28638457538E+03 -0.46704733751E+02  0.34096227748E+03  0.17300000000E+03 0.  1.
<mgrwt>
<rscale>  2 0.33774834E+03</rscale>
<asrwt>0</asrwt>
<pdfrwt beam="1">  1       21 0.82199613E-01 0.33774834E+03</pdfrwt>
<pdfrwt beam="2">  1       21 0.41152703E-01 0.33774834E+03</pdfrwt>
<totfact> 0.67757459E+03</totfact>
</mgrwt>
</event>
<event>
 4    2  0.4086940E+000  0.1809045E+03  0.7546771E-02  0.1166931E+00
         21   -1    0    0  501  502  0.00000000000E+00  0.00000000000E+00  0.10848534337E+03  0.10848534337E+03  0.00000000000E+00 0. -1.
         21   -1    0    0  502  503 -0.00000000000E+00 -0.00000000000E+00 -0.31003790306E+03  0.31003790306E+03  0.00000000000E+00 0. -1.
          6    1    1    2  501    0  0.18234667097E+02 -0.49648209910E+02 -0.66391328831E+02  0.19270250744E+03  0.17300000000E+03 0. -1.
         -6    1    1    2    0  503 -0.18234667097E+02  0.49648209910E+02 -0.13516123086E+03  0.22582073899E+03  0.17300000000E+03 0. -1.
<mgrwt>
<rscale>  2 0.18090453E+03</rscale>
<asrwt>0</asrwt>
<pdfrwt beam="1">  1       21 0.16690053E-01 0.18090453E+03</pdfrwt>
<pdfrwt beam="2">  1       21 0.47698138E-01 0.18090453E+03</pdfrwt>
<totfact> 0.13615332E+05</totfact>
</mgrwt>
</event>
<event>
 4    2  0.4086940E+000  0.2014293E+03  0.7546771E-02  0.1148539E+00
         21   -1    0    0  503  502  0.00000000000E+00  0.00000000000E+00  0.20778956467E+03  0.20778956467E+03  0.00000000000E+00 0. -1.
         21   -1    0    0  501  503 -0.00000000000E+00 -0.00000000000E+00 -0.48908046961E+03  0.48908046961E+03  0.00000000000E+00 0. -1.
          6    1    1    2  501    0  0.10246723454E+03 -0.12050586569E+02 -0.41071147847E+03  0.45744690330E+03  0.17300000000E+03 0. -1.
         -6    1    1    2    0  502 -0.10246723454E+03  0.12050586569E+02  0.12942057353E+03  0.23942313097E+03  0.17300000000E+03 0. -1.
<mgrwt>
<rscale>  2 0.20142927E+03</rscale>
<asrwt>0</asrwt>
<pdfrwt beam="1">  1       21 0.31967626E-01 0.20142927E+03</pdfrwt>
<pdfrwt beam="2">  1       21 0.75243148E-01 0.20142927E+03</pdfrwt>
<totfact> 0.14771045E+04</totfact>
</mgrwt>
</event>
<event>
 4    2  0.4086940E+000  0.1798387E+03  0.7546771E-02  0.1167959E+00
         21   -1    0    0  501  502  0.00000000000E+00  0.00000000000E+00  0.76454261265E+03  0.76454261265E+03  0.00000000000E+00 0.  1.
         21   -1    0    0  502  503 -0.00000000000E+00 -0.00000000000E+00 -0.44332132041E+02  0.44332132041E+02  0.00000000000E+00 0. -1.
          6    1    1    2  501    0 -0.29464193647E+02 -0.39303996651E+02  0.44664537357E+03  0.48149146679E+03  0.17300000000E+03 0. -1.
         -6    1    1    2    0  503  0.29464193647E+02  0.39303996651E+02  0.27356510705E+03  0.32738327791E+03  0.17300000000E+03 0. -1.
<mgrwt>
<rscale>  2 0.17983866E+03</rscale>
<asrwt>0</asrwt>
<pdfrwt beam="1">  1       21 0.11762193E+00 0.17983866E+03</pdfrwt>
<pdfrwt beam="2">  1       21 0.68203286E-02 0.17983866E+03</pdfrwt>
<totfact> 0.88284246E+04</totfact>
</mgrwt>
</event>
<event>
 4    2  0.4086940E+000  0.2384737E+03  0.7546771E-02  0.1120814E+00
         21   -1    0    0  501  502  0.00000000000E+00  0.00000000000E+00  0.41609434924E+03  0.41609434924E+03  0.00000000000E+00 0. -1.
         21   -1    0    0  502  503 -0.00000000000E+00 -0.00000000000E+00 -0.17467062291E+03  0.17467062291E+03  0.00000000000E+00 0.  1.
          6    1    1    2  501    0 -0.14985567679E+03 -0.66962438760E+02  0.25847773154E+03  0.35168228527E+03  0.17300000000E+03 0. -1.
         -6    1    1    2    0  503  0.14985567679E+03  0.66962438760E+02 -0.17054005209E+02  0.23908268687E+03  0.17300000000E+03 0.  1.
<mgrwt>
<rscale>  2 0.23847367E+03</rscale>
<asrwt>0</asrwt>
<pdfrwt beam="1">  1       21 0.64014515E-01 0.23847367E+03</pdfrwt>
<pdfrwt beam="2">  1       21 0.26872404E-01 0.23847367E+03</pdfrwt>
<totfact> 0.29016130E+04</totfact>
</mgrwt>
</event>
<event>
 4    2  0.4086940E+000  0.1774922E+03  0.7546771E-02  0.1170252E+00
         21   -1    0    0  501  502  0.00000000000E+00  0.00000000000E+00  0.73865173795E+02  0.73865173795E+02  0.00000000000E+00 0.  1.
         21   -1    0    0  502  503 -0.00000000000E+00 -0.00000000000E+00 -0.13327767699E+04  0.13327767699E+04  0.00000000000E+00 0.  1.
          6    1    1    2  501    0  0.27863507187E+02 -0.28250698323E+02 -0.49486040320E+02  0.18426162155E+03  0.17300000000E+03 0.  1.
         -6    1    1    2    0  503 -0.27863507187E+02  0.28250698323E+02 -0.12094255558E+04  0.12223803222E+04  0.17300000000E+03 0.  1.
<mgrwt>
<rscale>  2 0.17749219E+03</rscale>
<asrwt>0</asrwt>
<pdfrwt beam="1">  1       21 0.11363874E-01 0.17749219E+03</pdfrwt>
<pdfrwt beam="2">  1       21 0.20504256E+00 0.17749219E+03</pdfrwt>
<totfact> 0.81752775E+03</totfact>
</mgrwt>
</event>
<event>
 4    2  0.4086940E+000  0.2353680E+03  0.7546771E-02  0.1122918E+00
         21   -1    0    0  501  502  0.00000000000E+00  0.00000000000E+00  0.39078542860E+02  0.39078542860E+02  0.00000000000E+00 0. -1.
         21   -1    0    0  502  503 -0.00000000000E+00 -0.00000000000E+00 -0.16053979882E+04  0.16053979882E+04  0.00000000000E+00 0. -1.
          6    1    1    2  501    0  0.92780451049E+02 -0.12984937516E+03 -0.10643770207E+04  0.10900901405E+04  0.17300000000E+03 0. -1.
         -6    1    1    2    0  503 -0.92780451049E+02  0.12984937516E+03 -0.50194242461E+03  0.55438639048E+03  0.17300000000E+03 0. -1.
<mgrwt>
<rscale>  2 0.23536795E+03</rscale>
<asrwt>0</asrwt>
<pdfrwt beam="1">  1       21 0.60120839E-02 0.23536795E+03</pdfrwt>
<pdfrwt beam="2">  1       21 0.24698429E+00 0.23536795E+03</pdfrwt>
<totfact> 0.13127097E+04</totfact>
</mgrwt>
</event>
<event>
 4    2  0.4086940E+000  0.1883385E+03  0.7546771E-02  0.1159968E+00
         21   -1    0    0  503  502  0.00000000000E+00  0.00000000000E+00  0.19807644385E+03  0.19807644385E+03  0.00000000000E+00 0. -1.
         21   -1    0    0  501  503 -0.00000000000E+00 -0.00000000000E+00 -0.17920265616E+03  0.17920265616E+03  0.00000000000E+00 0.  1.
          6    1    1    2  501    0  0.60781335080E+02 -0.42988656226E+02  0.44880664709E+01  0.18839197966E+03  0.17300000000E+03 0.  1.
         -6    1    1    2    0  502 -0.60781335080E+02  0.42988656226E+02  0.14385721218E+02  0.18888712035E+03  0.17300000000E+03 0.  1.
<mgrwt>
<rscale>  2 0.18833851E+03</rscale>
<asrwt>0</asrwt>
<pdfrwt beam="1">  1       21 0.30473299E-01 0.18833851E+03</pdfrwt>
<pdfrwt beam="2">  1       21 0.27569639E-01 0.18833851E+03</pdfrwt>
<totfact> 0.12994291E+05</totfact>
</mgrwt>
</event>
<event>
 4    2  0.4086940E+000  0.2129823E+03  0.7546771E-02  0.1139226E+00
         21   -1    0    0  503  502  0.00000000000E+00  0.00000000000E+00  0.10942848577E+04  0.10942848577E+04  0.00000000000E+00 0.  1.
         21   -1    0    0  501  503 -0.00000000000E+00 -0.00000000000E+00 -0.42922187065E+02  0.42922187065E+02  0.00000000000E+00 0.  1.
          6    1    1    2  501    0  0.11027708769E+02  0.12373700051E+03  0.42048555197E+03  0.47134865553E+03  0.17300000000E+03 0.  1.
         -6    1    1    2    0  502 -0.11027708769E+02 -0.12373700051E+03  0.63087711867E+03  0.66585838924E+03  0.17300000000E+03 0.  1.
<mgrwt>
<rscale>  2 0.21298229E+03</rscale>
<asrwt>0</asrwt>
<pdfrwt beam="1">  1       21 0.16835150E+00 0.21298229E+03</pdfrwt>
<pdfrwt beam="2">  1       21 0.66034142E-02 0.21298229E+03</pdfrwt>
<totfact> 0.36199224E+04</totfact>
</mgrwt>
</event>
<event>
 4    2  0.4086940E+000  0.1941800E+03  0.7546771E-02  0.1154744E+00
         21   -1    0    0  501  502  0.00000000000E+00  0.00000000000E+00  0.62990219367E+02  0.62990219367E+02  0.00000000000E+00 0. -1.
         21   -1    0    0  502  503 -0.00000000000E+00 -0.00000000000E+00 -0.81655985932E+03  0.81655985932E+03  0.00000000000E+00 0.  1.
          6    1    1    2  501    0  0.37632182343E+02  0.79753841514E+02 -0.14957545461E+03  0.24510951227E+03  0.17300000000E+03 0. -1.
         -6    1    1    2    0  503 -0.37632182343E+02 -0.79753841514E+02 -0.60399418535E+03  0.63444056642E+03  0.17300000000E+03 0.  1.
<mgrwt>
<rscale>  2 0.19417996E+03</rscale>
<asrwt>0</asrwt>
<pdfrwt beam="1">  1       21 0.96908029E-02 0.19417996E+03</pdfrwt>
<pdfrwt beam="2">  1       21 0.12562459E+00 0.19417996E+03</pdfrwt>
<totfact> 0.40373844E+04</totfact>
</mgrwt>
</event>
<event>
 4    2  0.4086940E+000  0.1786473E+03  0.7546771E-02  0.1169119E+00
         21   -1    0    0  501  502  0.00000000000E+00  0.00000000000E+00  0.75250835726E+02  0.75250835726E+02  0.00000000000E+00 0. -1.
         21   -1    0    0  502  503 -0.00000000000E+00 -0.00000000000E+00 -0.44339966560E+03  0.44339966560E+03  0.00000000000E+00 0. -1.
          6    1    1    2  501    0  0.44252124743E+02 -0.52559498652E+01 -0.12998988884E+03  0.22093493783E+03  0.17300000000E+03 0. -1.
         -6    1    1    2    0  503 -0.44252124743E+02  0.52559498652E+01 -0.23815894104E+03  0.29771556350E+03  0.17300000000E+03 0. -1.
<mgrwt>
<rscale>  2 0.17864735E+03</rscale>
<asrwt>0</asrwt>
<pdfrwt beam="1">  1       21 0.11577051E-01 0.17864735E+03</pdfrwt>
<pdfrwt beam="2">  1       21 0.68215336E-01 0.17864735E+03</pdfrwt>
<totfact> 0.12333021E+05</totfact>
</mgrwt>
</event>
<event>
 4    2  0.4086940E+000  0.2016324E+03  0.7546771E-02  0.1148369E+00
         21   -1    0    0  503  502  0.00000000000E+00  0.00000000000E+00  0.25220201206E+03  0.25220201206E+03  0.00000000000E+00 0. -1.
         21   -1    0    0  501  503 -0.00000000000E+00 -0.00000000000E+00 -0.24275275846E+03  0.24275275846E+03  0.00000000000E+00 0.  1.
          6    1    1    2  501    0 -0.48979663823E+02 -0.91255683168E+02  0.14816320533E+03  0.25021579205E+03  0.17300000000E+03 0. -1.
         -6    1    1    2    0  502  0.48979663823E+02  0.91255683168E+02 -0.13871395173E+03  0.24473897847E+03  0.17300000000E+03 0.  1.
<mgrwt>
<rscale>  2 0.20163236E+03</rscale>
<asrwt>0</asrwt>
<pdfrwt beam="1">  1       21 0.38800309E-01 0.20163236E+03</pdfrwt>
<pdfrwt beam="2">  1       21 0.37346578E-01 0.20163236E+03</pdfrwt>
<totfact> 0.44088076E+04</totfact>
</mgrwt>
</event>
<event>
 4    2  0.4086940E+000  0.1999801E+03  0.7546771E-02  0.1149756E+00
         21   -1    0    0  503  502  0.00000000000E+00  0.00000000000E+00  0.27496181436E+04  0.27496181436E+04  0.00000000000E+00 0.  1.
         21   -1    0    0  501  503 -0.00000000000E+00 -0.00000000000E+00 -0.37822863484E+02  0.37822863484E+02  0.00000000000E+00 0.  1.
          6    1    1    2  501    0 -0.11633156612E+02 -0.99637972637E+02  0.26251062364E+03  0.33000588396E+03  0.17300000000E+03 0.  1.
         -6    1    1    2    0  502  0.11633156612E+02  0.99637972637E+02  0.24492846565E+04  0.24574351232E+04  0.17300000000E+03 0.  1.
<mgrwt>
<rscale>  2 0.19998014E+03</rscale>
<asrwt>0</asrwt>
<pdfrwt beam="1">  1       21 0.42301802E+00 0.19998014E+03</pdfrwt>
<pdfrwt beam="2">  1       21 0.58189042E-02 0.19998014E+03</pdfrwt>
<totfact> 0.12814781E+03</totfact>
</mgrwt>
</event>
<event>
 4    2  0.4086940E+000  0.1780183E+03  0.7546771E-02  0.1169735E+00
         21   -1    0    0  503  502  0.00000000000E+00  0.00000000000E+00  0.17210694141E+02  0.17210694141E+02  0.00000000000E+00 0. -1.
         21   -1    0    0  501  503 -0.00000000000E+00 -0.00000000000E+00 -0.18644263595E+04  0.18644263595E+04  0.00000000000E+00 0. -1.
          6    1    1    2  501    0 -0.14777437271E+02  0.39282857057E+02 -0.81888693009E+03  0.83801331719E+03  0.17300000000E+03 0. -1.
         -6    1    1    2    0  502  0.14777437271E+02 -0.39282857057E+02 -0.10283287353E+04  0.10436237365E+04  0.17300000000E+03 0. -1.
<mgrwt>
<rscale>  2 0.17801830E+03</rscale>
<asrwt>0</asrwt>
<pdfrwt beam="1">  1       21 0.26478008E-02 0.17801830E+03</pdfrwt>
<pdfrwt beam="2">  1       21 0.28683464E+00 0.17801830E+03</pdfrwt>
<totfact> 0.32041890E+04</totfact>
</mgrwt>
</event>
<event>
 4    2  0.4086940E+000  0.1974891E+03  0.7546771E-02  0.1151875E+00
         21   -1    0    0  501  502  0.00000000000E+00  0.00000000000E+00  0.26641658763E+04  0.26641658763E+04  0.00000000000E+00 0. -1.
         21   -1    0    0  502  503 -0.00000000000E+00 -0.00000000000E+00 -0.71764407025E+02  0.71764407025E+02  0.00000000000E+00 0. -1.
          6    1    1    2  501    0 -0.87602725932E+02 -0.37399400973E+02  0.25166883627E+04  0.25244251361E+04  0.17300000000E+03 0. -1.
         -6    1    1    2    0  503  0.87602725932E+02  0.37399400973E+02  0.75713106521E+02  0.21150514718E+03  0.17300000000E+03 0. -1.
<mgrwt>
<rscale>  2 0.19748912E+03</rscale>
<asrwt>0</asrwt>
<pdfrwt beam="1">  1       21 0.40987160E+00 0.19748912E+03</pdfrwt>
<pdfrwt beam="2">  1       21 0.11040680E-01 0.19748912E+03</pdfrwt>
<totfact> 0.51050391E+02</totfact>
</mgrwt>
</event>
<event>
 4    2  0.4086940E+000  0.1983467E+03  0.7546771E-02  0.1151141E+00
         21   -1    0    0  503  502  0.00000000000E+00  0.00000000000E+00  0.12653414525E+04  0.12653414525E+04  0.00000000000E+00 0. -1.
         21   -1    0    0  501  503 -0.00000000000E+00 -0.00000000000E+00 -0.33746721204E+02  0.33746721204E+02  0.00000000000E+00 0. -1.
          6    1    1    2  501    0  0.65469626131E+01  0.96796387058E+02  0.43360060854E+03  0.47681326638E+03  0.17300000000E+03 0. -1.
         -6    1    1    2    0  502 -0.65469626131E+01 -0.96796387058E+02  0.79799412280E+03  0.82227490737E+03  0.17300000000E+03 0. -1.
<mgrwt>
<rscale>  2 0.19834667E+03</rscale>
<asrwt>0</asrwt>
<pdfrwt beam="1">  1       21 0.19466788E+00 0.19834667E+03</pdfrwt>
<pdfrwt beam="2">  1       21 0.51918042E-02 0.19834667E+03</pdfrwt>
<totfact> 0.36539451E+04</totfact>
</mgrwt>
</event>
<event>
 4    2  0.4086940E+000  0.1825487E+03  0.7546771E-02  0.1165359E+00
         21   -1    0    0  501  502  0.00000000000E+00  0.00000000000E+00  0.48293653578E+02  0.48293653578E+02  0.00000000000E+00 0.  1.
         21   -1    0    0  502  503 -0.00000000000E+00 -0.00000000000E+00 -0.86934588232E+03  0.86934588232E+03  0.00000000000E+00 0.  1.
          6    1    1    2  501    0 -0.55210683935E+02  0.18623135041E+02 -0.20214616599E+03  0.27237311395E+03  0.17300000000E+03 0.  1.
         -6    1    1    2    0  503  0.55210683935E+02 -0.18623135041E+02 -0.61890606275E+03  0.64526642195E+03  0.17300000000E+03 0.  1.
<mgrwt>
<rscale>  2 0.18254874E+03</rscale>
<asrwt>0</asrwt>
<pdfrwt beam="1">  1       21 0.74297934E-02 0.18254874E+03</pdfrwt>
<pdfrwt beam="2">  1       21 0.13374551E+00 0.18254874E+03</pdfrwt>
<totfact> 0.55179693E+04</totfact>
</mgrwt>
</event>
<event>
 4    2  0.4086940E+000  0.1825754E+03  0.7546771E-02  0.1165334E+00
         21   -1    0    0  503  502  0.00000000000E+00  0.00000000000E+00  0.13633365473E+03  0.13633365473E+03  0.00000000000E+00 0.  1.
         21   -1    0    0  501  503 -0.00000000000E+00 -0.00000000000E+00 -0.24650117964E+03  0.24650117964E+03  0.00000000000E+00 0.  1.
          6    1    1    2  501    0 -0.51642889535E+02 -0.27161956914E+02 -0.37842439268E+02  0.18645592013E+03  0.17300000000E+03 0. -1.
         -6    1    1    2    0  502  0.51642889535E+02  0.27161956914E+02 -0.72325085647E+02  0.19637891424E+03  0.17300000000E+03 0. -1.
<mgrwt>
<rscale>  2 0.18257535E+03</rscale>
<asrwt>0</asrwt>
<pdfrwt beam="1">  1       21 0.20974408E-01 0.18257535E+03</pdfrwt>
<pdfrwt beam="2">  1       21 0.37923258E-01 0.18257535E+03</pdfrwt>
<totfact> 0.14206863E+05</totfact>
</mgrwt>
</event>
<event>
 4    2  0.4086940E+000  0.1820781E+03  0.7546771E-02  0.1165807E+00
         21   -1    0    0  501  502  0.00000000000E+00  0.00000000000E+00  0.23590342359E+03  0.23590342359E+03  0.00000000000E+00 0.  1.
         21   -1    0    0  502  503 -0.00000000000E+00 -0.00000000000E+00 -0.15712260513E+03  0.15712260513E+03  0.00000000000E+00 0.  1.
          6    1    1    2  501    0  0.37767556002E+02 -0.42391519474E+02  0.10324294753E+03  0.20931205275E+03  0.17300000000E+03 0. -1.
         -6    1    1    2    0  503 -0.37767556002E+02  0.42391519474E+02 -0.24462129077E+02  0.18371397598E+03  0.17300000000E+03 0. -1.
<mgrwt>
<rscale>  2 0.18207809E+03</rscale>
<asrwt>0</asrwt>
<pdfrwt beam="1">  1       21 0.36292834E-01 0.18207809E+03</pdfrwt>
<pdfrwt beam="2">  1       21 0.24172709E-01 0.18207809E+03</pdfrwt>
<totfact> 0.11868369E+05</totfact>
</mgrwt>
</event>
