<event>
 4    3  0.8789582E-001  0.9453209E+02  0.7546771E-02  0.1292233E+00
          2   -1    0    0  501    0  0.00000000000E+00  0.00000000000E+00  0.22645990307E+03  0.22645990307E+03  0.00000000000E+00 0. -1.
         -2   -1    0    0    0  501 -0.00000000000E+00 -0.00000000000E+00 -0.43716929958E+02  0.43716929958E+02  0.00000000000E+00 0.  1.
         24    1    1    2    0    0  0.39537077183E+02 -0.30098487159E+02  0.13352121419E+03  0.16359776891E+03  0.80419002446E+02 0.  0.
        -24    1    1    2    0    0 -0.39537077183E+02  0.30098487159E+02  0.49221758928E+02  0.10657906412E+03  0.80419002446E+02 0.  1.
<mgrwt>
<rscale>  0 0.94532086E+02</rscale>
<asrwt>0</asrwt>
<pdfrwt beam="1">  1        2 0.34839984E-01 0.94532086E+02</pdfrwt>
<pdfrwt beam="2">  1       -2 0.67256817E-02 0.94532086E+02</pdfrwt>
<totfact> 0.16641554E+04</totfact>
</mgrwt>
</event>
<event>
 4    3  0.8789582E-001  0.1062972E+03  0.7546771E-02  0.1267585E+00
          2   -1    0    0  501    0  0.00000000000E+00  0.00000000000E+00  0.18733216913E+04  0.18733216913E+04  0.00000000000E+00 0. -1.
         -2   -1    0    0    0  501 -0.00000000000E+00 -0.00000000000E+00 -0.92249360569E+01  0.92249360569E+01  0.00000000000E+00 0.  1.
         24    1    1    2    0    0 -0.55203499649E+02 -0.42242889111E+02  0.14858538143E+04  0.14896511879E+04  0.80419002446E+02 0.  0.
        -24    1    1    2    0    0  0.55203499649E+02  0.42242889111E+02  0.37824294096E+03  0.39289543951E+03  0.80419002446E+02 0. -1.
<mgrwt>
<rscale>  0 0.10629724E+03</rscale>
<asrwt>0</asrwt>
<pdfrwt beam="1">  1        2 0.28820304E+00 0.10629724E+03</pdfrwt>
<pdfrwt beam="2">  1       -2 0.14192224E-02 0.10629724E+03</pdfrwt>
<totfact> 0.10752976E+04</totfact>
</mgrwt>
</event>
<event>
 4    3  0.8789582E-001  0.8566583E+02  0.7546771E-02  0.1313700E+00
         -1   -1    0    0    0  501 -0.00000000000E+00  0.00000000000E+00  0.18700925459E+02  0.18700925459E+02  0.00000000000E+00 0.  1.
          1   -1    0    0  501    0  0.00000000000E+00 -0.00000000000E+00 -0.43729657140E+03  0.43729657140E+03  0.00000000000E+00 0. -1.
         24    1    1    2    0    0 -0.27923481779E+02 -0.95756658782E+01 -0.28233616368E+03  0.29504633448E+03  0.80419002446E+02 0.  0.
        -24    1    1    2    0    0  0.27923481779E+02  0.95756658782E+01 -0.13625948226E+03  0.16095116238E+03  0.80419002446E+02 0.  0.
<mgrwt>
<rscale>  0 0.85665816E+02</rscale>
<asrwt>0</asrwt>
<pdfrwt beam="1">  1        1 0.67276389E-01 0.85665827E+02</pdfrwt>
<pdfrwt beam="2">  1       -1 0.28770658E-02 0.85665827E+02</pdfrwt>
<totfact> 0.19436206E+04</totfact>
</mgrwt>
</event>
<event>
 4    3  0.8789582E-001  0.9600367E+02  0.7546771E-02  0.1288931E+00
         -2   -1    0    0    0  501 -0.00000000000E+00  0.00000000000E+00  0.44865589343E+02  0.44865589343E+02  0.00000000000E+00 0.  1.
          2   -1    0    0  501    0  0.00000000000E+00 -0.00000000000E+00 -0.20678278185E+03  0.20678278185E+03  0.00000000000E+00 0. -1.
         24    1    1    2    0    0 -0.40131438431E+02 -0.33748355936E+02 -0.70778370684E+02  0.11927396023E+03  0.80419002446E+02 0.  1.
        -24    1    1    2    0    0  0.40131438431E+02  0.33748355936E+02 -0.91138821824E+02  0.13237441096E+03  0.80419002446E+02 0. -1.
<mgrwt>
<rscale>  0 0.96003657E+02</rscale>
<asrwt>0</asrwt>
<pdfrwt beam="1">  1        2 0.31812736E-01 0.96003669E+02</pdfrwt>
<pdfrwt beam="2">  1       -2 0.69023983E-02 0.96003669E+02</pdfrwt>
<totfact> 0.17650410E+04</totfact>
</mgrwt>
</event>
<event>
 4    3  0.8789582E-001  0.1121032E+03  0.7546771E-02  0.1256724E+00
          2   -1    0    0  501    0  0.00000000000E+00  0.00000000000E+00  0.21676947975E+02  0.21676947975E+02  0.00000000000E+00 0. -1.
         -2   -1    0    0    0  501 -0.00000000000E+00 -0.00000000000E+00 -0.57979336960E+03  0.57979336960E+03  0.00000000000E+00 0.  1.
         24    1    1    2    0    0  0.75301305654E+02 -0.20727182584E+02 -0.28178337870E+03  0.30326389696E+03  0.80419002446E+02 0. -1.
        -24    1    1    2    0    0 -0.75301305654E+02  0.20727182584E+02 -0.27633304292E+03  0.29820642061E+03  0.80419002446E+02 0.  1.
<mgrwt>
<rscale>  0 0.11210317E+03</rscale>
<asrwt>0</asrwt>
<pdfrwt beam="1">  1        2 0.33349154E-02 0.11210319E+03</pdfrwt>
<pdfrwt beam="2">  1       -2 0.89198971E-01 0.11210319E+03</pdfrwt>
<totfact> 0.28447827E+03</totfact>
</mgrwt>
</event>
<event>
 4    3  0.8789582E-001  0.8413233E+02  0.7546771E-02  0.1317717E+00
          4   -1    0    0  501    0  0.00000000000E+00  0.00000000000E+00  0.94764022664E+03  0.94764022664E+03  0.00000000000E+00 0. -1.
         -4   -1    0    0    0  501 -0.00000000000E+00 -0.00000000000E+00 -0.27312755481E+02  0.27312755481E+02  0.00000000000E+00 0.  1.
         24    1    1    2    0    0  0.24480176150E+02  0.34283940156E+01  0.87567146771E+03  0.87970379573E+03  0.80419002446E+02 0. -1.
        -24    1    1    2    0    0 -0.24480176150E+02 -0.34283940156E+01  0.44656003455E+02  0.95249186395E+02  0.80419002446E+02 0.  1.
<mgrwt>
<rscale>  0 0.84132329E+02</rscale>
<asrwt>0</asrwt>
<pdfrwt beam="1">  1        4 0.14579078E+00 0.84132329E+02</pdfrwt>
<pdfrwt beam="2">  1       -4 0.42019631E-02 0.84132329E+02</pdfrwt>
<totfact> 0.16580493E+02</totfact>
</mgrwt>
</event>
<event>
 4    3  0.8789582E-001  0.8092783E+02  0.7546771E-02  0.1326439E+00
          2   -1    0    0  501    0  0.00000000000E+00  0.00000000000E+00  0.93782704308E+02  0.93782704308E+02  0.00000000000E+00 0. -1.
         -2   -1    0    0    0  501 -0.00000000000E+00 -0.00000000000E+00 -0.92517511448E+02  0.92517511448E+02  0.00000000000E+00 0.  1.
         24    1    1    2    0    0  0.80502181010E+01  0.41584028139E+01  0.46755543553E+02  0.93463335767E+02  0.80419002446E+02 0. -1.
        -24    1    1    2    0    0 -0.80502181010E+01 -0.41584028139E+01 -0.45490350693E+02  0.92836879988E+02  0.80419002446E+02 0.  0.
<mgrwt>
<rscale>  0 0.80927834E+02</rscale>
<asrwt>0</asrwt>
<pdfrwt beam="1">  1        2 0.14428108E-01 0.80927834E+02</pdfrwt>
<pdfrwt beam="2">  1       -2 0.14233463E-01 0.80927834E+02</pdfrwt>
<totfact> 0.13517326E+04</totfact>
</mgrwt>
</event>
<event>
 4    3  0.8789582E-001  0.8421762E+02  0.7546771E-02  0.1317491E+00
         -2   -1    0    0    0  501 -0.00000000000E+00  0.00000000000E+00  0.60009181071E+01  0.60009181071E+01  0.00000000000E+00 0.  1.
          2   -1    0    0  501    0  0.00000000000E+00 -0.00000000000E+00 -0.14029547967E+04  0.14029547967E+04  0.00000000000E+00 0. -1.
         24    1    1    2    0    0 -0.14855499619E+02  0.20117307812E+02 -0.97810154145E+03  0.98172054745E+03  0.80419002446E+02 0.  0.
        -24    1    1    2    0    0  0.14855499619E+02 -0.20117307812E+02 -0.41885233711E+03  0.42723516733E+03  0.80419002446E+02 0.  1.
<mgrwt>
<rscale>  0 0.84217622E+02</rscale>
<asrwt>0</asrwt>
<pdfrwt beam="1">  1        2 0.21583925E+00 0.84217622E+02</pdfrwt>
<pdfrwt beam="2">  1       -2 0.92321795E-03 0.84217622E+02</pdfrwt>
<totfact> 0.33783209E+04</totfact>
</mgrwt>
</event>
<event>
 4    3  0.8789582E-001  0.8249296E+02  0.7546771E-02  0.1322122E+00
         -1   -1    0    0    0  501 -0.00000000000E+00  0.00000000000E+00  0.11434284843E+04  0.11434284843E+04  0.00000000000E+00 0.  1.
          1   -1    0    0  501    0  0.00000000000E+00 -0.00000000000E+00 -0.60131841216E+01  0.60131841216E+01  0.00000000000E+00 0. -1.
         24    1    1    2    0    0 -0.13518192180E+01  0.18331447551E+02  0.51048640011E+03  0.51710874102E+03  0.80419002446E+02 0.  1.
        -24    1    1    2    0    0  0.13518192180E+01 -0.18331447551E+02  0.62692890005E+03  0.63233292738E+03  0.80419002446E+02 0. -1.
<mgrwt>
<rscale>  0 0.82492951E+02</rscale>
<asrwt>0</asrwt>
<pdfrwt beam="1">  1        1 0.92510616E-03 0.82492962E+02</pdfrwt>
<pdfrwt beam="2">  1       -1 0.17591190E+00 0.82492962E+02</pdfrwt>
<totfact> 0.40694012E+03</totfact>
</mgrwt>
</event>
<event>
 4    3  0.8789582E-001  0.1081184E+03  0.7546771E-02  0.1264094E+00
         -1   -1    0    0    0  501 -0.00000000000E+00  0.00000000000E+00  0.21166670628E+02  0.21166670628E+02  0.00000000000E+00 0.  1.
          1   -1    0    0  501    0  0.00000000000E+00 -0.00000000000E+00 -0.56122575043E+03  0.56122575043E+03  0.00000000000E+00 0. -1.
         24    1    1    2    0    0  0.47435187171E+02  0.54518638839E+02 -0.23323291948E+03  0.25707428819E+03  0.80419002446E+02 0.  1.
        -24    1    1    2    0    0 -0.47435187171E+02 -0.54518638839E+02 -0.30682616033E+03  0.32531813288E+03  0.80419002446E+02 0. -1.
<mgrwt>
<rscale>  0 0.10811843E+03</rscale>
<asrwt>0</asrwt>
<pdfrwt beam="1">  1        1 0.86342412E-01 0.10811843E+03</pdfrwt>
<pdfrwt beam="2">  1       -1 0.32564113E-02 0.10811843E+03</pdfrwt>
<totfact> 0.12045941E+04</totfact>
</mgrwt>
</event>
<event>
 4    3  0.8789582E-001  0.8291892E+02  0.7546771E-02  0.1320966E+00
          1   -1    0    0  501    0  0.00000000000E+00  0.00000000000E+00  0.17521731913E+04  0.17521731913E+04  0.00000000000E+00 0. -1.
         -1   -1    0    0    0  501 -0.00000000000E+00 -0.00000000000E+00 -0.51582070898E+02  0.51582070898E+02  0.00000000000E+00 0.  1.
         24    1    1    2    0    0  0.16756493305E+01  0.20137613869E+02 -0.16599257662E+02  0.84564073946E+02  0.80419002446E+02 0.  1.
        -24    1    1    2    0    0 -0.16756493305E+01 -0.20137613869E+02  0.17171903781E+04  0.17191911883E+04  0.80419002446E+02 0. -1.
<mgrwt>
<rscale>  0 0.82918920E+02</rscale>
<asrwt>0</asrwt>
<pdfrwt beam="1">  1        1 0.26956506E+00 0.82918920E+02</pdfrwt>
<pdfrwt beam="2">  1       -1 0.79357045E-02 0.82918920E+02</pdfrwt>
<totfact> 0.44609776E+02</totfact>
</mgrwt>
</event>
<event>
 4    3  0.8789582E-001  0.9781384E+02  0.7546771E-02  0.1284961E+00
          1   -1    0    0  501    0  0.00000000000E+00  0.00000000000E+00  0.84177557541E+02  0.84177557541E+02  0.00000000000E+00 0. -1.
         -1   -1    0    0    0  501 -0.00000000000E+00 -0.00000000000E+00 -0.15197788728E+03  0.15197788728E+03  0.00000000000E+00 0.  1.
         24    1    1    2    0    0 -0.50220348343E+02  0.24046774525E+02 -0.93190452617E+02  0.13509998951E+03  0.80419002446E+02 0.  1.
        -24    1    1    2    0    0  0.50220348343E+02 -0.24046774525E+02  0.25390122882E+02  0.10105545531E+03  0.80419002446E+02 0. -1.
<mgrwt>
<rscale>  0 0.97813837E+02</rscale>
<asrwt>0</asrwt>
<pdfrwt beam="1">  1        1 0.12950393E-01 0.97813837E+02</pdfrwt>
<pdfrwt beam="2">  1       -1 0.23381213E-01 0.97813837E+02</pdfrwt>
<totfact> 0.65234522E+03</totfact>
</mgrwt>
</event>
<event>
 4    3  0.8789582E-001  0.8504957E+02  0.7546771E-02  0.1315303E+00
         -2   -1    0    0    0  501 -0.00000000000E+00  0.00000000000E+00  0.68835256582E+01  0.68835256582E+01  0.00000000000E+00 0.  1.
          2   -1    0    0  501    0  0.00000000000E+00 -0.00000000000E+00 -0.10832613716E+04  0.10832613716E+04  0.00000000000E+00 0. -1.
         24    1    1    2    0    0  0.27661603947E+02 -0.10226027896E+01 -0.44387847298E+03  0.45195301169E+03  0.80419002446E+02 0.  0.
        -24    1    1    2    0    0 -0.27661603947E+02  0.10226027896E+01 -0.63249937298E+03  0.63819188559E+03  0.80419002446E+02 0.  1.
<mgrwt>
<rscale>  0 0.85049561E+02</rscale>
<asrwt>0</asrwt>
<pdfrwt beam="1">  1        2 0.16665554E+00 0.85049572E+02</pdfrwt>
<pdfrwt beam="2">  1       -2 0.10590043E-02 0.85049572E+02</pdfrwt>
<totfact> 0.41342373E+04</totfact>
</mgrwt>
</event>
<event>
 4    3  0.8789582E-001  0.8315434E+02  0.7546771E-02  0.1320331E+00
         -1   -1    0    0    0  501 -0.00000000000E+00  0.00000000000E+00  0.68852805343E+02  0.68852805343E+02  0.00000000000E+00 0.  1.
          1   -1    0    0  501    0  0.00000000000E+00 -0.00000000000E+00 -0.15722833797E+03  0.15722833797E+03  0.00000000000E+00 0. -1.
         24    1    1    2    0    0  0.19261704189E+02 -0.87416177143E+01  0.23756090019E+02  0.86481193886E+02  0.80419002446E+02 0.  1.
        -24    1    1    2    0    0 -0.19261704189E+02  0.87416177143E+01 -0.11213162264E+03  0.13959994943E+03  0.80419002446E+02 0. -1.
<mgrwt>
<rscale>  0 0.83154345E+02</rscale>
<asrwt>0</asrwt>
<pdfrwt beam="1">  1        1 0.24188975E-01 0.83154345E+02</pdfrwt>
<pdfrwt beam="2">  1       -1 0.10592739E-01 0.83154345E+02</pdfrwt>
<totfact> 0.10020139E+04</totfact>
</mgrwt>
</event>
<event>
 4    3  0.8789582E-001  0.8109999E+02  0.7546771E-02  0.1325959E+00
          2   -1    0    0  501    0  0.00000000000E+00  0.00000000000E+00  0.26127679359E+02  0.26127679359E+02  0.00000000000E+00 0. -1.
         -2   -1    0    0    0  501 -0.00000000000E+00 -0.00000000000E+00 -0.29722952719E+03  0.29722952719E+03  0.00000000000E+00 0.  1.
         24    1    1    2    0    0 -0.99551949687E+01  0.32993908432E+01 -0.72296034343E+02  0.10864586703E+03  0.80419002446E+02 0.  0.
        -24    1    1    2    0    0  0.99551949687E+01 -0.32993908432E+01 -0.19880581349E+03  0.21471133952E+03  0.80419002446E+02 0.  1.
<mgrwt>
<rscale>  0 0.81099987E+02</rscale>
<asrwt>0</asrwt>
<pdfrwt beam="1">  1        2 0.40196431E-02 0.81099987E+02</pdfrwt>
<pdfrwt beam="2">  1       -2 0.45727618E-01 0.81099987E+02</pdfrwt>
<totfact> 0.86097894E+03</totfact>
</mgrwt>
</event>
<event>
 4    3  0.8789582E-001  0.8055626E+02  0.7546771E-02  0.1327480E+00
          1   -1    0    0  501    0  0.00000000000E+00  0.00000000000E+00  0.12296805931E+04  0.12296805931E+04  0.00000000000E+00 0. -1.
         -1   -1    0    0    0  501 -0.00000000000E+00 -0.00000000000E+00 -0.24553060197E+02  0.24553060197E+02  0.00000000000E+00 0.  1.
         24    1    1    2    0    0 -0.45667443202E+01  0.11137523946E+01  0.46912707108E+02  0.93220779018E+02  0.80419002446E+02 0.  1.
        -24    1    1    2    0    0  0.45667443202E+01 -0.11137523946E+01  0.11582148258E+04  0.11610128743E+04  0.80419002446E+02 0.  0.
<mgrwt>
<rscale>  0 0.80556263E+02</rscale>
<asrwt>0</asrwt>
<pdfrwt beam="1">  1        1 0.18918158E+00 0.80556263E+02</pdfrwt>
<pdfrwt beam="2">  1       -1 0.37773948E-02 0.80556263E+02</pdfrwt>
<totfact> 0.28542398E+03</totfact>
</mgrwt>
</event>
<event>
 4    3  0.8789582E-001  0.8406280E+02  0.7546771E-02  0.1317902E+00
         -2   -1    0    0    0  501 -0.00000000000E+00  0.00000000000E+00  0.14675377515E+03  0.14675377515E+03  0.00000000000E+00 0.  1.
          2   -1    0    0  501    0  0.00000000000E+00 -0.00000000000E+00 -0.20373306454E+03  0.20373306454E+03  0.00000000000E+00 0. -1.
         24    1    1    2    0    0  0.22888654692E+02  0.86860288708E+01 -0.18162966649E+03  0.20013967451E+03  0.80419002446E+02 0. -1.
        -24    1    1    2    0    0 -0.22888654692E+02 -0.86860288708E+01  0.12465037710E+03  0.15034716517E+03  0.80419002446E+02 0.  0.
<mgrwt>
<rscale>  0 0.84062795E+02</rscale>
<asrwt>0</asrwt>
<pdfrwt beam="1">  1        2 0.31343548E-01 0.84062795E+02</pdfrwt>
<pdfrwt beam="2">  1       -2 0.22577504E-01 0.84062795E+02</pdfrwt>
<totfact> 0.26839407E+03</totfact>
</mgrwt>
</event>
<event>
 4    3  0.8789582E-001  0.8949020E+02  0.7546771E-02  0.1304091E+00
         -1   -1    0    0    0  501 -0.00000000000E+00  0.00000000000E+00  0.12611746685E+02  0.12611746685E+02  0.00000000000E+00 0.  1.
          1   -1    0    0  501    0  0.00000000000E+00 -0.00000000000E+00 -0.68632867047E+03  0.68632867047E+03  0.00000000000E+00 0. -1.
         24    1    1    2    0    0  0.14482288049E+01  0.39232419530E+02 -0.24129063478E+03  0.25735125120E+03  0.80419002446E+02 0.  1.
        -24    1    1    2    0    0 -0.14482288049E+01 -0.39232419530E+02 -0.43242628901E+03  0.44158916595E+03  0.80419002446E+02 0. -1.
<mgrwt>
<rscale>  0 0.89490201E+02</rscale>
<asrwt>0</asrwt>
<pdfrwt beam="1">  1        1 0.10558902E+00 0.89490201E+02</pdfrwt>
<pdfrwt beam="2">  1       -1 0.19402689E-02 0.89490201E+02</pdfrwt>
<totfact> 0.18974931E+04</totfact>
</mgrwt>
</event>
<event>
 4    3  0.8789582E-001  0.8191950E+02  0.7546771E-02  0.1323691E+00
         -2   -1    0    0    0  501 -0.00000000000E+00  0.00000000000E+00  0.72945722318E+02  0.72945722318E+02  0.00000000000E+00 0.  1.
          2   -1    0    0  501    0  0.00000000000E+00 -0.00000000000E+00 -0.96228676236E+02  0.96228676236E+02  0.00000000000E+00 0. -1.
         24    1    1    2    0    0 -0.15375039220E+02 -0.26826314851E+01 -0.29379159231E+02  0.87028382119E+02  0.80419002446E+02 0.  0.
        -24    1    1    2    0    0  0.15375039220E+02  0.26826314851E+01  0.60962053127E+01  0.82146016436E+02  0.80419002446E+02 0.  0.
<mgrwt>
<rscale>  0 0.81919499E+02</rscale>
<asrwt>0</asrwt>
<pdfrwt beam="1">  1        2 0.14804412E-01 0.81919499E+02</pdfrwt>
<pdfrwt beam="2">  1       -2 0.11222419E-01 0.81919499E+02</pdfrwt>
<totfact> 0.19147070E+04</totfact>
</mgrwt>
</event>
<event>
 4    3  0.8789582E-001  0.8538820E+02  0.7546771E-02  0.1314420E+00
         -2   -1    0    0    0  501 -0.00000000000E+00  0.00000000000E+00  0.12459355148E+02  0.12459355148E+02  0.00000000000E+00 0.  1.
          2   -1    0    0  501    0  0.00000000000E+00 -0.00000000000E+00 -0.98235078635E+03  0.98235078635E+03  0.00000000000E+00 0. -1.
         24    1    1    2    0    0  0.99906662094E+01 -0.26909403451E+02 -0.80121547127E+03  0.80575267717E+03  0.80419002446E+02 0. -1.
        -24    1    1    2    0    0 -0.99906662094E+01  0.26909403451E+02 -0.16867595993E+03  0.18905746433E+03  0.80419002446E+02 0.  1.
<mgrwt>
<rscale>  0 0.85388204E+02</rscale>
<asrwt>0</asrwt>
<pdfrwt beam="1">  1        2 0.15113086E+00 0.85388204E+02</pdfrwt>
<pdfrwt beam="2">  1       -2 0.19168243E-02 0.85388204E+02</pdfrwt>
<totfact> 0.20327227E+04</totfact>
</mgrwt>
</event>
<event>
 4    3  0.8789582E-001  0.8346141E+02  0.7546771E-02  0.1319506E+00
         -2   -1    0    0    0  501 -0.00000000000E+00  0.00000000000E+00  0.12638773558E+02  0.12638773558E+02  0.00000000000E+00 0.  1.
          2   -1    0    0  501    0  0.00000000000E+00 -0.00000000000E+00 -0.62797748170E+03  0.62797748170E+03  0.00000000000E+00 0. -1.
         24    1    1    2    0    0 -0.22158913302E+02 -0.27521061714E+01 -0.41970751648E+03  0.42792546883E+03  0.80419002446E+02 0. -1.
        -24    1    1    2    0    0  0.22158913302E+02  0.27521061714E+01 -0.19563119166E+03  0.21269078643E+03  0.80419002446E+02 0.  1.
<mgrwt>
<rscale>  0 0.83461413E+02</rscale>
<asrwt>0</asrwt>
<pdfrwt beam="1">  1        2 0.96611946E-01 0.83461413E+02</pdfrwt>
<pdfrwt beam="2">  1       -2 0.19444262E-02 0.83461413E+02</pdfrwt>
<totfact> 0.34236360E+04</totfact>
</mgrwt>
</event>
<event>
 4    3  0.8789582E-001  0.9994027E+02  0.7546771E-02  0.1280422E+00
          1   -1    0    0  501    0  0.00000000000E+00  0.00000000000E+00  0.40775566930E+03  0.40775566930E+03  0.00000000000E+00 0. -1.
         -1   -1    0    0    0  501 -0.00000000000E+00 -0.00000000000E+00 -0.17807181388E+03  0.17807181388E+03  0.00000000000E+00 0.  1.
         24    1    1    2    0    0  0.28269157455E+02  0.52169885721E+02 -0.15718048845E+03  0.18626262143E+03  0.80419002446E+02 0.  1.
        -24    1    1    2    0    0 -0.28269157455E+02 -0.52169885721E+02  0.38686434387E+03  0.39956486175E+03  0.80419002446E+02 0. -1.
<mgrwt>
<rscale>  0 0.99940273E+02</rscale>
<asrwt>0</asrwt>
<pdfrwt beam="1">  1        1 0.62731641E-01 0.99940273E+02</pdfrwt>
<pdfrwt beam="2">  1       -1 0.27395664E-01 0.99940273E+02</pdfrwt>
<totfact> 0.70596447E+02</totfact>
</mgrwt>
</event>
<event>
 4    3  0.8789582E-001  0.8891185E+02  0.7546771E-02  0.1305508E+00
         -2   -1    0    0    0  501 -0.00000000000E+00  0.00000000000E+00  0.39042010472E+02  0.39042010472E+02  0.00000000000E+00 0.  1.
          2   -1    0    0  501    0  0.00000000000E+00 -0.00000000000E+00 -0.22959514035E+03  0.22959514035E+03  0.00000000000E+00 0. -1.
         24    1    1    2    0    0  0.37772157322E+02 -0.33713638341E+01 -0.14143402070E+03  0.16705957060E+03  0.80419002446E+02 0. -1.
        -24    1    1    2    0    0 -0.37772157322E+02  0.33713638341E+01 -0.49119109175E+02  0.10157758022E+03  0.80419002446E+02 0.  1.
<mgrwt>
<rscale>  0 0.88911855E+02</rscale>
<asrwt>0</asrwt>
<pdfrwt beam="1">  1        2 0.35322329E-01 0.88911855E+02</pdfrwt>
<pdfrwt beam="2">  1       -2 0.60064632E-02 0.88911855E+02</pdfrwt>
<totfact> 0.19323538E+04</totfact>
</mgrwt>
</event>
<event>
 4    3  0.8789582E-001  0.8373972E+02  0.7546771E-02  0.1318762E+00
          1   -1    0    0  501    0  0.00000000000E+00  0.00000000000E+00  0.58393247782E+03  0.58393247782E+03  0.00000000000E+00 0. -1.
         -1   -1    0    0    0  501 -0.00000000000E+00 -0.00000000000E+00 -0.12151368568E+02  0.12151368568E+02  0.00000000000E+00 0.  1.
         24    1    1    2    0    0  0.13801819326E+02  0.18831720912E+02  0.25360958723E+03  0.26707707244E+03  0.80419002446E+02 0.  1.
        -24    1    1    2    0    0 -0.13801819326E+02 -0.18831720912E+02  0.31817152202E+03  0.32900677395E+03  0.80419002446E+02 0. -1.
<mgrwt>
<rscale>  0 0.83739715E+02</rscale>
<asrwt>0</asrwt>
<pdfrwt beam="1">  1        1 0.89835744E-01 0.83739715E+02</pdfrwt>
<pdfrwt beam="2">  1       -1 0.18694418E-02 0.83739715E+02</pdfrwt>
<totfact> 0.24750998E+04</totfact>
</mgrwt>
</event>
<event>
 4    3  0.8789582E-001  0.2110646E+03  0.7546771E-02  0.1140726E+00
         -1   -1    0    0    0  501 -0.00000000000E+00  0.00000000000E+00  0.10234368620E+04  0.10234368620E+04  0.00000000000E+00 0.  1.
          1   -1    0    0  501    0  0.00000000000E+00 -0.00000000000E+00 -0.15102170354E+03  0.15102170354E+03  0.00000000000E+00 0. -1.
         24    1    1    2    0    0 -0.16662439943E+03  0.10157438135E+03  0.93163419444E+03  0.95524370379E+03  0.80419002446E+02 0.  1.
        -24    1    1    2    0    0  0.16662439943E+03 -0.10157438135E+03 -0.59219035989E+02  0.21921486174E+03  0.80419002446E+02 0. -1.
<mgrwt>
<rscale>  0 0.21106459E+03</rscale>
<asrwt>0</asrwt>
<pdfrwt beam="1">  1        1 0.23234109E-01 0.21106459E+03</pdfrwt>
<pdfrwt beam="2">  1       -1 0.15745182E+00 0.21106459E+03</pdfrwt>
<totfact> 0.71140468E+01</totfact>
</mgrwt>
</event>
<event>
 4    3  0.8789582E-001  0.8194684E+02  0.7546771E-02  0.1323616E+00
         -2   -1    0    0    0  501 -0.00000000000E+00  0.00000000000E+00  0.85155687035E+01  0.85155687035E+01  0.00000000000E+00 0.  1.
          2   -1    0    0  501    0  0.00000000000E+00 -0.00000000000E+00 -0.84434138427E+03  0.84434138427E+03  0.00000000000E+00 0. -1.
         24    1    1    2    0    0  0.14312617206E+02 -0.65740415614E+01 -0.52748963966E+03  0.53381701447E+03  0.80419002446E+02 0. -1.
        -24    1    1    2    0    0 -0.14312617206E+02  0.65740415614E+01 -0.30833617590E+03  0.31903993850E+03  0.80419002446E+02 0.  1.
<mgrwt>
<rscale>  0 0.81946842E+02</rscale>
<asrwt>0</asrwt>
<pdfrwt beam="1">  1        2 0.12989866E+00 0.81946842E+02</pdfrwt>
<pdfrwt beam="2">  1       -2 0.13100877E-02 0.81946842E+02</pdfrwt>
<totfact> 0.42298986E+04</totfact>
</mgrwt>
</event>
<event>
 4    3  0.8789582E-001  0.9570442E+02  0.7546771E-02  0.1289597E+00
         -2   -1    0    0    0  501 -0.00000000000E+00  0.00000000000E+00  0.96023947500E+02  0.96023947500E+02  0.00000000000E+00 0.  1.
          2   -1    0    0  501    0  0.00000000000E+00 -0.00000000000E+00 -0.99520556912E+02  0.99520556912E+02  0.00000000000E+00 0. -1.
         24    1    1    2    0    0 -0.50085240334E+02 -0.13549512463E+02 -0.21676856487E+02  0.98128602603E+02  0.80419002446E+02 0. -1.
        -24    1    1    2    0    0  0.50085240334E+02  0.13549512463E+02  0.18180247075E+02  0.97415901810E+02  0.80419002446E+02 0.  0.
<mgrwt>
<rscale>  0 0.95704423E+02</rscale>
<asrwt>0</asrwt>
<pdfrwt beam="1">  1        2 0.15310855E-01 0.95704423E+02</pdfrwt>
<pdfrwt beam="2">  1       -2 0.14772915E-01 0.95704423E+02</pdfrwt>
<totfact> 0.12091977E+04</totfact>
</mgrwt>
</event>
<event>
 4    3  0.8789582E-001  0.8142911E+02  0.7546771E-02  0.1325044E+00
         -1   -1    0    0    0  501 -0.00000000000E+00  0.00000000000E+00  0.15233936871E+02  0.15233936871E+02  0.00000000000E+00 0.  1.
          1   -1    0    0  501    0  0.00000000000E+00 -0.00000000000E+00 -0.98320388999E+03  0.98320388999E+03  0.00000000000E+00 0. -1.
         24    1    1    2    0    0 -0.10668259838E+02  0.70478288542E+01 -0.11130342174E+03  0.13790993910E+03  0.80419002446E+02 0.  0.
        -24    1    1    2    0    0  0.10668259838E+02 -0.70478288542E+01 -0.85666653139E+03  0.86052788776E+03  0.80419002446E+02 0. -1.
<mgrwt>
<rscale>  0 0.81429108E+02</rscale>
<asrwt>0</asrwt>
<pdfrwt beam="1">  1        1 0.15126214E+00 0.81429108E+02</pdfrwt>
<pdfrwt beam="2">  1       -1 0.23436826E-02 0.81429108E+02</pdfrwt>
<totfact> 0.83816239E+03</totfact>
</mgrwt>
</event>
<event>
 4    3  0.8789582E-001  0.9595920E+02  0.7546771E-02  0.1289030E+00
          3   -1    0    0  501    0  0.00000000000E+00  0.00000000000E+00  0.74965662347E+01  0.74965662347E+01  0.00000000000E+00 0. -1.
         -3   -1    0    0    0  501 -0.00000000000E+00 -0.00000000000E+00 -0.12322201458E+04  0.12322201458E+04  0.00000000000E+00 0.  1.
         24    1    1    2    0    0  0.29826330279E+02  0.43027179472E+02 -0.57747802498E+03  0.58539647542E+03  0.80419002446E+02 0.  0.
        -24    1    1    2    0    0 -0.29826330279E+02 -0.43027179472E+02 -0.64724555455E+03  0.65432023657E+03  0.80419002446E+02 0. -1.
<mgrwt>
<rscale>  0 0.95959191E+02</rscale>
<asrwt>0</asrwt>
<pdfrwt beam="1">  1        3 0.11533178E-02 0.95959203E+02</pdfrwt>
<pdfrwt beam="2">  1       -3 0.18957234E+00 0.95959203E+02</pdfrwt>
<totfact> 0.89820372E+02</totfact>
</mgrwt>
</event>
<event>
 4    3  0.8789582E-001  0.9008159E+02  0.7546771E-02  0.1302654E+00
         -2   -1    0    0    0  501 -0.00000000000E+00  0.00000000000E+00  0.14784686081E+02  0.14784686081E+02  0.00000000000E+00 0.  1.
          2   -1    0    0  501    0  0.00000000000E+00 -0.00000000000E+00 -0.59874659124E+03  0.59874659124E+03  0.00000000000E+00 0. -1.
         24    1    1    2    0    0  0.11038117492E+02  0.39059361123E+02 -0.20343130233E+03  0.22248367233E+03  0.80419002446E+02 0.  0.
        -24    1    1    2    0    0 -0.11038117492E+02 -0.39059361123E+02 -0.38053060283E+03  0.39104760500E+03  0.80419002446E+02 0.  0.
<mgrwt>
<rscale>  0 0.90081584E+02</rscale>
<asrwt>0</asrwt>
<pdfrwt beam="1">  1        2 0.92114861E-01 0.90081595E+02</pdfrwt>
<pdfrwt beam="2">  1       -2 0.22745671E-02 0.90081595E+02</pdfrwt>
<totfact> 0.29079114E+04</totfact>
</mgrwt>
</event>
<event>
 4    3  0.8789582E-001  0.8301602E+02  0.7546771E-02  0.1320704E+00
          3   -1    0    0  501    0  0.00000000000E+00  0.00000000000E+00  0.51784544074E+02  0.51784544074E+02  0.00000000000E+00 0. -1.
         -3   -1    0    0    0  501 -0.00000000000E+00 -0.00000000000E+00 -0.13441761898E+03  0.13441761898E+03  0.00000000000E+00 0.  1.
         24    1    1    2    0    0 -0.19136487180E+02 -0.76311823929E+01 -0.32040496414E+02  0.88984546137E+02  0.80419002446E+02 0.  0.
        -24    1    1    2    0    0  0.19136487180E+02  0.76311823929E+01 -0.50592578492E+02  0.97217616918E+02  0.80419002446E+02 0.  0.
<mgrwt>
<rscale>  0 0.83016009E+02</rscale>
<asrwt>0</asrwt>
<pdfrwt beam="1">  1        3 0.79668529E-02 0.83016019E+02</pdfrwt>
<pdfrwt beam="2">  1       -3 0.20679634E-01 0.83016019E+02</pdfrwt>
<totfact> 0.46544168E+03</totfact>
</mgrwt>
</event>
<event>
 4    3  0.8789582E-001  0.9433497E+02  0.7546771E-02  0.1292681E+00
          2   -1    0    0  501    0  0.00000000000E+00  0.00000000000E+00  0.16244696086E+02  0.16244696086E+02  0.00000000000E+00 0. -1.
         -2   -1    0    0    0  501 -0.00000000000E+00 -0.00000000000E+00 -0.56565732736E+03  0.56565732736E+03  0.00000000000E+00 0.  1.
         24    1    1    2    0    0  0.31622032237E+02  0.37840696738E+02 -0.22303260506E+03  0.24216240444E+03  0.80419002446E+02 0. -1.
        -24    1    1    2    0    0 -0.31622032237E+02 -0.37840696738E+02 -0.32638002621E+03  0.33973961900E+03  0.80419002446E+02 0.  1.
<mgrwt>
<rscale>  0 0.94334973E+02</rscale>
<asrwt>0</asrwt>
<pdfrwt beam="1">  1        2 0.24991840E-02 0.94334973E+02</pdfrwt>
<pdfrwt beam="2">  1       -2 0.87024206E-01 0.94334973E+02</pdfrwt>
<totfact> 0.43499090E+03</totfact>
</mgrwt>
</event>
<event>
 4    3  0.8789582E-001  0.8759520E+02  0.7546771E-02  0.1308782E+00
         -1   -1    0    0    0  501 -0.00000000000E+00  0.00000000000E+00  0.25210210448E+03  0.25210210448E+03  0.00000000000E+00 0.  1.
          1   -1    0    0  501    0  0.00000000000E+00 -0.00000000000E+00 -0.33579231229E+02  0.33579231229E+02  0.00000000000E+00 0. -1.
         24    1    1    2    0    0  0.25938771639E+02  0.23084165768E+02  0.65557303988E+02  0.10941057830E+03  0.80419002446E+02 0. -1.
        -24    1    1    2    0    0 -0.25938771639E+02 -0.23084165768E+02  0.15296556927E+03  0.17627075741E+03  0.80419002446E+02 0.  1.
<mgrwt>
<rscale>  0 0.87595185E+02</rscale>
<asrwt>0</asrwt>
<pdfrwt beam="1">  1        1 0.51660357E-02 0.87595196E+02</pdfrwt>
<pdfrwt beam="2">  1       -1 0.38784938E-01 0.87595196E+02</pdfrwt>
<totfact> 0.93776469E+03</totfact>
</mgrwt>
</event>
<event>
 4    3  0.8789582E-001  0.8208805E+02  0.7546771E-02  0.1323228E+00
          1   -1    0    0  501    0  0.00000000000E+00  0.00000000000E+00  0.62149136229E+03  0.62149136229E+03  0.00000000000E+00 0. -1.
         -1   -1    0    0    0  501 -0.00000000000E+00 -0.00000000000E+00 -0.12062238078E+02  0.12062238078E+02  0.00000000000E+00 0.  1.
         24    1    1    2    0    0 -0.11580850662E+02  0.11709622962E+02  0.20397650875E+03  0.21987465394E+03  0.80419002446E+02 0.  1.
        -24    1    1    2    0    0  0.11580850662E+02 -0.11709622962E+02  0.40545261547E+03  0.41367894643E+03  0.80419002446E+02 0.  1.
<mgrwt>
<rscale>  0 0.82088046E+02</rscale>
<asrwt>0</asrwt>
<pdfrwt beam="1">  1        1 0.95614031E-01 0.82088046E+02</pdfrwt>
<pdfrwt beam="2">  1       -1 0.18557294E-02 0.82088046E+02</pdfrwt>
<totfact> 0.22963108E+04</totfact>
</mgrwt>
</event>
<event>
 4    3  0.8789582E-001  0.9144514E+02  0.7546771E-02  0.1299389E+00
         -2   -1    0    0    0  501 -0.00000000000E+00  0.00000000000E+00  0.52630303319E+02  0.52630303319E+02  0.00000000000E+00 0.  1.
          2   -1    0    0  501    0  0.00000000000E+00 -0.00000000000E+00 -0.46633708120E+03  0.46633708120E+03  0.00000000000E+00 0. -1.
         24    1    1    2    0    0 -0.42968414050E+02  0.69794593791E+01 -0.41754545059E+03  0.42744171149E+03  0.80419002446E+02 0. -1.
        -24    1    1    2    0    0  0.42968414050E+02 -0.69794593791E+01  0.38386727167E+01  0.91525673020E+02  0.80419002446E+02 0.  1.
<mgrwt>
<rscale>  0 0.91445139E+02</rscale>
<asrwt>0</asrwt>
<pdfrwt beam="1">  1        2 0.71744166E-01 0.91445139E+02</pdfrwt>
<pdfrwt beam="2">  1       -2 0.80969697E-02 0.91445139E+02</pdfrwt>
<totfact> 0.58542484E+03</totfact>
</mgrwt>
</event>
<event>
 4    3  0.8789582E-001  0.8593134E+02  0.7546771E-02  0.1313015E+00
         -2   -1    0    0    0  501 -0.00000000000E+00  0.00000000000E+00  0.30490473330E+01  0.30490473330E+01  0.00000000000E+00 0.  1.
          2   -1    0    0  501    0  0.00000000000E+00 -0.00000000000E+00 -0.24788065038E+04  0.24788065038E+04  0.00000000000E+00 0. -1.
         24    1    1    2    0    0 -0.12989336324E+02 -0.27354290574E+02 -0.14260576220E+04  0.14286443005E+04  0.80419002446E+02 0.  0.
        -24    1    1    2    0    0  0.12989336324E+02  0.27354290574E+02 -0.10496998345E+04  0.10532112507E+04  0.80419002446E+02 0. -1.
<mgrwt>
<rscale>  0 0.85931345E+02</rscale>
<asrwt>0</asrwt>
<pdfrwt beam="1">  1        2 0.38135355E+00 0.85931345E+02</pdfrwt>
<pdfrwt beam="2">  1       -2 0.46908580E-03 0.85931345E+02</pdfrwt>
<totfact> 0.24971699E+04</totfact>
</mgrwt>
</event>
<event>
 4    3  0.8789582E-001  0.8477498E+02  0.7546771E-02  0.1316022E+00
         -2   -1    0    0    0  501 -0.00000000000E+00  0.00000000000E+00  0.59842140115E+02  0.59842140115E+02  0.00000000000E+00 0.  1.
          2   -1    0    0  501    0  0.00000000000E+00 -0.00000000000E+00 -0.18404819680E+03  0.18404819680E+03  0.00000000000E+00 0. -1.
         24    1    1    2    0    0  0.26117408477E+02 -0.61206851738E+01 -0.13398612356E+03  0.15855307967E+03  0.80419002446E+02 0. -1.
        -24    1    1    2    0    0 -0.26117408477E+02  0.61206851738E+01  0.97800668683E+01  0.85337257249E+02  0.80419002446E+02 0.  1.
<mgrwt>
<rscale>  0 0.84774983E+02</rscale>
<asrwt>0</asrwt>
<pdfrwt beam="1">  1        2 0.28315106E-01 0.84774983E+02</pdfrwt>
<pdfrwt beam="2">  1       -2 0.92064834E-02 0.84774983E+02</pdfrwt>
<totfact> 0.12712776E+04</totfact>
</mgrwt>
</event>
<event>
 4    3  0.8789582E-001  0.8356634E+02  0.7546771E-02  0.1319225E+00
          4   -1    0    0  501    0  0.00000000000E+00  0.00000000000E+00  0.24166698356E+02  0.24166698356E+02  0.00000000000E+00 0. -1.
         -4   -1    0    0    0  501 -0.00000000000E+00 -0.00000000000E+00 -0.32604267825E+03  0.32604267825E+03  0.00000000000E+00 0.  1.
         24    1    1    2    0    0 -0.19796606731E+02 -0.11145024784E+02 -0.91888514577E+02  0.12420479975E+03  0.80419002446E+02 0. -1.
        -24    1    1    2    0    0  0.19796606731E+02  0.11145024784E+02 -0.20998746532E+03  0.22600457686E+03  0.80419002446E+02 0.  1.
<mgrwt>
<rscale>  0 0.83566340E+02</rscale>
<asrwt>0</asrwt>
<pdfrwt beam="1">  1        4 0.37179538E-02 0.83566340E+02</pdfrwt>
<pdfrwt beam="2">  1       -4 0.50160410E-01 0.83566340E+02</pdfrwt>
<totfact> 0.21544458E+03</totfact>
</mgrwt>
</event>
<event>
 4    3  0.8789582E-001  0.9947779E+02  0.7546771E-02  0.1281398E+00
         -2   -1    0    0    0  501 -0.00000000000E+00  0.00000000000E+00  0.24062574796E+02  0.24062574796E+02  0.00000000000E+00 0.  1.
          2   -1    0    0  501    0  0.00000000000E+00 -0.00000000000E+00 -0.93071085943E+03  0.93071085943E+03  0.00000000000E+00 0. -1.
         24    1    1    2    0    0 -0.12521224483E+02  0.57199942736E+02 -0.80997040497E+03  0.81605630160E+03  0.80419002446E+02 0. -1.
        -24    1    1    2    0    0  0.12521224483E+02 -0.57199942736E+02 -0.96677879671E+02  0.13871713263E+03  0.80419002446E+02 0.  1.
<mgrwt>
<rscale>  0 0.99477789E+02</rscale>
<asrwt>0</asrwt>
<pdfrwt beam="1">  1        2 0.14318626E+00 0.99477789E+02</pdfrwt>
<pdfrwt beam="2">  1       -2 0.37019353E-02 0.99477789E+02</pdfrwt>
<totfact> 0.85043102E+03</totfact>
</mgrwt>
</event>
<event>
 4    3  0.8789582E-001  0.9509404E+02  0.7546771E-02  0.1290964E+00
          2   -1    0    0  501    0  0.00000000000E+00  0.00000000000E+00  0.14503874374E+03  0.14503874374E+03  0.00000000000E+00 0. -1.
         -2   -1    0    0    0  501 -0.00000000000E+00 -0.00000000000E+00 -0.76834035289E+02  0.76834035289E+02  0.00000000000E+00 0.  1.
         24    1    1    2    0    0  0.34926046578E+02  0.36821624350E+02  0.82271823441E+02  0.12574390497E+03  0.80419002446E+02 0. -1.
        -24    1    1    2    0    0 -0.34926046578E+02 -0.36821624350E+02 -0.14067114993E+02  0.96128874059E+02  0.80419002446E+02 0.  1.
<mgrwt>
<rscale>  0 0.95094041E+02</rscale>
<asrwt>0</asrwt>
<pdfrwt beam="1">  1        2 0.22313653E-01 0.95094041E+02</pdfrwt>
<pdfrwt beam="2">  1       -2 0.11820621E-01 0.95094041E+02</pdfrwt>
<totfact> 0.11278197E+04</totfact>
</mgrwt>
</event>
<event>
 4    3  0.8789582E-001  0.9589478E+02  0.7546771E-02  0.1289173E+00
          2   -1    0    0  501    0  0.00000000000E+00  0.00000000000E+00  0.63678489964E+02  0.63678489964E+02  0.00000000000E+00 0. -1.
         -2   -1    0    0    0  501 -0.00000000000E+00 -0.00000000000E+00 -0.18877180789E+03  0.18877180789E+03  0.00000000000E+00 0.  1.
         24    1    1    2    0    0 -0.48375473182E+02  0.19708034857E+02 -0.13564302919E+01  0.95904373732E+02  0.80419002446E+02 0. -1.
        -24    1    1    2    0    0  0.48375473182E+02 -0.19708034857E+02 -0.12373688763E+03  0.15654592412E+03  0.80419002446E+02 0.  1.
<mgrwt>
<rscale>  0 0.95894781E+02</rscale>
<asrwt>0</asrwt>
<pdfrwt beam="1">  1        2 0.97966908E-02 0.95894781E+02</pdfrwt>
<pdfrwt beam="2">  1       -2 0.29041817E-01 0.95894781E+02</pdfrwt>
<totfact> 0.65576908E+03</totfact>
</mgrwt>
</event>
<event>
 4    3  0.8789582E-001  0.9833247E+02  0.7546771E-02  0.1283842E+00
          2   -1    0    0  501    0  0.00000000000E+00  0.00000000000E+00  0.11139920350E+03  0.11139920350E+03  0.00000000000E+00 0. -1.
         -2   -1    0    0    0  501 -0.00000000000E+00 -0.00000000000E+00 -0.24027269125E+03  0.24027269125E+03  0.00000000000E+00 0.  1.
         24    1    1    2    0    0  0.14247201635E+02  0.54763824327E+02  0.76094614848E+02  0.12433690350E+03  0.80419002446E+02 0. -1.
        -24    1    1    2    0    0 -0.14247201635E+02 -0.54763824327E+02 -0.20496810259E+03  0.22733499124E+03  0.80419002446E+02 0.  1.
<mgrwt>
<rscale>  0 0.98332473E+02</rscale>
<asrwt>0</asrwt>
<pdfrwt beam="1">  1        2 0.17138339E-01 0.98332473E+02</pdfrwt>
<pdfrwt beam="2">  1       -2 0.36965029E-01 0.98332473E+02</pdfrwt>
<totfact> 0.21940411E+03</totfact>
</mgrwt>
</event>
<event>
 4    3  0.8789582E-001  0.8242721E+02  0.7546771E-02  0.1322301E+00
         -2   -1    0    0    0  501 -0.00000000000E+00  0.00000000000E+00  0.26073321491E+02  0.26073321491E+02  0.00000000000E+00 0.  1.
          2   -1    0    0  501    0  0.00000000000E+00 -0.00000000000E+00 -0.79850181026E+03  0.79850181026E+03  0.00000000000E+00 0. -1.
         24    1    1    2    0    0 -0.38721826835E+01  0.17664505789E+02 -0.72460692213E+03  0.72928008071E+03  0.80419002446E+02 0. -1.
        -24    1    1    2    0    0  0.38721826835E+01 -0.17664505789E+02 -0.47821566643E+02  0.95295051047E+02  0.80419002446E+02 0.  1.
<mgrwt>
<rscale>  0 0.82427207E+02</rscale>
<asrwt>0</asrwt>
<pdfrwt beam="1">  1        2 0.12284643E+00 0.82427207E+02</pdfrwt>
<pdfrwt beam="2">  1       -2 0.40112804E-02 0.82427207E+02</pdfrwt>
<totfact> 0.90555945E+03</totfact>
</mgrwt>
</event>
<event>
 4    3  0.8789582E-001  0.8254689E+02  0.7546771E-02  0.1321975E+00
         -2   -1    0    0    0  501 -0.00000000000E+00  0.00000000000E+00  0.90299489704E+01  0.90299489704E+01  0.00000000000E+00 0.  1.
          2   -1    0    0  501    0  0.00000000000E+00 -0.00000000000E+00 -0.13319061581E+04  0.13319061581E+04  0.00000000000E+00 0. -1.
         24    1    1    2    0    0 -0.30875238718E+01 -0.18364095227E+02 -0.11028507988E+04  0.11059357455E+04  0.80419002446E+02 0.  0.
        -24    1    1    2    0    0  0.30875238718E+01  0.18364095227E+02 -0.22002541040E+03  0.23500036164E+03  0.80419002446E+02 0.  1.
<mgrwt>
<rscale>  0 0.82546888E+02</rscale>
<asrwt>0</asrwt>
<pdfrwt beam="1">  1        2 0.20490863E+00 0.82546888E+02</pdfrwt>
<pdfrwt beam="2">  1       -2 0.13892230E-02 0.82546888E+02</pdfrwt>
<totfact> 0.20591847E+04</totfact>
</mgrwt>
</event>
<event>
 4    3  0.8789582E-001  0.1005594E+03  0.7546771E-02  0.1279124E+00
         -2   -1    0    0    0  501 -0.00000000000E+00  0.00000000000E+00  0.10756939268E+02  0.10756939268E+02  0.00000000000E+00 0.  1.
          2   -1    0    0  501    0  0.00000000000E+00 -0.00000000000E+00 -0.20146557827E+04  0.20146557827E+04  0.00000000000E+00 0. -1.
         24    1    1    2    0    0 -0.43815223426E+02  0.41535493919E+02 -0.17415637660E+04  0.17444645419E+04  0.80419002446E+02 0. -1.
        -24    1    1    2    0    0  0.43815223426E+02 -0.41535493919E+02 -0.26233507740E+03  0.28094818000E+03  0.80419002446E+02 0.  1.
<mgrwt>
<rscale>  0 0.10055937E+03</rscale>
<asrwt>0</asrwt>
<pdfrwt beam="1">  1        2 0.30994688E+00 0.10055937E+03</pdfrwt>
<pdfrwt beam="2">  1       -2 0.16549146E-02 0.10055937E+03</pdfrwt>
<totfact> 0.73071905E+03</totfact>
</mgrwt>
</event>
<event>
 4    3  0.8789582E-001  0.9276710E+02  0.7546771E-02  0.1296286E+00
          3   -1    0    0  501    0  0.00000000000E+00  0.00000000000E+00  0.73984237402E+02  0.73984237402E+02  0.00000000000E+00 0. -1.
         -3   -1    0    0    0  501 -0.00000000000E+00 -0.00000000000E+00 -0.44002367951E+03  0.44002367951E+03  0.00000000000E+00 0.  1.
         24    1    1    2    0    0  0.18756688807E+02 -0.42269438399E+02 -0.40345272526E+03  0.41398047813E+03  0.80419002446E+02 0.  1.
        -24    1    1    2    0    0 -0.18756688807E+02  0.42269438399E+02  0.37413283157E+02  0.10002743878E+03  0.80419002446E+02 0. -1.
<mgrwt>
<rscale>  0 0.92767100E+02</rscale>
<asrwt>0</asrwt>
<pdfrwt beam="1">  1        3 0.11382190E-01 0.92767100E+02</pdfrwt>
<pdfrwt beam="2">  1       -3 0.67695950E-01 0.92767100E+02</pdfrwt>
<totfact> 0.28007558E+02</totfact>
</mgrwt>
</event>
<event>
 4    3  0.8789582E-001  0.1982649E+03  0.7546771E-02  0.1151211E+00
         -1   -1    0    0    0  501 -0.00000000000E+00  0.00000000000E+00  0.42305778052E+02  0.42305778052E+02  0.00000000000E+00 0.  1.
          1   -1    0    0  501    0  0.00000000000E+00 -0.00000000000E+00 -0.93249893192E+03  0.93249893192E+03  0.00000000000E+00 0. -1.
         24    1    1    2    0    0 -0.18122148392E+03 -0.70923352532E+00 -0.47425073015E+03  0.51402597235E+03  0.80419002446E+02 0. -1.
        -24    1    1    2    0    0  0.18122148392E+03  0.70923352532E+00 -0.41594242372E+03  0.46077873763E+03  0.80419002446E+02 0.  1.
<mgrwt>
<rscale>  0 0.19826486E+03</rscale>
<asrwt>0</asrwt>
<pdfrwt beam="1">  1        1 0.14346135E+00 0.19826489E+03</pdfrwt>
<pdfrwt beam="2">  1       -1 0.65085822E-02 0.19826489E+03</pdfrwt>
<totfact> 0.21174633E+03</totfact>
</mgrwt>
</event>
<event>
 4    3  0.8789582E-001  0.9243371E+02  0.7546771E-02  0.1297063E+00
          1   -1    0    0  501    0  0.00000000000E+00  0.00000000000E+00  0.23218372304E+03  0.23218372304E+03  0.00000000000E+00 0. -1.
         -1   -1    0    0    0  501 -0.00000000000E+00 -0.00000000000E+00 -0.51731127540E+02  0.51731127540E+02  0.00000000000E+00 0.  1.
         24    1    1    2    0    0  0.44447890272E+02 -0.10057851731E+02  0.13956674477E+02  0.93481442265E+02  0.80419002446E+02 0.  1.
        -24    1    1    2    0    0 -0.44447890272E+02  0.10057851731E+02  0.16649592102E+03  0.19043340832E+03  0.80419002446E+02 0. -1.
<mgrwt>
<rscale>  0 0.92433713E+02</rscale>
<asrwt>0</asrwt>
<pdfrwt beam="1">  1        1 0.35720572E-01 0.92433713E+02</pdfrwt>
<pdfrwt beam="2">  1       -1 0.79586351E-02 0.92433713E+02</pdfrwt>
<totfact> 0.96274802E+03</totfact>
</mgrwt>
</event>
<event>
 4    3  0.8789582E-001  0.1202213E+03  0.7546771E-02  0.1242732E+00
         -1   -1    0    0    0  501 -0.00000000000E+00  0.00000000000E+00  0.18686885485E+02  0.18686885485E+02  0.00000000000E+00 0.  1.
          1   -1    0    0  501    0  0.00000000000E+00 -0.00000000000E+00 -0.89579195867E+03  0.89579195867E+03  0.00000000000E+00 0. -1.
         24    1    1    2    0    0 -0.46239540221E+02  0.76471259693E+02 -0.26956780704E+03  0.29516091744E+03  0.80419002446E+02 0.  1.
        -24    1    1    2    0    0  0.46239540221E+02 -0.76471259693E+02 -0.60753726614E+03  0.61931792671E+03  0.80419002446E+02 0. -1.
<mgrwt>
<rscale>  0 0.12022132E+03</rscale>
<asrwt>0</asrwt>
<pdfrwt beam="1">  1        1 0.13781415E+00 0.12022132E+03</pdfrwt>
<pdfrwt beam="2">  1       -1 0.28749054E-02 0.12022132E+03</pdfrwt>
<totfact> 0.74300606E+03</totfact>
</mgrwt>
</event>
<event>
 4    3  0.8789582E-001  0.9229207E+02  0.7546771E-02  0.1297394E+00
         -1   -1    0    0    0  501 -0.00000000000E+00  0.00000000000E+00  0.41623952541E+02  0.41623952541E+02  0.00000000000E+00 0.  1.
          1   -1    0    0  501    0  0.00000000000E+00 -0.00000000000E+00 -0.30098120277E+03  0.30098120277E+03  0.00000000000E+00 0. -1.
         24    1    1    2    0    0 -0.16163196023E+02 -0.42300846515E+02 -0.32760364027E+02  0.97933997810E+02  0.80419002446E+02 0.  1.
        -24    1    1    2    0    0  0.16163196023E+02  0.42300846515E+02 -0.22659688620E+03  0.24467115750E+03  0.80419002446E+02 0. -1.
<mgrwt>
<rscale>  0 0.92292072E+02</rscale>
<asrwt>0</asrwt>
<pdfrwt beam="1">  1        1 0.46304802E-01 0.92292072E+02</pdfrwt>
<pdfrwt beam="2">  1       -1 0.64036847E-02 0.92292072E+02</pdfrwt>
<totfact> 0.96845513E+03</totfact>
</mgrwt>
</event>
<event>
 4    3  0.8789582E-001  0.8727635E+02  0.7546771E-02  0.1309585E+00
          2   -1    0    0  501    0  0.00000000000E+00  0.00000000000E+00  0.45047906620E+04  0.45047906620E+04  0.00000000000E+00 0. -1.
         -2   -1    0    0    0  501 -0.00000000000E+00 -0.00000000000E+00 -0.20199975600E+01  0.20199975600E+01  0.00000000000E+00 0.  1.
         24    1    1    2    0    0  0.13305431104E+02  0.31191509299E+02  0.31609314737E+04  0.31621361360E+04  0.80419002446E+02 0. -1.
        -24    1    1    2    0    0 -0.13305431104E+02 -0.31191509299E+02  0.13418391907E+04  0.13446745236E+04  0.80419002446E+02 0.  1.
<mgrwt>
<rscale>  0 0.87276347E+02</rscale>
<asrwt>0</asrwt>
<pdfrwt beam="1">  1        2 0.69303668E+00 0.87276347E+02</pdfrwt>
<pdfrwt beam="2">  1       -2 0.31077246E-03 0.87276347E+02</pdfrwt>
<totfact> 0.20508572E+03</totfact>
</mgrwt>
</event>
<event>
 4    3  0.8789582E-001  0.8099636E+02  0.7546771E-02  0.1326247E+00
         -1   -1    0    0    0  501 -0.00000000000E+00  0.00000000000E+00  0.28492512197E+03  0.28492512197E+03  0.00000000000E+00 0.  1.
          1   -1    0    0  501    0  0.00000000000E+00 -0.00000000000E+00 -0.28360561796E+02  0.28360561796E+02  0.00000000000E+00 0. -1.
         24    1    1    2    0    0 -0.96496939015E+01  0.27925936601E+00  0.19622483043E+03  0.21228423072E+03  0.80419002446E+02 0.  1.
        -24    1    1    2    0    0  0.96496939015E+01 -0.27925936601E+00  0.60339729739E+02  0.10100145305E+03  0.80419002446E+02 0.  0.
<mgrwt>
<rscale>  0 0.80996361E+02</rscale>
<asrwt>0</asrwt>
<pdfrwt beam="1">  1        1 0.43631635E-02 0.80996361E+02</pdfrwt>
<pdfrwt beam="2">  1       -1 0.43834632E-01 0.80996361E+02</pdfrwt>
<totfact> 0.94440488E+03</totfact>
</mgrwt>
</event>
<event>
 4    3  0.8789582E-001  0.9561534E+02  0.7546771E-02  0.1289796E+00
          2   -1    0    0  501    0  0.00000000000E+00  0.00000000000E+00  0.65463463488E+03  0.65463463488E+03  0.00000000000E+00 0. -1.
         -2   -1    0    0    0  501 -0.00000000000E+00 -0.00000000000E+00 -0.53972833364E+02  0.53972833364E+02  0.00000000000E+00 0.  1.
         24    1    1    2    0    0  0.48760183871E+01  0.51490794377E+02  0.60537173350E+03  0.61287619397E+03  0.80419002446E+02 0. -1.
        -24    1    1    2    0    0 -0.48760183871E+01 -0.51490794377E+02 -0.47099319814E+01  0.95731274276E+02  0.80419002446E+02 0.  1.
<mgrwt>
<rscale>  0 0.95615341E+02</rscale>
<asrwt>0</asrwt>
<pdfrwt beam="1">  1        2 0.10071302E+00 0.95615341E+02</pdfrwt>
<pdfrwt beam="2">  1       -2 0.83035133E-02 0.95615341E+02</pdfrwt>
<totfact> 0.38839663E+03</totfact>
</mgrwt>
</event>
<event>
 4    3  0.8789582E-001  0.8541340E+02  0.7546771E-02  0.1314355E+00
          1   -1    0    0  501    0  0.00000000000E+00  0.00000000000E+00  0.10286607954E+04  0.10286607954E+04  0.00000000000E+00 0. -1.
         -1   -1    0    0    0  501 -0.00000000000E+00 -0.00000000000E+00 -0.68055527735E+02  0.68055527735E+02  0.00000000000E+00 0.  1.
         24    1    1    2    0    0 -0.93309141555E+01  0.27224368872E+02 -0.38696950879E+02  0.93770476063E+02  0.80419002446E+02 0.  1.
        -24    1    1    2    0    0  0.93309141555E+01 -0.27224368872E+02  0.99930221850E+03  0.10029458470E+04  0.80419002446E+02 0. -1.
<mgrwt>
<rscale>  0 0.85413396E+02</rscale>
<asrwt>0</asrwt>
<pdfrwt beam="1">  1        1 0.15825550E+00 0.85413396E+02</pdfrwt>
<pdfrwt beam="2">  1       -1 0.10470082E-01 0.85413396E+02</pdfrwt>
<totfact> 0.87262700E+02</totfact>
</mgrwt>
</event>
<event>
 4    3  0.8789582E-001  0.9614255E+02  0.7546771E-02  0.1288623E+00
          2   -1    0    0  501    0  0.00000000000E+00  0.00000000000E+00  0.21482078933E+04  0.21482078933E+04  0.00000000000E+00 0. -1.
         -2   -1    0    0    0  501 -0.00000000000E+00 -0.00000000000E+00 -0.20660957007E+02  0.20660957007E+02  0.00000000000E+00 0.  1.
         24    1    1    2    0    0 -0.38486897779E+02  0.35985184952E+02  0.20287011352E+04  0.20309780124E+04  0.80419002446E+02 0. -1.
        -24    1    1    2    0    0  0.38486897779E+02 -0.35985184952E+02  0.98845801083E+02  0.13789083792E+03  0.80419002446E+02 0.  1.
<mgrwt>
<rscale>  0 0.96142555E+02</rscale>
<asrwt>0</asrwt>
<pdfrwt beam="1">  1        2 0.33049335E+00 0.96142555E+02</pdfrwt>
<pdfrwt beam="2">  1       -2 0.31786105E-02 0.96142555E+02</pdfrwt>
<totfact> 0.24329134E+03</totfact>
</mgrwt>
</event>
<event>
 4    3  0.8789582E-001  0.8151358E+02  0.7546771E-02  0.1324810E+00
         -2   -1    0    0    0  501 -0.00000000000E+00  0.00000000000E+00  0.12104662175E+02  0.12104662175E+02  0.00000000000E+00 0.  1.
          2   -1    0    0  501    0  0.00000000000E+00 -0.00000000000E+00 -0.56046188519E+03  0.56046188519E+03  0.00000000000E+00 0. -1.
         24    1    1    2    0    0 -0.82806415984E+01 -0.10424924013E+02 -0.31526552218E+03  0.32563294289E+03  0.80419002446E+02 0. -1.
        -24    1    1    2    0    0  0.82806415984E+01  0.10424924013E+02 -0.23309170084E+03  0.24693360448E+03  0.80419002446E+02 0.  1.
<mgrwt>
<rscale>  0 0.81513582E+02</rscale>
<asrwt>0</asrwt>
<pdfrwt beam="1">  1        2 0.86224897E-01 0.81513582E+02</pdfrwt>
<pdfrwt beam="2">  1       -2 0.18622559E-02 0.81513582E+02</pdfrwt>
<totfact> 0.41210733E+04</totfact>
</mgrwt>
</event>
<event>
 4    3  0.8789582E-001  0.9423975E+02  0.7546771E-02  0.1292898E+00
          1   -1    0    0  501    0  0.00000000000E+00  0.00000000000E+00  0.12620613148E+04  0.12620613148E+04  0.00000000000E+00 0. -1.
         -1   -1    0    0    0  501 -0.00000000000E+00 -0.00000000000E+00 -0.85074739001E+01  0.85074739001E+01  0.00000000000E+00 0.  1.
         24    1    1    2    0    0  0.49045724754E+02 -0.29037677790E+01  0.36266020056E+03  0.37470461967E+03  0.80419002446E+02 0.  1.
        -24    1    1    2    0    0 -0.49045724754E+02  0.29037677790E+01  0.89089364036E+03  0.89586416904E+03  0.80419002446E+02 0. -1.
<mgrwt>
<rscale>  0 0.94239752E+02</rscale>
<asrwt>0</asrwt>
<pdfrwt beam="1">  1        1 0.19416313E+00 0.94239752E+02</pdfrwt>
<pdfrwt beam="2">  1       -1 0.13088431E-02 0.94239752E+02</pdfrwt>
<totfact> 0.12451689E+04</totfact>
</mgrwt>
</event>
<event>
 4    3  0.8789582E-001  0.8328082E+02  0.7546771E-02  0.1319991E+00
          2   -1    0    0  501    0  0.00000000000E+00  0.00000000000E+00  0.10608888923E+03  0.10608888923E+03  0.00000000000E+00 0. -1.
         -2   -1    0    0    0  501 -0.00000000000E+00 -0.00000000000E+00 -0.20380077062E+03  0.20380077062E+03  0.00000000000E+00 0.  1.
         24    1    1    2    0    0 -0.16291572482E+02  0.14250070228E+02  0.78841049923E+02  0.11468045580E+03  0.80419002446E+02 0. -1.
        -24    1    1    2    0    0  0.16291572482E+02 -0.14250070228E+02 -0.17655293131E+03  0.19520920405E+03  0.80419002446E+02 0.  1.
<mgrwt>
<rscale>  0 0.83280825E+02</rscale>
<asrwt>0</asrwt>
<pdfrwt beam="1">  1        2 0.16321368E-01 0.83280825E+02</pdfrwt>
<pdfrwt beam="2">  1       -2 0.31353964E-01 0.83280825E+02</pdfrwt>
<totfact> 0.30991785E+03</totfact>
</mgrwt>
</event>
<event>
 4    3  0.8789582E-001  0.8534532E+02  0.7546771E-02  0.1314532E+00
          2   -1    0    0  501    0  0.00000000000E+00  0.00000000000E+00  0.13166918230E+03  0.13166918230E+03  0.00000000000E+00 0. -1.
         -2   -1    0    0    0  501 -0.00000000000E+00 -0.00000000000E+00 -0.55683601350E+02  0.55683601350E+02  0.00000000000E+00 0.  1.
         24    1    1    2    0    0 -0.54740246320E+01 -0.28047163253E+02  0.45571578512E+02  0.96750157802E+02  0.80419002446E+02 0.  1.
        -24    1    1    2    0    0  0.54740246320E+01  0.28047163253E+02  0.30414002439E+02  0.90602625850E+02  0.80419002446E+02 0.  0.
<mgrwt>
<rscale>  0 0.85345324E+02</rscale>
<asrwt>0</asrwt>
<pdfrwt beam="1">  1        2 0.20256797E-01 0.85345324E+02</pdfrwt>
<pdfrwt beam="2">  1       -2 0.85667080E-02 0.85345324E+02</pdfrwt>
<totfact> 0.20487648E+04</totfact>
</mgrwt>
</event>
<event>
 4    3  0.8789582E-001  0.1066539E+03  0.7546771E-02  0.1266895E+00
         -2   -1    0    0    0  501 -0.00000000000E+00  0.00000000000E+00  0.97920236009E+01  0.97920236009E+01  0.00000000000E+00 0.  1.
          2   -1    0    0  501    0  0.00000000000E+00 -0.00000000000E+00 -0.18596875032E+04  0.18596875032E+04  0.00000000000E+00 0. -1.
         24    1    1    2    0    0 -0.30681125681E+02 -0.62980138322E+02 -0.14976193174E+04  0.15014122236E+04  0.80419002446E+02 0.  0.
        -24    1    1    2    0    0  0.30681125681E+02  0.62980138322E+02 -0.35227616221E+03  0.36806730323E+03  0.80419002446E+02 0. -1.
<mgrwt>
<rscale>  0 0.10665386E+03</rscale>
<asrwt>0</asrwt>
<pdfrwt beam="1">  1        2 0.28610548E+00 0.10665386E+03</pdfrwt>
<pdfrwt beam="2">  1       -2 0.15064667E-02 0.10665386E+03</pdfrwt>
<totfact> 0.10031587E+04</totfact>
</mgrwt>
</event>
<event>
 4    3  0.8789582E-001  0.9387793E+02  0.7546771E-02  0.1293723E+00
          1   -1    0    0  501    0  0.00000000000E+00  0.00000000000E+00  0.15467588232E+02  0.15467588232E+02  0.00000000000E+00 0. -1.
         -1   -1    0    0    0  501 -0.00000000000E+00 -0.00000000000E+00 -0.11409218624E+04  0.11409218624E+04  0.00000000000E+00 0.  1.
         24    1    1    2    0    0 -0.30548466146E+02  0.37585119046E+02 -0.97181779321E+03  0.97634158423E+03  0.80419002446E+02 0.  1.
        -24    1    1    2    0    0  0.30548466146E+02 -0.37585119046E+02 -0.15363648096E+03  0.18004786640E+03  0.80419002446E+02 0. -1.
<mgrwt>
<rscale>  0 0.93877931E+02</rscale>
<asrwt>0</asrwt>
<pdfrwt beam="1">  1        1 0.23796290E-02 0.93877931E+02</pdfrwt>
<pdfrwt beam="2">  1       -1 0.17552644E+00 0.93877931E+02</pdfrwt>
<totfact> 0.11209014E+03</totfact>
</mgrwt>
</event>
<event>
 4    3  0.8789582E-001  0.9364138E+02  0.7546771E-02  0.1294266E+00
         -1   -1    0    0    0  501 -0.00000000000E+00  0.00000000000E+00  0.38058027815E+03  0.38058027815E+03  0.00000000000E+00 0.  1.
          1   -1    0    0  501    0  0.00000000000E+00 -0.00000000000E+00 -0.26125205702E+03  0.26125205702E+03  0.00000000000E+00 0. -1.
         24    1    1    2    0    0  0.13343576548E+02 -0.46080810264E+02  0.36610257393E+03  0.37788861150E+03  0.80419002446E+02 0.  1.
        -24    1    1    2    0    0 -0.13343576548E+02  0.46080810264E+02 -0.24677435280E+03  0.26394372367E+03  0.80419002446E+02 0. -1.
<mgrwt>
<rscale>  0 0.93641380E+02</rscale>
<asrwt>0</asrwt>
<pdfrwt beam="1">  1        1 0.40192624E-01 0.93641380E+02</pdfrwt>
<pdfrwt beam="2">  1       -1 0.58550813E-01 0.93641380E+02</pdfrwt>
<totfact> 0.32447119E+02</totfact>
</mgrwt>
</event>
<event>
 4    3  0.8789582E-001  0.8512017E+02  0.7546771E-02  0.1315119E+00
          1   -1    0    0  501    0  0.00000000000E+00  0.00000000000E+00  0.41102200219E+03  0.41102200219E+03  0.00000000000E+00 0. -1.
         -1   -1    0    0    0  501 -0.00000000000E+00 -0.00000000000E+00 -0.22186886342E+02  0.22186886342E+02  0.00000000000E+00 0.  1.
         24    1    1    2    0    0  0.26587453948E+02  0.84459832273E+01  0.96230407255E+02  0.12847464565E+03  0.80419002446E+02 0.  1.
        -24    1    1    2    0    0 -0.26587453948E+02 -0.84459832273E+01  0.29260470859E+03  0.30473424288E+03  0.80419002446E+02 0. -1.
<mgrwt>
<rscale>  0 0.85120170E+02</rscale>
<asrwt>0</asrwt>
<pdfrwt beam="1">  1        1 0.63234149E-01 0.85120170E+02</pdfrwt>
<pdfrwt beam="2">  1       -1 0.34133674E-02 0.85120170E+02</pdfrwt>
<totfact> 0.16408089E+04</totfact>
</mgrwt>
</event>
<event>
 4    3  0.8789582E-001  0.1496052E+03  0.7546771E-02  0.1200959E+00
          1   -1    0    0  501    0  0.00000000000E+00  0.00000000000E+00  0.20481409285E+03  0.20481409285E+03  0.00000000000E+00 0. -1.
         -1   -1    0    0    0  501 -0.00000000000E+00 -0.00000000000E+00 -0.16635532337E+03  0.16635532337E+03  0.00000000000E+00 0.  1.
         24    1    1    2    0    0  0.10256704529E+03  0.73447248063E+02 -0.89476966851E+02  0.17432108472E+03  0.80419002446E+02 0.  1.
        -24    1    1    2    0    0 -0.10256704529E+03 -0.73447248063E+02  0.12793573634E+03  0.19684833150E+03  0.80419002446E+02 0. -1.
<mgrwt>
<rscale>  0 0.14960519E+03</rscale>
<asrwt>0</asrwt>
<pdfrwt beam="1">  1        1 0.31509860E-01 0.14960519E+03</pdfrwt>
<pdfrwt beam="2">  1       -1 0.25593127E-01 0.14960519E+03</pdfrwt>
<totfact> 0.18681512E+03</totfact>
</mgrwt>
</event>
<event>
 4    3  0.8789582E-001  0.1146252E+03  0.7546771E-02  0.1252237E+00
          2   -1    0    0  501    0  0.00000000000E+00  0.00000000000E+00  0.20442433197E+04  0.20442433197E+04  0.00000000000E+00 0. -1.
         -2   -1    0    0    0  501 -0.00000000000E+00 -0.00000000000E+00 -0.26958148564E+02  0.26958148564E+02  0.00000000000E+00 0.  1.
         24    1    1    2    0    0  0.60079836695E+02  0.55336527663E+02  0.19123980350E+04  0.19158301538E+04  0.80419002446E+02 0. -1.
        -24    1    1    2    0    0 -0.60079836695E+02 -0.55336527663E+02  0.10488713615E+03  0.15537131445E+03  0.80419002446E+02 0.  1.
<mgrwt>
<rscale>  0 0.11462519E+03</rscale>
<asrwt>0</asrwt>
<pdfrwt beam="1">  1        2 0.31449885E+00 0.11462519E+03</pdfrwt>
<pdfrwt beam="2">  1       -2 0.41474091E-02 0.11462519E+03</pdfrwt>
<totfact> 0.18559703E+03</totfact>
</mgrwt>
</event>
<event>
 4    3  0.8789582E-001  0.8479358E+02  0.7546771E-02  0.1315973E+00
         -2   -1    0    0    0  501 -0.00000000000E+00  0.00000000000E+00  0.31040767561E+01  0.31040767561E+01  0.00000000000E+00 0.  1.
          2   -1    0    0  501    0  0.00000000000E+00 -0.00000000000E+00 -0.23509468634E+04  0.23509468634E+04  0.00000000000E+00 0. -1.
         24    1    1    2    0    0  0.26811272058E+02  0.19724988333E+01 -0.13168242073E+04  0.13195514177E+04  0.80419002446E+02 0.  1.
        -24    1    1    2    0    0 -0.26811272058E+02 -0.19724988333E+01 -0.10310185793E+04  0.10344995225E+04  0.80419002446E+02 0. -1.
<mgrwt>
<rscale>  0 0.84793579E+02</rscale>
<asrwt>0</asrwt>
<pdfrwt beam="1">  1        2 0.36168325E+00 0.84793579E+02</pdfrwt>
<pdfrwt beam="2">  1       -2 0.47755143E-03 0.84793579E+02</pdfrwt>
<totfact> 0.28345756E+04</totfact>
</mgrwt>
</event>
<event>
 4    3  0.8789582E-001  0.1664013E+03  0.7546771E-02  0.1181654E+00
         -1   -1    0    0    0  501 -0.00000000000E+00  0.00000000000E+00  0.73969685729E+02  0.73969685729E+02  0.00000000000E+00 0.  1.
          1   -1    0    0  501    0  0.00000000000E+00 -0.00000000000E+00 -0.47719326331E+03  0.47719326331E+03  0.00000000000E+00 0. -1.
         24    1    1    2    0    0 -0.30747734558E+02  0.14239647203E+03 -0.73666638431E+02  0.18197848224E+03  0.80419002446E+02 0.  0.
        -24    1    1    2    0    0  0.30747734558E+02 -0.14239647203E+03 -0.32955693915E+03  0.36918446680E+03  0.80419002446E+02 0. -1.
<mgrwt>
<rscale>  0 0.16640131E+03</rscale>
<asrwt>0</asrwt>
<pdfrwt beam="1">  1        1 0.73414349E-01 0.16640131E+03</pdfrwt>
<pdfrwt beam="2">  1       -1 0.11379952E-01 0.16640131E+03</pdfrwt>
<totfact> 0.23570617E+03</totfact>
</mgrwt>
</event>
<event>
 4    3  0.8789582E-001  0.8679406E+02  0.7546771E-02  0.1310806E+00
          1   -1    0    0  501    0  0.00000000000E+00  0.00000000000E+00  0.10234115403E+04  0.10234115403E+04  0.00000000000E+00 0. -1.
         -1   -1    0    0    0  501 -0.00000000000E+00 -0.00000000000E+00 -0.74994231831E+01  0.74994231831E+01  0.00000000000E+00 0.  1.
         24    1    1    2    0    0  0.15431290324E+02 -0.28772691781E+02  0.43789584563E+03  0.44641458319E+03  0.80419002446E+02 0.  1.
        -24    1    1    2    0    0 -0.15431290324E+02  0.28772691781E+02  0.57801627146E+03  0.58449638026E+03  0.80419002446E+02 0. -1.
<mgrwt>
<rscale>  0 0.86794058E+02</rscale>
<asrwt>0</asrwt>
<pdfrwt beam="1">  1        1 0.15744782E+00 0.86794058E+02</pdfrwt>
<pdfrwt beam="2">  1       -1 0.11537582E-02 0.86794058E+02</pdfrwt>
<totfact> 0.21545646E+04</totfact>
</mgrwt>
</event>
<event>
 4    3  0.8789582E-001  0.8278343E+02  0.7546771E-02  0.1321333E+00
         -2   -1    0    0    0  501 -0.00000000000E+00  0.00000000000E+00  0.44180526879E+02  0.44180526879E+02  0.00000000000E+00 0.  1.
          2   -1    0    0  501    0  0.00000000000E+00 -0.00000000000E+00 -0.81752678930E+03  0.81752678930E+03  0.00000000000E+00 0. -1.
         24    1    1    2    0    0 -0.87207345945E+01 -0.17601941995E+02 -0.77450417510E+03  0.77891579312E+03  0.80419002446E+02 0. -1.
        -24    1    1    2    0    0  0.87207345945E+01  0.17601941995E+02  0.11579126786E+01  0.82791523057E+02  0.80419002446E+02 0.  1.
<mgrwt>
<rscale>  0 0.82783425E+02</rscale>
<asrwt>0</asrwt>
<pdfrwt beam="1">  1        2 0.12577335E+00 0.82783425E+02</pdfrwt>
<pdfrwt beam="2">  1       -2 0.67970043E-02 0.82783425E+02</pdfrwt>
<totfact> 0.40204569E+03</totfact>
</mgrwt>
</event>
<event>
 4    3  0.8789582E-001  0.8136577E+02  0.7546771E-02  0.1325220E+00
          2   -1    0    0  501    0  0.00000000000E+00  0.00000000000E+00  0.51771561194E+03  0.51771561194E+03  0.00000000000E+00 0. -1.
         -2   -1    0    0    0  501 -0.00000000000E+00 -0.00000000000E+00 -0.13729500493E+02  0.13729500493E+02  0.00000000000E+00 0.  1.
         24    1    1    2    0    0 -0.84625355851E+01  0.90309554693E+01  0.32158868796E+03  0.33172228271E+03  0.80419002446E+02 0. -1.
        -24    1    1    2    0    0  0.84625355851E+01 -0.90309554693E+01  0.18239742348E+03  0.19972282972E+03  0.80419002446E+02 0.  1.
<mgrwt>
<rscale>  0 0.81365771E+02</rscale>
<asrwt>0</asrwt>
<pdfrwt beam="1">  1        2 0.79648540E-01 0.81365771E+02</pdfrwt>
<pdfrwt beam="2">  1       -2 0.21122312E-02 0.81365771E+02</pdfrwt>
<totfact> 0.37508675E+04</totfact>
</mgrwt>
</event>
<event>
 4    3  0.8789582E-001  0.9560657E+02  0.7546771E-02  0.1289816E+00
         -2   -1    0    0    0  501 -0.00000000000E+00  0.00000000000E+00  0.82852516113E+01  0.82852516113E+01  0.00000000000E+00 0.  1.
          2   -1    0    0  501    0  0.00000000000E+00 -0.00000000000E+00 -0.28440481574E+04  0.28440481574E+04  0.00000000000E+00 0. -1.
         24    1    1    2    0    0  0.28158648782E+02  0.43364619412E+02 -0.25336583293E+04  0.25354615251E+04  0.80419002446E+02 0. -1.
        -24    1    1    2    0    0 -0.28158648782E+02 -0.43364619412E+02 -0.30210457647E+03  0.31687188388E+03  0.80419002446E+02 0.  1.
<mgrwt>
<rscale>  0 0.95606567E+02</rscale>
<asrwt>0</asrwt>
<pdfrwt beam="1">  1        2 0.43754600E+00 0.95606567E+02</pdfrwt>
<pdfrwt beam="2">  1       -2 0.12746537E-02 0.95606567E+02</pdfrwt>
<totfact> 0.38929643E+03</totfact>
</mgrwt>
</event>
<event>
 4    3  0.8789582E-001  0.8941953E+02  0.7546771E-02  0.1304263E+00
          2   -1    0    0  501    0  0.00000000000E+00  0.00000000000E+00  0.29852851386E+03  0.29852851386E+03  0.00000000000E+00 0. -1.
         -2   -1    0    0    0  501 -0.00000000000E+00 -0.00000000000E+00 -0.27156224805E+02  0.27156224805E+02  0.00000000000E+00 0.  1.
         24    1    1    2    0    0 -0.28947825751E+02 -0.26280416657E+02  0.15474549123E+03  0.17872330549E+03  0.80419002446E+02 0.  0.
        -24    1    1    2    0    0  0.28947825751E+02  0.26280416657E+02  0.11662679783E+03  0.14696143318E+03  0.80419002446E+02 0.  1.
<mgrwt>
<rscale>  0 0.89419533E+02</rscale>
<asrwt>0</asrwt>
<pdfrwt beam="1">  1        2 0.45927461E-01 0.89419533E+02</pdfrwt>
<pdfrwt beam="2">  1       -2 0.41778809E-02 0.89419533E+02</pdfrwt>
<totfact> 0.25176118E+04</totfact>
</mgrwt>
</event>
<event>
 4    3  0.8789582E-001  0.9797394E+02  0.7546771E-02  0.1284615E+00
          4   -1    0    0  501    0  0.00000000000E+00  0.00000000000E+00  0.36344149609E+03  0.36344149609E+03  0.00000000000E+00 0. -1.
         -4   -1    0    0    0  501 -0.00000000000E+00 -0.00000000000E+00 -0.29482801198E+02  0.29482801198E+02  0.00000000000E+00 0.  1.
         24    1    1    2    0    0  0.45906735074E+02  0.32003894616E+02  0.23039307051E+03  0.25035946255E+03  0.80419002446E+02 0. -1.
        -24    1    1    2    0    0 -0.45906735074E+02 -0.32003894616E+02  0.10356562438E+03  0.14256483474E+03  0.80419002446E+02 0.  1.
<mgrwt>
<rscale>  0 0.97973943E+02</rscale>
<asrwt>0</asrwt>
<pdfrwt beam="1">  1        4 0.55914073E-01 0.97973943E+02</pdfrwt>
<pdfrwt beam="2">  1       -4 0.45358158E-02 0.97973943E+02</pdfrwt>
<totfact> 0.13153221E+03</totfact>
</mgrwt>
</event>
<event>
 4    3  0.8789582E-001  0.1363623E+03  0.7546771E-02  0.1218309E+00
         -1   -1    0    0    0  501 -0.00000000000E+00  0.00000000000E+00  0.17811235176E+02  0.17811235176E+02  0.00000000000E+00 0.  1.
          1   -1    0    0  501    0  0.00000000000E+00 -0.00000000000E+00 -0.14867205311E+04  0.14867205311E+04  0.00000000000E+00 0. -1.
         24    1    1    2    0    0  0.74133380044E+02  0.81435236254E+02 -0.32394002860E+03  0.35147092884E+03  0.80419002446E+02 0.  1.
        -24    1    1    2    0    0 -0.74133380044E+02 -0.81435236254E+02 -0.11449692673E+04  0.11530608374E+04  0.80419002446E+02 0. -1.
<mgrwt>
<rscale>  0 0.13636228E+03</rscale>
<asrwt>0</asrwt>
<pdfrwt beam="1">  1        1 0.22872629E+00 0.13636228E+03</pdfrwt>
<pdfrwt beam="2">  1       -1 0.27401893E-02 0.13636228E+03</pdfrwt>
<totfact> 0.31221932E+03</totfact>
</mgrwt>
</event>
<event>
 4    3  0.8789582E-001  0.8087598E+02  0.7546771E-02  0.1326584E+00
         -2   -1    0    0    0  501 -0.00000000000E+00  0.00000000000E+00  0.96760865818E+01  0.96760865818E+01  0.00000000000E+00 0.  1.
          2   -1    0    0  501    0  0.00000000000E+00 -0.00000000000E+00 -0.76570396884E+03  0.76570396884E+03  0.00000000000E+00 0. -1.
         24    1    1    2    0    0  0.59797273947E+01 -0.61604719642E+01 -0.51071901641E+03  0.51708300904E+03  0.80419002446E+02 0. -1.
        -24    1    1    2    0    0 -0.59797273947E+01  0.61604719642E+01 -0.24530886585E+03  0.25829704639E+03  0.80419002446E+02 0.  0.
<mgrwt>
<rscale>  0 0.80875982E+02</rscale>
<asrwt>0</asrwt>
<pdfrwt beam="1">  1        2 0.11780063E+00 0.80875982E+02</pdfrwt>
<pdfrwt beam="2">  1       -2 0.14886285E-02 0.80875982E+02</pdfrwt>
<totfact> 0.39682289E+04</totfact>
</mgrwt>
</event>
<event>
 4    3  0.8789582E-001  0.8249468E+02  0.7546771E-02  0.1322117E+00
          1   -1    0    0  501    0  0.00000000000E+00  0.00000000000E+00  0.10860039170E+04  0.10860039170E+04  0.00000000000E+00 0. -1.
         -1   -1    0    0    0  501 -0.00000000000E+00 -0.00000000000E+00 -0.26160870288E+02  0.26160870288E+02  0.00000000000E+00 0.  1.
         24    1    1    2    0    0 -0.16473794480E+02 -0.81712873309E+01  0.44991726071E+02  0.93966096069E+02  0.80419002446E+02 0.  1.
        -24    1    1    2    0    0  0.16473794480E+02  0.81712873309E+01  0.10148513206E+04  0.10181986912E+04  0.80419002446E+02 0. -1.
<mgrwt>
<rscale>  0 0.82494677E+02</rscale>
<asrwt>0</asrwt>
<pdfrwt beam="1">  1        1 0.16707749E+00 0.82494677E+02</pdfrwt>
<pdfrwt beam="2">  1       -1 0.40247501E-02 0.82494677E+02</pdfrwt>
<totfact> 0.32615062E+03</totfact>
</mgrwt>
</event>
<event>
 4    3  0.8789582E-001  0.1028038E+03  0.7546771E-02  0.1274508E+00
         -1   -1    0    0    0  501 -0.00000000000E+00  0.00000000000E+00  0.20265740182E+02  0.20265740182E+02  0.00000000000E+00 0.  1.
          1   -1    0    0  501    0  0.00000000000E+00 -0.00000000000E+00 -0.53988984076E+03  0.53988984076E+03  0.00000000000E+00 0. -1.
         24    1    1    2    0    0  0.63150532075E+02  0.10649404348E+02 -0.20812324985E+03  0.23212906453E+03  0.80419002446E+02 0. -1.
        -24    1    1    2    0    0 -0.63150532075E+02 -0.10649404348E+02 -0.31150085072E+03  0.32802651641E+03  0.80419002446E+02 0.  1.
<mgrwt>
<rscale>  0 0.10280377E+03</rscale>
<asrwt>0</asrwt>
<pdfrwt beam="1">  1        1 0.83059967E-01 0.10280377E+03</pdfrwt>
<pdfrwt beam="2">  1       -1 0.31178065E-02 0.10280377E+03</pdfrwt>
<totfact> 0.13445854E+04</totfact>
</mgrwt>
</event>
<event>
 4    3  0.8789582E-001  0.8172963E+02  0.7546771E-02  0.1324213E+00
          1   -1    0    0  501    0  0.00000000000E+00  0.00000000000E+00  0.59390980138E+03  0.59390980138E+03  0.00000000000E+00 0. -1.
         -1   -1    0    0    0  501 -0.00000000000E+00 -0.00000000000E+00 -0.13760309873E+02  0.13760309873E+02  0.00000000000E+00 0.  1.
         24    1    1    2    0    0 -0.58658845923E+01  0.13345720996E+02  0.16022457328E+03  0.17986563515E+03  0.80419002446E+02 0.  1.
        -24    1    1    2    0    0  0.58658845923E+01 -0.13345720996E+02  0.41992491823E+03  0.42780447610E+03  0.80419002446E+02 0. -1.
<mgrwt>
<rscale>  0 0.81729632E+02</rscale>
<asrwt>0</asrwt>
<pdfrwt beam="1">  1        1 0.91370719E-01 0.81729632E+02</pdfrwt>
<pdfrwt beam="2">  1       -1 0.21169712E-02 0.81729632E+02</pdfrwt>
<totfact> 0.20224233E+04</totfact>
</mgrwt>
</event>
<event>
 4    3  0.8789582E-001  0.9120097E+02  0.7546771E-02  0.1299969E+00
          2   -1    0    0  501    0  0.00000000000E+00  0.00000000000E+00  0.20578228411E+04  0.20578228411E+04  0.00000000000E+00 0. -1.
         -2   -1    0    0    0  501 -0.00000000000E+00 -0.00000000000E+00 -0.40515550851E+01  0.40515550851E+01  0.00000000000E+00 0.  1.
         24    1    1    2    0    0 -0.42048337432E+02 -0.90740124916E+01  0.10770828526E+04  0.10809371340E+04  0.80419002446E+02 0.  0.
        -24    1    1    2    0    0  0.42048337432E+02  0.90740124916E+01  0.97668843341E+03  0.98093726216E+03  0.80419002446E+02 0.  1.
<mgrwt>
<rscale>  0 0.91200967E+02</rscale>
<asrwt>0</asrwt>
<pdfrwt beam="1">  1        2 0.31658729E+00 0.91200967E+02</pdfrwt>
<pdfrwt beam="2">  1       -2 0.62331781E-03 0.91200967E+02</pdfrwt>
<totfact> 0.27632253E+04</totfact>
</mgrwt>
</event>
<event>
 4    3  0.8789582E-001  0.8947572E+02  0.7546771E-02  0.1304126E+00
          1   -1    0    0  501    0  0.00000000000E+00  0.00000000000E+00  0.47628931691E+03  0.47628931691E+03  0.00000000000E+00 0. -1.
         -1   -1    0    0    0  501 -0.00000000000E+00 -0.00000000000E+00 -0.17851083021E+02  0.17851083021E+02  0.00000000000E+00 0.  1.
         24    1    1    2    0    0  0.32606818108E+02  0.21805590635E+02  0.16952136629E+03  0.19168567488E+03  0.80419002446E+02 0.  0.
        -24    1    1    2    0    0 -0.32606818108E+02 -0.21805590635E+02  0.28891686760E+03  0.30245472505E+03  0.80419002446E+02 0. -1.
<mgrwt>
<rscale>  0 0.89475719E+02</rscale>
<asrwt>0</asrwt>
<pdfrwt beam="1">  1        1 0.73275270E-01 0.89475719E+02</pdfrwt>
<pdfrwt beam="2">  1       -1 0.27463208E-02 0.89475719E+02</pdfrwt>
<totfact> 0.18738574E+04</totfact>
</mgrwt>
</event>
<event>
 4    3  0.8789582E-001  0.9847894E+02  0.7546771E-02  0.1283527E+00
         -2   -1    0    0    0  501 -0.00000000000E+00  0.00000000000E+00  0.17411932731E+03  0.17411932731E+03  0.00000000000E+00 0.  1.
          2   -1    0    0  501    0  0.00000000000E+00 -0.00000000000E+00 -0.99687266933E+02  0.99687266933E+02  0.00000000000E+00 0. -1.
         24    1    1    2    0    0  0.49421777554E+02 -0.28077991659E+02 -0.53726562132E+02  0.11218130479E+03  0.80419002446E+02 0. -1.
        -24    1    1    2    0    0 -0.49421777554E+02  0.28077991659E+02  0.12815862251E+03  0.16162528945E+03  0.80419002446E+02 0.  1.
<mgrwt>
<rscale>  0 0.98478940E+02</rscale>
<asrwt>0</asrwt>
<pdfrwt beam="1">  1        2 0.15336503E-01 0.98478940E+02</pdfrwt>
<pdfrwt beam="2">  1       -2 0.26787589E-01 0.98478940E+02</pdfrwt>
<totfact> 0.44517790E+03</totfact>
</mgrwt>
</event>
<event>
 4    3  0.8789582E-001  0.8577607E+02  0.7546771E-02  0.1313415E+00
          2   -1    0    0  501    0  0.00000000000E+00  0.00000000000E+00  0.43745342082E+03  0.43745342082E+03  0.00000000000E+00 0. -1.
         -2   -1    0    0    0  501 -0.00000000000E+00 -0.00000000000E+00 -0.17275391862E+02  0.17275391862E+02  0.00000000000E+00 0.  1.
         24    1    1    2    0    0  0.13115659182E+02 -0.26801087454E+02  0.24704385211E+03  0.26151137570E+03  0.80419002446E+02 0. -1.
        -24    1    1    2    0    0 -0.13115659182E+02  0.26801087454E+02  0.17313417685E+03  0.19321743698E+03  0.80419002446E+02 0.  1.
<mgrwt>
<rscale>  0 0.85776073E+02</rscale>
<asrwt>0</asrwt>
<pdfrwt beam="1">  1        2 0.67300518E-01 0.85776073E+02</pdfrwt>
<pdfrwt beam="2">  1       -2 0.26577529E-02 0.85776073E+02</pdfrwt>
<totfact> 0.32468599E+04</totfact>
</mgrwt>
</event>
<event>
 4    3  0.8789582E-001  0.1014801E+03  0.7546771E-02  0.1277214E+00
          2   -1    0    0  501    0  0.00000000000E+00  0.00000000000E+00  0.50442311253E+03  0.50442311253E+03  0.00000000000E+00 0. -1.
         -2   -1    0    0    0  501 -0.00000000000E+00 -0.00000000000E+00 -0.23934770084E+03  0.23934770084E+03  0.00000000000E+00 0.  1.
         24    1    1    2    0    0  0.56571760654E+02  0.25112351153E+02  0.48820916187E+03  0.49864455875E+03  0.80419002446E+02 0. -1.
        -24    1    1    2    0    0 -0.56571760654E+02 -0.25112351153E+02 -0.22313375018E+03  0.24512625463E+03  0.80419002446E+02 0.  1.
<mgrwt>
<rscale>  0 0.10148010E+03</rscale>
<asrwt>0</asrwt>
<pdfrwt beam="1">  1        2 0.77603555E-01 0.10148010E+03</pdfrwt>
<pdfrwt beam="2">  1       -2 0.36822723E-01 0.10148010E+03</pdfrwt>
<totfact> 0.43559223E+02</totfact>
</mgrwt>
</event>
<event>
 4    3  0.8789582E-001  0.8156254E+02  0.7546771E-02  0.1324675E+00
         -1   -1    0    0    0  501 -0.00000000000E+00  0.00000000000E+00  0.23131796503E+02  0.23131796503E+02  0.00000000000E+00 0.  1.
          1   -1    0    0  501    0  0.00000000000E+00 -0.00000000000E+00 -0.47933555520E+03  0.47933555520E+03  0.00000000000E+00 0. -1.
         24    1    1    2    0    0  0.59810682625E+01  0.12225325756E+02 -0.69202596118E+02  0.10696469993E+03  0.80419002446E+02 0.  1.
        -24    1    1    2    0    0 -0.59810682625E+01 -0.12225325756E+02 -0.38700116258E+03  0.39550265177E+03  0.80419002446E+02 0. -1.
<mgrwt>
<rscale>  0 0.81562539E+02</rscale>
<asrwt>0</asrwt>
<pdfrwt beam="1">  1        1 0.73743935E-01 0.81562539E+02</pdfrwt>
<pdfrwt beam="2">  1       -1 0.35587377E-02 0.81562539E+02</pdfrwt>
<totfact> 0.12685738E+04</totfact>
</mgrwt>
</event>
<event>
 4    3  0.8789582E-001  0.8357861E+02  0.7546771E-02  0.1319192E+00
          1   -1    0    0  501    0  0.00000000000E+00  0.00000000000E+00  0.39679821220E+02  0.39679821220E+02  0.00000000000E+00 0. -1.
         -1   -1    0    0    0  501 -0.00000000000E+00 -0.00000000000E+00 -0.27125299903E+03  0.27125299903E+03  0.00000000000E+00 0.  1.
         24    1    1    2    0    0  0.22240197222E+02 -0.48519370878E+01 -0.20789280014E+03  0.22406427642E+03  0.80419002446E+02 0.  0.
        -24    1    1    2    0    0 -0.22240197222E+02  0.48519370878E+01 -0.23680377676E+02  0.86868543831E+02  0.80419002446E+02 0. -1.
<mgrwt>
<rscale>  0 0.83578607E+02</rscale>
<asrwt>0</asrwt>
<pdfrwt beam="1">  1        1 0.61045878E-02 0.83578607E+02</pdfrwt>
<pdfrwt beam="2">  1       -1 0.41731231E-01 0.83578607E+02</pdfrwt>
<totfact> 0.65723315E+03</totfact>
</mgrwt>
</event>
<event>
 4    3  0.8789582E-001  0.9173107E+02  0.7546771E-02  0.1298713E+00
          1   -1    0    0  501    0  0.00000000000E+00  0.00000000000E+00  0.30051263037E+02  0.30051263037E+02  0.00000000000E+00 0. -1.
         -1   -1    0    0    0  501 -0.00000000000E+00 -0.00000000000E+00 -0.72055506174E+03  0.72055506174E+03  0.00000000000E+00 0.  1.
         24    1    1    2    0    0 -0.24200653905E+02 -0.36901250629E+02 -0.63870916051E+03  0.64526272295E+03  0.80419002446E+02 0.  1.
        -24    1    1    2    0    0  0.24200653905E+02  0.36901250629E+02 -0.51794638194E+02  0.10534360183E+03  0.80419002446E+02 0. -1.
<mgrwt>
<rscale>  0 0.91731074E+02</rscale>
<asrwt>0</asrwt>
<pdfrwt beam="1">  1        1 0.46232712E-02 0.91731074E+02</pdfrwt>
<pdfrwt beam="2">  1       -1 0.11085463E+00 0.91731074E+02</pdfrwt>
<totfact> 0.14206675E+03</totfact>
</mgrwt>
</event>
<event>
 4    3  0.8789582E-001  0.1272717E+03  0.7546771E-02  0.1231561E+00
         -2   -1    0    0    0  501 -0.00000000000E+00  0.00000000000E+00  0.35264291843E+02  0.35264291843E+02  0.00000000000E+00 0.  1.
          2   -1    0    0  501    0  0.00000000000E+00 -0.00000000000E+00 -0.46779718351E+03  0.46779718351E+03  0.00000000000E+00 0. -1.
         24    1    1    2    0    0 -0.62443526299E+02  0.76365424691E+02 -0.25009857226E+03  0.28061964269E+03  0.80419002446E+02 0.  1.
        -24    1    1    2    0    0  0.62443526299E+02 -0.76365424691E+02 -0.18243431941E+03  0.22244183266E+03  0.80419002446E+02 0. -1.
<mgrwt>
<rscale>  0 0.12727171E+03</rscale>
<asrwt>0</asrwt>
<pdfrwt beam="1">  1        2 0.71968794E-01 0.12727171E+03</pdfrwt>
<pdfrwt beam="2">  1       -2 0.54252760E-02 0.12727171E+03</pdfrwt>
<totfact> 0.10959738E+04</totfact>
</mgrwt>
</event>
<event>
 4    3  0.8789582E-001  0.8905452E+02  0.7546771E-02  0.1305158E+00
          2   -1    0    0  501    0  0.00000000000E+00  0.00000000000E+00  0.27599287088E+03  0.27599287088E+03  0.00000000000E+00 0. -1.
         -2   -1    0    0    0  501 -0.00000000000E+00 -0.00000000000E+00 -0.30350838135E+02  0.30350838135E+02  0.00000000000E+00 0.  1.
         24    1    1    2    0    0  0.31597013681E+02 -0.21566557978E+02  0.87480822058E+02  0.12483428166E+03  0.80419002446E+02 0.  1.
        -24    1    1    2    0    0 -0.31597013681E+02  0.21566557978E+02  0.15816121069E+03  0.18150942735E+03  0.80419002446E+02 0. -1.
<mgrwt>
<rscale>  0 0.89054509E+02</rscale>
<asrwt>0</asrwt>
<pdfrwt beam="1">  1        2 0.42460440E-01 0.89054520E+02</pdfrwt>
<pdfrwt beam="2">  1       -2 0.46693599E-02 0.89054520E+02</pdfrwt>
<totfact> 0.23178991E+04</totfact>
</mgrwt>
</event>
<event>
 4    3  0.8789582E-001  0.8090668E+02  0.7546771E-02  0.1326498E+00
         -2   -1    0    0    0  501 -0.00000000000E+00  0.00000000000E+00  0.58257442841E+02  0.58257442841E+02  0.00000000000E+00 0.  1.
          2   -1    0    0  501    0  0.00000000000E+00 -0.00000000000E+00 -0.30050307588E+03  0.30050307588E+03  0.00000000000E+00 0. -1.
         24    1    1    2    0    0  0.67665557825E+01 -0.57348251102E+01 -0.26305884175E+03  0.27521962989E+03  0.80419002446E+02 0.  0.
        -24    1    1    2    0    0 -0.67665557825E+01  0.57348251102E+01  0.20813208712E+02  0.83540888836E+02  0.80419002446E+02 0.  1.
<mgrwt>
<rscale>  0 0.80906677E+02</rscale>
<asrwt>0</asrwt>
<pdfrwt beam="1">  1        2 0.46231241E-01 0.80906677E+02</pdfrwt>
<pdfrwt beam="2">  1       -2 0.89626839E-02 0.80906677E+02</pdfrwt>
<totfact> 0.78737696E+03</totfact>
</mgrwt>
</event>
<event>
 4    3  0.8789582E-001  0.8225029E+02  0.7546771E-02  0.1322784E+00
          2   -1    0    0  501    0  0.00000000000E+00  0.00000000000E+00  0.26249103567E+04  0.26249103567E+04  0.00000000000E+00 0. -1.
         -2   -1    0    0    0  501 -0.00000000000E+00 -0.00000000000E+00 -0.45935691453E+01  0.45935691453E+01  0.00000000000E+00 0.  1.
         24    1    1    2    0    0 -0.16285268319E+02  0.57170151583E+01  0.21812139905E+04  0.21827642069E+04  0.80419002446E+02 0. -1.
        -24    1    1    2    0    0  0.16285268319E+02 -0.57170151583E+01  0.43910279699E+03  0.44673971897E+03  0.80419002446E+02 0.  0.
<mgrwt>
<rscale>  0 0.82250290E+02</rscale>
<asrwt>0</asrwt>
<pdfrwt beam="1">  1        2 0.40383116E+00 0.82250290E+02</pdfrwt>
<pdfrwt beam="2">  1       -2 0.70670504E-03 0.82250290E+02</pdfrwt>
<totfact> 0.11756642E+04</totfact>
</mgrwt>
</event>
<event>
 4    3  0.8789582E-001  0.8878802E+02  0.7546771E-02  0.1305813E+00
         -1   -1    0    0    0  501 -0.00000000000E+00  0.00000000000E+00  0.83307017810E+01  0.83307017810E+01  0.00000000000E+00 0.  1.
          1   -1    0    0  501    0  0.00000000000E+00 -0.00000000000E+00 -0.99218812187E+03  0.99218812187E+03  0.00000000000E+00 0. -1.
         24    1    1    2    0    0 -0.35957457055E+02 -0.11097657417E+02 -0.38434025319E+03  0.39446260012E+03  0.80419002446E+02 0.  0.
        -24    1    1    2    0    0  0.35957457055E+02  0.11097657417E+02 -0.59951716690E+03  0.60605622353E+03  0.80419002446E+02 0.  1.
<mgrwt>
<rscale>  0 0.88788021E+02</rscale>
<asrwt>0</asrwt>
<pdfrwt beam="1">  1        1 0.15264434E+00 0.88788021E+02</pdfrwt>
<pdfrwt beam="2">  1       -1 0.12816463E-02 0.88788021E+02</pdfrwt>
<totfact> 0.19593404E+04</totfact>
</mgrwt>
</event>
<event>
 4    3  0.8789582E-001  0.9402266E+02  0.7546771E-02  0.1293393E+00
         -2   -1    0    0    0  501 -0.00000000000E+00  0.00000000000E+00  0.13633098128E+04  0.13633098128E+04  0.00000000000E+00 0.  1.
          2   -1    0    0  501    0  0.00000000000E+00 -0.00000000000E+00 -0.18828115832E+02  0.18828115832E+02  0.00000000000E+00 0. -1.
         24    1    1    2    0    0  0.21940906990E+02 -0.43493012318E+02  0.11268850561E+03  0.14676157798E+03  0.80419002446E+02 0. -1.
        -24    1    1    2    0    0 -0.21940906990E+02  0.43493012318E+02  0.12317931913E+04  0.12353763506E+04  0.80419002446E+02 0.  1.
<mgrwt>
<rscale>  0 0.94022665E+02</rscale>
<asrwt>0</asrwt>
<pdfrwt beam="1">  1        2 0.28966343E-02 0.94022665E+02</pdfrwt>
<pdfrwt beam="2">  1       -2 0.20973989E+00 0.94022665E+02</pdfrwt>
<totfact> 0.39942742E+02</totfact>
</mgrwt>
</event>
<event>
 4    3  0.8789582E-001  0.8981562E+02  0.7546771E-02  0.1303299E+00
          1   -1    0    0  501    0  0.00000000000E+00  0.00000000000E+00  0.68036176599E+03  0.68036176599E+03  0.00000000000E+00 0. -1.
         -1   -1    0    0    0  501 -0.00000000000E+00 -0.00000000000E+00 -0.20208606486E+02  0.20208606486E+02  0.00000000000E+00 0.  1.
         24    1    1    2    0    0 -0.38061432128E+02  0.12286453089E+02  0.10488798365E+03  0.13808814074E+03  0.80419002446E+02 0.  1.
        -24    1    1    2    0    0  0.38061432128E+02 -0.12286453089E+02  0.55526517586E+03  0.56248223173E+03  0.80419002446E+02 0. -1.
<mgrwt>
<rscale>  0 0.89815619E+02</rscale>
<asrwt>0</asrwt>
<pdfrwt beam="1">  1        1 0.10467102E+00 0.89815619E+02</pdfrwt>
<pdfrwt beam="2">  1       -1 0.31090169E-02 0.89815619E+02</pdfrwt>
<totfact> 0.97770809E+03</totfact>
</mgrwt>
</event>
<event>
 4    3  0.8789582E-001  0.8621816E+02  0.7546771E-02  0.1312277E+00
          2   -1    0    0  501    0  0.00000000000E+00  0.00000000000E+00  0.30847180722E+04  0.30847180722E+04  0.00000000000E+00 0. -1.
         -2   -1    0    0    0  501 -0.00000000000E+00 -0.00000000000E+00 -0.38453908751E+01  0.38453908751E+01  0.00000000000E+00 0.  1.
         24    1    1    2    0    0  0.12784767476E+02  0.28335561996E+02  0.24839991484E+04  0.24854949889E+04  0.80419002446E+02 0.  0.
        -24    1    1    2    0    0 -0.12784767476E+02 -0.28335561996E+02  0.59687353293E+03  0.60306847424E+03  0.80419002446E+02 0.  1.
<mgrwt>
<rscale>  0 0.86218155E+02</rscale>
<asrwt>0</asrwt>
<pdfrwt beam="1">  1        2 0.47457003E+00 0.86218155E+02</pdfrwt>
<pdfrwt beam="2">  1       -2 0.59160106E-03 0.86218155E+02</pdfrwt>
<totfact> 0.84090050E+03</totfact>
</mgrwt>
</event>
<event>
 4    3  0.8789582E-001  0.8940776E+02  0.7546771E-02  0.1304292E+00
         -1   -1    0    0    0  501 -0.00000000000E+00  0.00000000000E+00  0.24394916593E+03  0.24394916593E+03  0.00000000000E+00 0.  1.
          1   -1    0    0  501    0  0.00000000000E+00 -0.00000000000E+00 -0.37227185693E+02  0.37227185693E+02  0.00000000000E+00 0. -1.
         24    1    1    2    0    0 -0.17294014458E+02 -0.35034896676E+02  0.54704233402E+02  0.10481553333E+03  0.80419002446E+02 0.  1.
        -24    1    1    2    0    0  0.17294014458E+02  0.35034896676E+02  0.15201774684E+03  0.17636081829E+03  0.80419002446E+02 0. -1.
<mgrwt>
<rscale>  0 0.89407745E+02</rscale>
<asrwt>0</asrwt>
<pdfrwt beam="1">  1        1 0.57272595E-02 0.89407756E+02</pdfrwt>
<pdfrwt beam="2">  1       -1 0.37530640E-01 0.89407756E+02</pdfrwt>
<totfact> 0.86548386E+03</totfact>
</mgrwt>
</event>
<event>
 4    3  0.8789582E-001  0.8366169E+02  0.7546771E-02  0.1318970E+00
         -2   -1    0    0    0  501 -0.00000000000E+00  0.00000000000E+00  0.55258332002E+01  0.55258332002E+01  0.00000000000E+00 0.  1.
          2   -1    0    0  501    0  0.00000000000E+00 -0.00000000000E+00 -0.36035266005E+04  0.36035266005E+04  0.00000000000E+00 0. -1.
         24    1    1    2    0    0 -0.20040331873E+02  0.11421358699E+02 -0.32521740800E+04  0.32532499942E+04  0.80419002446E+02 0. -1.
        -24    1    1    2    0    0  0.20040331873E+02 -0.11421358699E+02 -0.34582668738E+03  0.35580243955E+03  0.80419002446E+02 0. -1.
<mgrwt>
<rscale>  0 0.83661690E+02</rscale>
<asrwt>0</asrwt>
<pdfrwt beam="1">  1        2 0.55438909E+00 0.83661690E+02</pdfrwt>
<pdfrwt beam="2">  1       -2 0.85012760E-03 0.83661690E+02</pdfrwt>
<totfact> 0.24292099E+03</totfact>
</mgrwt>
</event>
<event>
 4    3  0.8789582E-001  0.9114218E+02  0.7546771E-02  0.1300109E+00
          2   -1    0    0  501    0  0.00000000000E+00  0.00000000000E+00  0.80420168496E+02  0.80420168496E+02  0.00000000000E+00 0. -1.
         -2   -1    0    0    0  501 -0.00000000000E+00 -0.00000000000E+00 -0.12580330601E+03  0.12580330601E+03  0.00000000000E+00 0.  1.
         24    1    1    2    0    0 -0.42646432318E+02 -0.45786116703E+01  0.20924437387E+02  0.93513260603E+02  0.80419002446E+02 0.  1.
        -24    1    1    2    0    0  0.42646432318E+02  0.45786116703E+01 -0.66307574899E+02  0.11271021390E+03  0.80419002446E+02 0.  1.
<mgrwt>
<rscale>  0 0.91142185E+02</rscale>
<asrwt>0</asrwt>
<pdfrwt beam="1">  1        2 0.12372334E-01 0.91142185E+02</pdfrwt>
<pdfrwt beam="2">  1       -2 0.19354355E-01 0.91142185E+02</pdfrwt>
<totfact> 0.99104959E+03</totfact>
</mgrwt>
</event>
<event>
 4    3  0.8789582E-001  0.8871275E+02  0.7546771E-02  0.1305999E+00
          1   -1    0    0  501    0  0.00000000000E+00  0.00000000000E+00  0.17029866684E+03  0.17029866684E+03  0.00000000000E+00 0. -1.
         -1   -1    0    0    0  501 -0.00000000000E+00 -0.00000000000E+00 -0.12574101356E+03  0.12574101356E+03  0.00000000000E+00 0.  1.
         24    1    1    2    0    0  0.37143719489E+02  0.48041514088E+01 -0.95439069338E+02  0.13030183298E+03  0.80419002446E+02 0.  1.
        -24    1    1    2    0    0 -0.37143719489E+02 -0.48041514088E+01  0.13999672262E+03  0.16573784742E+03  0.80419002446E+02 0. -1.
<mgrwt>
<rscale>  0 0.88712748E+02</rscale>
<asrwt>0</asrwt>
<pdfrwt beam="1">  1        1 0.26199795E-01 0.88712748E+02</pdfrwt>
<pdfrwt beam="2">  1       -1 0.19344771E-01 0.88712748E+02</pdfrwt>
<totfact> 0.36010041E+03</totfact>
</mgrwt>
</event>
<event>
 4    3  0.8789582E-001  0.8409474E+02  0.7546771E-02  0.1317817E+00
         -3   -1    0    0    0  501 -0.00000000000E+00  0.00000000000E+00  0.17651023563E+02  0.17651023563E+02  0.00000000000E+00 0.  1.
          3   -1    0    0  501    0  0.00000000000E+00 -0.00000000000E+00 -0.40398513342E+03  0.40398513342E+03  0.00000000000E+00 0. -1.
         24    1    1    2    0    0 -0.24425734947E+02  0.28448261023E+01 -0.17401905743E+03  0.19327327251E+03  0.80419002446E+02 0.  0.
        -24    1    1    2    0    0  0.24425734947E+02 -0.28448261023E+01 -0.21231505243E+03  0.22836288447E+03  0.80419002446E+02 0. -1.
<mgrwt>
<rscale>  0 0.84094741E+02</rscale>
<asrwt>0</asrwt>
<pdfrwt beam="1">  1        3 0.62151555E-01 0.84094741E+02</pdfrwt>
<pdfrwt beam="2">  1       -3 0.27155423E-02 0.84094741E+02</pdfrwt>
<totfact> 0.31578390E+03</totfact>
</mgrwt>
</event>
<event>
 4    3  0.8789582E-001  0.9238737E+02  0.7546771E-02  0.1297171E+00
         -2   -1    0    0    0  501 -0.00000000000E+00  0.00000000000E+00  0.82434468159E+01  0.82434468159E+01  0.00000000000E+00 0.  1.
          2   -1    0    0  501    0  0.00000000000E+00 -0.00000000000E+00 -0.11023827123E+04  0.11023827123E+04  0.00000000000E+00 0. -1.
         24    1    1    2    0    0 -0.22533184624E+02 -0.39502738560E+02 -0.68393368611E+03  0.69014542940E+03  0.80419002446E+02 0.  0.
        -24    1    1    2    0    0  0.22533184624E+02  0.39502738560E+02 -0.41020557935E+03  0.42048072970E+03  0.80419002446E+02 0.  1.
<mgrwt>
<rscale>  0 0.92387373E+02</rscale>
<asrwt>0</asrwt>
<pdfrwt beam="1">  1        2 0.16959729E+00 0.92387373E+02</pdfrwt>
<pdfrwt beam="2">  1       -2 0.12682230E-02 0.92387373E+02</pdfrwt>
<totfact> 0.31491207E+04</totfact>
</mgrwt>
</event>
<event>
 4    3  0.8789582E-001  0.8413811E+02  0.7546771E-02  0.1317702E+00
          1   -1    0    0  501    0  0.00000000000E+00  0.00000000000E+00  0.51383455188E+03  0.51383455188E+03  0.00000000000E+00 0. -1.
         -1   -1    0    0    0  501 -0.00000000000E+00 -0.00000000000E+00 -0.15961989322E+02  0.15961989322E+02  0.00000000000E+00 0.  1.
         24    1    1    2    0    0  0.11128135720E+02 -0.22094582568E+02  0.15093394648E+03  0.17280126776E+03  0.80419002446E+02 0.  1.
        -24    1    1    2    0    0 -0.11128135720E+02  0.22094582568E+02  0.34693861608E+03  0.35699527344E+03  0.80419002446E+02 0. -1.
<mgrwt>
<rscale>  0 0.84138112E+02</rscale>
<asrwt>0</asrwt>
<pdfrwt beam="1">  1        1 0.79051457E-01 0.84138112E+02</pdfrwt>
<pdfrwt beam="2">  1       -1 0.24556911E-02 0.84138112E+02</pdfrwt>
<totfact> 0.19835420E+04</totfact>
</mgrwt>
</event>
<event>
 4    3  0.8789582E-001  0.8460446E+02  0.7546771E-02  0.1316470E+00
          2   -1    0    0  501    0  0.00000000000E+00  0.00000000000E+00  0.26363626041E+02  0.26363626041E+02  0.00000000000E+00 0. -1.
         -2   -1    0    0    0  501 -0.00000000000E+00 -0.00000000000E+00 -0.35974721073E+03  0.35974721073E+03  0.00000000000E+00 0.  1.
         24    1    1    2    0    0  0.21692179150E+02 -0.14837384049E+02 -0.71078994085E+02  0.11049949301E+03  0.80419002446E+02 0. -1.
        -24    1    1    2    0    0 -0.21692179150E+02  0.14837384049E+02 -0.26230459061E+03  0.27561134376E+03  0.80419002446E+02 0.  1.
<mgrwt>
<rscale>  0 0.84604459E+02</rscale>
<asrwt>0</asrwt>
<pdfrwt beam="1">  1        2 0.40559423E-02 0.84604459E+02</pdfrwt>
<pdfrwt beam="2">  1       -2 0.55345727E-01 0.84604459E+02</pdfrwt>
<totfact> 0.58784250E+03</totfact>
</mgrwt>
</event>
<event>
 4    3  0.8789582E-001  0.8809722E+02  0.7546771E-02  0.1307526E+00
         -1   -1    0    0    0  501 -0.00000000000E+00  0.00000000000E+00  0.37541816666E+02  0.37541816666E+02  0.00000000000E+00 0.  1.
          1   -1    0    0  501    0  0.00000000000E+00 -0.00000000000E+00 -0.27189891603E+03  0.27189891603E+03  0.00000000000E+00 0. -1.
         24    1    1    2    0    0 -0.30537109782E+02  0.19010246660E+02 -0.41433360690E+02  0.97354218626E+02  0.80419002446E+02 0.  1.
        -24    1    1    2    0    0  0.30537109782E+02 -0.19010246660E+02 -0.19292373868E+03  0.21208651407E+03  0.80419002446E+02 0. -1.
<mgrwt>
<rscale>  0 0.88097222E+02</rscale>
<asrwt>0</asrwt>
<pdfrwt beam="1">  1        1 0.41830601E-01 0.88097222E+02</pdfrwt>
<pdfrwt beam="2">  1       -1 0.57756643E-02 0.88097222E+02</pdfrwt>
<totfact> 0.12709518E+04</totfact>
</mgrwt>
</event>
<event>
 4    3  0.8789582E-001  0.1284775E+03  0.7546771E-02  0.1229732E+00
          2   -1    0    0  501    0  0.00000000000E+00  0.00000000000E+00  0.42544160892E+03  0.42544160892E+03  0.00000000000E+00 0. -1.
         -2   -1    0    0    0  501 -0.00000000000E+00 -0.00000000000E+00 -0.39374069229E+02  0.39374069229E+02  0.00000000000E+00 0.  1.
         24    1    1    2    0    0  0.99231028482E+02  0.13872748247E+02  0.22113472893E+03  0.25574799012E+03  0.80419002446E+02 0. -1.
        -24    1    1    2    0    0 -0.99231028482E+02 -0.13872748247E+02  0.16493281075E+03  0.20906768802E+03  0.80419002446E+02 0.  1.
<mgrwt>
<rscale>  0 0.12847749E+03</rscale>
<asrwt>0</asrwt>
<pdfrwt beam="1">  1        2 0.65452552E-01 0.12847749E+03</pdfrwt>
<pdfrwt beam="2">  1       -2 0.60575494E-02 0.12847749E+03</pdfrwt>
<totfact> 0.10286381E+04</totfact>
</mgrwt>
</event>
<event>
 4    3  0.8789582E-001  0.9405325E+02  0.7546771E-02  0.1293323E+00
         -1   -1    0    0    0  501 -0.00000000000E+00  0.00000000000E+00  0.43003256053E+01  0.43003256053E+01  0.00000000000E+00 0.  1.
          1   -1    0    0  501    0  0.00000000000E+00 -0.00000000000E+00 -0.21053771533E+04  0.21053771533E+04  0.00000000000E+00 0. -1.
         24    1    1    2    0    0  0.12040883493E+02 -0.47263201653E+02 -0.12103437808E+04  0.12139926181E+04  0.80419002446E+02 0. -1.
        -24    1    1    2    0    0 -0.12040883493E+02  0.47263201653E+02 -0.89073304689E+03  0.89568486081E+03  0.80419002446E+02 0.  1.
<mgrwt>
<rscale>  0 0.94053236E+02</rscale>
<asrwt>0</asrwt>
<pdfrwt beam="1">  1        1 0.32390453E+00 0.94053248E+02</pdfrwt>
<pdfrwt beam="2">  1       -1 0.66158783E-03 0.94053248E+02</pdfrwt>
<totfact> 0.94901226E+03</totfact>
</mgrwt>
</event>
<event>
 4    3  0.8789582E-001  0.8425105E+02  0.7546771E-02  0.1317403E+00
         -1   -1    0    0    0  501 -0.00000000000E+00  0.00000000000E+00  0.19218480489E+02  0.19218480489E+02  0.00000000000E+00 0.  1.
          1   -1    0    0  501    0  0.00000000000E+00 -0.00000000000E+00 -0.66063290764E+03  0.66063290764E+03  0.00000000000E+00 0. -1.
         24    1    1    2    0    0 -0.24806637238E+02  0.39565983970E+01 -0.94989574255E+02  0.12696952033E+03  0.80419002446E+02 0.  1.
        -24    1    1    2    0    0  0.24806637238E+02 -0.39565983970E+01 -0.54642485290E+03  0.55288186780E+03  0.80419002446E+02 0. -1.
<mgrwt>
<rscale>  0 0.84251053E+02</rscale>
<asrwt>0</asrwt>
<pdfrwt beam="1">  1        1 0.10163582E+00 0.84251053E+02</pdfrwt>
<pdfrwt beam="2">  1       -1 0.29566898E-02 0.84251053E+02</pdfrwt>
<totfact> 0.10891200E+04</totfact>
</mgrwt>
</event>
<event>
 4    3  0.8789582E-001  0.1731910E+03  0.7546771E-02  0.1174560E+00
          2   -1    0    0  501    0  0.00000000000E+00  0.00000000000E+00  0.19144521313E+04  0.19144521313E+04  0.00000000000E+00 0. -1.
         -2   -1    0    0    0  501 -0.00000000000E+00 -0.00000000000E+00 -0.15745389697E+02  0.15745389697E+02  0.00000000000E+00 0.  1.
         24    1    1    2    0    0 -0.10264346537E+03  0.11398351213E+03  0.10171277135E+04  0.10317673786E+04  0.80419002446E+02 0.  1.
        -24    1    1    2    0    0  0.10264346537E+03 -0.11398351213E+03  0.88157902804E+03  0.89843014233E+03  0.80419002446E+02 0. -1.
<mgrwt>
<rscale>  0 0.17319104E+03</rscale>
<asrwt>0</asrwt>
<pdfrwt beam="1">  1        2 0.29453091E+00 0.17319104E+03</pdfrwt>
<pdfrwt beam="2">  1       -2 0.24223692E-02 0.17319104E+03</pdfrwt>
<totfact> 0.47798995E+03</totfact>
</mgrwt>
</event>
<event>
 4    3  0.8789582E-001  0.8873036E+02  0.7546771E-02  0.1305956E+00
          1   -1    0    0  501    0  0.00000000000E+00  0.00000000000E+00  0.48085582507E+03  0.48085582507E+03  0.00000000000E+00 0. -1.
         -1   -1    0    0    0  501 -0.00000000000E+00 -0.00000000000E+00 -0.18815440525E+02  0.18815440525E+02  0.00000000000E+00 0.  1.
         24    1    1    2    0    0 -0.26290124413E+02  0.26733678291E+02  0.14100728356E+03  0.16660171118E+03  0.80419002446E+02 0.  1.
        -24    1    1    2    0    0  0.26290124413E+02 -0.26733678291E+02  0.32103310098E+03  0.33306955441E+03  0.80419002446E+02 0. -1.
<mgrwt>
<rscale>  0 0.88730356E+02</rscale>
<asrwt>0</asrwt>
<pdfrwt beam="1">  1        1 0.73977810E-01 0.88730356E+02</pdfrwt>
<pdfrwt beam="2">  1       -1 0.28946835E-02 0.88730356E+02</pdfrwt>
<totfact> 0.17149716E+04</totfact>
</mgrwt>
</event>
<event>
 4    3  0.8789582E-001  0.8570804E+02  0.7546771E-02  0.1313591E+00
         -2   -1    0    0    0  501 -0.00000000000E+00  0.00000000000E+00  0.15568353816E+02  0.15568353816E+02  0.00000000000E+00 0.  1.
          2   -1    0    0  501    0  0.00000000000E+00 -0.00000000000E+00 -0.53199209835E+03  0.53199209835E+03  0.00000000000E+00 0. -1.
         24    1    1    2    0    0  0.15356167771E+02  0.25354310841E+02 -0.35026793959E+03  0.36060157851E+03  0.80419002446E+02 0.  1.
        -24    1    1    2    0    0 -0.15356167771E+02 -0.25354310841E+02 -0.16615580494E+03  0.18695887365E+03  0.80419002446E+02 0. -1.
<mgrwt>
<rscale>  0 0.85708045E+02</rscale>
<asrwt>0</asrwt>
<pdfrwt beam="1">  1        2 0.81844936E-01 0.85708045E+02</pdfrwt>
<pdfrwt beam="2">  1       -2 0.23951314E-02 0.85708045E+02</pdfrwt>
<totfact> 0.30582103E+04</totfact>
</mgrwt>
</event>
<event>
 4    3  0.8789582E-001  0.8939708E+02  0.7546771E-02  0.1304318E+00
         -2   -1    0    0    0  501 -0.00000000000E+00  0.00000000000E+00  0.43292000599E+01  0.43292000599E+01  0.00000000000E+00 0.  1.
          2   -1    0    0  501    0  0.00000000000E+00 -0.00000000000E+00 -0.21529386091E+04  0.21529386091E+04  0.00000000000E+00 0. -1.
         24    1    1    2    0    0 -0.13938172617E+02  0.36473963791E+02 -0.14815554497E+04  0.14842501101E+04  0.80419002446E+02 0. -1.
        -24    1    1    2    0    0  0.13938172617E+02 -0.36473963791E+02 -0.66705395931E+03  0.67301769908E+03  0.80419002446E+02 0. -1.
<mgrwt>
<rscale>  0 0.89397084E+02</rscale>
<asrwt>0</asrwt>
<pdfrwt beam="1">  1        2 0.33122117E+00 0.89397084E+02</pdfrwt>
<pdfrwt beam="2">  1       -2 0.66603109E-03 0.89397084E+02</pdfrwt>
<totfact> 0.22508938E+04</totfact>
</mgrwt>
</event>
<event>
 4    3  0.8789582E-001  0.8082705E+02  0.7546771E-02  0.1326721E+00
          1   -1    0    0  501    0  0.00000000000E+00  0.00000000000E+00  0.80044620764E+03  0.80044620764E+03  0.00000000000E+00 0. -1.
         -1   -1    0    0    0  501 -0.00000000000E+00 -0.00000000000E+00 -0.17830871896E+02  0.17830871896E+02  0.00000000000E+00 0.  1.
         24    1    1    2    0    0 -0.76817981554E+01 -0.26049472744E+01  0.90022006644E+02  0.12098336005E+03  0.80419002446E+02 0.  1.
        -24    1    1    2    0    0  0.76817981554E+01  0.26049472744E+01  0.69259332910E+03  0.69729371949E+03  0.80419002446E+02 0. -1.
<mgrwt>
<rscale>  0 0.80827048E+02</rscale>
<asrwt>0</asrwt>
<pdfrwt beam="1">  1        1 0.12314554E+00 0.80827048E+02</pdfrwt>
<pdfrwt beam="2">  1       -1 0.27432117E-02 0.80827048E+02</pdfrwt>
<totfact> 0.92003936E+03</totfact>
</mgrwt>
</event>
<event>
 4    3  0.8789582E-001  0.1124481E+03  0.7546771E-02  0.1256102E+00
          1   -1    0    0  501    0  0.00000000000E+00  0.00000000000E+00  0.25106105530E+02  0.25106105530E+02  0.00000000000E+00 0. -1.
         -1   -1    0    0    0  501 -0.00000000000E+00 -0.00000000000E+00 -0.50415559273E+03  0.50415559273E+03  0.00000000000E+00 0.  1.
         24    1    1    2    0    0  0.57293169774E+02  0.53803812028E+02 -0.24794342808E+03  0.27225083467E+03  0.80419002446E+02 0. -1.
        -24    1    1    2    0    0 -0.57293169774E+02 -0.53803812028E+02 -0.23110605911E+03  0.25701086359E+03  0.80419002446E+02 0.  1.
<mgrwt>
<rscale>  0 0.11244809E+03</rscale>
<asrwt>0</asrwt>
<pdfrwt beam="1">  1        1 0.38624777E-02 0.11244809E+03</pdfrwt>
<pdfrwt beam="2">  1       -1 0.77562400E-01 0.11244809E+03</pdfrwt>
<totfact> 0.39323649E+03</totfact>
</mgrwt>
</event>
<event>
 4    3  0.8789582E-001  0.1241257E+03  0.7546771E-02  0.1236442E+00
          2   -1    0    0  501    0  0.00000000000E+00  0.00000000000E+00  0.47476189869E+03  0.47476189869E+03  0.00000000000E+00 0. -1.
         -2   -1    0    0    0  501 -0.00000000000E+00 -0.00000000000E+00 -0.56412270115E+02  0.56412270115E+02  0.00000000000E+00 0.  1.
         24    1    1    2    0    0 -0.85671211547E+01 -0.94162450156E+02  0.38226087617E+03  0.40190864135E+03  0.80419002446E+02 0. -1.
        -24    1    1    2    0    0  0.85671211547E+01  0.94162450156E+02  0.36088752403E+02  0.12926552746E+03  0.80419002446E+02 0.  1.
<mgrwt>
<rscale>  0 0.12412566E+03</rscale>
<asrwt>0</asrwt>
<pdfrwt beam="1">  1        2 0.73040290E-01 0.12412566E+03</pdfrwt>
<pdfrwt beam="2">  1       -2 0.86788111E-02 0.12412566E+03</pdfrwt>
<totfact> 0.52566456E+03</totfact>
</mgrwt>
</event>
<event>
 4    3  0.8789582E-001  0.8498759E+02  0.7546771E-02  0.1315465E+00
          2   -1    0    0  501    0  0.00000000000E+00  0.00000000000E+00  0.23445655808E+04  0.23445655808E+04  0.00000000000E+00 0. -1.
         -2   -1    0    0    0  501 -0.00000000000E+00 -0.00000000000E+00 -0.77303846160E+02  0.77303846160E+02  0.00000000000E+00 0.  1.
         24    1    1    2    0    0  0.16380841683E+02 -0.22075850316E+02  0.23201913289E+04  0.23217473363E+04  0.80419002446E+02 0. -1.
        -24    1    1    2    0    0 -0.16380841683E+02  0.22075850316E+02 -0.52929594214E+02  0.10012209067E+03  0.80419002446E+02 0.  1.
<mgrwt>
<rscale>  0 0.84987594E+02</rscale>
<asrwt>0</asrwt>
<pdfrwt beam="1">  1        2 0.36070234E+00 0.84987594E+02</pdfrwt>
<pdfrwt beam="2">  1       -2 0.11892901E-01 0.84987594E+02</pdfrwt>
<totfact> 0.26539329E+02</totfact>
</mgrwt>
</event>
<event>
 4    3  0.8789582E-001  0.8383853E+02  0.7546771E-02  0.1318498E+00
         -2   -1    0    0    0  501 -0.00000000000E+00  0.00000000000E+00  0.24117286888E+02  0.24117286888E+02  0.00000000000E+00 0.  1.
          2   -1    0    0  501    0  0.00000000000E+00 -0.00000000000E+00 -0.12288138920E+04  0.12288138920E+04  0.00000000000E+00 0. -1.
         24    1    1    2    0    0 -0.73924051028E-01 -0.23699754096E+02 -0.11495016706E+04  0.11525549837E+04  0.80419002446E+02 0. -1.
        -24    1    1    2    0    0  0.73924051028E-01  0.23699754096E+02 -0.55194934520E+02  0.10037619519E+03  0.80419002446E+02 0.  1.
<mgrwt>
<rscale>  0 0.83838534E+02</rscale>
<asrwt>0</asrwt>
<pdfrwt beam="1">  1        2 0.18904830E+00 0.83838534E+02</pdfrwt>
<pdfrwt beam="2">  1       -2 0.37103518E-02 0.83838534E+02</pdfrwt>
<totfact> 0.56854523E+03</totfact>
</mgrwt>
</event>
<event>
 4    3  0.8789582E-001  0.8515127E+02  0.7546771E-02  0.1315037E+00
         -2   -1    0    0    0  501 -0.00000000000E+00  0.00000000000E+00  0.91525455087E+02  0.91525455087E+02  0.00000000000E+00 0.  1.
          2   -1    0    0  501    0  0.00000000000E+00 -0.00000000000E+00 -0.79784601028E+02  0.79784601028E+02  0.00000000000E+00 0. -1.
         24    1    1    2    0    0 -0.18152822758E+02  0.21307240602E+02 -0.13285952065E+01  0.85161638052E+02  0.80419002446E+02 0.  0.
        -24    1    1    2    0    0  0.18152822758E+02 -0.21307240602E+02  0.13069449266E+02  0.86148418062E+02  0.80419002446E+02 0.  1.
<mgrwt>
<rscale>  0 0.85151274E+02</rscale>
<asrwt>0</asrwt>
<pdfrwt beam="1">  1        2 0.12274554E-01 0.85151274E+02</pdfrwt>
<pdfrwt beam="2">  1       -2 0.14080839E-01 0.85151274E+02</pdfrwt>
<totfact> 0.16708044E+04</totfact>
</mgrwt>
</event>
<event>
 4    3  0.8789582E-001  0.8943798E+02  0.7546771E-02  0.1304218E+00
          2   -1    0    0  501    0  0.00000000000E+00  0.00000000000E+00  0.20928464194E+02  0.20928464194E+02  0.00000000000E+00 0. -1.
         -2   -1    0    0    0  501 -0.00000000000E+00 -0.00000000000E+00 -0.41050777070E+03  0.41050777070E+03  0.00000000000E+00 0.  1.
         24    1    1    2    0    0 -0.20964466820E+02 -0.33051877622E+02 -0.13815639398E+03  0.16457928373E+03  0.80419002446E+02 0.  1.
        -24    1    1    2    0    0  0.20964466820E+02  0.33051877622E+02 -0.25142291253E+03  0.26685695116E+03  0.80419002446E+02 0.  0.
<mgrwt>
<rscale>  0 0.89437975E+02</rscale>
<asrwt>0</asrwt>
<pdfrwt beam="1">  1        2 0.32197638E-02 0.89437975E+02</pdfrwt>
<pdfrwt beam="2">  1       -2 0.63155040E-01 0.89437975E+02</pdfrwt>
<totfact> 0.61245380E+03</totfact>
</mgrwt>
</event>
<event>
 4    3  0.8789582E-001  0.9952555E+02  0.7546771E-02  0.1281297E+00
          1   -1    0    0  501    0  0.00000000000E+00  0.00000000000E+00  0.88693811563E+03  0.88693811563E+03  0.00000000000E+00 0. -1.
         -1   -1    0    0    0  501 -0.00000000000E+00 -0.00000000000E+00 -0.38676131591E+02  0.38676131591E+02  0.00000000000E+00 0.  1.
         24    1    1    2    0    0  0.44462399574E+02  0.38225828972E+02  0.33821621801E+02  0.10511535108E+03  0.80419002446E+02 0.  1.
        -24    1    1    2    0    0 -0.44462399574E+02 -0.38225828972E+02  0.81444036224E+03  0.82049889614E+03  0.80419002446E+02 0. -1.
<mgrwt>
<rscale>  0 0.99525549E+02</rscale>
<asrwt>0</asrwt>
<pdfrwt beam="1">  1        1 0.13645200E+00 0.99525549E+02</pdfrwt>
<pdfrwt beam="2">  1       -1 0.59501747E-02 0.99525549E+02</pdfrwt>
<totfact> 0.25843891E+03</totfact>
</mgrwt>
</event>
<event>
 4    3  0.8789582E-001  0.9879185E+02  0.7546771E-02  0.1282857E+00
         -2   -1    0    0    0  501 -0.00000000000E+00  0.00000000000E+00  0.16549580985E+02  0.16549580985E+02  0.00000000000E+00 0.  1.
          2   -1    0    0  501    0  0.00000000000E+00 -0.00000000000E+00 -0.85834985820E+03  0.85834985820E+03  0.00000000000E+00 0. -1.
         24    1    1    2    0    0 -0.55128215228E+02  0.15921502055E+02 -0.66561637693E+03  0.67290786259E+03  0.80419002446E+02 0.  0.
        -24    1    1    2    0    0  0.55128215228E+02 -0.15921502055E+02 -0.17618390028E+03  0.20199157659E+03  0.80419002446E+02 0.  1.
<mgrwt>
<rscale>  0 0.98791853E+02</rscale>
<asrwt>0</asrwt>
<pdfrwt beam="1">  1        2 0.13205383E+00 0.98791853E+02</pdfrwt>
<pdfrwt beam="2">  1       -2 0.25460894E-02 0.98791853E+02</pdfrwt>
<totfact> 0.16282868E+04</totfact>
</mgrwt>
</event>
<event>
 4    3  0.8789582E-001  0.1276119E+03  0.7546771E-02  0.1231043E+00
          2   -1    0    0  501    0  0.00000000000E+00  0.00000000000E+00  0.18465885275E+04  0.18465885275E+04  0.00000000000E+00 0. -1.
         -2   -1    0    0    0  501 -0.00000000000E+00 -0.00000000000E+00 -0.14929669709E+02  0.14929669709E+02  0.00000000000E+00 0.  1.
         24    1    1    2    0    0 -0.84756051915E+02 -0.51322341716E+02  0.15113022300E+04  0.15166803280E+04  0.80419002446E+02 0. -1.
        -24    1    1    2    0    0  0.84756051915E+02  0.51322341716E+02  0.32035662786E+03  0.34483786924E+03  0.80419002446E+02 0.  1.
<mgrwt>
<rscale>  0 0.12761186E+03</rscale>
<asrwt>0</asrwt>
<pdfrwt beam="1">  1        2 0.28409036E+00 0.12761186E+03</pdfrwt>
<pdfrwt beam="2">  1       -2 0.22968737E-02 0.12761186E+03</pdfrwt>
<totfact> 0.55708731E+03</totfact>
</mgrwt>
</event>
<event>
 4    3  0.8789582E-001  0.1080830E+03  0.7546771E-02  0.1264162E+00
         -2   -1    0    0    0  501 -0.00000000000E+00  0.00000000000E+00  0.10190189337E+03  0.10190189337E+03  0.00000000000E+00 0.  1.
          2   -1    0    0  501    0  0.00000000000E+00 -0.00000000000E+00 -0.11477420342E+03  0.11477420342E+03  0.00000000000E+00 0. -1.
         24    1    1    2    0    0 -0.72056839676E+02 -0.47476238642E+01 -0.10152787813E+02  0.10855884640E+03  0.80419002446E+02 0. -1.
        -24    1    1    2    0    0  0.72056839676E+02  0.47476238642E+01 -0.27195222413E+01  0.10811725039E+03  0.80419002446E+02 0.  0.
<mgrwt>
<rscale>  0 0.10808304E+03</rscale>
<asrwt>0</asrwt>
<pdfrwt beam="1">  1        2 0.17657570E-01 0.10808304E+03</pdfrwt>
<pdfrwt beam="2">  1       -2 0.15677214E-01 0.10808304E+03</pdfrwt>
<totfact> 0.94267205E+03</totfact>
</mgrwt>
</event>
<event>
 4    3  0.8789582E-001  0.8247442E+02  0.7546771E-02  0.1322173E+00
         -2   -1    0    0    0  501 -0.00000000000E+00  0.00000000000E+00  0.50445248398E+01  0.50445248398E+01  0.00000000000E+00 0.  1.
          2   -1    0    0  501    0  0.00000000000E+00 -0.00000000000E+00 -0.17747545573E+04  0.17747545573E+04  0.00000000000E+00 0. -1.
         24    1    1    2    0    0 -0.18194724644E+02 -0.19407336289E+01 -0.13210272174E+04  0.13235992367E+04  0.80419002446E+02 0. -1.
        -24    1    1    2    0    0  0.18194724644E+02  0.19407336289E+01 -0.44868281509E+03  0.45619984542E+03  0.80419002446E+02 0.  1.
<mgrwt>
<rscale>  0 0.82474423E+02</rscale>
<asrwt>0</asrwt>
<pdfrwt beam="1">  1        2 0.27303875E+00 0.82474423E+02</pdfrwt>
<pdfrwt beam="2">  1       -2 0.77608192E-03 0.82474423E+02</pdfrwt>
<totfact> 0.27940003E+04</totfact>
</mgrwt>
</event>
<event>
 4    3  0.8789582E-001  0.1081446E+03  0.7546771E-02  0.1264045E+00
         -1   -1    0    0    0  501 -0.00000000000E+00  0.00000000000E+00  0.19821745929E+02  0.19821745929E+02  0.00000000000E+00 0.  1.
          1   -1    0    0  501    0  0.00000000000E+00 -0.00000000000E+00 -0.11576390023E+04  0.11576390023E+04  0.00000000000E+00 0. -1.
         24    1    1    2    0    0 -0.53358237587E+02  0.48794806124E+02 -0.15666128392E+03  0.19036283371E+03  0.80419002446E+02 0. -1.
        -24    1    1    2    0    0  0.53358237587E+02 -0.48794806124E+02 -0.98115597243E+03  0.98709791450E+03  0.80419002446E+02 0.  0.
<mgrwt>
<rscale>  0 0.10814458E+03</rscale>
<asrwt>0</asrwt>
<pdfrwt beam="1">  1        1 0.17809833E+00 0.10814458E+03</pdfrwt>
<pdfrwt beam="2">  1       -1 0.30494991E-02 0.10814458E+03</pdfrwt>
<totfact> 0.43945895E+03</totfact>
</mgrwt>
</event>
<event>
 4    3  0.8789582E-001  0.9913517E+02  0.7546771E-02  0.1282125E+00
          1   -1    0    0  501    0  0.00000000000E+00  0.00000000000E+00  0.44691994463E+03  0.44691994463E+03  0.00000000000E+00 0. -1.
         -1   -1    0    0    0  501 -0.00000000000E+00 -0.00000000000E+00 -0.53724594121E+02  0.53724594121E+02  0.00000000000E+00 0.  1.
         24    1    1    2    0    0  0.11471496939E+02  0.56824032216E+02  0.42091337316E+01  0.99224486093E+02  0.80419002446E+02 0.  1.
        -24    1    1    2    0    0 -0.11471496939E+02 -0.56824032216E+02  0.38898621678E+03  0.40142005266E+03  0.80419002446E+02 0. -1.
<mgrwt>
<rscale>  0 0.99135170E+02</rscale>
<asrwt>0</asrwt>
<pdfrwt beam="1">  1        1 0.68756912E-01 0.99135170E+02</pdfrwt>
<pdfrwt beam="2">  1       -1 0.82653225E-02 0.99135170E+02</pdfrwt>
<totfact> 0.40806642E+03</totfact>
</mgrwt>
</event>
<event>
 4    3  0.8789582E-001  0.9627213E+02  0.7546771E-02  0.1288336E+00
         -2   -1    0    0    0  501 -0.00000000000E+00  0.00000000000E+00  0.37492667367E+03  0.37492667367E+03  0.00000000000E+00 0.  1.
          2   -1    0    0  501    0  0.00000000000E+00 -0.00000000000E+00 -0.25580576172E+02  0.25580576172E+02  0.00000000000E+00 0. -1.
         24    1    1    2    0    0 -0.44677877449E+01  0.52736572938E+02  0.13795086939E+03  0.16822236941E+03  0.80419002446E+02 0. -1.
        -24    1    1    2    0    0  0.44677877449E+01 -0.52736572938E+02  0.21139522811E+03  0.23228488043E+03  0.80419002446E+02 0.  1.
<mgrwt>
<rscale>  0 0.96272131E+02</rscale>
<asrwt>0</asrwt>
<pdfrwt beam="1">  1        2 0.39354735E-02 0.96272131E+02</pdfrwt>
<pdfrwt beam="2">  1       -2 0.57681023E-01 0.96272131E+02</pdfrwt>
<totfact> 0.56982042E+03</totfact>
</mgrwt>
</event>
<event>
 4    3  0.8789582E-001  0.9671453E+02  0.7546771E-02  0.1287361E+00
          2   -1    0    0  501    0  0.00000000000E+00  0.00000000000E+00  0.13027749749E+04  0.13027749749E+04  0.00000000000E+00 0. -1.
         -2   -1    0    0    0  501 -0.00000000000E+00 -0.00000000000E+00 -0.90043184433E+01  0.90043184433E+01  0.00000000000E+00 0.  1.
         24    1    1    2    0    0  0.36616677918E+02 -0.39315425599E+02  0.94212600655E+03  0.94707714150E+03  0.80419002446E+02 0. -1.
        -24    1    1    2    0    0 -0.36616677918E+02  0.39315425599E+02  0.35164464990E+03  0.36470215183E+03  0.80419002446E+02 0.  1.
<mgrwt>
<rscale>  0 0.96714527E+02</rscale>
<asrwt>0</asrwt>
<pdfrwt beam="1">  1        2 0.20042677E+00 0.96714527E+02</pdfrwt>
<pdfrwt beam="2">  1       -2 0.13852808E-02 0.96714527E+02</pdfrwt>
<totfact> 0.21686189E+04</totfact>
</mgrwt>
</event>
<event>
 4    3  0.8789582E-001  0.8634691E+02  0.7546771E-02  0.1311947E+00
         -1   -1    0    0    0  501 -0.00000000000E+00  0.00000000000E+00  0.30147767736E+03  0.30147767736E+03  0.00000000000E+00 0.  1.
          1   -1    0    0  501    0  0.00000000000E+00 -0.00000000000E+00 -0.11512753225E+03  0.11512753225E+03  0.00000000000E+00 0. -1.
         24    1    1    2    0    0  0.18672967634E+02 -0.25296116804E+02  0.27775370688E+03  0.29086579532E+03  0.80419002446E+02 0.  1.
        -24    1    1    2    0    0 -0.18672967634E+02  0.25296116804E+02 -0.91403561781E+02  0.12573941429E+03  0.80419002446E+02 0. -1.
<mgrwt>
<rscale>  0 0.86346912E+02</rscale>
<asrwt>0</asrwt>
<pdfrwt beam="1">  1        1 0.17711928E-01 0.86346912E+02</pdfrwt>
<pdfrwt beam="2">  1       -1 0.46381181E-01 0.86346912E+02</pdfrwt>
<totfact> 0.13652642E+03</totfact>
</mgrwt>
</event>
<event>
 4    3  0.8789582E-001  0.2101248E+03  0.7546771E-02  0.1141467E+00
          2   -1    0    0  501    0  0.00000000000E+00  0.00000000000E+00  0.13900672188E+04  0.13900672188E+04  0.00000000000E+00 0. -1.
         -2   -1    0    0    0  501 -0.00000000000E+00 -0.00000000000E+00 -0.32050896077E+02  0.32050896077E+02  0.00000000000E+00 0.  1.
         24    1    1    2    0    0 -0.18971443832E+03  0.41153617017E+02  0.61159159643E+03  0.64668128555E+03  0.80419002446E+02 0.  1.
        -24    1    1    2    0    0  0.18971443832E+03 -0.41153617017E+02  0.74642472626E+03  0.77543682930E+03  0.80419002446E+02 0. -1.
<mgrwt>
<rscale>  0 0.21012476E+03</rscale>
<asrwt>0</asrwt>
<pdfrwt beam="1">  1        2 0.21385645E+00 0.21012479E+03</pdfrwt>
<pdfrwt beam="2">  1       -2 0.49309082E-02 0.21012479E+03</pdfrwt>
<totfact> 0.31229372E+03</totfact>
</mgrwt>
</event>
<event>
 4    3  0.8789582E-001  0.8297767E+02  0.7546771E-02  0.1320807E+00
          2   -1    0    0  501    0  0.00000000000E+00  0.00000000000E+00  0.98056650436E+01  0.98056650436E+01  0.00000000000E+00 0. -1.
         -2   -1    0    0    0  501 -0.00000000000E+00 -0.00000000000E+00 -0.11801970066E+04  0.11801970066E+04  0.00000000000E+00 0.  1.
         24    1    1    2    0    0  0.20238273829E+02 -0.29138314900E+01 -0.20652246700E+03  0.22256869382E+03  0.80419002446E+02 0. -1.
        -24    1    1    2    0    0 -0.20238273829E+02  0.29138314900E+01 -0.96386887461E+03  0.96743397787E+03  0.80419002446E+02 0.  1.
<mgrwt>
<rscale>  0 0.82977672E+02</rscale>
<asrwt>0</asrwt>
<pdfrwt beam="1">  1        2 0.15085636E-02 0.82977672E+02</pdfrwt>
<pdfrwt beam="2">  1       -2 0.18156880E+00 0.82977672E+02</pdfrwt>
<totfact> 0.14265102E+03</totfact>
</mgrwt>
</event>
<event>
 4    3  0.8789582E-001  0.8409402E+02  0.7546771E-02  0.1317819E+00
         -2   -1    0    0    0  501 -0.00000000000E+00  0.00000000000E+00  0.80630064906E+01  0.80630064906E+01  0.00000000000E+00 0.  1.
          2   -1    0    0  501    0  0.00000000000E+00 -0.00000000000E+00 -0.13680153426E+04  0.13680153426E+04  0.00000000000E+00 0. -1.
         24    1    1    2    0    0 -0.37519140028E+01 -0.24300434883E+02 -0.10921545360E+04  0.10953872988E+04  0.80419002446E+02 0. -1.
        -24    1    1    2    0    0  0.37519140028E+01  0.24300434883E+02 -0.26779780010E+03  0.28069105024E+03  0.80419002446E+02 0.  1.
<mgrwt>
<rscale>  0 0.84094019E+02</rscale>
<asrwt>0</asrwt>
<pdfrwt beam="1">  1        2 0.21046400E+00 0.84094019E+02</pdfrwt>
<pdfrwt beam="2">  1       -2 0.12404620E-02 0.84094019E+02</pdfrwt>
<totfact> 0.23191686E+04</totfact>
</mgrwt>
</event>
<event>
 4    3  0.8789582E-001  0.9146728E+02  0.7546771E-02  0.1299337E+00
          1   -1    0    0  501    0  0.00000000000E+00  0.00000000000E+00  0.13361471137E+03  0.13361471137E+03  0.00000000000E+00 0. -1.
         -1   -1    0    0    0  501 -0.00000000000E+00 -0.00000000000E+00 -0.10217558396E+03  0.10217558396E+03  0.00000000000E+00 0.  1.
         24    1    1    2    0    0  0.43559643658E+02 -0.12670282484E+01 -0.57639636460E+02  0.10811378988E+03  0.80419002446E+02 0.  1.
        -24    1    1    2    0    0 -0.43559643658E+02  0.12670282484E+01  0.89078763869E+02  0.12767650545E+03  0.80419002446E+02 0. -1.
<mgrwt>
<rscale>  0 0.91467283E+02</rscale>
<asrwt>0</asrwt>
<pdfrwt beam="1">  1        1 0.20556109E-01 0.91467283E+02</pdfrwt>
<pdfrwt beam="2">  1       -1 0.15719321E-01 0.91467283E+02</pdfrwt>
<totfact> 0.67591970E+03</totfact>
</mgrwt>
</event>
<event>
 4    3  0.8789582E-001  0.8666922E+02  0.7546771E-02  0.1311124E+00
         -1   -1    0    0    0  501 -0.00000000000E+00  0.00000000000E+00  0.29367509774E+02  0.29367509774E+02  0.00000000000E+00 0.  1.
          1   -1    0    0  501    0  0.00000000000E+00 -0.00000000000E+00 -0.88455199564E+03  0.88455199564E+03  0.00000000000E+00 0. -1.
         24    1    1    2    0    0 -0.28710759016E+02  0.14833390902E+02 -0.42323595140E+02  0.96451230313E+02  0.80419002446E+02 0.  1.
        -24    1    1    2    0    0  0.28710759016E+02 -0.14833390902E+02 -0.81286089073E+03  0.81746827510E+03  0.80419002446E+02 0. -1.
<mgrwt>
<rscale>  0 0.86669217E+02</rscale>
<asrwt>0</asrwt>
<pdfrwt beam="1">  1        1 0.13608493E+00 0.86669217E+02</pdfrwt>
<pdfrwt beam="2">  1       -1 0.45180783E-02 0.86669217E+02</pdfrwt>
<totfact> 0.38656575E+03</totfact>
</mgrwt>
</event>
<event>
 4    3  0.8789582E-001  0.9020620E+02  0.7546771E-02  0.1302353E+00
          1   -1    0    0  501    0  0.00000000000E+00  0.00000000000E+00  0.17718474632E+04  0.17718474632E+04  0.00000000000E+00 0. -1.
         -1   -1    0    0    0  501 -0.00000000000E+00 -0.00000000000E+00 -0.65541285552E+01  0.65541285552E+01  0.00000000000E+00 0.  1.
         24    1    1    2    0    0 -0.83358052930E+00 -0.40856428776E+02  0.39617905452E+03  0.40631884257E+03  0.80419002446E+02 0.  1.
        -24    1    1    2    0    0  0.83358052930E+00  0.40856428776E+02  0.13691142801E+04  0.13720827492E+04  0.80419002446E+02 0. -1.
<mgrwt>
<rscale>  0 0.90206200E+02</rscale>
<asrwt>0</asrwt>
<pdfrwt beam="1">  1        1 0.27259154E+00 0.90206200E+02</pdfrwt>
<pdfrwt beam="2">  1       -1 0.10083289E-02 0.90206200E+02</pdfrwt>
<totfact> 0.84717683E+03</totfact>
</mgrwt>
</event>
<event>
 4    3  0.8789582E-001  0.8228340E+02  0.7546771E-02  0.1322694E+00
         -1   -1    0    0    0  501 -0.00000000000E+00  0.00000000000E+00  0.11057799433E+02  0.11057799433E+02  0.00000000000E+00 0.  1.
          1   -1    0    0  501    0  0.00000000000E+00 -0.00000000000E+00 -0.15220328058E+04  0.15220328058E+04  0.00000000000E+00 0. -1.
         24    1    1    2    0    0  0.17370621076E+02  0.12665308139E+01 -0.16285482013E+03  0.18246164247E+03  0.80419002446E+02 0.  1.
        -24    1    1    2    0    0 -0.17370621076E+02 -0.12665308139E+01 -0.13481201863E+04  0.13506289628E+04  0.80419002446E+02 0. -1.
<mgrwt>
<rscale>  0 0.82283404E+02</rscale>
<asrwt>0</asrwt>
<pdfrwt beam="1">  1        1 0.23415891E+00 0.82283404E+02</pdfrwt>
<pdfrwt beam="2">  1       -1 0.17011998E-02 0.82283404E+02</pdfrwt>
<totfact> 0.57835137E+03</totfact>
</mgrwt>
</event>
<event>
 4    3  0.8789582E-001  0.1006608E+03  0.7546771E-02  0.1278912E+00
          1   -1    0    0  501    0  0.00000000000E+00  0.00000000000E+00  0.24318766623E+04  0.24318766623E+04  0.00000000000E+00 0. -1.
         -1   -1    0    0    0  501 -0.00000000000E+00 -0.00000000000E+00 -0.13177546895E+02  0.13177546895E+02  0.00000000000E+00 0.  1.
         24    1    1    2    0    0 -0.19579254582E+02  0.57289119605E+02  0.19840594881E+03  0.22248039669E+03  0.80419002446E+02 0.  1.
        -24    1    1    2    0    0  0.19579254582E+02 -0.57289119605E+02  0.22202931666E+04  0.22225738125E+04  0.80419002446E+02 0. -1.
<mgrwt>
<rscale>  0 0.10066085E+03</rscale>
<asrwt>0</asrwt>
<pdfrwt beam="1">  1        1 0.37413451E+00 0.10066085E+03</pdfrwt>
<pdfrwt beam="2">  1       -1 0.20273168E-02 0.10066085E+03</pdfrwt>
<totfact> 0.12059992E+03</totfact>
</mgrwt>
</event>
<event>
 4    3  0.8789582E-001  0.8388856E+02  0.7546771E-02  0.1318365E+00
          2   -1    0    0  501    0  0.00000000000E+00  0.00000000000E+00  0.16295091692E+04  0.16295091692E+04  0.00000000000E+00 0. -1.
         -2   -1    0    0    0  501 -0.00000000000E+00 -0.00000000000E+00 -0.43532594750E+01  0.43532594750E+01  0.00000000000E+00 0.  1.
         24    1    1    2    0    0  0.21296002508E+02  0.10796032687E+02  0.88541232064E+03  0.88937746067E+03  0.80419002446E+02 0.  1.
        -24    1    1    2    0    0 -0.21296002508E+02 -0.10796032687E+02  0.73974358904E+03  0.74448496797E+03  0.80419002446E+02 0.  0.
<mgrwt>
<rscale>  0 0.83888557E+02</rscale>
<asrwt>0</asrwt>
<pdfrwt beam="1">  1        2 0.25069323E+00 0.83888557E+02</pdfrwt>
<pdfrwt beam="2">  1       -2 0.66973353E-03 0.83888557E+02</pdfrwt>
<totfact> 0.40689341E+04</totfact>
</mgrwt>
</event>
<event>
 4    3  0.8789582E-001  0.1488321E+03  0.7546771E-02  0.1201915E+00
          3   -1    0    0  501    0  0.00000000000E+00  0.00000000000E+00  0.33738515190E+03  0.33738515190E+03  0.00000000000E+00 0. -1.
         -3   -1    0    0    0  501 -0.00000000000E+00 -0.00000000000E+00 -0.79707653287E+02  0.79707653287E+02  0.00000000000E+00 0.  1.
         24    1    1    2    0    0 -0.91245655382E+02 -0.85778826157E+02  0.41273213332E+02  0.15444892598E+03  0.80419002446E+02 0. -1.
        -24    1    1    2    0    0  0.91245655382E+02  0.85778826157E+02  0.21640428528E+03  0.26264387921E+03  0.80419002446E+02 0.  0.
<mgrwt>
<rscale>  0 0.14883210E+03</rscale>
<asrwt>0</asrwt>
<pdfrwt beam="1">  1        3 0.51905407E-01 0.14883210E+03</pdfrwt>
<pdfrwt beam="2">  1       -3 0.12262716E-01 0.14883210E+03</pdfrwt>
<totfact> 0.45645316E+02</totfact>
</mgrwt>
</event>
<event>
 4    3  0.8789582E-001  0.8655493E+02  0.7546771E-02  0.1311416E+00
          1   -1    0    0  501    0  0.00000000000E+00  0.00000000000E+00  0.19424012966E+02  0.19424012966E+02  0.00000000000E+00 0. -1.
         -1   -1    0    0    0  501 -0.00000000000E+00 -0.00000000000E+00 -0.94522729646E+03  0.94522729646E+03  0.00000000000E+00 0.  1.
         24    1    1    2    0    0  0.31224477661E+02  0.70407477560E+01 -0.83399620080E+03  0.83847565202E+03  0.80419002446E+02 0.  1.
        -24    1    1    2    0    0 -0.31224477661E+02 -0.70407477560E+01 -0.91807082699E+02  0.12617565741E+03  0.80419002446E+02 0. -1.
<mgrwt>
<rscale>  0 0.86554931E+02</rscale>
<asrwt>0</asrwt>
<pdfrwt beam="1">  1        1 0.29883095E-02 0.86554931E+02</pdfrwt>
<pdfrwt beam="2">  1       -1 0.14541959E+00 0.86554931E+02</pdfrwt>
<totfact> 0.13438243E+03</totfact>
</mgrwt>
</event>
<event>
 4    3  0.8789582E-001  0.8315072E+02  0.7546771E-02  0.1320341E+00
          1   -1    0    0  501    0  0.00000000000E+00  0.00000000000E+00  0.20743602348E+03  0.20743602348E+03  0.00000000000E+00 0. -1.
         -1   -1    0    0    0  501 -0.00000000000E+00 -0.00000000000E+00 -0.33367271034E+02  0.33367271034E+02  0.00000000000E+00 0.  1.
         24    1    1    2    0    0 -0.32933849001E+00  0.21135607338E+02  0.91007131825E+02  0.12327342114E+03  0.80419002446E+02 0.  0.
        -24    1    1    2    0    0  0.32933849001E+00 -0.21135607338E+02  0.83061620620E+02  0.11752987338E+03  0.80419002446E+02 0.  0.
<mgrwt>
<rscale>  0 0.83150707E+02</rscale>
<asrwt>0</asrwt>
<pdfrwt beam="1">  1        1 0.31913234E-01 0.83150717E+02</pdfrwt>
<pdfrwt beam="2">  1       -1 0.51334264E-02 0.83150717E+02</pdfrwt>
<totfact> 0.20881902E+04</totfact>
</mgrwt>
</event>
<event>
 4    3  0.8789582E-001  0.9477933E+02  0.7546771E-02  0.1291674E+00
         -2   -1    0    0    0  501 -0.00000000000E+00  0.00000000000E+00  0.53161044708E+02  0.53161044708E+02  0.00000000000E+00 0.  1.
          2   -1    0    0  501    0  0.00000000000E+00 -0.00000000000E+00 -0.16917628463E+03  0.16917628463E+03  0.00000000000E+00 0. -1.
         24    1    1    2    0    0 -0.37338257336E+02  0.33492627381E+02 -0.54214468738E+02  0.10918940482E+03  0.80419002446E+02 0.  1.
        -24    1    1    2    0    0  0.37338257336E+02 -0.33492627381E+02 -0.61800771184E+02  0.11314792452E+03  0.80419002446E+02 0. -1.
<mgrwt>
<rscale>  0 0.94779321E+02</rscale>
<asrwt>0</asrwt>
<pdfrwt beam="1">  1        2 0.26027121E-01 0.94779333E+02</pdfrwt>
<pdfrwt beam="2">  1       -2 0.81786220E-02 0.94779333E+02</pdfrwt>
<totfact> 0.16891248E+04</totfact>
</mgrwt>
</event>
<event>
 4    3  0.8789582E-001  0.8408467E+02  0.7546771E-02  0.1317844E+00
          1   -1    0    0  501    0  0.00000000000E+00  0.00000000000E+00  0.15262468085E+04  0.15262468085E+04  0.00000000000E+00 0. -1.
         -1   -1    0    0    0  501 -0.00000000000E+00 -0.00000000000E+00 -0.63981160292E+01  0.63981160292E+01  0.00000000000E+00 0.  1.
         24    1    1    2    0    0 -0.23292028702E+02  0.77780035609E+01  0.35735360374E+03  0.36711283007E+03  0.80419002446E+02 0.  1.
        -24    1    1    2    0    0  0.23292028702E+02 -0.77780035609E+01  0.11624950887E+04  0.11655320944E+04  0.80419002446E+02 0. -1.
<mgrwt>
<rscale>  0 0.84084671E+02</rscale>
<asrwt>0</asrwt>
<pdfrwt beam="1">  1        1 0.23480691E+00 0.84084671E+02</pdfrwt>
<pdfrwt beam="2">  1       -1 0.98432676E-03 0.84084671E+02</pdfrwt>
<totfact> 0.12463971E+04</totfact>
</mgrwt>
</event>
<event>
 4    3  0.8789582E-001  0.8259976E+02  0.7546771E-02  0.1321831E+00
         -2   -1    0    0    0  501 -0.00000000000E+00  0.00000000000E+00  0.44781841898E+03  0.44781841898E+03  0.00000000000E+00 0.  1.
          2   -1    0    0  501    0  0.00000000000E+00 -0.00000000000E+00 -0.23338463328E+02  0.23338463328E+02  0.00000000000E+00 0. -1.
         24    1    1    2    0    0  0.15466665399E+02  0.10783639536E+02  0.73429462711E+02  0.11051971122E+03  0.80419002446E+02 0. -1.
        -24    1    1    2    0    0 -0.15466665399E+02 -0.10783639536E+02  0.35105049294E+03  0.36063717109E+03  0.80419002446E+02 0.  1.
<mgrwt>
<rscale>  0 0.82599761E+02</rscale>
<asrwt>0</asrwt>
<pdfrwt beam="1">  1        2 0.35905331E-02 0.82599761E+02</pdfrwt>
<pdfrwt beam="2">  1       -2 0.68895135E-01 0.82599761E+02</pdfrwt>
<totfact> 0.43925605E+03</totfact>
</mgrwt>
</event>
<event>
 4    3  0.8789582E-001  0.8689751E+02  0.7546771E-02  0.1310544E+00
          1   -1    0    0  501    0  0.00000000000E+00  0.00000000000E+00  0.72339417036E+03  0.72339417036E+03  0.00000000000E+00 0. -1.
         -1   -1    0    0    0  501 -0.00000000000E+00 -0.00000000000E+00 -0.12148962895E+02  0.12148962895E+02  0.00000000000E+00 0.  1.
         24    1    1    2    0    0  0.19204914392E+00 -0.32922999814E+02  0.21762844960E+03  0.23433591024E+03  0.80419002446E+02 0.  0.
        -24    1    1    2    0    0 -0.19204914392E+00  0.32922999814E+02  0.49361675786E+03  0.50120722301E+03  0.80419002446E+02 0.  0.
<mgrwt>
<rscale>  0 0.86897507E+02</rscale>
<asrwt>0</asrwt>
<pdfrwt beam="1">  1        1 0.11129138E+00 0.86897507E+02</pdfrwt>
<pdfrwt beam="2">  1       -1 0.18690718E-02 0.86897507E+02</pdfrwt>
<totfact> 0.18531882E+04</totfact>
</mgrwt>
</event>
<event>
 4    3  0.8789582E-001  0.8334147E+02  0.7546771E-02  0.1319828E+00
          1   -1    0    0  501    0  0.00000000000E+00  0.00000000000E+00  0.32569736490E+04  0.32569736490E+04  0.00000000000E+00 0. -1.
         -1   -1    0    0    0  501 -0.00000000000E+00 -0.00000000000E+00 -0.23390629121E+01  0.23390629121E+01  0.00000000000E+00 0.  1.
         24    1    1    2    0    0  0.15370815852E+02  0.15566743203E+02  0.11431418575E+04  0.11461758625E+04  0.80419002446E+02 0.  0.
        -24    1    1    2    0    0 -0.15370815852E+02 -0.15566743203E+02  0.21114927286E+04  0.21131368494E+04  0.80419002446E+02 0.  0.
<mgrwt>
<rscale>  0 0.83341475E+02</rscale>
<asrwt>0</asrwt>
<pdfrwt beam="1">  1        1 0.50106924E+00 0.83341475E+02</pdfrwt>
<pdfrwt beam="2">  1       -1 0.35985844E-03 0.83341475E+02</pdfrwt>
<totfact> 0.38678513E+03</totfact>
</mgrwt>
</event>
<event>
 4    3  0.8789582E-001  0.8433601E+02  0.7546771E-02  0.1317178E+00
         -2   -1    0    0    0  501 -0.00000000000E+00  0.00000000000E+00  0.19646468467E+02  0.19646468467E+02  0.00000000000E+00 0.  1.
          2   -1    0    0  501    0  0.00000000000E+00 -0.00000000000E+00 -0.76395661980E+03  0.76395661980E+03  0.00000000000E+00 0. -1.
         24    1    1    2    0    0 -0.90299753063E+01 -0.23744605277E+02 -0.65634358063E+03  0.66173972113E+03  0.80419002446E+02 0. -1.
        -24    1    1    2    0    0  0.90299753063E+01  0.23744605277E+02 -0.87966570698E+02  0.12186336713E+03  0.80419002446E+02 0.  1.
<mgrwt>
<rscale>  0 0.84336011E+02</rscale>
<asrwt>0</asrwt>
<pdfrwt beam="1">  1        2 0.11753177E+00 0.84336011E+02</pdfrwt>
<pdfrwt beam="2">  1       -2 0.30225342E-02 0.84336011E+02</pdfrwt>
<totfact> 0.14458832E+04</totfact>
</mgrwt>
</event>
<event>
 4    3  0.8789582E-001  0.8237888E+02  0.7546771E-02  0.1322433E+00
          2   -1    0    0  501    0  0.00000000000E+00  0.00000000000E+00  0.22372683040E+04  0.22372683040E+04  0.00000000000E+00 0. -1.
         -2   -1    0    0    0  501 -0.00000000000E+00 -0.00000000000E+00 -0.53985992932E+01  0.53985992932E+01  0.00000000000E+00 0.  1.
         24    1    1    2    0    0 -0.14807997014E+02  0.99893661639E+01  0.18581645727E+04  0.18599897471E+04  0.80419002446E+02 0. -1.
        -24    1    1    2    0    0  0.14807997014E+02 -0.99893661639E+01  0.37370513202E+03  0.38267715618E+03  0.80419002446E+02 0.  1.
<mgrwt>
<rscale>  0 0.82378882E+02</rscale>
<asrwt>0</asrwt>
<pdfrwt beam="1">  1        2 0.34419438E+00 0.82378882E+02</pdfrwt>
<pdfrwt beam="2">  1       -2 0.83055552E-03 0.82378882E+02</pdfrwt>
<totfact> 0.14887204E+04</totfact>
</mgrwt>
</event>
<event>
 4    3  0.8789582E-001  0.1368731E+03  0.7546771E-02  0.1217600E+00
         -2   -1    0    0    0  501 -0.00000000000E+00  0.00000000000E+00  0.11746363404E+02  0.11746363404E+02  0.00000000000E+00 0.  1.
          2   -1    0    0  501    0  0.00000000000E+00 -0.00000000000E+00 -0.27767137289E+04  0.27767137289E+04  0.00000000000E+00 0. -1.
         24    1    1    2    0    0 -0.78583558304E+02 -0.78048966112E+02 -0.22920702977E+04  0.22961534100E+04  0.80419002446E+02 0. -1.
        -24    1    1    2    0    0  0.78583558304E+02  0.78048966112E+02 -0.47289706782E+03  0.49230668231E+03  0.80419002446E+02 0.  1.
<mgrwt>
<rscale>  0 0.13687305E+03</rscale>
<asrwt>0</asrwt>
<pdfrwt beam="1">  1        2 0.42718693E+00 0.13687305E+03</pdfrwt>
<pdfrwt beam="2">  1       -2 0.18071320E-02 0.13687305E+03</pdfrwt>
<totfact> 0.25599232E+03</totfact>
</mgrwt>
</event>
<event>
 4    3  0.8789582E-001  0.8762225E+02  0.7546771E-02  0.1308714E+00
         -2   -1    0    0    0  501 -0.00000000000E+00  0.00000000000E+00  0.14968778649E+04  0.14968778649E+04  0.00000000000E+00 0.  1.
          2   -1    0    0  501    0  0.00000000000E+00 -0.00000000000E+00 -0.15496203332E+02  0.15496203332E+02  0.00000000000E+00 0. -1.
         24    1    1    2    0    0  0.87675954130E+01 -0.33668555445E+02  0.12218331913E+03  0.15035432080E+03  0.80419002446E+02 0. -1.
        -24    1    1    2    0    0 -0.87675954130E+01  0.33668555445E+02  0.13591983424E+04  0.13620197474E+04  0.80419002446E+02 0.  1.
<mgrwt>
<rscale>  0 0.87622248E+02</rscale>
<asrwt>0</asrwt>
<pdfrwt beam="1">  1        2 0.23840325E-02 0.87622248E+02</pdfrwt>
<pdfrwt beam="2">  1       -2 0.23028879E+00 0.87622248E+02</pdfrwt>
<totfact> 0.39074652E+02</totfact>
</mgrwt>
</event>
<event>
 4    3  0.8789582E-001  0.8112487E+02  0.7546771E-02  0.1325889E+00
         -3   -1    0    0    0  501 -0.00000000000E+00  0.00000000000E+00  0.43001345730E+03  0.43001345730E+03  0.00000000000E+00 0.  1.
          3   -1    0    0  501    0  0.00000000000E+00 -0.00000000000E+00 -0.16423178570E+02  0.16423178570E+02  0.00000000000E+00 0. -1.
         24    1    1    2    0    0  0.93190793700E+01  0.52136947812E+01  0.26504668465E+03  0.27718403426E+03  0.80419002446E+02 0.  1.
        -24    1    1    2    0    0 -0.93190793700E+01 -0.52136947812E+01  0.14854359409E+03  0.16925260161E+03  0.80419002446E+02 0.  0.
<mgrwt>
<rscale>  0 0.81124866E+02</rscale>
<asrwt>0</asrwt>
<pdfrwt beam="1">  1        3 0.25266432E-02 0.81124866E+02</pdfrwt>
<pdfrwt beam="2">  1       -3 0.66155908E-01 0.81124866E+02</pdfrwt>
<totfact> 0.30712917E+03</totfact>
</mgrwt>
</event>
<event>
 4    3  0.8789582E-001  0.9305321E+02  0.7546771E-02  0.1295622E+00
         -1   -1    0    0    0  501 -0.00000000000E+00  0.00000000000E+00  0.52721734651E+02  0.52721734651E+02  0.00000000000E+00 0.  1.
          1   -1    0    0  501    0  0.00000000000E+00 -0.00000000000E+00 -0.16458279402E+03  0.16458279402E+03  0.00000000000E+00 0. -1.
         24    1    1    2    0    0  0.37890071990E+02 -0.27495866541E+02 -0.60905818527E+02  0.11121337562E+03  0.80419002446E+02 0. -1.
        -24    1    1    2    0    0 -0.37890071990E+02  0.27495866541E+02 -0.50955240845E+02  0.10609115305E+03  0.80419002446E+02 0.  1.
<mgrwt>
<rscale>  0 0.93053202E+02</rscale>
<asrwt>0</asrwt>
<pdfrwt beam="1">  1        1 0.25320430E-01 0.93053213E+02</pdfrwt>
<pdfrwt beam="2">  1       -1 0.81110361E-02 0.93053213E+02</pdfrwt>
<totfact> 0.14296766E+04</totfact>
</mgrwt>
</event>
<event>
 4    3  0.8789582E-001  0.1393195E+03  0.7546771E-02  0.1214248E+00
          1   -1    0    0  501    0  0.00000000000E+00  0.00000000000E+00  0.15075925758E+03  0.15075925758E+03  0.00000000000E+00 0. -1.
         -1   -1    0    0    0  501 -0.00000000000E+00 -0.00000000000E+00 -0.13035250821E+03  0.13035250821E+03  0.00000000000E+00 0.  1.
         24    1    1    2    0    0 -0.95222945963E+02  0.62251871644E+02  0.25798505009E+02  0.14168798035E+03  0.80419002446E+02 0.  1.
        -24    1    1    2    0    0  0.95222945963E+02 -0.62251871644E+02 -0.53917556372E+01  0.13942378543E+03  0.80419002446E+02 0. -1.
<mgrwt>
<rscale>  0 0.13931951E+03</rscale>
<asrwt>0</asrwt>
<pdfrwt beam="1">  1        1 0.23193732E-01 0.13931953E+03</pdfrwt>
<pdfrwt beam="2">  1       -1 0.20054232E-01 0.13931953E+03</pdfrwt>
<totfact> 0.40661561E+03</totfact>
</mgrwt>
</event>
<event>
 4    3  0.8789582E-001  0.8134413E+02  0.7546771E-02  0.1325280E+00
         -2   -1    0    0    0  501 -0.00000000000E+00  0.00000000000E+00  0.23919061519E+02  0.23919061519E+02  0.00000000000E+00 0.  1.
          2   -1    0    0  501    0  0.00000000000E+00 -0.00000000000E+00 -0.37758291041E+03  0.37758291041E+03  0.00000000000E+00 0. -1.
         24    1    1    2    0    0 -0.11997017846E+02 -0.23923024341E+01 -0.28063221696E+03  0.29218368999E+03  0.80419002446E+02 0. -1.
        -24    1    1    2    0    0  0.11997017846E+02  0.23923024341E+01 -0.73031631928E+02  0.10931828193E+03  0.80419002446E+02 0.  0.
<mgrwt>
<rscale>  0 0.81344130E+02</rscale>
<asrwt>0</asrwt>
<pdfrwt beam="1">  1        2 0.58089672E-01 0.81344130E+02</pdfrwt>
<pdfrwt beam="2">  1       -2 0.36798560E-02 0.81344130E+02</pdfrwt>
<totfact> 0.23479850E+04</totfact>
</mgrwt>
</event>
<event>
 4    3  0.8789582E-001  0.1297590E+03  0.7546771E-02  0.1227814E+00
          2   -1    0    0  501    0  0.00000000000E+00  0.00000000000E+00  0.18724863639E+03  0.18724863639E+03  0.00000000000E+00 0. -1.
         -2   -1    0    0    0  501 -0.00000000000E+00 -0.00000000000E+00 -0.18686114734E+03  0.18686114734E+03  0.00000000000E+00 0.  1.
         24    1    1    2    0    0 -0.77438905582E+02 -0.66131715183E+02  0.13492351371E+03  0.18719443997E+03  0.80419002446E+02 0. -1.
        -24    1    1    2    0    0  0.77438905582E+02  0.66131715183E+02 -0.13453602465E+03  0.18691534376E+03  0.80419002446E+02 0.  1.
<mgrwt>
<rscale>  0 0.12975902E+03</rscale>
<asrwt>0</asrwt>
<pdfrwt beam="1">  1        2 0.28807483E-01 0.12975902E+03</pdfrwt>
<pdfrwt beam="2">  1       -2 0.28747869E-01 0.12975902E+03</pdfrwt>
<totfact> 0.19710881E+03</totfact>
</mgrwt>
</event>
<event>
 4    3  0.8789582E-001  0.9507841E+02  0.7546771E-02  0.1291000E+00
         -1   -1    0    0    0  501 -0.00000000000E+00  0.00000000000E+00  0.28889565622E+02  0.28889565622E+02  0.00000000000E+00 0.  1.
          1   -1    0    0  501    0  0.00000000000E+00 -0.00000000000E+00 -0.14912013608E+04  0.14912013608E+04  0.00000000000E+00 0. -1.
         24    1    1    2    0    0  0.12185789327E+02 -0.49236113505E+02 -0.55543946141E+02  0.11011373321E+03  0.80419002446E+02 0.  1.
        -24    1    1    2    0    0 -0.12185789327E+02  0.49236113505E+02 -0.14067678491E+04  0.14099771932E+04  0.80419002446E+02 0. -1.
<mgrwt>
<rscale>  0 0.95078411E+02</rscale>
<asrwt>0</asrwt>
<pdfrwt beam="1">  1        1 0.22941569E+00 0.95078411E+02</pdfrwt>
<pdfrwt beam="2">  1       -1 0.44445466E-02 0.95078411E+02</pdfrwt>
<totfact> 0.15277881E+03</totfact>
</mgrwt>
</event>
<event>
 4    3  0.8789582E-001  0.8709453E+02  0.7546771E-02  0.1310044E+00
          2   -1    0    0  501    0  0.00000000000E+00  0.00000000000E+00  0.10462377448E+03  0.10462377448E+03  0.00000000000E+00 0. -1.
         -2   -1    0    0    0  501 -0.00000000000E+00 -0.00000000000E+00 -0.11307845377E+03  0.11307845377E+03  0.00000000000E+00 0.  1.
         24    1    1    2    0    0  0.14092554685E+01  0.33410404284E+02  0.60977338527E+02  0.10631882657E+03  0.80419002446E+02 0. -1.
        -24    1    1    2    0    0 -0.14092554685E+01 -0.33410404284E+02 -0.69432017820E+02  0.11138340167E+03  0.80419002446E+02 0.  1.
<mgrwt>
<rscale>  0 0.87094530E+02</rscale>
<asrwt>0</asrwt>
<pdfrwt beam="1">  1        2 0.16095965E-01 0.87094530E+02</pdfrwt>
<pdfrwt beam="2">  1       -2 0.17396685E-01 0.87094530E+02</pdfrwt>
<totfact> 0.86674142E+03</totfact>
</mgrwt>
</event>
<event>
 4    3  0.8789582E-001  0.8980342E+02  0.7546771E-02  0.1303328E+00
          2   -1    0    0  501    0  0.00000000000E+00  0.00000000000E+00  0.99431939615E+03  0.99431939615E+03  0.00000000000E+00 0. -1.
         -2   -1    0    0    0  501 -0.00000000000E+00 -0.00000000000E+00 -0.53672479973E+02  0.53672479973E+02  0.00000000000E+00 0.  1.
         24    1    1    2    0    0  0.15419023876E+02 -0.36873998824E+02  0.95310682313E+03  0.95732819364E+03  0.80419002446E+02 0. -1.
        -24    1    1    2    0    0 -0.15419023876E+02  0.36873998824E+02 -0.12459906950E+02  0.90663682487E+02  0.80419002446E+02 0.  1.
<mgrwt>
<rscale>  0 0.89803419E+02</rscale>
<asrwt>0</asrwt>
<pdfrwt beam="1">  1        2 0.15297220E+00 0.89803419E+02</pdfrwt>
<pdfrwt beam="2">  1       -2 0.82573054E-02 0.89803419E+02</pdfrwt>
<totfact> 0.23342732E+03</totfact>
</mgrwt>
</event>
<event>
 4    3  0.8789582E-001  0.9052315E+02  0.7546771E-02  0.1301590E+00
         -1   -1    0    0    0  501 -0.00000000000E+00  0.00000000000E+00  0.21480397136E+02  0.21480397136E+02  0.00000000000E+00 0.  1.
          1   -1    0    0  501    0  0.00000000000E+00 -0.00000000000E+00 -0.50542666261E+03  0.50542666261E+03  0.00000000000E+00 0. -1.
         24    1    1    2    0    0 -0.23533095061E+02  0.34255202667E+02 -0.11151106765E+03  0.14362854742E+03  0.80419002446E+02 0.  1.
        -24    1    1    2    0    0  0.23533095061E+02 -0.34255202667E+02 -0.37243519783E+03  0.38327851232E+03  0.80419002446E+02 0. -1.
<mgrwt>
<rscale>  0 0.90523154E+02</rscale>
<asrwt>0</asrwt>
<pdfrwt beam="1">  1        1 0.77757947E-01 0.90523154E+02</pdfrwt>
<pdfrwt beam="2">  1       -1 0.33046765E-02 0.90523154E+02</pdfrwt>
<totfact> 0.13318996E+04</totfact>
</mgrwt>
</event>
<event>
 4    3  0.8789582E-001  0.9155654E+02  0.7546771E-02  0.1299126E+00
         -2   -1    0    0    0  501 -0.00000000000E+00  0.00000000000E+00  0.30056170274E+01  0.30056170274E+01  0.00000000000E+00 0.  1.
          2   -1    0    0  501    0  0.00000000000E+00 -0.00000000000E+00 -0.28899594265E+04  0.28899594265E+04  0.00000000000E+00 0. -1.
         24    1    1    2    0    0  0.67158027018E+01  0.43246752517E+02 -0.17138654025E+04  0.17163091847E+04  0.80419002446E+02 0. -1.
        -24    1    1    2    0    0 -0.67158027018E+01 -0.43246752517E+02 -0.11730884069E+04  0.11766558588E+04  0.80419002446E+02 0.  1.
<mgrwt>
<rscale>  0 0.91556538E+02</rscale>
<asrwt>0</asrwt>
<pdfrwt beam="1">  1        2 0.44460973E+00 0.91556538E+02</pdfrwt>
<pdfrwt beam="2">  1       -2 0.46240201E-03 0.91556538E+02</pdfrwt>
<totfact> 0.15339624E+04</totfact>
</mgrwt>
</event>
<event>
 4    3  0.8789582E-001  0.8369839E+02  0.7546771E-02  0.1318872E+00
         -1   -1    0    0    0  501 -0.00000000000E+00  0.00000000000E+00  0.45657599533E+02  0.45657599533E+02  0.00000000000E+00 0.  1.
          1   -1    0    0  501    0  0.00000000000E+00 -0.00000000000E+00 -0.22966386879E+03  0.22966386879E+03  0.00000000000E+00 0. -1.
         24    1    1    2    0    0  0.14066131971E+02  0.18448528339E+02 -0.12693340504E+02  0.84655425780E+02  0.80419002446E+02 0.  1.
        -24    1    1    2    0    0 -0.14066131971E+02 -0.18448528339E+02 -0.17131292875E+03  0.19066604254E+03  0.80419002446E+02 0.  0.
<mgrwt>
<rscale>  0 0.83698388E+02</rscale>
<asrwt>0</asrwt>
<pdfrwt beam="1">  1        1 0.35332903E-01 0.83698388E+02</pdfrwt>
<pdfrwt beam="2">  1       -1 0.70242461E-02 0.83698388E+02</pdfrwt>
<totfact> 0.11639026E+04</totfact>
</mgrwt>
</event>
<event>
 4    3  0.8789582E-001  0.8564163E+02  0.7546771E-02  0.1313763E+00
          2   -1    0    0  501    0  0.00000000000E+00  0.00000000000E+00  0.10797518102E+04  0.10797518102E+04  0.00000000000E+00 0. -1.
         -2   -1    0    0    0  501 -0.00000000000E+00 -0.00000000000E+00 -0.68304596071E+01  0.68304596071E+01  0.00000000000E+00 0.  1.
         24    1    1    2    0    0  0.14095312513E+02  0.25857210203E+02  0.57682586456E+03  0.58314883790E+03  0.80419002446E+02 0.  1.
        -24    1    1    2    0    0 -0.14095312513E+02 -0.25857210203E+02  0.49609548606E+03  0.50343343194E+03  0.80419002446E+02 0.  0.
<mgrwt>
<rscale>  0 0.85641632E+02</rscale>
<asrwt>0</asrwt>
<pdfrwt beam="1">  1        2 0.16611553E+00 0.85641632E+02</pdfrwt>
<pdfrwt beam="2">  1       -2 0.10508408E-02 0.85641632E+02</pdfrwt>
<totfact> 0.42019072E+04</totfact>
</mgrwt>
</event>
<event>
 4    3  0.8789582E-001  0.8096874E+02  0.7546771E-02  0.1326325E+00
         -2   -1    0    0    0  501 -0.00000000000E+00  0.00000000000E+00  0.24963110775E+03  0.24963110775E+03  0.00000000000E+00 0.  1.
          2   -1    0    0  501    0  0.00000000000E+00 -0.00000000000E+00 -0.29248182797E+03  0.29248182797E+03  0.00000000000E+00 0. -1.
         24    1    1    2    0    0 -0.86764642006E+01 -0.36660563828E+01 -0.28002631370E+03  0.29149729556E+03  0.80419002446E+02 0. -1.
        -24    1    1    2    0    0  0.86764642006E+01  0.36660563828E+01  0.23717559347E+03  0.25061564016E+03  0.80419002446E+02 0.  1.
<mgrwt>
<rscale>  0 0.80968741E+02</rscale>
<asrwt>0</asrwt>
<pdfrwt beam="1">  1        2 0.44997204E-01 0.80968741E+02</pdfrwt>
<pdfrwt beam="2">  1       -2 0.38404786E-01 0.80968741E+02</pdfrwt>
<totfact> 0.71428912E+02</totfact>
</mgrwt>
</event>
<event>
 4    3  0.8789582E-001  0.8796113E+02  0.7546771E-02  0.1307866E+00
         -2   -1    0    0    0  501 -0.00000000000E+00  0.00000000000E+00  0.33359097877E+01  0.33359097877E+01  0.00000000000E+00 0.  1.
          2   -1    0    0  501    0  0.00000000000E+00 -0.00000000000E+00 -0.25437315600E+04  0.25437315600E+04  0.00000000000E+00 0. -1.
         24    1    1    2    0    0  0.50341842448E+01 -0.35278853279E+02 -0.89196056500E+03  0.89628723407E+03  0.80419002446E+02 0.  1.
        -24    1    1    2    0    0 -0.50341842448E+01  0.35278853279E+02 -0.16484350852E+04  0.16507802357E+04  0.80419002446E+02 0. -1.
<mgrwt>
<rscale>  0 0.87961119E+02</rscale>
<asrwt>0</asrwt>
<pdfrwt beam="1">  1        2 0.39134276E+00 0.87961130E+02</pdfrwt>
<pdfrwt beam="2">  1       -2 0.51321763E-03 0.87961130E+02</pdfrwt>
<totfact> 0.20382990E+04</totfact>
</mgrwt>
</event>
<event>
 4    3  0.8789582E-001  0.1255820E+03  0.7546771E-02  0.1234162E+00
          1   -1    0    0  501    0  0.00000000000E+00  0.00000000000E+00  0.10074707949E+04  0.10074707949E+04  0.00000000000E+00 0. -1.
         -1   -1    0    0    0  501 -0.00000000000E+00 -0.00000000000E+00 -0.19026520417E+02  0.19026520417E+02  0.00000000000E+00 0.  1.
         24    1    1    2    0    0  0.57541719845E+02 -0.77411773482E+02  0.27813356491E+03  0.30517065403E+03  0.80419002446E+02 0.  1.
        -24    1    1    2    0    0 -0.57541719845E+02  0.77411773482E+02  0.71031070958E+03  0.72132666130E+03  0.80419002446E+02 0. -1.
<mgrwt>
<rscale>  0 0.12558204E+03</rscale>
<asrwt>0</asrwt>
<pdfrwt beam="1">  1        1 0.15499546E+00 0.12558204E+03</pdfrwt>
<pdfrwt beam="2">  1       -1 0.29271578E-02 0.12558204E+03</pdfrwt>
<totfact> 0.59884189E+03</totfact>
</mgrwt>
</event>
<event>
 4    3  0.8789582E-001  0.8403001E+02  0.7546771E-02  0.1317989E+00
          1   -1    0    0  501    0  0.00000000000E+00  0.00000000000E+00  0.21313631858E+04  0.21313631858E+04  0.00000000000E+00 0. -1.
         -1   -1    0    0    0  501 -0.00000000000E+00 -0.00000000000E+00 -0.49525312597E+01  0.49525312597E+01  0.00000000000E+00 0.  1.
         24    1    1    2    0    0  0.23969855233E+02  0.43899941350E+01  0.44860627569E+03  0.45640840544E+03  0.80419002446E+02 0.  0.
        -24    1    1    2    0    0 -0.23969855233E+02 -0.43899941350E+01  0.16778043789E+04  0.16799073117E+04  0.80419002446E+02 0.  1.
<mgrwt>
<rscale>  0 0.84030006E+02</rscale>
<asrwt>0</asrwt>
<pdfrwt beam="1">  1        1 0.32790130E+00 0.84030006E+02</pdfrwt>
<pdfrwt beam="2">  1       -1 0.76192959E-03 0.84030006E+02</pdfrwt>
<totfact> 0.74593296E+03</totfact>
</mgrwt>
</event>
<event>
 4    3  0.8789582E-001  0.8512498E+02  0.7546771E-02  0.1315106E+00
          2   -1    0    0  501    0  0.00000000000E+00  0.00000000000E+00  0.61127908070E+03  0.61127908070E+03  0.00000000000E+00 0. -1.
         -2   -1    0    0    0  501 -0.00000000000E+00 -0.00000000000E+00 -0.17212683677E+02  0.17212683677E+02  0.00000000000E+00 0.  1.
         24    1    1    2    0    0  0.16457422238E+02  0.22543282419E+02  0.47236623391E+03  0.47997512563E+03  0.80419002446E+02 0.  1.
        -24    1    1    2    0    0 -0.16457422238E+02 -0.22543282419E+02  0.12170016310E+03  0.14851663874E+03  0.80419002446E+02 0.  1.
<mgrwt>
<rscale>  0 0.85124980E+02</rscale>
<asrwt>0</asrwt>
<pdfrwt beam="1">  1        2 0.94042919E-01 0.85124980E+02</pdfrwt>
<pdfrwt beam="2">  1       -2 0.26481056E-02 0.85124980E+02</pdfrwt>
<totfact> 0.22678911E+04</totfact>
</mgrwt>
</event>
<event>
 4    3  0.8789582E-001  0.8909211E+02  0.7546771E-02  0.1305065E+00
         -2   -1    0    0    0  501 -0.00000000000E+00  0.00000000000E+00  0.50186092557E+01  0.50186092557E+01  0.00000000000E+00 0.  1.
          2   -1    0    0  501    0  0.00000000000E+00 -0.00000000000E+00 -0.16111706731E+04  0.16111706731E+04  0.00000000000E+00 0. -1.
         24    1    1    2    0    0 -0.30855670396E+02  0.22762174458E+02 -0.91256295181E+03  0.91690160102E+03  0.80419002446E+02 0.  0.
        -24    1    1    2    0    0  0.30855670396E+02 -0.22762174458E+02 -0.69358911205E+03  0.69928768135E+03  0.80419002446E+02 0. -1.
<mgrwt>
<rscale>  0 0.89092115E+02</rscale>
<asrwt>0</asrwt>
<pdfrwt beam="1">  1        2 0.24787275E+00 0.89092115E+02</pdfrwt>
<pdfrwt beam="2">  1       -2 0.77209267E-03 0.89092115E+02</pdfrwt>
<totfact> 0.34209004E+04</totfact>
</mgrwt>
</event>
<event>
 4    3  0.8789582E-001  0.8775428E+02  0.7546771E-02  0.1308383E+00
         -1   -1    0    0    0  501 -0.00000000000E+00  0.00000000000E+00  0.25827124924E+02  0.25827124924E+02  0.00000000000E+00 0.  1.
          1   -1    0    0  501    0  0.00000000000E+00 -0.00000000000E+00 -0.35876336626E+03  0.35876336626E+03  0.00000000000E+00 0. -1.
         24    1    1    2    0    0  0.30852200712E+02 -0.16784971605E+02 -0.24549702609E+03  0.26070979907E+03  0.80419002446E+02 0.  0.
        -24    1    1    2    0    0 -0.30852200712E+02  0.16784971605E+02 -0.87439215250E+02  0.12388069211E+03  0.80419002446E+02 0.  0.
<mgrwt>
<rscale>  0 0.87754267E+02</rscale>
<asrwt>0</asrwt>
<pdfrwt beam="1">  1        1 0.55194363E-01 0.87754278E+02</pdfrwt>
<pdfrwt beam="2">  1       -1 0.39734039E-02 0.87754278E+02</pdfrwt>
<totfact> 0.15629318E+04</totfact>
</mgrwt>
</event>
<event>
 4    3  0.8789582E-001  0.1040097E+03  0.7546771E-02  0.1272083E+00
          2   -1    0    0  501    0  0.00000000000E+00  0.00000000000E+00  0.14958933310E+04  0.14958933310E+04  0.00000000000E+00 0. -1.
         -2   -1    0    0    0  501 -0.00000000000E+00 -0.00000000000E+00 -0.34789031162E+02  0.34789031162E+02  0.00000000000E+00 0.  1.
         24    1    1    2    0    0  0.40124022995E+02 -0.52353259250E+02  0.14117160492E+04  0.14155423768E+04  0.80419002446E+02 0. -1.
        -24    1    1    2    0    0 -0.40124022995E+02  0.52353259250E+02  0.49388250639E+02  0.11513998537E+03  0.80419002446E+02 0.  1.
<mgrwt>
<rscale>  0 0.10400970E+03</rscale>
<asrwt>0</asrwt>
<pdfrwt beam="1">  1        2 0.23013739E+00 0.10400970E+03</pdfrwt>
<pdfrwt beam="2">  1       -2 0.53521598E-02 0.10400970E+03</pdfrwt>
<totfact> 0.24110579E+03</totfact>
</mgrwt>
</event>
<event>
 4    3  0.8789582E-001  0.8217540E+02  0.7546771E-02  0.1322989E+00
         -1   -1    0    0    0  501 -0.00000000000E+00  0.00000000000E+00  0.14380778914E+02  0.14380778914E+02  0.00000000000E+00 0.  1.
          1   -1    0    0  501    0  0.00000000000E+00 -0.00000000000E+00 -0.47031371011E+03  0.47031371011E+03  0.00000000000E+00 0. -1.
         24    1    1    2    0    0  0.10421192513E+02  0.13303217895E+02 -0.23759884634E+03  0.25140804401E+03  0.80419002446E+02 0.  1.
        -24    1    1    2    0    0 -0.10421192513E+02 -0.13303217895E+02 -0.21833408486E+03  0.23328644501E+03  0.80419002446E+02 0.  0.
<mgrwt>
<rscale>  0 0.82175389E+02</rscale>
<asrwt>0</asrwt>
<pdfrwt beam="1">  1        1 0.72355962E-01 0.82175399E+02</pdfrwt>
<pdfrwt beam="2">  1       -1 0.22124273E-02 0.82175399E+02</pdfrwt>
<totfact> 0.25708193E+04</totfact>
</mgrwt>
</event>
<event>
 4    3  0.8789582E-001  0.8416765E+02  0.7546771E-02  0.1317624E+00
         -2   -1    0    0    0  501 -0.00000000000E+00  0.00000000000E+00  0.77692756816E+02  0.77692756816E+02  0.00000000000E+00 0.  1.
          2   -1    0    0  501    0  0.00000000000E+00 -0.00000000000E+00 -0.25401164095E+03  0.25401164095E+03  0.00000000000E+00 0. -1.
         24    1    1    2    0    0 -0.24626575368E+02 -0.32418999449E+01 -0.22094808451E+03  0.23643656683E+03  0.80419002446E+02 0. -1.
        -24    1    1    2    0    0  0.24626575368E+02  0.32418999449E+01  0.44629200382E+02  0.95267830933E+02  0.80419002446E+02 0.  1.
<mgrwt>
<rscale>  0 0.84167655E+02</rscale>
<asrwt>0</asrwt>
<pdfrwt beam="1">  1        2 0.39078714E-01 0.84167655E+02</pdfrwt>
<pdfrwt beam="2">  1       -2 0.11952732E-01 0.84167655E+02</pdfrwt>
<totfact> 0.60132620E+03</totfact>
</mgrwt>
</event>
<event>
 4    3  0.8789582E-001  0.8603326E+02  0.7546771E-02  0.1312752E+00
         -2   -1    0    0    0  501 -0.00000000000E+00  0.00000000000E+00  0.59792058749E+02  0.59792058749E+02  0.00000000000E+00 0.  1.
          2   -1    0    0  501    0  0.00000000000E+00 -0.00000000000E+00 -0.35387277539E+03  0.35387277539E+03  0.00000000000E+00 0. -1.
         24    1    1    2    0    0 -0.17095846649E+02  0.25342423317E+02 -0.31381733019E+03  0.32539674103E+03  0.80419002446E+02 0. -1.
        -24    1    1    2    0    0  0.17095846649E+02 -0.25342423317E+02  0.19736613547E+02  0.88268093108E+02  0.80419002446E+02 0.  1.
<mgrwt>
<rscale>  0 0.86033263E+02</rscale>
<asrwt>0</asrwt>
<pdfrwt beam="1">  1        2 0.54441966E-01 0.86033263E+02</pdfrwt>
<pdfrwt beam="2">  1       -2 0.91987781E-02 0.86033263E+02</pdfrwt>
<totfact> 0.64106206E+03</totfact>
</mgrwt>
</event>
<event>
 4    3  0.8789582E-001  0.8213056E+02  0.7546771E-02  0.1323112E+00
          2   -1    0    0  501    0  0.00000000000E+00  0.00000000000E+00  0.10066389519E+03  0.10066389519E+03  0.00000000000E+00 0. -1.
         -2   -1    0    0    0  501 -0.00000000000E+00 -0.00000000000E+00 -0.10083767112E+03  0.10083767112E+03  0.00000000000E+00 0.  1.
         24    1    1    2    0    0 -0.45543619595E+01  0.16045886941E+02  0.58267945891E+02  0.10070045766E+03  0.80419002446E+02 0.  0.
        -24    1    1    2    0    0  0.45543619595E+01 -0.16045886941E+02 -0.58441721822E+02  0.10080110865E+03  0.80419002446E+02 0.  1.
<mgrwt>
<rscale>  0 0.82130559E+02</rscale>
<asrwt>0</asrwt>
<pdfrwt beam="1">  1        2 0.15486753E-01 0.82130559E+02</pdfrwt>
<pdfrwt beam="2">  1       -2 0.15513488E-01 0.82130559E+02</pdfrwt>
<totfact> 0.10860011E+04</totfact>
</mgrwt>
</event>
<event>
 4    3  0.8789582E-001  0.8254006E+02  0.7546771E-02  0.1321994E+00
         -1   -1    0    0    0  501 -0.00000000000E+00  0.00000000000E+00  0.24087560581E+02  0.24087560581E+02  0.00000000000E+00 0.  1.
          1   -1    0    0  501    0  0.00000000000E+00 -0.00000000000E+00 -0.31101850411E+03  0.31101850411E+03  0.00000000000E+00 0. -1.
         24    1    1    2    0    0  0.18554189561E+02  0.11780243794E+01 -0.93029706424E+02  0.12436795376E+03  0.80419002446E+02 0.  1.
        -24    1    1    2    0    0 -0.18554189561E+02 -0.11780243794E+01 -0.19390123711E+03  0.21073811093E+03  0.80419002446E+02 0.  1.
<mgrwt>
<rscale>  0 0.82540061E+02</rscale>
<asrwt>0</asrwt>
<pdfrwt beam="1">  1        1 0.47848998E-01 0.82540061E+02</pdfrwt>
<pdfrwt beam="2">  1       -1 0.37057788E-02 0.82540061E+02</pdfrwt>
<totfact> 0.20459114E+04</totfact>
</mgrwt>
</event>
<event>
 4    3  0.8789582E-001  0.1655655E+03  0.7546771E-02  0.1182553E+00
         -1   -1    0    0    0  501 -0.00000000000E+00  0.00000000000E+00  0.11810161310E+03  0.11810161310E+03  0.00000000000E+00 0.  1.
          1   -1    0    0  501    0  0.00000000000E+00 -0.00000000000E+00 -0.24462764189E+03  0.24462764189E+03  0.00000000000E+00 0. -1.
         24    1    1    2    0    0  0.12888916263E+03  0.65820191107E+02 -0.10429801405E+03  0.19567832146E+03  0.80419002446E+02 0. -1.
        -24    1    1    2    0    0 -0.12888916263E+03 -0.65820191107E+02 -0.22228014751E+02  0.16705093353E+03  0.80419002446E+02 0.  1.
<mgrwt>
<rscale>  0 0.16556551E+03</rscale>
<asrwt>0</asrwt>
<pdfrwt beam="1">  1        1 0.37635021E-01 0.16556553E+03</pdfrwt>
<pdfrwt beam="2">  1       -1 0.18169479E-01 0.16556553E+03</pdfrwt>
<totfact> 0.26218792E+03</totfact>
</mgrwt>
</event>
<event>
 4    3  0.8789582E-001  0.9193812E+02  0.7546771E-02  0.1298225E+00
         -2   -1    0    0    0  501 -0.00000000000E+00  0.00000000000E+00  0.32260606155E+03  0.32260606155E+03  0.00000000000E+00 0.  1.
          2   -1    0    0  501    0  0.00000000000E+00 -0.00000000000E+00 -0.44126925348E+02  0.44126925348E+02  0.00000000000E+00 0. -1.
         24    1    1    2    0    0 -0.43187941706E+02  0.10963701949E+02  0.22368139763E+02  0.94620033291E+02  0.80419002446E+02 0.  1.
        -24    1    1    2    0    0  0.43187941706E+02 -0.10963701949E+02  0.25611099644E+03  0.27211295360E+03  0.80419002446E+02 0.  0.
<mgrwt>
<rscale>  0 0.91938115E+02</rscale>
<asrwt>0</asrwt>
<pdfrwt beam="1">  1        2 0.67887580E-02 0.91938115E+02</pdfrwt>
<pdfrwt beam="2">  1       -2 0.49631700E-01 0.91938115E+02</pdfrwt>
<totfact> 0.37949689E+03</totfact>
</mgrwt>
</event>
<event>
 4    3  0.8789582E-001  0.9513829E+02  0.7546771E-02  0.1290865E+00
         -1   -1    0    0    0  501 -0.00000000000E+00  0.00000000000E+00  0.14601979133E+02  0.14601979133E+02  0.00000000000E+00 0.  1.
          1   -1    0    0  501    0  0.00000000000E+00 -0.00000000000E+00 -0.65169199444E+03  0.65169199444E+03  0.00000000000E+00 0. -1.
         24    1    1    2    0    0 -0.42367737889E+02  0.28090078534E+02 -0.24492517797E+03  0.26275394665E+03  0.80419002446E+02 0.  1.
        -24    1    1    2    0    0  0.42367737889E+02 -0.28090078534E+02 -0.39216483734E+03  0.40354002692E+03  0.80419002446E+02 0. -1.
<mgrwt>
<rscale>  0 0.95138287E+02</rscale>
<asrwt>0</asrwt>
<pdfrwt beam="1">  1        1 0.10026028E+00 0.95138287E+02</pdfrwt>
<pdfrwt beam="2">  1       -1 0.22464589E-02 0.95138287E+02</pdfrwt>
<totfact> 0.16629612E+04</totfact>
</mgrwt>
</event>
<event>
 4    3  0.8789582E-001  0.8260095E+02  0.7546771E-02  0.1321828E+00
         -1   -1    0    0    0  501 -0.00000000000E+00  0.00000000000E+00  0.20635446453E+02  0.20635446453E+02  0.00000000000E+00 0.  1.
          1   -1    0    0  501    0  0.00000000000E+00 -0.00000000000E+00 -0.33451871117E+03  0.33451871117E+03  0.00000000000E+00 0. -1.
         24    1    1    2    0    0  0.14478715417E+02  0.12085736051E+02 -0.17606185160E+03  0.19447542199E+03  0.80419002446E+02 0.  0.
        -24    1    1    2    0    0 -0.14478715417E+02 -0.12085736051E+02 -0.13782141312E+03  0.16067873564E+03  0.80419002446E+02 0. -1.
<mgrwt>
<rscale>  0 0.82600944E+02</rscale>
<asrwt>0</asrwt>
<pdfrwt beam="1">  1        1 0.51464418E-01 0.82600954E+02</pdfrwt>
<pdfrwt beam="2">  1       -1 0.31746840E-02 0.82600954E+02</pdfrwt>
<totfact> 0.23397623E+04</totfact>
</mgrwt>
</event>
<event>
 4    3  0.8789582E-001  0.1080336E+03  0.7546771E-02  0.1264255E+00
         -2   -1    0    0    0  501 -0.00000000000E+00  0.00000000000E+00  0.10179466040E+03  0.10179466040E+03  0.00000000000E+00 0.  1.
          2   -1    0    0  501    0  0.00000000000E+00 -0.00000000000E+00 -0.22523476481E+03  0.22523476481E+03  0.00000000000E+00 0. -1.
         24    1    1    2    0    0 -0.67328299957E+02 -0.25902576460E+02 -0.17629168350E+03  0.20676077256E+03  0.80419002446E+02 0. -1.
        -24    1    1    2    0    0  0.67328299957E+02  0.25902576460E+02  0.52851579099E+02  0.12026865265E+03  0.80419002446E+02 0.  1.
<mgrwt>
<rscale>  0 0.10803360E+03</rscale>
<asrwt>0</asrwt>
<pdfrwt beam="1">  1        2 0.34651502E-01 0.10803360E+03</pdfrwt>
<pdfrwt beam="2">  1       -2 0.15660717E-01 0.10803360E+03</pdfrwt>
<totfact> 0.45038416E+03</totfact>
</mgrwt>
</event>
<event>
 4    3  0.8789582E-001  0.8487901E+02  0.7546771E-02  0.1315749E+00
         -4   -1    0    0    0  501 -0.00000000000E+00  0.00000000000E+00  0.11185560945E+03  0.11185560945E+03  0.00000000000E+00 0.  1.
          4   -1    0    0  501    0  0.00000000000E+00 -0.00000000000E+00 -0.87863073228E+02  0.87863073228E+02  0.00000000000E+00 0. -1.
         24    1    1    2    0    0 -0.49755100435E+01 -0.26692206591E+02 -0.39597803922E+02  0.93661259989E+02  0.80419002446E+02 0.  1.
        -24    1    1    2    0    0  0.49755100435E+01  0.26692206591E+02  0.63590340140E+02  0.10605742268E+03  0.80419002446E+02 0.  0.
<mgrwt>
<rscale>  0 0.84879005E+02</rscale>
<asrwt>0</asrwt>
<pdfrwt beam="1">  1        4 0.13517396E-01 0.84879005E+02</pdfrwt>
<pdfrwt beam="2">  1       -4 0.17208555E-01 0.84879005E+02</pdfrwt>
<totfact> 0.19540580E+03</totfact>
</mgrwt>
</event>
<event>
 4    3  0.8789582E-001  0.9107013E+02  0.7546771E-02  0.1300281E+00
          2   -1    0    0  501    0  0.00000000000E+00  0.00000000000E+00  0.47517088209E+02  0.47517088209E+02  0.00000000000E+00 0. -1.
         -2   -1    0    0    0  501 -0.00000000000E+00 -0.00000000000E+00 -0.78071426842E+03  0.78071426842E+03  0.00000000000E+00 0.  1.
         24    1    1    2    0    0  0.18263276574E+01 -0.42699156818E+02 -0.16990368931E+01  0.91085982162E+02  0.80419002446E+02 0. -1.
        -24    1    1    2    0    0 -0.18263276574E+01  0.42699156818E+02 -0.73149814332E+03  0.73714537447E+03  0.80419002446E+02 0.  1.
<mgrwt>
<rscale>  0 0.91070135E+02</rscale>
<asrwt>0</asrwt>
<pdfrwt beam="1">  1        2 0.73103217E-02 0.91070135E+02</pdfrwt>
<pdfrwt beam="2">  1       -2 0.12010988E+00 0.91070135E+02</pdfrwt>
<totfact> 0.51241216E+02</totfact>
</mgrwt>
</event>
<event>
 4    3  0.8789582E-001  0.9401825E+02  0.7546771E-02  0.1293403E+00
         -2   -1    0    0    0  501 -0.00000000000E+00  0.00000000000E+00  0.80368270721E+01  0.80368270721E+01  0.00000000000E+00 0.  1.
          2   -1    0    0  501    0  0.00000000000E+00 -0.00000000000E+00 -0.25224558679E+04  0.25224558679E+04  0.00000000000E+00 0. -1.
         24    1    1    2    0    0 -0.45292868262E+02  0.17910086386E+02 -0.22073836317E+04  0.22093849661E+04  0.80419002446E+02 0. -1.
        -24    1    1    2    0    0  0.45292868262E+02 -0.17910086386E+02 -0.30703540914E+03  0.32110772886E+03  0.80419002446E+02 0.  1.
<mgrwt>
<rscale>  0 0.94018249E+02</rscale>
<asrwt>0</asrwt>
<pdfrwt beam="1">  1        2 0.38807054E+00 0.94018249E+02</pdfrwt>
<pdfrwt beam="2">  1       -2 0.12364336E-02 0.94018249E+02</pdfrwt>
<totfact> 0.60634690E+03</totfact>
</mgrwt>
</event>
<event>
 4    3  0.8789582E-001  0.1125632E+03  0.7546771E-02  0.1255896E+00
         -4   -1    0    0    0  501 -0.00000000000E+00  0.00000000000E+00  0.10430024097E+03  0.10430024097E+03  0.00000000000E+00 0.  1.
          4   -1    0    0  501    0  0.00000000000E+00 -0.00000000000E+00 -0.14027482951E+03  0.14027482951E+03  0.00000000000E+00 0. -1.
         24    1    1    2    0    0  0.47176555548E+02 -0.63068333737E+02  0.26774175111E+02  0.11570356313E+03  0.80419002446E+02 0.  1.
        -24    1    1    2    0    0 -0.47176555548E+02  0.63068333737E+02 -0.62748763645E+02  0.12887150735E+03  0.80419002446E+02 0. -1.
<mgrwt>
<rscale>  0 0.11256314E+03</rscale>
<asrwt>0</asrwt>
<pdfrwt beam="1">  1        4 0.21580743E-01 0.11256316E+03</pdfrwt>
<pdfrwt beam="2">  1       -4 0.16046191E-01 0.11256316E+03</pdfrwt>
<totfact> 0.10412450E+03</totfact>
</mgrwt>
</event>
<event>
 4    3  0.8789582E-001  0.8892553E+02  0.7546771E-02  0.1305475E+00
          1   -1    0    0  501    0  0.00000000000E+00  0.00000000000E+00  0.21535369099E+02  0.21535369099E+02  0.00000000000E+00 0. -1.
         -1   -1    0    0    0  501 -0.00000000000E+00 -0.00000000000E+00 -0.10686470744E+04  0.10686470744E+04  0.00000000000E+00 0.  1.
         24    1    1    2    0    0  0.29430238962E+02 -0.23966524683E+02 -0.96517718366E+03  0.96926505409E+03  0.80419002446E+02 0.  1.
        -24    1    1    2    0    0 -0.29430238962E+02  0.23966524683E+02 -0.81934521645E+02  0.12091738941E+03  0.80419002446E+02 0. -1.
<mgrwt>
<rscale>  0 0.88925526E+02</rscale>
<asrwt>0</asrwt>
<pdfrwt beam="1">  1        1 0.33131324E-02 0.88925526E+02</pdfrwt>
<pdfrwt beam="2">  1       -1 0.16440731E+00 0.88925526E+02</pdfrwt>
<totfact> 0.84935724E+02</totfact>
</mgrwt>
</event>
<event>
 4    3  0.8789582E-001  0.8807865E+02  0.7546771E-02  0.1307572E+00
          1   -1    0    0  501    0  0.00000000000E+00  0.00000000000E+00  0.86881333513E+03  0.86881333513E+03  0.00000000000E+00 0. -1.
         -1   -1    0    0    0  501 -0.00000000000E+00 -0.00000000000E+00 -0.10673363304E+02  0.10673363304E+02  0.00000000000E+00 0.  1.
         24    1    1    2    0    0  0.20853974347E+02 -0.29253111510E+02  0.25130903139E+03  0.26629697331E+03  0.80419002446E+02 0. -1.
        -24    1    1    2    0    0 -0.20853974347E+02  0.29253111510E+02  0.60683094043E+03  0.61318972513E+03  0.80419002446E+02 0. -1.
<mgrwt>
<rscale>  0 0.88078651E+02</rscale>
<asrwt>0</asrwt>
<pdfrwt beam="1">  1        1 0.13366353E+00 0.88078651E+02</pdfrwt>
<pdfrwt beam="2">  1       -1 0.16420566E-02 0.88078651E+02</pdfrwt>
<totfact> 0.17022025E+04</totfact>
</mgrwt>
</event>
<event>
 4    3  0.8789582E-001  0.1021722E+03  0.7546771E-02  0.1275793E+00
          2   -1    0    0  501    0  0.00000000000E+00  0.00000000000E+00  0.39010043100E+03  0.39010043100E+03  0.00000000000E+00 0. -1.
         -2   -1    0    0    0  501 -0.00000000000E+00 -0.00000000000E+00 -0.26802075587E+02  0.26802075587E+02  0.00000000000E+00 0.  1.
         24    1    1    2    0    0 -0.27293823511E+02  0.56806535864E+02  0.17340607906E+03  0.20126802908E+03  0.80419002446E+02 0.  0.
        -24    1    1    2    0    0  0.27293823511E+02 -0.56806535864E+02  0.18989227636E+03  0.21563447752E+03  0.80419002446E+02 0.  1.
<mgrwt>
<rscale>  0 0.10217218E+03</rscale>
<asrwt>0</asrwt>
<pdfrwt beam="1">  1        2 0.60015447E-01 0.10217219E+03</pdfrwt>
<pdfrwt beam="2">  1       -2 0.41233965E-02 0.10217219E+03</pdfrwt>
<totfact> 0.19660281E+04</totfact>
</mgrwt>
</event>
<event>
 4    3  0.8789582E-001  0.9713899E+02  0.7546771E-02  0.1286430E+00
          2   -1    0    0  501    0  0.00000000000E+00  0.00000000000E+00  0.41452611964E+03  0.41452611964E+03  0.00000000000E+00 0. -1.
         -2   -1    0    0    0  501 -0.00000000000E+00 -0.00000000000E+00 -0.22781052197E+02  0.22781052197E+02  0.00000000000E+00 0.  1.
         24    1    1    2    0    0 -0.53365413598E+02  0.10995245262E+02  0.18976727224E+03  0.21318441865E+03  0.80419002446E+02 0.  0.
        -24    1    1    2    0    0  0.53365413598E+02 -0.10995245262E+02  0.20197779521E+03  0.22412275319E+03  0.80419002446E+02 0.  1.
<mgrwt>
<rscale>  0 0.97138978E+02</rscale>
<asrwt>0</asrwt>
<pdfrwt beam="1">  1        2 0.63773244E-01 0.97138990E+02</pdfrwt>
<pdfrwt beam="2">  1       -2 0.35047776E-02 0.97138990E+02</pdfrwt>
<totfact> 0.23298783E+04</totfact>
</mgrwt>
</event>
<event>
 4    3  0.8789582E-001  0.9209321E+02  0.7546771E-02  0.1297860E+00
         -1   -1    0    0    0  501 -0.00000000000E+00  0.00000000000E+00  0.28807144687E+03  0.28807144687E+03  0.00000000000E+00 0.  1.
          1   -1    0    0  501    0  0.00000000000E+00 -0.00000000000E+00 -0.35243869321E+02  0.35243869321E+02  0.00000000000E+00 0. -1.
         24    1    1    2    0    0  0.97563357857E+01  0.43803621017E+02  0.19200862908E+03  0.21295180886E+03  0.80419002446E+02 0.  1.
        -24    1    1    2    0    0 -0.97563357857E+01 -0.43803621017E+02  0.60818948464E+02  0.11036350732E+03  0.80419002446E+02 0. -1.
<mgrwt>
<rscale>  0 0.92093210E+02</rscale>
<asrwt>0</asrwt>
<pdfrwt beam="1">  1        1 0.54221339E-02 0.92093210E+02</pdfrwt>
<pdfrwt beam="2">  1       -1 0.44318683E-01 0.92093210E+02</pdfrwt>
<totfact> 0.69949739E+03</totfact>
</mgrwt>
</event>
<event>
 4    3  0.8789582E-001  0.8105374E+02  0.7546771E-02  0.1326087E+00
          2   -1    0    0  501    0  0.00000000000E+00  0.00000000000E+00  0.17464244288E+04  0.17464244288E+04  0.00000000000E+00 0. -1.
         -2   -1    0    0    0  501 -0.00000000000E+00 -0.00000000000E+00 -0.56674369592E+01  0.56674369592E+01  0.00000000000E+00 0.  1.
         24    1    1    2    0    0 -0.60900289614E+00 -0.10105341229E+02  0.36239071771E+03  0.37134449914E+03  0.80419002446E+02 0.  1.
        -24    1    1    2    0    0  0.60900289614E+00  0.10105341229E+02  0.13783662741E+04  0.13807473666E+04  0.80419002446E+02 0.  0.
<mgrwt>
<rscale>  0 0.81053725E+02</rscale>
<asrwt>0</asrwt>
<pdfrwt beam="1">  1        2 0.26868025E+00 0.81053736E+02</pdfrwt>
<pdfrwt beam="2">  1       -2 0.87191477E-03 0.81053736E+02</pdfrwt>
<totfact> 0.24471072E+04</totfact>
</mgrwt>
</event>
<event>
 4    3  0.8789582E-001  0.8794276E+02  0.7546771E-02  0.1307911E+00
          2   -1    0    0  501    0  0.00000000000E+00  0.00000000000E+00  0.82490254023E+02  0.82490254023E+02  0.00000000000E+00 0. -1.
         -2   -1    0    0    0  501 -0.00000000000E+00 -0.00000000000E+00 -0.11770551051E+03  0.11770551051E+03  0.00000000000E+00 0.  1.
         24    1    1    2    0    0 -0.33944695110E+02  0.10699083264E+02  0.27544460469E+02  0.92155444580E+02  0.80419002446E+02 0.  0.
        -24    1    1    2    0    0  0.33944695110E+02 -0.10699083264E+02 -0.62759716957E+02  0.10804031995E+03  0.80419002446E+02 0.  0.
<mgrwt>
<rscale>  0 0.87942758E+02</rscale>
<asrwt>0</asrwt>
<pdfrwt beam="1">  1        2 0.12690808E-01 0.87942758E+02</pdfrwt>
<pdfrwt beam="2">  1       -2 0.18108540E-01 0.87942758E+02</pdfrwt>
<totfact> 0.10703021E+04</totfact>
</mgrwt>
</event>
<event>
 4    3  0.8789582E-001  0.8890401E+02  0.7546771E-02  0.1305528E+00
          2   -1    0    0  501    0  0.00000000000E+00  0.00000000000E+00  0.30405991942E+02  0.30405991942E+02  0.00000000000E+00 0. -1.
         -2   -1    0    0    0  501 -0.00000000000E+00 -0.00000000000E+00 -0.11128005875E+04  0.11128005875E+04  0.00000000000E+00 0.  1.
         24    1    1    2    0    0 -0.29040212732E+02  0.24359251026E+02 -0.40790175397E+02  0.97814934593E+02  0.80419002446E+02 0. -1.
        -24    1    1    2    0    0  0.29040212732E+02 -0.24359251026E+02 -0.10416044202E+04  0.10453916449E+04  0.80419002446E+02 0.  1.
<mgrwt>
<rscale>  0 0.88904010E+02</rscale>
<asrwt>0</asrwt>
<pdfrwt beam="1">  1        2 0.46778448E-02 0.88904010E+02</pdfrwt>
<pdfrwt beam="2">  1       -2 0.17120009E+00 0.88904010E+02</pdfrwt>
<totfact> 0.37224088E+02</totfact>
</mgrwt>
</event>
<event>
 4    3  0.8789582E-001  0.9390086E+02  0.7546771E-02  0.1293671E+00
         -2   -1    0    0    0  501 -0.00000000000E+00  0.00000000000E+00  0.19701108604E+02  0.19701108604E+02  0.00000000000E+00 0.  1.
          2   -1    0    0  501    0  0.00000000000E+00 -0.00000000000E+00 -0.50505269285E+03  0.50505269285E+03  0.00000000000E+00 0. -1.
         24    1    1    2    0    0 -0.13879676741E+02 -0.46449004802E+02 -0.33120252872E+03  0.34425642544E+03  0.80419002446E+02 0. -1.
        -24    1    1    2    0    0  0.13879676741E+02  0.46449004802E+02 -0.15414905553E+03  0.18049737601E+03  0.80419002446E+02 0.  1.
<mgrwt>
<rscale>  0 0.93900860E+02</rscale>
<asrwt>0</asrwt>
<pdfrwt beam="1">  1        2 0.77700411E-01 0.93900860E+02</pdfrwt>
<pdfrwt beam="2">  1       -2 0.30309399E-02 0.93900860E+02</pdfrwt>
<totfact> 0.23236123E+04</totfact>
</mgrwt>
</event>
<event>
 4    3  0.8789582E-001  0.3134835E+03  0.7546771E-02  0.1078688E+00
         -2   -1    0    0    0  501 -0.00000000000E+00  0.00000000000E+00  0.16507007757E+03  0.16507007757E+03  0.00000000000E+00 0.  1.
          2   -1    0    0  501    0  0.00000000000E+00 -0.00000000000E+00 -0.60185716867E+03  0.60185716867E+03  0.00000000000E+00 0. -1.
         24    1    1    2    0    0  0.26398670384E+03 -0.14871361104E+03 -0.25831310327E+03  0.40619895764E+03  0.80419002446E+02 0.  1.
        -24    1    1    2    0    0 -0.26398670384E+03  0.14871361104E+03 -0.17847398783E+03  0.36072828860E+03  0.80419002446E+02 0. -1.
<mgrwt>
<rscale>  0 0.31348355E+03</rscale>
<asrwt>0</asrwt>
<pdfrwt beam="1">  1        2 0.92593410E-01 0.31348355E+03</pdfrwt>
<pdfrwt beam="2">  1       -2 0.25395397E-01 0.31348355E+03</pdfrwt>
<totfact> 0.69691883E+02</totfact>
</mgrwt>
</event>
<event>
 4    3  0.8789582E-001  0.8768297E+02  0.7546771E-02  0.1308562E+00
         -1   -1    0    0    0  501 -0.00000000000E+00  0.00000000000E+00  0.20642564405E+02  0.20642564405E+02  0.00000000000E+00 0.  1.
          1   -1    0    0  501    0  0.00000000000E+00 -0.00000000000E+00 -0.52027960552E+03  0.52027960552E+03  0.00000000000E+00 0. -1.
         24    1    1    2    0    0  0.34940595215E+02  0.49136277747E+00 -0.10565062653E+03  0.13729660401E+03  0.80419002446E+02 0.  1.
        -24    1    1    2    0    0 -0.34940595215E+02 -0.49136277747E+00 -0.39398641459E+03  0.40362556592E+03  0.80419002446E+02 0. -1.
<mgrwt>
<rscale>  0 0.87682966E+02</rscale>
<asrwt>0</asrwt>
<pdfrwt beam="1">  1        1 0.80043014E-01 0.87682966E+02</pdfrwt>
<pdfrwt beam="2">  1       -1 0.31757792E-02 0.87682966E+02</pdfrwt>
<totfact> 0.13548951E+04</totfact>
</mgrwt>
</event>
<event>
 4    3  0.8789582E-001  0.8123523E+02  0.7546771E-02  0.1325582E+00
          1   -1    0    0  501    0  0.00000000000E+00  0.00000000000E+00  0.13167859650E+04  0.13167859650E+04  0.00000000000E+00 0. -1.
         -1   -1    0    0    0  501 -0.00000000000E+00 -0.00000000000E+00 -0.24618756048E+02  0.24618756048E+02  0.00000000000E+00 0.  1.
         24    1    1    2    0    0  0.87223719030E+01 -0.74744481394E+01  0.47528093727E+02  0.94117388374E+02  0.80419002446E+02 0.  1.
        -24    1    1    2    0    0 -0.87223719030E+01  0.74744481394E+01  0.12446391152E+04  0.12472873327E+04  0.80419002446E+02 0. -1.
<mgrwt>
<rscale>  0 0.81235233E+02</rscale>
<asrwt>0</asrwt>
<pdfrwt beam="1">  1        1 0.20258240E+00 0.81235233E+02</pdfrwt>
<pdfrwt beam="2">  1       -1 0.37875020E-02 0.81235233E+02</pdfrwt>
<totfact> 0.24921406E+03</totfact>
</mgrwt>
</event>
<event>
 4    3  0.8789582E-001  0.8355814E+02  0.7546771E-02  0.1319247E+00
          2   -1    0    0  501    0  0.00000000000E+00  0.00000000000E+00  0.25264642491E+04  0.25264642491E+04  0.00000000000E+00 0. -1.
         -2   -1    0    0    0  501 -0.00000000000E+00 -0.00000000000E+00 -0.39081704013E+01  0.39081704013E+01  0.00000000000E+00 0.  1.
         24    1    1    2    0    0 -0.31732095392E+01 -0.22465030728E+02  0.19459806891E+04  0.19477738075E+04  0.80419002446E+02 0. -1.
        -24    1    1    2    0    0  0.31732095392E+01  0.22465030728E+02  0.57657538956E+03  0.58259861196E+03  0.80419002446E+02 0.  1.
<mgrwt>
<rscale>  0 0.83558140E+02</rscale>
<asrwt>0</asrwt>
<pdfrwt beam="1">  1        2 0.38868550E+00 0.83558140E+02</pdfrwt>
<pdfrwt beam="2">  1       -2 0.60125900E-03 0.83558140E+02</pdfrwt>
<totfact> 0.16633589E+04</totfact>
</mgrwt>
</event>
<event>
 4    3  0.8789582E-001  0.8996000E+02  0.7546771E-02  0.1302949E+00
          2   -1    0    0  501    0  0.00000000000E+00  0.00000000000E+00  0.66589237724E+02  0.66589237724E+02  0.00000000000E+00 0. -1.
         -2   -1    0    0    0  501 -0.00000000000E+00 -0.00000000000E+00 -0.15675819551E+03  0.15675819551E+03  0.00000000000E+00 0.  1.
         24    1    1    2    0    0  0.39648636563E+02  0.73191878915E+01  0.78527896014E+01  0.90302088302E+02  0.80419002446E+02 0. -1.
        -24    1    1    2    0    0 -0.39648636563E+02 -0.73191878915E+01 -0.98021747384E+02  0.13304534493E+03  0.80419002446E+02 0. -1.
<mgrwt>
<rscale>  0 0.89959996E+02</rscale>
<asrwt>0</asrwt>
<pdfrwt beam="1">  1        2 0.10244498E-01 0.89959996E+02</pdfrwt>
<pdfrwt beam="2">  1       -2 0.24116645E-01 0.89959996E+02</pdfrwt>
<totfact> 0.85451992E+03</totfact>
</mgrwt>
</event>
<event>
 4    3  0.8789582E-001  0.1002429E+03  0.7546771E-02  0.1279786E+00
          2   -1    0    0  501    0  0.00000000000E+00  0.00000000000E+00  0.14692273210E+04  0.14692273210E+04  0.00000000000E+00 0. -1.
         -2   -1    0    0    0  501 -0.00000000000E+00 -0.00000000000E+00 -0.77435070955E+02  0.77435070955E+02  0.00000000000E+00 0.  1.
         24    1    1    2    0    0 -0.57274187378E+02  0.17351841588E+02  0.14342859635E+04  0.14377847057E+04  0.80419002446E+02 0. -1.
        -24    1    1    2    0    0  0.57274187378E+02 -0.17351841588E+02 -0.42493713378E+02  0.10887768632E+03  0.80419002446E+02 0.  1.
<mgrwt>
<rscale>  0 0.10024288E+03</rscale>
<asrwt>0</asrwt>
<pdfrwt beam="1">  1        2 0.22603495E+00 0.10024288E+03</pdfrwt>
<pdfrwt beam="2">  1       -2 0.11913089E-01 0.10024288E+03</pdfrwt>
<totfact> 0.72864419E+02</totfact>
</mgrwt>
</event>
<event>
 4    3  0.8789582E-001  0.1217736E+03  0.7546771E-02  0.1240200E+00
         -1   -1    0    0    0  501 -0.00000000000E+00  0.00000000000E+00  0.93668986738E+01  0.93668986738E+01  0.00000000000E+00 0.  1.
          1   -1    0    0  501    0  0.00000000000E+00 -0.00000000000E+00 -0.17242928208E+04  0.17242928208E+04  0.00000000000E+00 0. -1.
         24    1    1    2    0    0  0.37653292382E+02  0.83329581587E+02 -0.11055039492E+04  0.11121905355E+04  0.80419002446E+02 0. -1.
        -24    1    1    2    0    0 -0.37653292382E+02 -0.83329581587E+02 -0.60942197290E+03  0.62146918396E+03  0.80419002446E+02 0.  1.
<mgrwt>
<rscale>  0 0.12177360E+03</rscale>
<asrwt>0</asrwt>
<pdfrwt beam="1">  1        1 0.26527566E+00 0.12177361E+03</pdfrwt>
<pdfrwt beam="2">  1       -1 0.14410622E-02 0.12177361E+03</pdfrwt>
<totfact> 0.55337182E+03</totfact>
</mgrwt>
</event>
<event>
 4    3  0.8789582E-001  0.1016481E+03  0.7546771E-02  0.1276868E+00
          1   -1    0    0  501    0  0.00000000000E+00  0.00000000000E+00  0.20462847862E+03  0.20462847862E+03  0.00000000000E+00 0. -1.
         -1   -1    0    0    0  501 -0.00000000000E+00 -0.00000000000E+00 -0.52180544346E+02  0.52180544346E+02  0.00000000000E+00 0.  1.
         24    1    1    2    0    0  0.62037963433E+02 -0.40503346830E+01  0.53133203517E+02  0.11469728588E+03  0.80419002446E+02 0. -1.
        -24    1    1    2    0    0 -0.62037963433E+02  0.40503346830E+01  0.99314730760E+02  0.14211173709E+03  0.80419002446E+02 0.  1.
<mgrwt>
<rscale>  0 0.10164807E+03</rscale>
<asrwt>0</asrwt>
<pdfrwt beam="1">  1        1 0.31481304E-01 0.10164807E+03</pdfrwt>
<pdfrwt beam="2">  1       -1 0.80277762E-02 0.10164807E+03</pdfrwt>
<totfact> 0.11189262E+04</totfact>
</mgrwt>
</event>
<event>
 4    3  0.8789582E-001  0.1130850E+03  0.7546771E-02  0.1254961E+00
         -1   -1    0    0    0  501 -0.00000000000E+00  0.00000000000E+00  0.26020443092E+02  0.26020443092E+02  0.00000000000E+00 0.  1.
          1   -1    0    0  501    0  0.00000000000E+00 -0.00000000000E+00 -0.66232240106E+03  0.66232240106E+03  0.00000000000E+00 0. -1.
         24    1    1    2    0    0  0.69864935994E+02  0.37945929416E+02 -0.14334632535E+03  0.18258255060E+03  0.80419002446E+02 0.  1.
        -24    1    1    2    0    0 -0.69864935994E+02 -0.37945929416E+02 -0.49295563262E+03  0.50576029355E+03  0.80419002446E+02 0. -1.
<mgrwt>
<rscale>  0 0.11308501E+03</rscale>
<asrwt>0</asrwt>
<pdfrwt beam="1">  1        1 0.10189575E+00 0.11308501E+03</pdfrwt>
<pdfrwt beam="2">  1       -1 0.40031451E-02 0.11308501E+03</pdfrwt>
<totfact> 0.71455451E+03</totfact>
</mgrwt>
</event>
<event>
 4    3  0.8789582E-001  0.1045550E+03  0.7546771E-02  0.1270999E+00
         -2   -1    0    0    0  501 -0.00000000000E+00  0.00000000000E+00  0.78093828579E+01  0.78093828579E+01  0.00000000000E+00 0.  1.
          2   -1    0    0  501    0  0.00000000000E+00 -0.00000000000E+00 -0.16138326913E+04  0.16138326913E+04  0.00000000000E+00 0. -1.
         24    1    1    2    0    0 -0.13059470186E+01  0.66804340845E+02 -0.10982780865E+04  0.11032436253E+04  0.80419002446E+02 0. -1.
        -24    1    1    2    0    0  0.13059470186E+01 -0.66804340845E+02 -0.50774522199E+03  0.51839844894E+03  0.80419002446E+02 0.  1.
<mgrwt>
<rscale>  0 0.10455497E+03</rscale>
<asrwt>0</asrwt>
<pdfrwt beam="1">  1        2 0.24828183E+00 0.10455497E+03</pdfrwt>
<pdfrwt beam="2">  1       -2 0.12014441E-02 0.10455497E+03</pdfrwt>
<totfact> 0.18440628E+04</totfact>
</mgrwt>
</event>
<event>
 4    3  0.8789582E-001  0.8385948E+02  0.7546771E-02  0.1318442E+00
         -2   -1    0    0    0  501 -0.00000000000E+00  0.00000000000E+00  0.19686453196E+02  0.19686453196E+02  0.00000000000E+00 0.  1.
          2   -1    0    0  501    0  0.00000000000E+00 -0.00000000000E+00 -0.36697675941E+03  0.36697675941E+03  0.00000000000E+00 0. -1.
         24    1    1    2    0    0 -0.71106641758E+01  0.22685479685E+02 -0.14212263422E+03  0.16501894329E+03  0.80419002446E+02 0.  0.
        -24    1    1    2    0    0  0.71106641758E+01 -0.22685479685E+02 -0.20516767200E+03  0.22164426932E+03  0.80419002446E+02 0.  1.
<mgrwt>
<rscale>  0 0.83859467E+02</rscale>
<asrwt>0</asrwt>
<pdfrwt beam="1">  1        2 0.56457961E-01 0.83859478E+02</pdfrwt>
<pdfrwt beam="2">  1       -2 0.30286852E-02 0.83859478E+02</pdfrwt>
<totfact> 0.32231545E+04</totfact>
</mgrwt>
</event>
<event>
 4    3  0.8789582E-001  0.9022411E+02  0.7546771E-02  0.1302310E+00
         -2   -1    0    0    0  501 -0.00000000000E+00  0.00000000000E+00  0.91650833451E+02  0.91650833451E+02  0.00000000000E+00 0.  1.
          2   -1    0    0  501    0  0.00000000000E+00 -0.00000000000E+00 -0.56434458258E+03  0.56434458258E+03  0.00000000000E+00 0. -1.
         24    1    1    2    0    0  0.10885268978E+02 -0.39429502711E+02 -0.53742922390E+03  0.54495005407E+03  0.80419002446E+02 0. -1.
        -24    1    1    2    0    0 -0.10885268978E+02  0.39429502711E+02  0.64735474777E+02  0.11104536196E+03  0.80419002446E+02 0.  1.
<mgrwt>
<rscale>  0 0.90224114E+02</rscale>
<asrwt>0</asrwt>
<pdfrwt beam="1">  1        2 0.86822245E-01 0.90224114E+02</pdfrwt>
<pdfrwt beam="2">  1       -2 0.14100128E-01 0.90224114E+02</pdfrwt>
<totfact> 0.19958465E+03</totfact>
</mgrwt>
</event>
<event>
 4    3  0.8789582E-001  0.2734634E+03  0.7546771E-02  0.1099314E+00
         -1   -1    0    0    0  501 -0.00000000000E+00  0.00000000000E+00  0.96721015941E+02  0.96721015941E+02  0.00000000000E+00 0.  1.
          1   -1    0    0  501    0  0.00000000000E+00 -0.00000000000E+00 -0.16261686686E+04  0.16261686686E+04  0.00000000000E+00 0. -1.
         24    1    1    2    0    0 -0.12658106948E+02 -0.26106459991E+03 -0.13886279472E+04  0.14152984649E+04  0.80419002446E+02 0.  0.
        -24    1    1    2    0    0  0.12658106948E+02  0.26106459991E+03 -0.14081970542E+03  0.30759121962E+03  0.80419002446E+02 0.  0.
<mgrwt>
<rscale>  0 0.27346332E+03</rscale>
<asrwt>0</asrwt>
<pdfrwt beam="1">  1        1 0.25017977E+00 0.27346335E+03</pdfrwt>
<pdfrwt beam="2">  1       -1 0.14880158E-01 0.27346335E+03</pdfrwt>
<totfact> 0.19329054E+02</totfact>
</mgrwt>
</event>
<event>
 4    3  0.8789582E-001  0.1132146E+03  0.7546771E-02  0.1254730E+00
         -1   -1    0    0    0  501 -0.00000000000E+00  0.00000000000E+00  0.57919448817E+03  0.57919448817E+03  0.00000000000E+00 0.  1.
          1   -1    0    0  501    0  0.00000000000E+00 -0.00000000000E+00 -0.40497891944E+02  0.40497891944E+02  0.00000000000E+00 0. -1.
         24    1    1    2    0    0  0.77514136982E+02  0.18489918936E+02  0.47801849056E+03  0.49124251832E+03  0.80419002446E+02 0.  1.
        -24    1    1    2    0    0 -0.77514136982E+02 -0.18489918936E+02  0.60678105675E+02  0.12844986180E+03  0.80419002446E+02 0. -1.
<mgrwt>
<rscale>  0 0.11321455E+03</rscale>
<asrwt>0</asrwt>
<pdfrwt beam="1">  1        1 0.62304454E-02 0.11321455E+03</pdfrwt>
<pdfrwt beam="2">  1       -1 0.89106838E-01 0.11321455E+03</pdfrwt>
<totfact> 0.15424683E+03</totfact>
</mgrwt>
</event>
<event>
 4    3  0.8789582E-001  0.8375783E+02  0.7546771E-02  0.1318713E+00
         -2   -1    0    0    0  501 -0.00000000000E+00  0.00000000000E+00  0.12408736753E+04  0.12408736753E+04  0.00000000000E+00 0.  1.
          2   -1    0    0  501    0  0.00000000000E+00 -0.00000000000E+00 -0.63246511164E+01  0.63246511164E+01  0.00000000000E+00 0. -1.
         24    1    1    2    0    0 -0.13275811531E+01  0.23375103211E+02  0.41414513335E+03  0.42252995793E+03  0.80419002446E+02 0.  0.
        -24    1    1    2    0    0  0.13275811531E+01 -0.23375103211E+02  0.82040389081E+03  0.82466836846E+03  0.80419002446E+02 0.  0.
<mgrwt>
<rscale>  0 0.83757829E+02</rscale>
<asrwt>0</asrwt>
<pdfrwt beam="1">  1        2 0.97302424E-03 0.83757829E+02</pdfrwt>
<pdfrwt beam="2">  1       -2 0.19090345E+00 0.83757829E+02</pdfrwt>
<totfact> 0.22613871E+03</totfact>
</mgrwt>
</event>
<event>
 4    3  0.8789582E-001  0.9010694E+02  0.7546771E-02  0.1302593E+00
          2   -1    0    0  501    0  0.00000000000E+00  0.00000000000E+00  0.36005887109E+03  0.36005887109E+03  0.00000000000E+00 0. -1.
         -2   -1    0    0    0  501 -0.00000000000E+00 -0.00000000000E+00 -0.25442274079E+02  0.25442274079E+02  0.00000000000E+00 0.  1.
         24    1    1    2    0    0 -0.28829494507E+02 -0.28651433117E+02  0.23229903391E+03  0.24916280116E+03  0.80419002446E+02 0.  1.
        -24    1    1    2    0    0  0.28829494507E+02  0.28651433117E+02  0.10231756310E+03  0.13633834401E+03  0.80419002446E+02 0. -1.
<mgrwt>
<rscale>  0 0.90106938E+02</rscale>
<asrwt>0</asrwt>
<pdfrwt beam="1">  1        2 0.55393669E-01 0.90106938E+02</pdfrwt>
<pdfrwt beam="2">  1       -2 0.39141963E-02 0.90106938E+02</pdfrwt>
<totfact> 0.22799004E+04</totfact>
</mgrwt>
</event>
<event>
 4    3  0.8789582E-001  0.8301311E+02  0.7546771E-02  0.1320712E+00
         -1   -1    0    0    0  501 -0.00000000000E+00  0.00000000000E+00  0.76531414465E+03  0.76531414465E+03  0.00000000000E+00 0.  1.
          1   -1    0    0  501    0  0.00000000000E+00 -0.00000000000E+00 -0.11370094895E+02  0.11370094895E+02  0.00000000000E+00 0. -1.
         24    1    1    2    0    0 -0.19851426130E+02  0.54663748012E+01  0.55411095619E+03  0.56029467970E+03  0.80419002446E+02 0.  1.
        -24    1    1    2    0    0  0.19851426130E+02 -0.54663748012E+01  0.19983309356E+03  0.21638955985E+03  0.80419002446E+02 0. -1.
<mgrwt>
<rscale>  0 0.83013109E+02</rscale>
<asrwt>0</asrwt>
<pdfrwt beam="1">  1        1 0.17492460E-02 0.83013109E+02</pdfrwt>
<pdfrwt beam="2">  1       -1 0.11774060E+00 0.83013109E+02</pdfrwt>
<totfact> 0.46473706E+03</totfact>
</mgrwt>
</event>
<event>
 4    3  0.8789582E-001  0.8883259E+02  0.7546771E-02  0.1305704E+00
         -2   -1    0    0    0  501 -0.00000000000E+00  0.00000000000E+00  0.54721472669E+01  0.54721472669E+01  0.00000000000E+00 0.  1.
          2   -1    0    0  501    0  0.00000000000E+00 -0.00000000000E+00 -0.15607130412E+04  0.15607130412E+04  0.00000000000E+00 0. -1.
         24    1    1    2    0    0  0.31460837825E+02 -0.20838171477E+02 -0.99352872484E+03  0.99749213367E+03  0.80419002446E+02 0.  0.
        -24    1    1    2    0    0 -0.31460837825E+02  0.20838171477E+02 -0.56171216913E+03  0.56869305483E+03  0.80419002446E+02 0. -1.
<mgrwt>
<rscale>  0 0.88832593E+02</rscale>
<asrwt>0</asrwt>
<pdfrwt beam="1">  1        2 0.24010986E+00 0.88832593E+02</pdfrwt>
<pdfrwt beam="2">  1       -2 0.84186823E-03 0.88832593E+02</pdfrwt>
<totfact> 0.32106711E+04</totfact>
</mgrwt>
</event>
<event>
 4    3  0.8789582E-001  0.8306043E+02  0.7546771E-02  0.1320584E+00
          3   -1    0    0  501    0  0.00000000000E+00  0.00000000000E+00  0.17610106385E+02  0.17610106385E+02  0.00000000000E+00 0. -1.
         -3   -1    0    0    0  501 -0.00000000000E+00 -0.00000000000E+00 -0.70189214649E+03  0.70189214649E+03  0.00000000000E+00 0.  1.
         24    1    1    2    0    0 -0.19967768415E+02  0.57538550952E+01 -0.58127231473E+03  0.58717675231E+03  0.80419002446E+02 0.  1.
        -24    1    1    2    0    0  0.19967768415E+02 -0.57538550952E+01 -0.10300972537E+03  0.13232550056E+03  0.80419002446E+02 0. -1.
<mgrwt>
<rscale>  0 0.83060427E+02</rscale>
<asrwt>0</asrwt>
<pdfrwt beam="1">  1        3 0.27092467E-02 0.83060427E+02</pdfrwt>
<pdfrwt beam="2">  1       -3 0.10798342E+00 0.83060427E+02</pdfrwt>
<totfact> 0.95826129E+02</totfact>
</mgrwt>
</event>
<event>
 4    3  0.8789582E-001  0.1348631E+03  0.7546771E-02  0.1220413E+00
          2   -1    0    0  501    0  0.00000000000E+00  0.00000000000E+00  0.14242446979E+03  0.14242446979E+03  0.00000000000E+00 0. -1.
         -2   -1    0    0    0  501 -0.00000000000E+00 -0.00000000000E+00 -0.19231457173E+03  0.19231457173E+03  0.00000000000E+00 0.  1.
         24    1    1    2    0    0 -0.51261929194E+02  0.95357525791E+02  0.72066800312E+02  0.15291070195E+03  0.80419002446E+02 0. -1.
        -24    1    1    2    0    0  0.51261929194E+02 -0.95357525791E+02 -0.12195690226E+03  0.18182833957E+03  0.80419002446E+02 0.  1.
<mgrwt>
<rscale>  0 0.13486311E+03</rscale>
<asrwt>0</asrwt>
<pdfrwt beam="1">  1        2 0.21911457E-01 0.13486311E+03</pdfrwt>
<pdfrwt beam="2">  1       -2 0.29586857E-01 0.13486311E+03</pdfrwt>
<totfact> 0.25353638E+03</totfact>
</mgrwt>
</event>
<event>
 4    3  0.8789582E-001  0.8208345E+02  0.7546771E-02  0.1323241E+00
         -2   -1    0    0    0  501 -0.00000000000E+00  0.00000000000E+00  0.53013729571E+01  0.53013729571E+01  0.00000000000E+00 0.  1.
          2   -1    0    0  501    0  0.00000000000E+00 -0.00000000000E+00 -0.14514779688E+04  0.14514779688E+04  0.00000000000E+00 0. -1.
         24    1    1    2    0    0 -0.13341289291E+02 -0.96170020866E+01 -0.97998031209E+03  0.98341197103E+03  0.80419002446E+02 0. -1.
        -24    1    1    2    0    0  0.13341289291E+02  0.96170020866E+01 -0.46619628379E+03  0.47336737076E+03  0.80419002446E+02 0.  1.
<mgrwt>
<rscale>  0 0.82083450E+02</rscale>
<asrwt>0</asrwt>
<pdfrwt beam="1">  1        2 0.22330429E+00 0.82083450E+02</pdfrwt>
<pdfrwt beam="2">  1       -2 0.81559587E-03 0.82083450E+02</pdfrwt>
<totfact> 0.37892741E+04</totfact>
</mgrwt>
</event>
<event>
 4    3  0.8789582E-001  0.9446493E+02  0.7546771E-02  0.1292386E+00
          2   -1    0    0  501    0  0.00000000000E+00  0.00000000000E+00  0.37865859379E+03  0.37865859379E+03  0.00000000000E+00 0. -1.
         -2   -1    0    0    0  501 -0.00000000000E+00 -0.00000000000E+00 -0.35061054274E+02  0.35061054274E+02  0.00000000000E+00 0.  1.
         24    1    1    2    0    0  0.15951198271E+02 -0.46925121925E+02  0.29024232351E+03  0.30522816073E+03  0.80419002446E+02 0. -1.
        -24    1    1    2    0    0 -0.15951198271E+02  0.46925121925E+02  0.53355216008E+02  0.10849148733E+03  0.80419002446E+02 0.  1.
<mgrwt>
<rscale>  0 0.94464934E+02</rscale>
<asrwt>0</asrwt>
<pdfrwt beam="1">  1        2 0.58255165E-01 0.94464934E+02</pdfrwt>
<pdfrwt beam="2">  1       -2 0.53940086E-02 0.94464934E+02</pdfrwt>
<totfact> 0.13514638E+04</totfact>
</mgrwt>
</event>
<event>
 4    3  0.8789582E-001  0.8391141E+02  0.7546771E-02  0.1318304E+00
          1   -1    0    0  501    0  0.00000000000E+00  0.00000000000E+00  0.12044295565E+03  0.12044295565E+03  0.00000000000E+00 0. -1.
         -1   -1    0    0    0  501 -0.00000000000E+00 -0.00000000000E+00 -0.10461911525E+03  0.10461911525E+03  0.00000000000E+00 0.  1.
         24    1    1    2    0    0  0.21324117717E+02 -0.10917422781E+02 -0.66835189372E+02  0.10727565711E+03  0.80419002446E+02 0.  1.
        -24    1    1    2    0    0 -0.21324117717E+02  0.10917422781E+02  0.82659029767E+02  0.11778641379E+03  0.80419002446E+02 0.  0.
<mgrwt>
<rscale>  0 0.83911406E+02</rscale>
<asrwt>0</asrwt>
<pdfrwt beam="1">  1        1 0.18529686E-01 0.83911406E+02</pdfrwt>
<pdfrwt beam="2">  1       -1 0.16095248E-01 0.83911406E+02</pdfrwt>
<totfact> 0.73678279E+03</totfact>
</mgrwt>
</event>
<event>
 4    3  0.8789582E-001  0.1032085E+03  0.7546771E-02  0.1273690E+00
          3   -1    0    0  501    0  0.00000000000E+00  0.00000000000E+00  0.60386168180E+02  0.60386168180E+02  0.00000000000E+00 0. -1.
         -3   -1    0    0    0  501 -0.00000000000E+00 -0.00000000000E+00 -0.17774276754E+03  0.17774276754E+03  0.00000000000E+00 0.  1.
         24    1    1    2    0    0 -0.43247723470E+02  0.48108321560E+02 -0.48321419832E+02  0.11396030782E+03  0.80419002446E+02 0.  0.
        -24    1    1    2    0    0  0.43247723470E+02 -0.48108321560E+02 -0.69035179528E+02  0.12416862790E+03  0.80419002446E+02 0. -1.
<mgrwt>
<rscale>  0 0.10320850E+03</rscale>
<asrwt>0</asrwt>
<pdfrwt beam="1">  1        3 0.92901800E-02 0.10320851E+03</pdfrwt>
<pdfrwt beam="2">  1       -3 0.27345040E-01 0.10320851E+03</pdfrwt>
<totfact> 0.23114761E+03</totfact>
</mgrwt>
</event>
<event>
 4    3  0.8789582E-001  0.1327685E+03  0.7546771E-02  0.1223405E+00
          2   -1    0    0  501    0  0.00000000000E+00  0.00000000000E+00  0.39996627094E+04  0.39996627094E+04  0.00000000000E+00 0. -1.
         -2   -1    0    0    0  501 -0.00000000000E+00 -0.00000000000E+00 -0.82969793760E+01  0.82969793760E+01  0.00000000000E+00 0.  1.
         24    1    1    2    0    0 -0.10255994324E+03  0.25331869692E+02  0.33678081338E+04  0.33704241703E+04  0.80419002446E+02 0. -1.
        -24    1    1    2    0    0  0.10255994324E+03 -0.25331869692E+02  0.62355759627E+03  0.63753551854E+03  0.80419002446E+02 0.  1.
<mgrwt>
<rscale>  0 0.13276845E+03</rscale>
<asrwt>0</asrwt>
<pdfrwt beam="1">  1        2 0.61533118E+00 0.13276845E+03</pdfrwt>
<pdfrwt beam="2">  1       -2 0.12764616E-02 0.13276845E+03</pdfrwt>
<totfact> 0.70398194E+02</totfact>
</mgrwt>
</event>
<event>
 4    3  0.8789582E-001  0.8549716E+02  0.7546771E-02  0.1314137E+00
         -3   -1    0    0    0  501 -0.00000000000E+00  0.00000000000E+00  0.28244341447E+03  0.28244341447E+03  0.00000000000E+00 0.  1.
          3   -1    0    0  501    0  0.00000000000E+00 -0.00000000000E+00 -0.72154838931E+02  0.72154838931E+02  0.00000000000E+00 0. -1.
         24    1    1    2    0    0 -0.13708840703E+02  0.25585479674E+02  0.24712984575E+03  0.26150129196E+03  0.80419002446E+02 0.  1.
        -24    1    1    2    0    0  0.13708840703E+02 -0.25585479674E+02 -0.36841270212E+02  0.93096961437E+02  0.80419002446E+02 0. -1.
<mgrwt>
<rscale>  0 0.85497164E+02</rscale>
<asrwt>0</asrwt>
<pdfrwt beam="1">  1        3 0.11100745E-01 0.85497164E+02</pdfrwt>
<pdfrwt beam="2">  1       -3 0.43452833E-01 0.85497164E+02</pdfrwt>
<totfact> 0.70045009E+02</totfact>
</mgrwt>
</event>
<event>
 4    3  0.8789582E-001  0.8158943E+02  0.7546771E-02  0.1324600E+00
          2   -1    0    0  501    0  0.00000000000E+00  0.00000000000E+00  0.59331172029E+02  0.59331172029E+02  0.00000000000E+00 0. -1.
         -2   -1    0    0    0  501 -0.00000000000E+00 -0.00000000000E+00 -0.17523274775E+03  0.17523274775E+03  0.00000000000E+00 0.  1.
         24    1    1    2    0    0  0.13492204321E+01 -0.13703988388E+02  0.12391060213E+02  0.82524990282E+02  0.80419002446E+02 0. -1.
        -24    1    1    2    0    0 -0.13492204321E+01  0.13703988388E+02 -0.12829263593E+03  0.15203892950E+03  0.80419002446E+02 0.  1.
<mgrwt>
<rscale>  0 0.81589433E+02</rscale>
<asrwt>0</asrwt>
<pdfrwt beam="1">  1        2 0.91278727E-02 0.81589433E+02</pdfrwt>
<pdfrwt beam="2">  1       -2 0.26958884E-01 0.81589433E+02</pdfrwt>
<totfact> 0.80281008E+03</totfact>
</mgrwt>
</event>
<event>
 4    3  0.8789582E-001  0.8138345E+02  0.7546771E-02  0.1325171E+00
         -4   -1    0    0    0  501 -0.00000000000E+00  0.00000000000E+00  0.18803098182E+02  0.18803098182E+02  0.00000000000E+00 0.  1.
          4   -1    0    0  501    0  0.00000000000E+00 -0.00000000000E+00 -0.68226597128E+03  0.68226597128E+03  0.00000000000E+00 0. -1.
         24    1    1    2    0    0  0.11887323452E+02 -0.38395111807E+01 -0.57552700758E+03  0.58125261523E+03  0.80419002446E+02 0. -1.
        -24    1    1    2    0    0 -0.11887323452E+02  0.38395111807E+01 -0.87935865510E+02  0.11981645422E+03  0.80419002446E+02 0.  1.
<mgrwt>
<rscale>  0 0.81383452E+02</rscale>
<asrwt>0</asrwt>
<pdfrwt beam="1">  1        4 0.10496399E+00 0.81383452E+02</pdfrwt>
<pdfrwt beam="2">  1       -4 0.28927846E-02 0.81383452E+02</pdfrwt>
<totfact> 0.64596561E+02</totfact>
</mgrwt>
</event>
<event>
 4    3  0.8789582E-001  0.8093512E+02  0.7546771E-02  0.1326418E+00
         -2   -1    0    0    0  501 -0.00000000000E+00  0.00000000000E+00  0.13975190309E+02  0.13975190309E+02  0.00000000000E+00 0.  1.
          2   -1    0    0  501    0  0.00000000000E+00 -0.00000000000E+00 -0.58920083810E+03  0.58920083810E+03  0.00000000000E+00 0. -1.
         24    1    1    2    0    0 -0.85378475626E+01 -0.32222144306E+01 -0.42398819316E+03  0.43164392895E+03  0.80419002446E+02 0.  0.
        -24    1    1    2    0    0  0.85378475626E+01  0.32222144306E+01 -0.15123745463E+03  0.17153209946E+03  0.80419002446E+02 0.  1.
<mgrwt>
<rscale>  0 0.80935119E+02</rscale>
<asrwt>0</asrwt>
<pdfrwt beam="1">  1        2 0.90646290E-01 0.80935119E+02</pdfrwt>
<pdfrwt beam="2">  1       -2 0.21500291E-02 0.80935119E+02</pdfrwt>
<totfact> 0.31721165E+04</totfact>
</mgrwt>
</event>
<event>
 4    3  0.8789582E-001  0.9485250E+02  0.7546771E-02  0.1291509E+00
         -1   -1    0    0    0  501 -0.00000000000E+00  0.00000000000E+00  0.15276668798E+04  0.15276668798E+04  0.00000000000E+00 0.  1.
          1   -1    0    0  501    0  0.00000000000E+00 -0.00000000000E+00 -0.13124144238E+02  0.13124144238E+02  0.00000000000E+00 0. -1.
         24    1    1    2    0    0  0.50236016401E+02 -0.24745468461E+01  0.13292643693E+04  0.13326442737E+04  0.80419002446E+02 0.  1.
        -24    1    1    2    0    0 -0.50236016401E+02  0.24745468461E+01  0.18527836626E+03  0.20814675036E+03  0.80419002446E+02 0. -1.
<mgrwt>
<rscale>  0 0.94852500E+02</rscale>
<asrwt>0</asrwt>
<pdfrwt beam="1">  1        1 0.20191003E-02 0.94852500E+02</pdfrwt>
<pdfrwt beam="2">  1       -1 0.23502553E+00 0.94852500E+02</pdfrwt>
<totfact> 0.57835187E+02</totfact>
</mgrwt>
</event>
<event>
 4    3  0.8789582E-001  0.8687841E+02  0.7546771E-02  0.1310592E+00
          2   -1    0    0  501    0  0.00000000000E+00  0.00000000000E+00  0.55804565949E+03  0.55804565949E+03  0.00000000000E+00 0. -1.
         -2   -1    0    0    0  501 -0.00000000000E+00 -0.00000000000E+00 -0.13814448783E+02  0.13814448783E+02  0.00000000000E+00 0.  1.
         24    1    1    2    0    0 -0.32746374857E+02  0.28838743159E+01  0.31346683217E+03  0.32528343428E+03  0.80419002446E+02 0. -1.
        -24    1    1    2    0    0  0.32746374857E+02 -0.28838743159E+01  0.23076437854E+03  0.24657667399E+03  0.80419002446E+02 0.  0.
<mgrwt>
<rscale>  0 0.86878408E+02</rscale>
<asrwt>0</asrwt>
<pdfrwt beam="1">  1        2 0.85853161E-01 0.86878408E+02</pdfrwt>
<pdfrwt beam="2">  1       -2 0.21253002E-02 0.86878408E+02</pdfrwt>
<totfact> 0.34524186E+04</totfact>
</mgrwt>
</event>
<event>
 4    3  0.8789582E-001  0.8412059E+02  0.7546771E-02  0.1317748E+00
         -1   -1    0    0    0  501 -0.00000000000E+00  0.00000000000E+00  0.29924037652E+03  0.29924037652E+03  0.00000000000E+00 0.  1.
          1   -1    0    0  501    0  0.00000000000E+00 -0.00000000000E+00 -0.23647578160E+02  0.23647578160E+02  0.00000000000E+00 0. -1.
         24    1    1    2    0    0  0.22050943448E+02  0.11082113311E+02  0.13816504209E+03  0.16175862311E+03  0.80419002446E+02 0. -1.
        -24    1    1    2    0    0 -0.22050943448E+02 -0.11082113311E+02  0.13742775627E+03  0.16112933157E+03  0.80419002446E+02 0.  1.
<mgrwt>
<rscale>  0 0.84120588E+02</rscale>
<asrwt>0</asrwt>
<pdfrwt beam="1">  1        1 0.36380892E-02 0.84120588E+02</pdfrwt>
<pdfrwt beam="2">  1       -1 0.46036978E-01 0.84120588E+02</pdfrwt>
<totfact> 0.11125102E+04</totfact>
</mgrwt>
</event>
<event>
 4    3  0.8789582E-001  0.8664615E+02  0.7546771E-02  0.1311183E+00
         -2   -1    0    0    0  501 -0.00000000000E+00  0.00000000000E+00  0.26612750635E+02  0.26612750635E+02  0.00000000000E+00 0.  1.
          2   -1    0    0  501    0  0.00000000000E+00 -0.00000000000E+00 -0.56436546920E+03  0.56436546920E+03  0.00000000000E+00 0. -1.
         24    1    1    2    0    0  0.26078428305E+02 -0.18980366707E+02 -0.47784798130E+03  0.48564003946E+03  0.80419002446E+02 0. -1.
        -24    1    1    2    0    0 -0.26078428305E+02  0.18980366707E+02 -0.59904737268E+02  0.10533818037E+03  0.80419002446E+02 0.  1.
<mgrwt>
<rscale>  0 0.86646146E+02</rscale>
<asrwt>0</asrwt>
<pdfrwt beam="1">  1        2 0.86825454E-01 0.86646146E+02</pdfrwt>
<pdfrwt beam="2">  1       -2 0.40942695E-02 0.86646146E+02</pdfrwt>
<totfact> 0.13157414E+04</totfact>
</mgrwt>
</event>
<event>
 4    3  0.8789582E-001  0.8728302E+02  0.7546771E-02  0.1309568E+00
          2   -1    0    0  501    0  0.00000000000E+00  0.00000000000E+00  0.27596896331E+03  0.27596896331E+03  0.00000000000E+00 0. -1.
         -2   -1    0    0    0  501 -0.00000000000E+00 -0.00000000000E+00 -0.59678874696E+02  0.59678874696E+02  0.00000000000E+00 0.  1.
         24    1    1    2    0    0  0.18125963810E+02  0.28680299793E+02  0.23117596741E+03  0.24710454067E+03  0.80419002446E+02 0. -1.
        -24    1    1    2    0    0 -0.18125963810E+02 -0.28680299793E+02 -0.14885878795E+02  0.88543297330E+02  0.80419002446E+02 0.  1.
<mgrwt>
<rscale>  0 0.87283023E+02</rscale>
<asrwt>0</asrwt>
<pdfrwt beam="1">  1        2 0.42456763E-01 0.87283023E+02</pdfrwt>
<pdfrwt beam="2">  1       -2 0.91813655E-02 0.87283023E+02</pdfrwt>
<totfact> 0.83437444E+03</totfact>
</mgrwt>
</event>
<event>
 4    3  0.8789582E-001  0.9394399E+02  0.7546771E-02  0.1293572E+00
         -2   -1    0    0    0  501 -0.00000000000E+00  0.00000000000E+00  0.46605037609E+02  0.46605037609E+02  0.00000000000E+00 0.  1.
          2   -1    0    0  501    0  0.00000000000E+00 -0.00000000000E+00 -0.26677649850E+03  0.26677649850E+03  0.00000000000E+00 0. -1.
         24    1    1    2    0    0 -0.25964554654E+02 -0.41037784723E+02 -0.19449024738E+03  0.21599057886E+03  0.80419002446E+02 0. -1.
        -24    1    1    2    0    0  0.25964554654E+02  0.41037784723E+02 -0.25681213511E+02  0.97390957256E+02  0.80419002446E+02 0.  1.
<mgrwt>
<rscale>  0 0.93943993E+02</rscale>
<asrwt>0</asrwt>
<pdfrwt beam="1">  1        2 0.41042538E-01 0.93943993E+02</pdfrwt>
<pdfrwt beam="2">  1       -2 0.71700059E-02 0.93943993E+02</pdfrwt>
<totfact> 0.12701767E+04</totfact>
</mgrwt>
</event>
<event>
 4    3  0.8789582E-001  0.1241932E+03  0.7546771E-02  0.1236336E+00
          1   -1    0    0  501    0  0.00000000000E+00  0.00000000000E+00  0.57965759838E+02  0.57965759838E+02  0.00000000000E+00 0. -1.
         -1   -1    0    0    0  501 -0.00000000000E+00 -0.00000000000E+00 -0.88138535337E+03  0.88138535337E+03  0.00000000000E+00 0.  1.
         24    1    1    2    0    0 -0.87125461815E+02  0.36957820445E+02 -0.80413588876E+03  0.81366975495E+03  0.80419002446E+02 0.  1.
        -24    1    1    2    0    0  0.87125461815E+02 -0.36957820445E+02 -0.19283704778E+02  0.12568135826E+03  0.80419002446E+02 0. -1.
<mgrwt>
<rscale>  0 0.12419317E+03</rscale>
<asrwt>0</asrwt>
<pdfrwt beam="1">  1        1 0.89178095E-02 0.12419317E+03</pdfrwt>
<pdfrwt beam="2">  1       -1 0.13559774E+00 0.12419317E+03</pdfrwt>
<totfact> 0.36820296E+02</totfact>
</mgrwt>
</event>
<event>
 4    3  0.8789582E-001  0.8504226E+02  0.7546771E-02  0.1315322E+00
          3   -1    0    0  501    0  0.00000000000E+00  0.00000000000E+00  0.26506999269E+02  0.26506999269E+02  0.00000000000E+00 0. -1.
         -3   -1    0    0    0  501 -0.00000000000E+00 -0.00000000000E+00 -0.32415983821E+03  0.32415983821E+03  0.00000000000E+00 0.  1.
         24    1    1    2    0    0 -0.85777239575E+01  0.26294330837E+02 -0.21858943896E+03  0.23454962793E+03  0.80419002446E+02 0.  1.
        -24    1    1    2    0    0  0.85777239575E+01 -0.26294330837E+02 -0.79063399978E+02  0.11611720955E+03  0.80419002446E+02 0. -1.
<mgrwt>
<rscale>  0 0.85042255E+02</rscale>
<asrwt>0</asrwt>
<pdfrwt beam="1">  1        3 0.40779999E-02 0.85042255E+02</pdfrwt>
<pdfrwt beam="2">  1       -3 0.49870745E-01 0.85042255E+02</pdfrwt>
<totfact> 0.26375381E+03</totfact>
</mgrwt>
</event>
<event>
 4    3  0.8789582E-001  0.1212050E+03  0.7546771E-02  0.1241122E+00
         -2   -1    0    0    0  501 -0.00000000000E+00  0.00000000000E+00  0.42239286339E+03  0.42239286339E+03  0.00000000000E+00 0.  1.
          2   -1    0    0  501    0  0.00000000000E+00 -0.00000000000E+00 -0.36462748945E+02  0.36462748945E+02  0.00000000000E+00 0. -1.
         24    1    1    2    0    0 -0.32741389984E+02 -0.84566126960E+02  0.14367199381E+03  0.18796884371E+03  0.80419002446E+02 0.  0.
        -24    1    1    2    0    0  0.32741389984E+02  0.84566126960E+02  0.24225812064E+03  0.27088676863E+03  0.80419002446E+02 0.  1.
<mgrwt>
<rscale>  0 0.12120497E+03</rscale>
<asrwt>0</asrwt>
<pdfrwt beam="1">  1        2 0.56096540E-02 0.12120497E+03</pdfrwt>
<pdfrwt beam="2">  1       -2 0.64983514E-01 0.12120497E+03</pdfrwt>
<totfact> 0.28656792E+03</totfact>
</mgrwt>
</event>
<event>
 4    3  0.8789582E-001  0.8148691E+02  0.7546771E-02  0.1324884E+00
          1   -1    0    0  501    0  0.00000000000E+00  0.00000000000E+00  0.88220609746E+03  0.88220609746E+03  0.00000000000E+00 0. -1.
         -1   -1    0    0    0  501 -0.00000000000E+00 -0.00000000000E+00 -0.82023319820E+01  0.82023319820E+01  0.00000000000E+00 0.  1.
         24    1    1    2    0    0 -0.42814940801E+01  0.12432608574E+02  0.30922868363E+03  0.31978507733E+03  0.80419002446E+02 0.  1.
        -24    1    1    2    0    0  0.42814940801E+01 -0.12432608574E+02  0.56477508185E+03  0.57062335212E+03  0.80419002446E+02 0. -1.
<mgrwt>
<rscale>  0 0.81486912E+02</rscale>
<asrwt>0</asrwt>
<pdfrwt beam="1">  1        1 0.13572394E+00 0.81486912E+02</pdfrwt>
<pdfrwt beam="2">  1       -1 0.12618979E-02 0.81486912E+02</pdfrwt>
<totfact> 0.23959625E+04</totfact>
</mgrwt>
</event>
<event>
 4    3  0.8789582E-001  0.8898116E+02  0.7546771E-02  0.1305338E+00
         -4   -1    0    0    0  501 -0.00000000000E+00  0.00000000000E+00  0.37791585768E+02  0.37791585768E+02  0.00000000000E+00 0.  1.
          4   -1    0    0  501    0  0.00000000000E+00 -0.00000000000E+00 -0.21015827040E+03  0.21015827040E+03  0.00000000000E+00 0. -1.
         24    1    1    2    0    0 -0.19744374024E+02 -0.32566704602E+02 -0.93078530590E+02  0.12876823896E+03  0.80419002446E+02 0. -1.
        -24    1    1    2    0    0  0.19744374024E+02  0.32566704602E+02 -0.79288154047E+02  0.11918161721E+03  0.80419002446E+02 0.  1.
<mgrwt>
<rscale>  0 0.88981158E+02</rscale>
<asrwt>0</asrwt>
<pdfrwt beam="1">  1        4 0.32332041E-01 0.88981158E+02</pdfrwt>
<pdfrwt beam="2">  1       -4 0.58140903E-02 0.88981158E+02</pdfrwt>
<totfact> 0.25416925E+03</totfact>
</mgrwt>
</event>
<event>
 4    3  0.8789582E-001  0.8147868E+02  0.7546771E-02  0.1324907E+00
          2   -1    0    0  501    0  0.00000000000E+00  0.00000000000E+00  0.36822929187E+04  0.36822929187E+04  0.00000000000E+00 0. -1.
         -2   -1    0    0    0  501 -0.00000000000E+00 -0.00000000000E+00 -0.99704680959E+01  0.99704680959E+01  0.00000000000E+00 0.  1.
         24    1    1    2    0    0  0.76468106844E+00 -0.13075743119E+02  0.35070652448E+04  0.35080116030E+04  0.80419002446E+02 0. -1.
        -24    1    1    2    0    0 -0.76468106844E+00  0.13075743119E+02  0.16525720583E+03  0.18425178379E+03  0.80419002446E+02 0.  1.
<mgrwt>
<rscale>  0 0.81478683E+02</rscale>
<asrwt>0</asrwt>
<pdfrwt beam="1">  1        2 0.56650552E+00 0.81478683E+02</pdfrwt>
<pdfrwt beam="2">  1       -2 0.15339211E-02 0.81478683E+02</pdfrwt>
<totfact> 0.93579793E+02</totfact>
</mgrwt>
</event>
<event>
 4    3  0.8789582E-001  0.1084802E+03  0.7546771E-02  0.1263410E+00
         -2   -1    0    0    0  501 -0.00000000000E+00  0.00000000000E+00  0.26354251815E+02  0.26354251815E+02  0.00000000000E+00 0.  1.
          2   -1    0    0  501    0  0.00000000000E+00 -0.00000000000E+00 -0.63081338168E+03  0.63081338168E+03  0.00000000000E+00 0. -1.
         24    1    1    2    0    0 -0.69083573294E+02 -0.22982740829E+02 -0.47982789619E+03  0.49193777289E+03  0.80419002446E+02 0. -1.
        -24    1    1    2    0    0  0.69083573294E+02  0.22982740829E+02 -0.12463123367E+03  0.16522986061E+03  0.80419002446E+02 0.  1.
<mgrwt>
<rscale>  0 0.10848024E+03</rscale>
<asrwt>0</asrwt>
<pdfrwt beam="1">  1        2 0.97048219E-01 0.10848024E+03</pdfrwt>
<pdfrwt beam="2">  1       -2 0.40545000E-02 0.10848024E+03</pdfrwt>
<totfact> 0.12000620E+04</totfact>
</mgrwt>
</event>
<event>
 4    3  0.8789582E-001  0.8552725E+02  0.7546771E-02  0.1314059E+00
          1   -1    0    0  501    0  0.00000000000E+00  0.00000000000E+00  0.18046260539E+04  0.18046260539E+04  0.00000000000E+00 0. -1.
         -1   -1    0    0    0  501 -0.00000000000E+00 -0.00000000000E+00 -0.48845276677E+01  0.48845276677E+01  0.00000000000E+00 0.  1.
         24    1    1    2    0    0 -0.21654956670E+02 -0.19461704647E+02  0.52666533504E+03  0.53356469728E+03  0.80419002446E+02 0.  1.
        -24    1    1    2    0    0  0.21654956670E+02  0.19461704647E+02  0.12730761912E+04  0.12759458843E+04  0.80419002446E+02 0.  1.
<mgrwt>
<rscale>  0 0.85527253E+02</rscale>
<asrwt>0</asrwt>
<pdfrwt beam="1">  1        1 0.27763424E+00 0.85527253E+02</pdfrwt>
<pdfrwt beam="2">  1       -1 0.75146724E-03 0.85527253E+02</pdfrwt>
<totfact> 0.12184781E+04</totfact>
</mgrwt>
</event>
<event>
 4    3  0.8789582E-001  0.8445560E+02  0.7546771E-02  0.1316862E+00
         -3   -1    0    0    0  501 -0.00000000000E+00  0.00000000000E+00  0.70620541783E+02  0.70620541783E+02  0.00000000000E+00 0.  1.
          3   -1    0    0  501    0  0.00000000000E+00 -0.00000000000E+00 -0.43416454986E+03  0.43416454986E+03  0.00000000000E+00 0. -1.
         24    1    1    2    0    0 -0.21079646126E+02 -0.14872137203E+02  0.39322558107E+02  0.93161212295E+02  0.80419002446E+02 0.  1.
        -24    1    1    2    0    0  0.21079646126E+02  0.14872137203E+02 -0.40286656618E+03  0.41162387934E+03  0.80419002446E+02 0. -1.
<mgrwt>
<rscale>  0 0.84455597E+02</rscale>
<asrwt>0</asrwt>
<pdfrwt beam="1">  1        3 0.66794545E-01 0.84455597E+02</pdfrwt>
<pdfrwt beam="2">  1       -3 0.10864699E-01 0.84455597E+02</pdfrwt>
<totfact> 0.30665253E+02</totfact>
</mgrwt>
</event>
<event>
 4    3  0.8789582E-001  0.8524616E+02  0.7546771E-02  0.1314790E+00
          2   -1    0    0  501    0  0.00000000000E+00  0.00000000000E+00  0.17703377201E+03  0.17703377201E+03  0.00000000000E+00 0. -1.
         -2   -1    0    0    0  501 -0.00000000000E+00 -0.00000000000E+00 -0.74417518319E+02  0.74417518319E+02  0.00000000000E+00 0.  1.
         24    1    1    2    0    0  0.19569209862E+02  0.20414179053E+02  0.13549808259E+03  0.16008322530E+03  0.80419002446E+02 0. -1.
        -24    1    1    2    0    0 -0.19569209862E+02 -0.20414179053E+02 -0.32881828902E+02  0.91368065030E+02  0.80419002446E+02 0.  1.
<mgrwt>
<rscale>  0 0.85246165E+02</rscale>
<asrwt>0</asrwt>
<pdfrwt beam="1">  1        2 0.27235965E-01 0.85246165E+02</pdfrwt>
<pdfrwt beam="2">  1       -2 0.11448849E-01 0.85246165E+02</pdfrwt>
<totfact> 0.94469426E+03</totfact>
</mgrwt>
</event>
<event>
 4    3  0.8789582E-001  0.9995996E+02  0.7546771E-02  0.1280380E+00
          1   -1    0    0  501    0  0.00000000000E+00  0.00000000000E+00  0.23862378578E+04  0.23862378578E+04  0.00000000000E+00 0. -1.
         -1   -1    0    0    0  501 -0.00000000000E+00 -0.00000000000E+00 -0.48509352635E+01  0.48509352635E+01  0.00000000000E+00 0.  1.
         24    1    1    2    0    0  0.11042832759E+02  0.58333772188E+02  0.16328790937E+04  0.16359358557E+04  0.80419002446E+02 0.  0.
        -24    1    1    2    0    0 -0.11042832759E+02 -0.58333772188E+02  0.74850782880E+03  0.75515293740E+03  0.80419002446E+02 0. -1.
<mgrwt>
<rscale>  0 0.99959950E+02</rscale>
<asrwt>0</asrwt>
<pdfrwt beam="1">  1        1 0.36711258E+00 0.99959962E+02</pdfrwt>
<pdfrwt beam="2">  1       -1 0.74629964E-03 0.99959962E+02</pdfrwt>
<totfact> 0.53273973E+03</totfact>
</mgrwt>
</event>
<event>
 4    3  0.8789582E-001  0.1258804E+03  0.7546771E-02  0.1233700E+00
         -2   -1    0    0    0  501 -0.00000000000E+00  0.00000000000E+00  0.75547586080E+01  0.75547586080E+01  0.00000000000E+00 0.  1.
          2   -1    0    0  501    0  0.00000000000E+00 -0.00000000000E+00 -0.21013761946E+04  0.21013761946E+04  0.00000000000E+00 0. -1.
         24    1    1    2    0    0  0.85660552454E+02 -0.45176602943E+02 -0.10014417188E+04  0.10093222418E+04  0.80419002446E+02 0. -1.
        -24    1    1    2    0    0 -0.85660552454E+02  0.45176602943E+02 -0.10923797172E+04  0.10996087114E+04  0.80419002446E+02 0.  1.
<mgrwt>
<rscale>  0 0.12588040E+03</rscale>
<asrwt>0</asrwt>
<pdfrwt beam="1">  1        2 0.32328903E+00 0.12588042E+03</pdfrwt>
<pdfrwt beam="2">  1       -2 0.11622692E-02 0.12588042E+03</pdfrwt>
<totfact> 0.11028051E+04</totfact>
</mgrwt>
</event>
<event>
 4    3  0.8789582E-001  0.1004560E+03  0.7546771E-02  0.1279340E+00
         -2   -1    0    0    0  501 -0.00000000000E+00  0.00000000000E+00  0.31005230398E+02  0.31005230398E+02  0.00000000000E+00 0.  1.
          2   -1    0    0  501    0  0.00000000000E+00 -0.00000000000E+00 -0.10248593099E+04  0.10248593099E+04  0.00000000000E+00 0. -1.
         24    1    1    2    0    0  0.39923355047E+02 -0.45059100871E+02 -0.93304520091E+03  0.93843740321E+03  0.80419002446E+02 0. -1.
        -24    1    1    2    0    0 -0.39923355047E+02  0.45059100871E+02 -0.60808878547E+02  0.11742713704E+03  0.80419002446E+02 0.  1.
<mgrwt>
<rscale>  0 0.10045602E+03</rscale>
<asrwt>0</asrwt>
<pdfrwt beam="1">  1        2 0.15767067E+00 0.10045602E+03</pdfrwt>
<pdfrwt beam="2">  1       -2 0.47700352E-02 0.10045602E+03</pdfrwt>
<totfact> 0.51418044E+03</totfact>
</mgrwt>
</event>
<event>
 4    3  0.8789582E-001  0.1803799E+03  0.7546771E-02  0.1167436E+00
          2   -1    0    0  501    0  0.00000000000E+00  0.00000000000E+00  0.13378359985E+04  0.13378359985E+04  0.00000000000E+00 0. -1.
         -2   -1    0    0    0  501 -0.00000000000E+00 -0.00000000000E+00 -0.25892342109E+02  0.25892342109E+02  0.00000000000E+00 0.  1.
         24    1    1    2    0    0 -0.15928328521E+03  0.26429614170E+02  0.48797157003E+03  0.52024336475E+03  0.80419002446E+02 0.  1.
        -24    1    1    2    0    0  0.15928328521E+03 -0.26429614170E+02  0.82397208640E+03  0.84348497590E+03  0.80419002446E+02 0. -1.
<mgrwt>
<rscale>  0 0.18037991E+03</rscale>
<asrwt>0</asrwt>
<pdfrwt beam="1">  1        2 0.20582087E+00 0.18037994E+03</pdfrwt>
<pdfrwt beam="2">  1       -2 0.39834383E-02 0.18037994E+03</pdfrwt>
<totfact> 0.45852063E+03</totfact>
</mgrwt>
</event>
<event>
 4    3  0.8789582E-001  0.8143305E+02  0.7546771E-02  0.1325033E+00
         -2   -1    0    0    0  501 -0.00000000000E+00  0.00000000000E+00  0.12461935469E+02  0.12461935469E+02  0.00000000000E+00 0.  1.
          2   -1    0    0  501    0  0.00000000000E+00 -0.00000000000E+00 -0.53882804758E+03  0.53882804758E+03  0.00000000000E+00 0. -1.
         24    1    1    2    0    0  0.12807301686E+02  0.31471615903E+00 -0.29392075035E+03  0.30499303183E+03  0.80419002446E+02 0.  0.
        -24    1    1    2    0    0 -0.12807301686E+02 -0.31471615903E+00 -0.23244536176E+03  0.24629695122E+03  0.80419002446E+02 0.  0.
<mgrwt>
<rscale>  0 0.81433052E+02</rscale>
<asrwt>0</asrwt>
<pdfrwt beam="1">  1        2 0.82896603E-01 0.81433052E+02</pdfrwt>
<pdfrwt beam="2">  1       -2 0.19172213E-02 0.81433052E+02</pdfrwt>
<totfact> 0.41264494E+04</totfact>
</mgrwt>
</event>
<event>
 4    3  0.8789582E-001  0.8593933E+02  0.7546771E-02  0.1312994E+00
         -2   -1    0    0    0  501 -0.00000000000E+00  0.00000000000E+00  0.23066294163E+03  0.23066294163E+03  0.00000000000E+00 0.  1.
          2   -1    0    0  501    0  0.00000000000E+00 -0.00000000000E+00 -0.13958794935E+03  0.13958794935E+03  0.00000000000E+00 0. -1.
         24    1    1    2    0    0 -0.12428433580E+02  0.27638503174E+02 -0.11697466326E+03  0.14515040688E+03  0.80419002446E+02 0.  1.
        -24    1    1    2    0    0  0.12428433580E+02 -0.27638503174E+02  0.20804965554E+03  0.22510048410E+03  0.80419002446E+02 0.  0.
<mgrwt>
<rscale>  0 0.85939332E+02</rscale>
<asrwt>0</asrwt>
<pdfrwt beam="1">  1        2 0.21475069E-01 0.85939332E+02</pdfrwt>
<pdfrwt beam="2">  1       -2 0.35486606E-01 0.85939332E+02</pdfrwt>
<totfact> 0.18229214E+03</totfact>
</mgrwt>
</event>
<event>
 4    3  0.8789582E-001  0.1189859E+03  0.7546771E-02  0.1244779E+00
          1   -1    0    0  501    0  0.00000000000E+00  0.00000000000E+00  0.38545625863E+02  0.38545625863E+02  0.00000000000E+00 0. -1.
         -1   -1    0    0    0  501 -0.00000000000E+00 -0.00000000000E+00 -0.84324042086E+03  0.84324042086E+03  0.00000000000E+00 0.  1.
         24    1    1    2    0    0 -0.52190661766E+02  0.70473856489E+02 -0.73358203164E+03  0.74316905393E+03  0.80419002446E+02 0.  1.
        -24    1    1    2    0    0  0.52190661766E+02 -0.70473856489E+02 -0.71112763359E+02  0.13861699279E+03  0.80419002446E+02 0. -1.
<mgrwt>
<rscale>  0 0.11898590E+03</rscale>
<asrwt>0</asrwt>
<pdfrwt beam="1">  1        1 0.59300964E-02 0.11898590E+03</pdfrwt>
<pdfrwt beam="2">  1       -1 0.12972929E+00 0.11898590E+03</pdfrwt>
<totfact> 0.70889290E+02</totfact>
</mgrwt>
</event>
<event>
 4    3  0.8789582E-001  0.1393801E+03  0.7546771E-02  0.1214166E+00
         -2   -1    0    0    0  501 -0.00000000000E+00  0.00000000000E+00  0.14948264335E+02  0.14948264335E+02  0.00000000000E+00 0.  1.
          2   -1    0    0  501    0  0.00000000000E+00 -0.00000000000E+00 -0.13228081799E+04  0.13228081799E+04  0.00000000000E+00 0. -1.
         24    1    1    2    0    0  0.49063712618E+02  0.10272461755E+03 -0.74252104036E+03  0.75548944815E+03  0.80419002446E+02 0.  0.
        -24    1    1    2    0    0 -0.49063712618E+02 -0.10272461755E+03 -0.56533887516E+03  0.58226699603E+03  0.80419002446E+02 0.  1.
<mgrwt>
<rscale>  0 0.13938010E+03</rscale>
<asrwt>0</asrwt>
<pdfrwt beam="1">  1        2 0.20350893E+00 0.13938010E+03</pdfrwt>
<pdfrwt beam="2">  1       -2 0.22997332E-02 0.13938010E+03</pdfrwt>
<totfact> 0.10419703E+04</totfact>
</mgrwt>
</event>
<event>
 4    3  0.8789582E-001  0.9439807E+02  0.7546771E-02  0.1292538E+00
         -1   -1    0    0    0  501 -0.00000000000E+00  0.00000000000E+00  0.63619868380E+01  0.63619868380E+01  0.00000000000E+00 0.  1.
          1   -1    0    0  501    0  0.00000000000E+00 -0.00000000000E+00 -0.16673279364E+04  0.16673279364E+04  0.00000000000E+00 0. -1.
         24    1    1    2    0    0  0.18001250079E+02  0.46040534771E+02 -0.11651542542E+04  0.11689719534E+04  0.80419002446E+02 0.  1.
        -24    1    1    2    0    0 -0.18001250079E+02 -0.46040534771E+02 -0.49581169540E+03  0.50471796986E+03  0.80419002446E+02 0. -1.
<mgrwt>
<rscale>  0 0.94398062E+02</rscale>
<asrwt>0</asrwt>
<pdfrwt beam="1">  1        1 0.25651230E+00 0.94398073E+02</pdfrwt>
<pdfrwt beam="2">  1       -1 0.97876603E-03 0.94398073E+02</pdfrwt>
<totfact> 0.10302837E+04</totfact>
</mgrwt>
</event>
<event>
 4    3  0.8789582E-001  0.8235766E+02  0.7546771E-02  0.1322491E+00
         -2   -1    0    0    0  501 -0.00000000000E+00  0.00000000000E+00  0.95643233828E+01  0.95643233828E+01  0.00000000000E+00 0.  1.
          2   -1    0    0  501    0  0.00000000000E+00 -0.00000000000E+00 -0.10545467051E+04  0.10545467051E+04  0.00000000000E+00 0. -1.
         24    1    1    2    0    0 -0.17186439610E+02  0.44938103883E+01 -0.82697702365E+03  0.83106785622E+03  0.80419002446E+02 0.  1.
        -24    1    1    2    0    0  0.17186439610E+02 -0.44938103883E+01 -0.21800535804E+03  0.23304317223E+03  0.80419002446E+02 0.  1.
<mgrwt>
<rscale>  0 0.82357659E+02</rscale>
<asrwt>0</asrwt>
<pdfrwt beam="1">  1        2 0.16223785E+00 0.82357659E+02</pdfrwt>
<pdfrwt beam="2">  1       -2 0.14714353E-02 0.82357659E+02</pdfrwt>
<totfact> 0.26835526E+04</totfact>
</mgrwt>
</event>
<event>
 4    3  0.8789582E-001  0.9966688E+02  0.7546771E-02  0.1280998E+00
          2   -1    0    0  501    0  0.00000000000E+00  0.00000000000E+00  0.28748584343E+03  0.28748584343E+03  0.00000000000E+00 0. -1.
         -2   -1    0    0    0  501 -0.00000000000E+00 -0.00000000000E+00 -0.57178091644E+02  0.57178091644E+02  0.00000000000E+00 0.  1.
         24    1    1    2    0    0 -0.54493289382E+02 -0.22287933367E+02  0.22355819520E+03  0.24476877489E+03  0.80419002446E+02 0. -1.
        -24    1    1    2    0    0  0.54493289382E+02  0.22287933367E+02  0.67495565849E+01  0.99895160193E+02  0.80419002446E+02 0.  1.
<mgrwt>
<rscale>  0 0.99666878E+02</rscale>
<asrwt>0</asrwt>
<pdfrwt beam="1">  1        2 0.44228590E-01 0.99666878E+02</pdfrwt>
<pdfrwt beam="2">  1       -2 0.87966296E-02 0.99666878E+02</pdfrwt>
<totfact> 0.86326740E+03</totfact>
</mgrwt>
</event>
<event>
 4    3  0.8789582E-001  0.8461374E+02  0.7546771E-02  0.1316446E+00
          4   -1    0    0  501    0  0.00000000000E+00  0.00000000000E+00  0.13733436483E+04  0.13733436483E+04  0.00000000000E+00 0. -1.
         -4   -1    0    0    0  501 -0.00000000000E+00 -0.00000000000E+00 -0.54629801205E+01  0.54629801205E+01  0.00000000000E+00 0.  1.
         24    1    1    2    0    0 -0.22251215404E+02 -0.14041090221E+02  0.83136043512E+03  0.83565522666E+03  0.80419002446E+02 0.  1.
        -24    1    1    2    0    0  0.22251215404E+02  0.14041090221E+02  0.53652023309E+03  0.54315140179E+03  0.80419002446E+02 0. -1.
<mgrwt>
<rscale>  0 0.84613739E+02</rscale>
<asrwt>0</asrwt>
<pdfrwt beam="1">  1        4 0.21128336E+00 0.84613739E+02</pdfrwt>
<pdfrwt beam="2">  1       -4 0.84045958E-03 0.84613739E+02</pdfrwt>
<totfact> 0.71881507E+02</totfact>
</mgrwt>
</event>
<event>
 4    3  0.8789582E-001  0.1081541E+03  0.7546771E-02  0.1264027E+00
         -1   -1    0    0    0  501 -0.00000000000E+00  0.00000000000E+00  0.58011674321E+03  0.58011674321E+03  0.00000000000E+00 0.  1.
          1   -1    0    0  501    0  0.00000000000E+00 -0.00000000000E+00 -0.34707767422E+02  0.34707767422E+02  0.00000000000E+00 0. -1.
         24    1    1    2    0    0 -0.30609569164E+02  0.65522188232E+02  0.47170321211E+03  0.48394342556E+03  0.80419002446E+02 0.  1.
        -24    1    1    2    0    0  0.30609569164E+02 -0.65522188232E+02  0.73705763675E+02  0.13088108507E+03  0.80419002446E+02 0. -1.
<mgrwt>
<rscale>  0 0.10815414E+03</rscale>
<asrwt>0</asrwt>
<pdfrwt beam="1">  1        1 0.53396570E-02 0.10815414E+03</pdfrwt>
<pdfrwt beam="2">  1       -1 0.89248722E-01 0.10815414E+03</pdfrwt>
<totfact> 0.18898069E+03</totfact>
</mgrwt>
</event>
<event>
 4    3  0.8789582E-001  0.8978951E+02  0.7546771E-02  0.1303362E+00
         -4   -1    0    0    0  501 -0.00000000000E+00  0.00000000000E+00  0.14532217491E+03  0.14532217491E+03  0.00000000000E+00 0.  1.
          4   -1    0    0  501    0  0.00000000000E+00 -0.00000000000E+00 -0.76884535156E+02  0.76884535156E+02  0.00000000000E+00 0. -1.
         24    1    1    2    0    0  0.11289095053E+02 -0.38307914143E+02 -0.24406172715E+02  0.93047392086E+02  0.80419002446E+02 0.  0.
        -24    1    1    2    0    0 -0.11289095053E+02  0.38307914143E+02  0.92843812469E+02  0.12915931798E+03  0.80419002446E+02 0.  1.
<mgrwt>
<rscale>  0 0.89789509E+02</rscale>
<asrwt>0</asrwt>
<pdfrwt beam="1">  1        4 0.11828390E-01 0.89789509E+02</pdfrwt>
<pdfrwt beam="2">  1       -4 0.22357258E-01 0.89789509E+02</pdfrwt>
<totfact> 0.15632028E+03</totfact>
</mgrwt>
</event>
<event>
 4    3  0.8789582E-001  0.8370762E+02  0.7546771E-02  0.1318847E+00
          3   -1    0    0  501    0  0.00000000000E+00  0.00000000000E+00  0.10694070378E+02  0.10694070378E+02  0.00000000000E+00 0. -1.
         -3   -1    0    0    0  501 -0.00000000000E+00 -0.00000000000E+00 -0.16056997420E+04  0.16056997420E+04  0.00000000000E+00 0.  1.
         24    1    1    2    0    0 -0.14576947003E+02 -0.18090369801E+02 -0.14193111608E+04  0.14217774566E+04  0.80419002446E+02 0.  1.
        -24    1    1    2    0    0  0.14576947003E+02  0.18090369801E+02 -0.17569451082E+03  0.19461635581E+03  0.80419002446E+02 0. -1.
<mgrwt>
<rscale>  0 0.83707615E+02</rscale>
<asrwt>0</asrwt>
<pdfrwt beam="1">  1        3 0.16452405E-02 0.83707615E+02</pdfrwt>
<pdfrwt beam="2">  1       -3 0.24703089E+00 0.83707615E+02</pdfrwt>
<totfact> 0.24474601E+02</totfact>
</mgrwt>
</event>
<event>
 4    3  0.8789582E-001  0.8423368E+02  0.7546771E-02  0.1317449E+00
          2   -1    0    0  501    0  0.00000000000E+00  0.00000000000E+00  0.68226725794E+02  0.68226725794E+02  0.00000000000E+00 0. -1.
         -2   -1    0    0    0  501 -0.00000000000E+00 -0.00000000000E+00 -0.10853223895E+03  0.10853223895E+03  0.00000000000E+00 0.  1.
         24    1    1    2    0    0 -0.22586741408E+02 -0.10859659663E+02 -0.38221098411E+02  0.92499521153E+02  0.80419002446E+02 0. -1.
        -24    1    1    2    0    0  0.22586741408E+02  0.10859659663E+02 -0.20844147465E+01  0.84259443593E+02  0.80419002446E+02 0.  0.
<mgrwt>
<rscale>  0 0.84233668E+02</rscale>
<asrwt>0</asrwt>
<pdfrwt beam="1">  1        2 0.10496420E-01 0.84233679E+02</pdfrwt>
<pdfrwt beam="2">  1       -2 0.16697267E-01 0.84233679E+02</pdfrwt>
<totfact> 0.15261829E+04</totfact>
</mgrwt>
</event>
<event>
 4    3  0.8789582E-001  0.8949497E+02  0.7546771E-02  0.1304079E+00
         -1   -1    0    0    0  501 -0.00000000000E+00  0.00000000000E+00  0.33579200403E+02  0.33579200403E+02  0.00000000000E+00 0.  1.
          1   -1    0    0  501    0  0.00000000000E+00 -0.00000000000E+00 -0.66178394635E+03  0.66178394635E+03  0.00000000000E+00 0. -1.
         24    1    1    2    0    0  0.78182336665E+01  0.38483889265E+02 -0.36048727054E+02  0.96482439787E+02  0.80419002446E+02 0.  1.
        -24    1    1    2    0    0 -0.78182336665E+01 -0.38483889265E+02 -0.59215601889E+03  0.59888070696E+03  0.80419002446E+02 0. -1.
<mgrwt>
<rscale>  0 0.89494975E+02</rscale>
<asrwt>0</asrwt>
<pdfrwt beam="1">  1        1 0.10181291E+00 0.89494975E+02</pdfrwt>
<pdfrwt beam="2">  1       -1 0.51660310E-02 0.89494975E+02</pdfrwt>
<totfact> 0.48586162E+03</totfact>
</mgrwt>
</event>
<event>
 4    3  0.8789582E-001  0.9341223E+02  0.7546771E-02  0.1294793E+00
         -2   -1    0    0    0  501 -0.00000000000E+00  0.00000000000E+00  0.10673580899E+02  0.10673580899E+02  0.00000000000E+00 0.  1.
          2   -1    0    0  501    0  0.00000000000E+00 -0.00000000000E+00 -0.11544903226E+04  0.11544903226E+04  0.00000000000E+00 0. -1.
         24    1    1    2    0    0  0.34403550017E+02  0.32787560804E+02 -0.88665348916E+03  0.89156057236E+03  0.80419002446E+02 0. -1.
        -24    1    1    2    0    0 -0.34403550017E+02 -0.32787560804E+02 -0.25716325256E+03  0.27360333115E+03  0.80419002446E+02 0.  1.
<mgrwt>
<rscale>  0 0.93412228E+02</rscale>
<asrwt>0</asrwt>
<pdfrwt beam="1">  1        2 0.17761378E+00 0.93412228E+02</pdfrwt>
<pdfrwt beam="2">  1       -2 0.16420904E-02 0.93412228E+02</pdfrwt>
<totfact> 0.20397661E+04</totfact>
</mgrwt>
</event>
<event>
 4    3  0.8789582E-001  0.9066809E+02  0.7546771E-02  0.1301242E+00
         -1   -1    0    0    0  501 -0.00000000000E+00  0.00000000000E+00  0.49489536204E+02  0.49489536204E+02  0.00000000000E+00 0.  1.
          1   -1    0    0  501    0  0.00000000000E+00 -0.00000000000E+00 -0.27801094942E+03  0.27801094942E+03  0.00000000000E+00 0. -1.
         24    1    1    2    0    0 -0.37027533732E+02  0.19556268704E+02 -0.10372061081E+02  0.91259418721E+02  0.80419002446E+02 0.  1.
        -24    1    1    2    0    0  0.37027533732E+02 -0.19556268704E+02 -0.21814935214E+03  0.23624106691E+03  0.80419002446E+02 0. -1.
<mgrwt>
<rscale>  0 0.90668086E+02</rscale>
<asrwt>0</asrwt>
<pdfrwt beam="1">  1        1 0.42770916E-01 0.90668086E+02</pdfrwt>
<pdfrwt beam="2">  1       -1 0.76137747E-02 0.90668086E+02</pdfrwt>
<totfact> 0.82416432E+03</totfact>
</mgrwt>
</event>
<event>
 4    3  0.8789582E-001  0.8056851E+02  0.7546771E-02  0.1327446E+00
          2   -1    0    0  501    0  0.00000000000E+00  0.00000000000E+00  0.11667462874E+04  0.11667462874E+04  0.00000000000E+00 0. -1.
         -2   -1    0    0    0  501 -0.00000000000E+00 -0.00000000000E+00 -0.16668376957E+02  0.16668376957E+02  0.00000000000E+00 0.  1.
         24    1    1    2    0    0  0.47846367470E+01  0.10841794919E+01  0.10580039357E+04  0.10610672043E+04  0.80419002446E+02 0. -1.
        -24    1    1    2    0    0 -0.47846367470E+01 -0.10841794919E+01  0.92073974713E+02  0.12234746000E+03  0.80419002446E+02 0.  0.
<mgrwt>
<rscale>  0 0.80568506E+02</rscale>
<asrwt>0</asrwt>
<pdfrwt beam="1">  1        2 0.17949936E+00 0.80568506E+02</pdfrwt>
<pdfrwt beam="2">  1       -2 0.25643666E-02 0.80568506E+02</pdfrwt>
<totfact> 0.10477165E+04</totfact>
</mgrwt>
</event>
<event>
 4    3  0.8789582E-001  0.9287403E+02  0.7546771E-02  0.1296037E+00
          1   -1    0    0  501    0  0.00000000000E+00  0.00000000000E+00  0.18340432918E+02  0.18340432918E+02  0.00000000000E+00 0. -1.
         -1   -1    0    0    0  501 -0.00000000000E+00 -0.00000000000E+00 -0.47030557286E+03  0.47030557286E+03  0.00000000000E+00 0.  1.
         24    1    1    2    0    0  0.15196467927E+02  0.43902587085E+02 -0.22637334105E+03  0.24468444022E+03  0.80419002446E+02 0. -1.
        -24    1    1    2    0    0 -0.15196467927E+02 -0.43902587085E+02 -0.22559179889E+03  0.24396156556E+03  0.80419002446E+02 0.  0.
<mgrwt>
<rscale>  0 0.92874032E+02</rscale>
<asrwt>0</asrwt>
<pdfrwt beam="1">  1        1 0.28216048E-02 0.92874032E+02</pdfrwt>
<pdfrwt beam="2">  1       -1 0.72354710E-01 0.92874032E+02</pdfrwt>
<totfact> 0.68414803E+03</totfact>
</mgrwt>
</event>
<event>
 4    3  0.8789582E-001  0.8473658E+02  0.7546771E-02  0.1316123E+00
          2   -1    0    0  501    0  0.00000000000E+00  0.00000000000E+00  0.85672223183E+03  0.85672223183E+03  0.00000000000E+00 0. -1.
         -2   -1    0    0    0  501 -0.00000000000E+00 -0.00000000000E+00 -0.10307027319E+02  0.10307027319E+02  0.00000000000E+00 0.  1.
         24    1    1    2    0    0  0.23010988913E+02  0.13548697511E+02  0.61060136826E+03  0.61645301499E+03  0.80419002446E+02 0. -1.
        -24    1    1    2    0    0 -0.23010988913E+02 -0.13548697511E+02  0.23581383625E+03  0.25057624416E+03  0.80419002446E+02 0.  0.
<mgrwt>
<rscale>  0 0.84736585E+02</rscale>
<asrwt>0</asrwt>
<pdfrwt beam="1">  1        2 0.13180336E+00 0.84736585E+02</pdfrwt>
<pdfrwt beam="2">  1       -2 0.15856972E-02 0.84736585E+02</pdfrwt>
<totfact> 0.31778897E+04</totfact>
</mgrwt>
</event>
<event>
 4    3  0.8789582E-001  0.9914983E+02  0.7546771E-02  0.1282094E+00
         -1   -1    0    0    0  501 -0.00000000000E+00  0.00000000000E+00  0.13730438782E+03  0.13730438782E+03  0.00000000000E+00 0.  1.
          1   -1    0    0  501    0  0.00000000000E+00 -0.00000000000E+00 -0.16131688131E+03  0.16131688131E+03  0.00000000000E+00 0. -1.
         24    1    1    2    0    0  0.12017261622E+02 -0.56736746605E+02  0.99344541835E+02  0.14035678444E+03  0.80419002446E+02 0.  1.
        -24    1    1    2    0    0 -0.12017261622E+02  0.56736746605E+02 -0.12335703533E+03  0.15826448468E+03  0.80419002446E+02 0. -1.
<mgrwt>
<rscale>  0 0.99149831E+02</rscale>
<asrwt>0</asrwt>
<pdfrwt beam="1">  1        1 0.24817982E-01 0.99149831E+02</pdfrwt>
<pdfrwt beam="2">  1       -1 0.21123752E-01 0.99149831E+02</pdfrwt>
<totfact> 0.33705858E+03</totfact>
</mgrwt>
</event>
<event>
 4    3  0.8789582E-001  0.9617414E+02  0.7546771E-02  0.1288553E+00
         -2   -1    0    0    0  501 -0.00000000000E+00  0.00000000000E+00  0.14810622676E+03  0.14810622676E+03  0.00000000000E+00 0.  1.
          2   -1    0    0  501    0  0.00000000000E+00 -0.00000000000E+00 -0.84549485095E+02  0.84549485095E+02  0.00000000000E+00 0. -1.
         24    1    1    2    0    0  0.21003253829E+02 -0.48385049506E+02 -0.27692450964E+02  0.10008165407E+03  0.80419002446E+02 0. -1.
        -24    1    1    2    0    0 -0.21003253829E+02  0.48385049506E+02  0.91249192627E+02  0.13257405778E+03  0.80419002446E+02 0.  1.
<mgrwt>
<rscale>  0 0.96174142E+02</rscale>
<asrwt>0</asrwt>
<pdfrwt beam="1">  1        2 0.13007613E-01 0.96174142E+02</pdfrwt>
<pdfrwt beam="2">  1       -2 0.22785573E-01 0.96174142E+02</pdfrwt>
<totfact> 0.71251751E+03</totfact>
</mgrwt>
</event>
<event>
 4    3  0.8789582E-001  0.1230247E+03  0.7546771E-02  0.1238189E+00
         -2   -1    0    0    0  501 -0.00000000000E+00  0.00000000000E+00  0.99942955624E+02  0.99942955624E+02  0.00000000000E+00 0.  1.
          2   -1    0    0  501    0  0.00000000000E+00 -0.00000000000E+00 -0.97262776030E+03  0.97262776030E+03  0.00000000000E+00 0. -1.
         24    1    1    2    0    0  0.89235695641E+02 -0.26549108697E+02 -0.92911277202E+03  0.93722229147E+03  0.80419002446E+02 0. -1.
        -24    1    1    2    0    0 -0.89235695641E+02  0.26549108697E+02  0.56427967342E+02  0.13534842445E+03  0.80419002446E+02 0.  1.
<mgrwt>
<rscale>  0 0.12302472E+03</rscale>
<asrwt>0</asrwt>
<pdfrwt beam="1">  1        2 0.14963504E+00 0.12302472E+03</pdfrwt>
<pdfrwt beam="2">  1       -2 0.15375839E-01 0.12302472E+03</pdfrwt>
<totfact> 0.90401806E+02</totfact>
</mgrwt>
</event>
<event>
 4    3  0.8789582E-001  0.9241209E+02  0.7546771E-02  0.1297113E+00
         -2   -1    0    0    0  501 -0.00000000000E+00  0.00000000000E+00  0.75758803120E+02  0.75758803120E+02  0.00000000000E+00 0.  1.
          2   -1    0    0  501    0  0.00000000000E+00 -0.00000000000E+00 -0.26450652688E+03  0.26450652688E+03  0.00000000000E+00 0. -1.
         24    1    1    2    0    0 -0.28666491564E+02 -0.35369627410E+02 -0.22325144909E+03  0.24162202664E+03  0.80419002446E+02 0. -1.
        -24    1    1    2    0    0  0.28666491564E+02  0.35369627410E+02  0.34503725332E+02  0.98643303360E+02  0.80419002446E+02 0.  1.
<mgrwt>
<rscale>  0 0.92412089E+02</rscale>
<asrwt>0</asrwt>
<pdfrwt beam="1">  1        2 0.40693312E-01 0.92412089E+02</pdfrwt>
<pdfrwt beam="2">  1       -2 0.11655201E-01 0.92412089E+02</pdfrwt>
<totfact> 0.60397696E+03</totfact>
</mgrwt>
</event>
<event>
 4    3  0.8789582E-001  0.8150071E+02  0.7546771E-02  0.1324846E+00
          2   -1    0    0  501    0  0.00000000000E+00  0.00000000000E+00  0.27392160528E+03  0.27392160528E+03  0.00000000000E+00 0. -1.
         -2   -1    0    0    0  501 -0.00000000000E+00 -0.00000000000E+00 -0.25573226826E+02  0.25573226826E+02  0.00000000000E+00 0.  1.
         24    1    1    2    0    0 -0.10767294989E+02 -0.76951547664E+01  0.15824819708E+03  0.17800240976E+03  0.80419002446E+02 0.  0.
        -24    1    1    2    0    0  0.10767294989E+02  0.76951547664E+01  0.90100181373E+02  0.12149242234E+03  0.80419002446E+02 0.  1.
<mgrwt>
<rscale>  0 0.81500712E+02</rscale>
<asrwt>0</asrwt>
<pdfrwt beam="1">  1        2 0.42141783E-01 0.81500712E+02</pdfrwt>
<pdfrwt beam="2">  1       -2 0.39343428E-02 0.81500712E+02</pdfrwt>
<totfact> 0.29752878E+04</totfact>
</mgrwt>
</event>
<event>
 4    3  0.8789582E-001  0.1008248E+03  0.7546771E-02  0.1278571E+00
         -1   -1    0    0    0  501 -0.00000000000E+00  0.00000000000E+00  0.22156120250E+02  0.22156120250E+02  0.00000000000E+00 0.  1.
          1   -1    0    0  501    0  0.00000000000E+00 -0.00000000000E+00 -0.13142432244E+04  0.13142432244E+04  0.00000000000E+00 0. -1.
         24    1    1    2    0    0 -0.51539505431E+02 -0.32281594244E+02 -0.10695602482E+03  0.14698717341E+03  0.80419002446E+02 0.  1.
        -24    1    1    2    0    0  0.51539505431E+02  0.32281594244E+02 -0.11851310793E+04  0.11894121712E+04  0.80419002446E+02 0. -1.
<mgrwt>
<rscale>  0 0.10082479E+03</rscale>
<asrwt>0</asrwt>
<pdfrwt beam="1">  1        1 0.20219131E+00 0.10082479E+03</pdfrwt>
<pdfrwt beam="2">  1       -1 0.34086331E-02 0.10082479E+03</pdfrwt>
<totfact> 0.29294609E+03</totfact>
</mgrwt>
</event>
<event>
 4    3  0.8789582E-001  0.8855681E+02  0.7546771E-02  0.1306385E+00
         -4   -1    0    0    0  501 -0.00000000000E+00  0.00000000000E+00  0.53767319175E+02  0.53767319175E+02  0.00000000000E+00 0.  1.
          4   -1    0    0  501    0  0.00000000000E+00 -0.00000000000E+00 -0.15437298441E+03  0.15437298441E+03  0.00000000000E+00 0. -1.
         24    1    1    2    0    0  0.55623201556E+01 -0.36662635647E+02 -0.25858686116E+02  0.92254950328E+02  0.80419002446E+02 0. -1.
        -24    1    1    2    0    0 -0.55623201556E+01  0.36662635647E+02 -0.74746979122E+02  0.11588535326E+03  0.80419002446E+02 0. -1.
<mgrwt>
<rscale>  0 0.88556796E+02</rscale>
<asrwt>0</asrwt>
<pdfrwt beam="1">  1        4 0.23749689E-01 0.88556807E+02</pdfrwt>
<pdfrwt beam="2">  1       -4 0.82718954E-02 0.88556807E+02</pdfrwt>
<totfact> 0.25349457E+03</totfact>
</mgrwt>
</event>
<event>
 4    3  0.8789582E-001  0.8517302E+02  0.7546771E-02  0.1314981E+00
          1   -1    0    0  501    0  0.00000000000E+00  0.00000000000E+00  0.11064111068E+03  0.11064111068E+03  0.00000000000E+00 0. -1.
         -1   -1    0    0    0  501 -0.00000000000E+00 -0.00000000000E+00 -0.15670056077E+03  0.15670056077E+03  0.00000000000E+00 0.  1.
         24    1    1    2    0    0  0.10945257707E+02 -0.25834645304E+02 -0.12496857819E+03  0.15123355796E+03  0.80419002446E+02 0.  1.
        -24    1    1    2    0    0 -0.10945257707E+02  0.25834645304E+02  0.78909128100E+02  0.11610811348E+03  0.80419002446E+02 0. -1.
<mgrwt>
<rscale>  0 0.85173021E+02</rscale>
<asrwt>0</asrwt>
<pdfrwt beam="1">  1        1 0.17021709E-01 0.85173021E+02</pdfrwt>
<pdfrwt beam="2">  1       -1 0.24107779E-01 0.85173021E+02</pdfrwt>
<totfact> 0.43301334E+03</totfact>
</mgrwt>
</event>
<event>
 4    3  0.8789582E-001  0.1067864E+03  0.7546771E-02  0.1266639E+00
          2   -1    0    0  501    0  0.00000000000E+00  0.00000000000E+00  0.25008448181E+04  0.25008448181E+04  0.00000000000E+00 0. -1.
         -2   -1    0    0    0  501 -0.00000000000E+00 -0.00000000000E+00 -0.49692693779E+01  0.49692693779E+01  0.00000000000E+00 0.  1.
         24    1    1    2    0    0 -0.37289812992E+01 -0.70158425412E+02  0.16075950663E+04  0.16111378659E+04  0.80419002446E+02 0. -1.
        -24    1    1    2    0    0  0.37289812992E+01  0.70158425412E+02  0.88828048245E+03  0.89467622155E+03  0.80419002446E+02 0.  1.
<mgrwt>
<rscale>  0 0.10678636E+03</rscale>
<asrwt>0</asrwt>
<pdfrwt beam="1">  1        2 0.38474435E+00 0.10678636E+03</pdfrwt>
<pdfrwt beam="2">  1       -2 0.76450498E-03 0.10678636E+03</pdfrwt>
<totfact> 0.12349260E+04</totfact>
</mgrwt>
</event>
<event>
 4    3  0.8789582E-001  0.8877858E+02  0.7546771E-02  0.1305837E+00
          1   -1    0    0  501    0  0.00000000000E+00  0.00000000000E+00  0.88849162704E+03  0.88849162704E+03  0.00000000000E+00 0. -1.
         -1   -1    0    0    0  501 -0.00000000000E+00 -0.00000000000E+00 -0.89579669341E+01  0.89579669341E+01  0.00000000000E+00 0.  1.
         24    1    1    2    0    0  0.35771856439E+02 -0.11609961398E+02  0.48403050353E+03  0.49210482747E+03  0.80419002446E+02 0.  1.
        -24    1    1    2    0    0 -0.35771856439E+02  0.11609961398E+02  0.39550315658E+03  0.40534476650E+03  0.80419002446E+02 0. -1.
<mgrwt>
<rscale>  0 0.88778572E+02</rscale>
<asrwt>0</asrwt>
<pdfrwt beam="1">  1        1 0.13669095E+00 0.88778583E+02</pdfrwt>
<pdfrwt beam="2">  1       -1 0.13781495E-02 0.88778583E+02</pdfrwt>
<totfact> 0.21096276E+04</totfact>
</mgrwt>
</event>
<event>
 4    3  0.8789582E-001  0.8057276E+02  0.7546771E-02  0.1327434E+00
          2   -1    0    0  501    0  0.00000000000E+00  0.00000000000E+00  0.66873202795E+03  0.66873202795E+03  0.00000000000E+00 0. -1.
         -2   -1    0    0    0  501 -0.00000000000E+00 -0.00000000000E+00 -0.97292704115E+01  0.97292704115E+01  0.00000000000E+00 0.  1.
         24    1    1    2    0    0  0.49748349675E+01  0.32914336303E-01  0.31359288153E+03  0.32377841399E+03  0.80419002446E+02 0.  1.
        -24    1    1    2    0    0 -0.49748349675E+01 -0.32914336303E-01  0.34540987600E+03  0.35468288437E+03  0.80419002446E+02 0. -1.
<mgrwt>
<rscale>  0 0.80572748E+02</rscale>
<asrwt>0</asrwt>
<pdfrwt beam="1">  1        2 0.10288181E+00 0.80572758E+02</pdfrwt>
<pdfrwt beam="2">  1       -2 0.14968114E-02 0.80572758E+02</pdfrwt>
<totfact> 0.46106177E+04</totfact>
</mgrwt>
</event>
<event>
 4    3  0.8789582E-001  0.8542010E+02  0.7546771E-02  0.1314338E+00
         -2   -1    0    0    0  501 -0.00000000000E+00  0.00000000000E+00  0.81572454023E+03  0.81572454023E+03  0.00000000000E+00 0.  1.
          2   -1    0    0  501    0  0.00000000000E+00 -0.00000000000E+00 -0.13395498292E+02  0.13395498292E+02  0.00000000000E+00 0. -1.
         24    1    1    2    0    0  0.27669176538E+02  0.79871636656E+01  0.16220958630E+03  0.18332633187E+03  0.80419002446E+02 0. -1.
        -24    1    1    2    0    0 -0.27669176538E+02 -0.79871636656E+01  0.64011945563E+03  0.64579370665E+03  0.80419002446E+02 0.  1.
<mgrwt>
<rscale>  0 0.85420103E+02</rscale>
<asrwt>0</asrwt>
<pdfrwt beam="1">  1        2 0.20608465E-02 0.85420103E+02</pdfrwt>
<pdfrwt beam="2">  1       -2 0.12549604E+00 0.85420103E+02</pdfrwt>
<totfact> 0.23976712E+03</totfact>
</mgrwt>
</event>
<event>
 4    3  0.8789582E-001  0.8886968E+02  0.7546771E-02  0.1305612E+00
         -3   -1    0    0    0  501 -0.00000000000E+00  0.00000000000E+00  0.24184412130E+02  0.24184412130E+02  0.00000000000E+00 0.  1.
          3   -1    0    0  501    0  0.00000000000E+00 -0.00000000000E+00 -0.34853821249E+03  0.34853821249E+03  0.00000000000E+00 0. -1.
         24    1    1    2    0    0 -0.37792942956E+02 -0.15157467518E+01 -0.11538593092E+03  0.14564248362E+03  0.80419002446E+02 0.  1.
        -24    1    1    2    0    0  0.37792942956E+02  0.15157467518E+01 -0.20896786943E+03  0.22708014100E+03  0.80419002446E+02 0. -1.
<mgrwt>
<rscale>  0 0.88869680E+02</rscale>
<asrwt>0</asrwt>
<pdfrwt beam="1">  1        3 0.53621263E-01 0.88869680E+02</pdfrwt>
<pdfrwt beam="2">  1       -3 0.37206788E-02 0.88869680E+02</pdfrwt>
<totfact> 0.26583197E+03</totfact>
</mgrwt>
</event>
<event>
 4    3  0.8789582E-001  0.1039002E+03  0.7546771E-02  0.1272302E+00
         -2   -1    0    0    0  501 -0.00000000000E+00  0.00000000000E+00  0.56960790364E+02  0.56960790364E+02  0.00000000000E+00 0.  1.
          2   -1    0    0  501    0  0.00000000000E+00 -0.00000000000E+00 -0.19198542703E+03  0.19198542703E+03  0.00000000000E+00 0. -1.
         24    1    1    2    0    0  0.52127891926E+02 -0.40133737851E+02 -0.81615726708E+02  0.13212258259E+03  0.80419002446E+02 0.  0.
        -24    1    1    2    0    0 -0.52127891926E+02  0.40133737851E+02 -0.53408909955E+02  0.11682363480E+03  0.80419002446E+02 0. -1.
<mgrwt>
<rscale>  0 0.10390019E+03</rscale>
<asrwt>0</asrwt>
<pdfrwt beam="1">  1        2 0.29536219E-01 0.10390019E+03</pdfrwt>
<pdfrwt beam="2">  1       -2 0.87631987E-02 0.10390019E+03</pdfrwt>
<totfact> 0.13369170E+04</totfact>
</mgrwt>
</event>
<event>
 4    3  0.8789582E-001  0.2238697E+03  0.7546771E-02  0.1131030E+00
         -2   -1    0    0    0  501 -0.00000000000E+00  0.00000000000E+00  0.73307766532E+02  0.73307766532E+02  0.00000000000E+00 0.  1.
          2   -1    0    0  501    0  0.00000000000E+00 -0.00000000000E+00 -0.11177588177E+04  0.11177588177E+04  0.00000000000E+00 0. -1.
         24    1    1    2    0    0 -0.14512333328E+03  0.15029849975E+03 -0.89335543749E+03  0.92097859614E+03  0.80419002446E+02 0. -1.
        -24    1    1    2    0    0  0.14512333328E+03 -0.15029849975E+03 -0.15109561368E+03  0.27008798810E+03  0.80419002446E+02 0.  1.
<mgrwt>
<rscale>  0 0.22386969E+03</rscale>
<asrwt>0</asrwt>
<pdfrwt beam="1">  1        2 0.17196289E+00 0.22386969E+03</pdfrwt>
<pdfrwt beam="2">  1       -2 0.11278118E-01 0.22386969E+03</pdfrwt>
<totfact> 0.12223801E+03</totfact>
</mgrwt>
</event>
<event>
 4    3  0.8789582E-001  0.1057786E+03  0.7546771E-02  0.1268593E+00
          2   -1    0    0  501    0  0.00000000000E+00  0.00000000000E+00  0.29030737621E+04  0.29030737621E+04  0.00000000000E+00 0. -1.
         -2   -1    0    0    0  501 -0.00000000000E+00 -0.00000000000E+00 -0.43301576098E+01  0.43301576098E+01  0.00000000000E+00 0.  1.
         24    1    1    2    0    0 -0.65699319410E+02 -0.20136943311E+02  0.19313130826E+04  0.19342076766E+04  0.80419002446E+02 0. -1.
        -24    1    1    2    0    0  0.65699319410E+02  0.20136943311E+02  0.96743052188E+03  0.97319624315E+03  0.80419002446E+02 0.  1.
<mgrwt>
<rscale>  0 0.10577860E+03</rscale>
<asrwt>0</asrwt>
<pdfrwt beam="1">  1        2 0.44662518E+00 0.10577860E+03</pdfrwt>
<pdfrwt beam="2">  1       -2 0.66618042E-03 0.10577860E+03</pdfrwt>
<totfact> 0.90595128E+03</totfact>
</mgrwt>
</event>
<event>
 4    3  0.8789582E-001  0.9009707E+02  0.7546771E-02  0.1302617E+00
          2   -1    0    0  501    0  0.00000000000E+00  0.00000000000E+00  0.77169370765E+03  0.77169370765E+03  0.00000000000E+00 0. -1.
         -2   -1    0    0    0  501 -0.00000000000E+00 -0.00000000000E+00 -0.10658548005E+02  0.10658548005E+02  0.00000000000E+00 0.  1.
         24    1    1    2    0    0 -0.37829034800E+02  0.14806411235E+02  0.42526968595E+03  0.43470885363E+03  0.80419002446E+02 0.  0.
        -24    1    1    2    0    0  0.37829034800E+02 -0.14806411235E+02  0.33576547370E+03  0.34764340202E+03  0.80419002446E+02 0.  1.
<mgrwt>
<rscale>  0 0.90097068E+02</rscale>
<asrwt>0</asrwt>
<pdfrwt beam="1">  1        2 0.11872206E+00 0.90097068E+02</pdfrwt>
<pdfrwt beam="2">  1       -2 0.16397772E-02 0.90097068E+02</pdfrwt>
<totfact> 0.34665894E+04</totfact>
</mgrwt>
</event>
<event>
 4    3  0.8789582E-001  0.8596578E+02  0.7546771E-02  0.1312926E+00
          3   -1    0    0  501    0  0.00000000000E+00  0.00000000000E+00  0.82905866230E+03  0.82905866230E+03  0.00000000000E+00 0. -1.
         -3   -1    0    0    0  501 -0.00000000000E+00 -0.00000000000E+00 -0.15572891877E+02  0.15572891877E+02  0.00000000000E+00 0.  1.
         24    1    1    2    0    0 -0.30003951609E+02 -0.47604135980E+01  0.13058455377E+03  0.15634078255E+03  0.80419002446E+02 0.  1.
        -24    1    1    2    0    0  0.30003951609E+02  0.47604135980E+01  0.68290121666E+03  0.68829077163E+03  0.80419002446E+02 0. -1.
<mgrwt>
<rscale>  0 0.85965776E+02</rscale>
<asrwt>0</asrwt>
<pdfrwt beam="1">  1        3 0.12754745E+00 0.85965776E+02</pdfrwt>
<pdfrwt beam="2">  1       -3 0.23958302E-02 0.85965776E+02</pdfrwt>
<totfact> 0.79268551E+02</totfact>
</mgrwt>
</event>
<event>
 4    3  0.8789582E-001  0.1048694E+03  0.7546771E-02  0.1270377E+00
          1   -1    0    0  501    0  0.00000000000E+00  0.00000000000E+00  0.11396183944E+04  0.11396183944E+04  0.00000000000E+00 0. -1.
         -1   -1    0    0    0  501 -0.00000000000E+00 -0.00000000000E+00 -0.11901286586E+02  0.11901286586E+02  0.00000000000E+00 0.  1.
         24    1    1    2    0    0  0.23859013772E+02  0.62937417080E+02  0.31345701289E+03  0.33053424315E+03  0.80419002446E+02 0.  1.
        -24    1    1    2    0    0 -0.23859013772E+02 -0.62937417080E+02  0.81426009492E+03  0.82098543783E+03  0.80419002446E+02 0. -1.
<mgrwt>
<rscale>  0 0.10486938E+03</rscale>
<asrwt>0</asrwt>
<pdfrwt beam="1">  1        1 0.17532582E+00 0.10486938E+03</pdfrwt>
<pdfrwt beam="2">  1       -1 0.18309681E-02 0.10486938E+03</pdfrwt>
<totfact> 0.94049116E+03</totfact>
</mgrwt>
</event>
<event>
 4    3  0.8789582E-001  0.9081906E+02  0.7546771E-02  0.1300880E+00
         -2   -1    0    0    0  501 -0.00000000000E+00  0.00000000000E+00  0.63466710069E+01  0.63466710069E+01  0.00000000000E+00 0.  1.
          2   -1    0    0  501    0  0.00000000000E+00 -0.00000000000E+00 -0.13176196010E+04  0.13176196010E+04  0.00000000000E+00 0. -1.
         24    1    1    2    0    0  0.33467516561E+02  0.25706247386E+02 -0.73306213752E+03  0.73866650069E+03  0.80419002446E+02 0. -1.
        -24    1    1    2    0    0 -0.33467516561E+02 -0.25706247386E+02 -0.57821079252E+03  0.58529977137E+03  0.80419002446E+02 0.  0.
<mgrwt>
<rscale>  0 0.90819061E+02</rscale>
<asrwt>0</asrwt>
<pdfrwt beam="1">  1        2 0.20271068E+00 0.90819061E+02</pdfrwt>
<pdfrwt beam="2">  1       -2 0.97641105E-03 0.90819061E+02</pdfrwt>
<totfact> 0.34819611E+04</totfact>
</mgrwt>
</event>
<event>
 4    3  0.8789582E-001  0.8441094E+02  0.7546771E-02  0.1316980E+00
          1   -1    0    0  501    0  0.00000000000E+00  0.00000000000E+00  0.86822182373E+03  0.86822182373E+03  0.00000000000E+00 0. -1.
         -1   -1    0    0    0  501 -0.00000000000E+00 -0.00000000000E+00 -0.24956618207E+02  0.24956618207E+02  0.00000000000E+00 0.  1.
         24    1    1    2    0    0 -0.10032000801E+02  0.23608273431E+02  0.55766529310E+02  0.10116873707E+03  0.80419002446E+02 0.  1.
        -24    1    1    2    0    0  0.10032000801E+02 -0.23608273431E+02  0.78749867621E+03  0.79200970487E+03  0.80419002446E+02 0. -1.
<mgrwt>
<rscale>  0 0.84410945E+02</rscale>
<asrwt>0</asrwt>
<pdfrwt beam="1">  1        1 0.13357256E+00 0.84410945E+02</pdfrwt>
<pdfrwt beam="2">  1       -1 0.38394804E-02 0.84410945E+02</pdfrwt>
<totfact> 0.50319303E+03</totfact>
</mgrwt>
</event>
<event>
 4    3  0.8789582E-001  0.9931005E+02  0.7546771E-02  0.1281754E+00
          1   -1    0    0  501    0  0.00000000000E+00  0.00000000000E+00  0.23788558639E+02  0.23788558639E+02  0.00000000000E+00 0. -1.
         -1   -1    0    0    0  501 -0.00000000000E+00 -0.00000000000E+00 -0.57110118734E+03  0.57110118734E+03  0.00000000000E+00 0.  1.
         24    1    1    2    0    0 -0.20866345285E+02 -0.54404655566E+02 -0.42936876112E+03  0.44070400485E+03  0.80419002446E+02 0.  1.
        -24    1    1    2    0    0  0.20866345285E+02  0.54404655566E+02 -0.11794386759E+03  0.15418574113E+03  0.80419002446E+02 0. -1.
<mgrwt>
<rscale>  0 0.99310054E+02</rscale>
<asrwt>0</asrwt>
<pdfrwt beam="1">  1        1 0.36597785E-02 0.99310054E+02</pdfrwt>
<pdfrwt beam="2">  1       -1 0.87861714E-01 0.99310054E+02</pdfrwt>
<totfact> 0.32490924E+03</totfact>
</mgrwt>
</event>
<event>
 4    3  0.8789582E-001  0.8666251E+02  0.7546771E-02  0.1311141E+00
         -2   -1    0    0    0  501 -0.00000000000E+00  0.00000000000E+00  0.50665273120E+04  0.50665273120E+04  0.00000000000E+00 0.  1.
          2   -1    0    0  501    0  0.00000000000E+00 -0.00000000000E+00 -0.22275661195E+01  0.22275661195E+01  0.00000000000E+00 0. -1.
         24    1    1    2    0    0 -0.24873528884E+02 -0.20602957609E+02  0.10662788465E+04  0.10697948256E+04  0.80419002446E+02 0. -1.
        -24    1    1    2    0    0  0.24873528884E+02  0.20602957609E+02  0.39980208994E+04  0.39989600526E+04  0.80419002446E+02 0.  1.
<mgrwt>
<rscale>  0 0.86662508E+02</rscale>
<asrwt>0</asrwt>
<pdfrwt beam="1">  1        2 0.34270653E-03 0.86662508E+02</pdfrwt>
<pdfrwt beam="2">  1       -2 0.77945652E+00 0.86662508E+02</pdfrwt>
<totfact> 0.99250468E+00</totfact>
</mgrwt>
</event>
<event>
 4    3  0.8789582E-001  0.8388483E+02  0.7546771E-02  0.1318375E+00
          1   -1    0    0  501    0  0.00000000000E+00  0.00000000000E+00  0.39023376047E+03  0.39023376047E+03  0.00000000000E+00 0. -1.
         -1   -1    0    0    0  501 -0.00000000000E+00 -0.00000000000E+00 -0.12672918962E+03  0.12672918962E+03  0.00000000000E+00 0.  1.
         24    1    1    2    0    0 -0.16950504302E+02 -0.16796680373E+02 -0.10763463162E+03  0.13646200184E+03  0.80419002446E+02 0.  1.
        -24    1    1    2    0    0  0.16950504302E+02  0.16796680373E+02  0.37113920247E+03  0.38050094826E+03  0.80419002446E+02 0. -1.
<mgrwt>
<rscale>  0 0.83884826E+02</rscale>
<asrwt>0</asrwt>
<pdfrwt beam="1">  1        1 0.60035963E-01 0.83884826E+02</pdfrwt>
<pdfrwt beam="2">  1       -1 0.19496799E-01 0.83884826E+02</pdfrwt>
<totfact> 0.12861544E+03</totfact>
</mgrwt>
</event>
<event>
 4    3  0.8789582E-001  0.8421759E+02  0.7546771E-02  0.1317491E+00
         -2   -1    0    0    0  501 -0.00000000000E+00  0.00000000000E+00  0.53462597716E+01  0.53462597716E+01  0.00000000000E+00 0.  1.
          2   -1    0    0  501    0  0.00000000000E+00 -0.00000000000E+00 -0.13411445257E+04  0.13411445257E+04  0.00000000000E+00 0. -1.
         24    1    1    2    0    0 -0.16634334275E+02 -0.18673142822E+02 -0.73789491636E+03  0.74268533773E+03  0.80419002446E+02 0. -1.
        -24    1    1    2    0    0  0.16634334275E+02  0.18673142822E+02 -0.59790334961E+03  0.60380544778E+03  0.80419002446E+02 0.  1.
<mgrwt>
<rscale>  0 0.84217595E+02</rscale>
<asrwt>0</asrwt>
<pdfrwt beam="1">  1        2 0.20633007E+00 0.84217595E+02</pdfrwt>
<pdfrwt beam="2">  1       -2 0.82250093E-03 0.84217595E+02</pdfrwt>
<totfact> 0.42804398E+04</totfact>
</mgrwt>
</event>
<event>
 4    3  0.8789582E-001  0.1029562E+03  0.7546771E-02  0.1274199E+00
         -4   -1    0    0    0  501 -0.00000000000E+00  0.00000000000E+00  0.53412792793E+02  0.53412792793E+02  0.00000000000E+00 0.  1.
          4   -1    0    0  501    0  0.00000000000E+00 -0.00000000000E+00 -0.39177059940E+03  0.39177059940E+03  0.00000000000E+00 0. -1.
         24    1    1    2    0    0  0.62252673788E+02 -0.16042921487E+02 -0.32553957279E+03  0.34143227752E+03  0.80419002446E+02 0. -1.
        -24    1    1    2    0    0 -0.62252673788E+02  0.16042921487E+02 -0.12818233814E+02  0.10375111467E+03  0.80419002446E+02 0.  1.
<mgrwt>
<rscale>  0 0.10295624E+03</rscale>
<asrwt>0</asrwt>
<pdfrwt beam="1">  1        4 0.60272403E-01 0.10295624E+03</pdfrwt>
<pdfrwt beam="2">  1       -4 0.82173524E-02 0.10295624E+03</pdfrwt>
<totfact> 0.43554398E+02</totfact>
</mgrwt>
</event>
<event>
 4    3  0.8789582E-001  0.1400985E+03  0.7546771E-02  0.1213196E+00
         -1   -1    0    0    0  501 -0.00000000000E+00  0.00000000000E+00  0.12590097655E+03  0.12590097655E+03  0.00000000000E+00 0.  1.
          1   -1    0    0  501    0  0.00000000000E+00 -0.00000000000E+00 -0.23087576014E+03  0.23087576014E+03  0.00000000000E+00 0. -1.
         24    1    1    2    0    0  0.10469883337E+03  0.46888446477E+02  0.49171743186E+02  0.14847709724E+03  0.80419002446E+02 0.  1.
        -24    1    1    2    0    0 -0.10469883337E+03 -0.46888446477E+02 -0.15414652678E+03  0.20829963945E+03  0.80419002446E+02 0. -1.
<mgrwt>
<rscale>  0 0.14009849E+03</rscale>
<asrwt>0</asrwt>
<pdfrwt beam="1">  1        1 0.35519348E-01 0.14009849E+03</pdfrwt>
<pdfrwt beam="2">  1       -1 0.19369381E-01 0.14009849E+03</pdfrwt>
<totfact> 0.25261498E+03</totfact>
</mgrwt>
</event>
<event>
 4    3  0.8789582E-001  0.8331280E+02  0.7546771E-02  0.1319905E+00
         -2   -1    0    0    0  501 -0.00000000000E+00  0.00000000000E+00  0.62470979133E+01  0.62470979133E+01  0.00000000000E+00 0.  1.
          2   -1    0    0  501    0  0.00000000000E+00 -0.00000000000E+00 -0.11124680529E+04  0.11124680529E+04  0.00000000000E+00 0. -1.
         24    1    1    2    0    0  0.15272346293E+02 -0.15510041867E+02 -0.57287288156E+03  0.57889926614E+03  0.80419002446E+02 0. -1.
        -24    1    1    2    0    0 -0.15272346293E+02  0.15510041867E+02 -0.53334807346E+03  0.53981588470E+03  0.80419002446E+02 0.  1.
<mgrwt>
<rscale>  0 0.83312796E+02</rscale>
<asrwt>0</asrwt>
<pdfrwt beam="1">  1        2 0.17114898E+00 0.83312796E+02</pdfrwt>
<pdfrwt beam="2">  1       -2 0.96109170E-03 0.83312796E+02</pdfrwt>
<totfact> 0.45562086E+04</totfact>
</mgrwt>
</event>
<event>
 4    3  0.8789582E-001  0.9019654E+02  0.7546771E-02  0.1302376E+00
         -2   -1    0    0    0  501 -0.00000000000E+00  0.00000000000E+00  0.13648867620E+02  0.13648867620E+02  0.00000000000E+00 0.  1.
          2   -1    0    0  501    0  0.00000000000E+00 -0.00000000000E+00 -0.62600979900E+03  0.62600979900E+03  0.00000000000E+00 0. -1.
         24    1    1    2    0    0  0.34281782067E+02 -0.22202682303E+02 -0.37614740519E+03  0.38681040067E+03  0.80419002446E+02 0. -1.
        -24    1    1    2    0    0 -0.34281782067E+02  0.22202682303E+02 -0.23621352619E+03  0.25284826595E+03  0.80419002446E+02 0.  1.
<mgrwt>
<rscale>  0 0.90196539E+02</rscale>
<asrwt>0</asrwt>
<pdfrwt beam="1">  1        2 0.96309167E-01 0.90196539E+02</pdfrwt>
<pdfrwt beam="2">  1       -2 0.20998265E-02 0.90196539E+02</pdfrwt>
<totfact> 0.31036824E+04</totfact>
</mgrwt>
</event>
<event>
 4    3  0.8789582E-001  0.9505528E+02  0.7546771E-02  0.1291052E+00
          2   -1    0    0  501    0  0.00000000000E+00  0.00000000000E+00  0.62973195403E+03  0.62973195403E+03  0.00000000000E+00 0. -1.
         -2   -1    0    0    0  501 -0.00000000000E+00 -0.00000000000E+00 -0.17157166638E+02  0.17157166638E+02  0.00000000000E+00 0.  1.
         24    1    1    2    0    0 -0.19580210919E+02 -0.46742932960E+02  0.17541365132E+03  0.19951303583E+03  0.80419002446E+02 0.  0.
        -24    1    1    2    0    0  0.19580210919E+02  0.46742932960E+02  0.43716113607E+03  0.44737608484E+03  0.80419002446E+02 0.  0.
<mgrwt>
<rscale>  0 0.95055272E+02</rscale>
<asrwt>0</asrwt>
<pdfrwt beam="1">  1        2 0.96881821E-01 0.95055283E+02</pdfrwt>
<pdfrwt beam="2">  1       -2 0.26395646E-02 0.95055283E+02</pdfrwt>
<totfact> 0.22276934E+04</totfact>
</mgrwt>
</event>
<event>
 4    3  0.8789582E-001  0.9109894E+02  0.7546771E-02  0.1300212E+00
          2   -1    0    0  501    0  0.00000000000E+00  0.00000000000E+00  0.59804074603E+03  0.59804074603E+03  0.00000000000E+00 0. -1.
         -2   -1    0    0    0  501 -0.00000000000E+00 -0.00000000000E+00 -0.11202513551E+03  0.11202513551E+03  0.00000000000E+00 0.  1.
         24    1    1    2    0    0 -0.42310678271E+02  0.64503432097E+01  0.57532431617E+03  0.58249213313E+03  0.80419002446E+02 0. -1.
        -24    1    1    2    0    0  0.42310678271E+02 -0.64503432097E+01 -0.89308705659E+02  0.12757374841E+03  0.80419002446E+02 0.  1.
<mgrwt>
<rscale>  0 0.91098937E+02</rscale>
<asrwt>0</asrwt>
<pdfrwt beam="1">  1        2 0.92006267E-01 0.91098937E+02</pdfrwt>
<pdfrwt beam="2">  1       -2 0.17234637E-01 0.91098937E+02</pdfrwt>
<totfact> 0.13509054E+03</totfact>
</mgrwt>
</event>
<event>
 4    3  0.8789582E-001  0.1317575E+03  0.7546771E-02  0.1224871E+00
          1   -1    0    0  501    0  0.00000000000E+00  0.00000000000E+00  0.75975679498E+03  0.75975679498E+03  0.00000000000E+00 0. -1.
         -1   -1    0    0    0  501 -0.00000000000E+00 -0.00000000000E+00 -0.57132813200E+02  0.57132813200E+02  0.00000000000E+00 0.  1.
         24    1    1    2    0    0  0.10305702062E+03 -0.16494974885E+02  0.34915196593E+02  0.13630524789E+03  0.80419002446E+02 0.  1.
        -24    1    1    2    0    0 -0.10305702062E+03  0.16494974885E+02  0.66770878519E+03  0.68058436029E+03  0.80419002446E+02 0. -1.
<mgrwt>
<rscale>  0 0.13175754E+03</rscale>
<asrwt>0</asrwt>
<pdfrwt beam="1">  1        1 0.11688565E+00 0.13175754E+03</pdfrwt>
<pdfrwt beam="2">  1       -1 0.87896641E-02 0.13175754E+03</pdfrwt>
<totfact> 0.18363404E+03</totfact>
</mgrwt>
</event>
<event>
 4    3  0.8789582E-001  0.8138280E+02  0.7546771E-02  0.1325172E+00
          2   -1    0    0  501    0  0.00000000000E+00  0.00000000000E+00  0.15293935396E+03  0.15293935396E+03  0.00000000000E+00 0. -1.
         -2   -1    0    0    0  501 -0.00000000000E+00 -0.00000000000E+00 -0.52754577884E+02  0.52754577884E+02  0.00000000000E+00 0.  1.
         24    1    1    2    0    0 -0.11845769046E+02 -0.39525350545E+01  0.93618440332E+02  0.12404665696E+03  0.80419002446E+02 0. -1.
        -24    1    1    2    0    0  0.11845769046E+02  0.39525350545E+01  0.65663357490E+01  0.81647274891E+02  0.80419002446E+02 0.  0.
<mgrwt>
<rscale>  0 0.81382804E+02</rscale>
<asrwt>0</asrwt>
<pdfrwt beam="1">  1        2 0.23529131E-01 0.81382804E+02</pdfrwt>
<pdfrwt beam="2">  1       -2 0.81160890E-02 0.81382804E+02</pdfrwt>
<totfact> 0.18765004E+04</totfact>
</mgrwt>
</event>
<event>
 4    3  0.8789582E-001  0.1138661E+03  0.7546771E-02  0.1253573E+00
         -3   -1    0    0    0  501 -0.00000000000E+00  0.00000000000E+00  0.23918075318E+03  0.23918075318E+03  0.00000000000E+00 0.  1.
          3   -1    0    0  501    0  0.00000000000E+00 -0.00000000000E+00 -0.16824232508E+03  0.16824232508E+03  0.00000000000E+00 0. -1.
         24    1    1    2    0    0 -0.70784747592E+02  0.38571862104E+02  0.20318193262E+03  0.23291282218E+03  0.80419002446E+02 0.  1.
        -24    1    1    2    0    0  0.70784747592E+02 -0.38571862104E+02 -0.13224350452E+03  0.17451025609E+03  0.80419002446E+02 0. -1.
<mgrwt>
<rscale>  0 0.11386608E+03</rscale>
<asrwt>0</asrwt>
<pdfrwt beam="1">  1        3 0.25883435E-01 0.11386608E+03</pdfrwt>
<pdfrwt beam="2">  1       -3 0.36797039E-01 0.11386608E+03</pdfrwt>
<totfact> 0.23467730E+02</totfact>
</mgrwt>
</event>
<event>
 4    3  0.8789582E-001  0.8514012E+02  0.7546771E-02  0.1315067E+00
         -1   -1    0    0    0  501 -0.00000000000E+00  0.00000000000E+00  0.58398759003E+01  0.58398759003E+01  0.00000000000E+00 0.  1.
          1   -1    0    0  501    0  0.00000000000E+00 -0.00000000000E+00 -0.37630629206E+04  0.37630629206E+04  0.00000000000E+00 0. -1.
         24    1    1    2    0    0 -0.18433045543E+02  0.21020163851E+02 -0.33595499477E+03  0.34657553134E+03  0.80419002446E+02 0.  1.
        -24    1    1    2    0    0  0.18433045543E+02 -0.21020163851E+02 -0.34212680499E+04  0.34223272652E+04  0.80419002446E+02 0. -1.
<mgrwt>
<rscale>  0 0.85140122E+02</rscale>
<asrwt>0</asrwt>
<pdfrwt beam="1">  1        1 0.57893348E+00 0.85140122E+02</pdfrwt>
<pdfrwt beam="2">  1       -1 0.89844132E-03 0.85140122E+02</pdfrwt>
<totfact> 0.45668419E+02</totfact>
</mgrwt>
</event>
<event>
 4    3  0.8789582E-001  0.8341750E+02  0.7546771E-02  0.1319624E+00
          2   -1    0    0  501    0  0.00000000000E+00  0.00000000000E+00  0.71461847509E+03  0.71461847509E+03  0.00000000000E+00 0. -1.
         -2   -1    0    0    0  501 -0.00000000000E+00 -0.00000000000E+00 -0.12962300348E+02  0.12962300348E+02  0.00000000000E+00 0.  1.
         24    1    1    2    0    0  0.19040708611E+02  0.11345111189E+02  0.16937137987E+03  0.18879920658E+03  0.80419002446E+02 0.  1.
        -24    1    1    2    0    0 -0.19040708611E+02 -0.11345111189E+02  0.53228479488E+03  0.53878156886E+03  0.80419002446E+02 0.  0.
<mgrwt>
<rscale>  0 0.83417491E+02</rscale>
<asrwt>0</asrwt>
<pdfrwt beam="1">  1        2 0.10994127E+00 0.83417502E+02</pdfrwt>
<pdfrwt beam="2">  1       -2 0.19942006E-02 0.83417502E+02</pdfrwt>
<totfact> 0.28466169E+04</totfact>
</mgrwt>
</event>
<event>
 4    3  0.8789582E-001  0.8215912E+02  0.7546771E-02  0.1323033E+00
         -2   -1    0    0    0  501 -0.00000000000E+00  0.00000000000E+00  0.78220323956E+01  0.78220323956E+01  0.00000000000E+00 0.  1.
          2   -1    0    0  501    0  0.00000000000E+00 -0.00000000000E+00 -0.12266540828E+04  0.12266540828E+04  0.00000000000E+00 0. -1.
         24    1    1    2    0    0  0.15993693042E+02  0.52064827646E+01 -0.94550803670E+03  0.94907089783E+03  0.80419002446E+02 0. -1.
        -24    1    1    2    0    0 -0.15993693042E+02 -0.52064827646E+01 -0.27332401368E+03  0.28540521735E+03  0.80419002446E+02 0.  1.
<mgrwt>
<rscale>  0 0.82159124E+02</rscale>
<asrwt>0</asrwt>
<pdfrwt beam="1">  1        2 0.18871615E+00 0.82159124E+02</pdfrwt>
<pdfrwt beam="2">  1       -2 0.12033887E-02 0.82159124E+02</pdfrwt>
<totfact> 0.28684627E+04</totfact>
</mgrwt>
</event>
<event>
 4    3  0.8789582E-001  0.8124225E+02  0.7546771E-02  0.1325563E+00
         -2   -1    0    0    0  501 -0.00000000000E+00  0.00000000000E+00  0.78337080788E+03  0.78337080788E+03  0.00000000000E+00 0.  1.
          2   -1    0    0  501    0  0.00000000000E+00 -0.00000000000E+00 -0.11833816305E+02  0.11833816305E+02  0.00000000000E+00 0. -1.
         24    1    1    2    0    0  0.33663254761E+01  0.11034284364E+02  0.17238766817E+03  0.19057232662E+03  0.80419002446E+02 0. -1.
        -24    1    1    2    0    0 -0.33663254761E+01 -0.11034284364E+02  0.59914932340E+03  0.60463229757E+03  0.80419002446E+02 0.  1.
<mgrwt>
<rscale>  0 0.81242252E+02</rscale>
<asrwt>0</asrwt>
<pdfrwt beam="1">  1        2 0.18205877E-02 0.81242252E+02</pdfrwt>
<pdfrwt beam="2">  1       -2 0.12051855E+00 0.81242252E+02</pdfrwt>
<totfact> 0.31064448E+03</totfact>
</mgrwt>
</event>
<event>
 4    3  0.8789582E-001  0.1020040E+03  0.7546771E-02  0.1276137E+00
          1   -1    0    0  501    0  0.00000000000E+00  0.00000000000E+00  0.30386731336E+03  0.30386731336E+03  0.00000000000E+00 0. -1.
         -1   -1    0    0    0  501 -0.00000000000E+00 -0.00000000000E+00 -0.34868686428E+02  0.34868686428E+02  0.00000000000E+00 0.  1.
         24    1    1    2    0    0  0.54149858924E+02 -0.31707947117E+02  0.15721757768E+03  0.18740913483E+03  0.80419002446E+02 0.  1.
        -24    1    1    2    0    0 -0.54149858924E+02  0.31707947117E+02  0.11178104925E+03  0.15132686496E+03  0.80419002446E+02 0.  0.
<mgrwt>
<rscale>  0 0.10200402E+03</rscale>
<asrwt>0</asrwt>
<pdfrwt beam="1">  1        1 0.46748816E-01 0.10200403E+03</pdfrwt>
<pdfrwt beam="2">  1       -1 0.53644135E-02 0.10200403E+03</pdfrwt>
<totfact> 0.12537504E+04</totfact>
</mgrwt>
</event>
<event>
 4    3  0.8789582E-001  0.9409327E+02  0.7546771E-02  0.1293231E+00
          2   -1    0    0  501    0  0.00000000000E+00  0.00000000000E+00  0.11574950038E+03  0.11574950038E+03  0.00000000000E+00 0. -1.
         -2   -1    0    0    0  501 -0.00000000000E+00 -0.00000000000E+00 -0.95694455427E+02  0.95694455427E+02  0.00000000000E+00 0.  1.
         24    1    1    2    0    0  0.48065881753E+02 -0.87176917030E+01  0.57390194309E+02  0.11021423454E+03  0.80419002446E+02 0. -1.
        -24    1    1    2    0    0 -0.48065881753E+02  0.87176917030E+01 -0.37335149354E+02  0.10122972127E+03  0.80419002446E+02 0.  1.
<mgrwt>
<rscale>  0 0.94093268E+02</rscale>
<asrwt>0</asrwt>
<pdfrwt beam="1">  1        2 0.17807615E-01 0.94093268E+02</pdfrwt>
<pdfrwt beam="2">  1       -2 0.14722224E-01 0.94093268E+02</pdfrwt>
<totfact> 0.10212112E+04</totfact>
</mgrwt>
</event>
<event>
 4    3  0.8789582E-001  0.9097801E+02  0.7546771E-02  0.1300500E+00
         -1   -1    0    0    0  501 -0.00000000000E+00  0.00000000000E+00  0.32382124691E+02  0.32382124691E+02  0.00000000000E+00 0.  1.
          1   -1    0    0  501    0  0.00000000000E+00 -0.00000000000E+00 -0.47006449102E+03  0.47006449102E+03  0.00000000000E+00 0. -1.
         24    1    1    2    0    0  0.34507132491E+02  0.24880420177E+02 -0.38853072548E+03  0.39904024621E+03  0.80419002446E+02 0. -1.
        -24    1    1    2    0    0 -0.34507132491E+02 -0.24880420177E+02 -0.49151640856E+02  0.10340636950E+03  0.80419002446E+02 0.  0.
<mgrwt>
<rscale>  0 0.90977995E+02</rscale>
<asrwt>0</asrwt>
<pdfrwt beam="1">  1        1 0.72317614E-01 0.90978006E+02</pdfrwt>
<pdfrwt beam="2">  1       -1 0.49818653E-02 0.90978006E+02</pdfrwt>
<totfact> 0.80517595E+03</totfact>
</mgrwt>
</event>
<event>
 4    3  0.8789582E-001  0.9344685E+02  0.7546771E-02  0.1294713E+00
         -1   -1    0    0    0  501 -0.00000000000E+00  0.00000000000E+00  0.48892084408E+02  0.48892084408E+02  0.00000000000E+00 0.  1.
          1   -1    0    0  501    0  0.00000000000E+00 -0.00000000000E+00 -0.81130110174E+03  0.81130110174E+03  0.00000000000E+00 0. -1.
         24    1    1    2    0    0 -0.69690018763E+01  0.47080049821E+02 -0.13887787799E+01  0.93457170614E+02  0.80419002446E+02 0.  1.
        -24    1    1    2    0    0  0.69690018763E+01 -0.47080049821E+02 -0.76102023855E+03  0.76673601554E+03  0.80419002446E+02 0. -1.
<mgrwt>
<rscale>  0 0.93446851E+02</rscale>
<asrwt>0</asrwt>
<pdfrwt beam="1">  1        1 0.12481555E+00 0.93446851E+02</pdfrwt>
<pdfrwt beam="2">  1       -1 0.75218596E-02 0.93446851E+02</pdfrwt>
<totfact> 0.20878528E+03</totfact>
</mgrwt>
</event>
<event>
 4    3  0.8789582E-001  0.8434182E+02  0.7546771E-02  0.1317163E+00
          1   -1    0    0  501    0  0.00000000000E+00  0.00000000000E+00  0.10386930538E+04  0.10386930538E+04  0.00000000000E+00 0. -1.
         -1   -1    0    0    0  501 -0.00000000000E+00 -0.00000000000E+00 -0.96781552747E+01  0.96781552747E+01  0.00000000000E+00 0.  1.
         24    1    1    2    0    0  0.84933666821E+01  0.23962240813E+02  0.23107363673E+03  0.24598489345E+03  0.80419002446E+02 0.  1.
        -24    1    1    2    0    0 -0.84933666821E+01 -0.23962240813E+02  0.79794126179E+03  0.80238631562E+03  0.80419002446E+02 0. -1.
<mgrwt>
<rscale>  0 0.84341818E+02</rscale>
<asrwt>0</asrwt>
<pdfrwt beam="1">  1        1 0.15979884E+00 0.84341818E+02</pdfrwt>
<pdfrwt beam="2">  1       -1 0.14889478E-02 0.84341818E+02</pdfrwt>
<totfact> 0.14617199E+04</totfact>
</mgrwt>
</event>
<event>
 4    3  0.8789582E-001  0.1083193E+03  0.7546771E-02  0.1263714E+00
         -2   -1    0    0    0  501 -0.00000000000E+00  0.00000000000E+00  0.10586030472E+02  0.10586030472E+02  0.00000000000E+00 0.  1.
          2   -1    0    0  501    0  0.00000000000E+00 -0.00000000000E+00 -0.17295008062E+04  0.17295008062E+04  0.00000000000E+00 0. -1.
         24    1    1    2    0    0 -0.61470178598E+02 -0.38565029600E+02 -0.13808657162E+04  0.13851076444E+04  0.80419002446E+02 0. -1.
        -24    1    1    2    0    0  0.61470178598E+02  0.38565029600E+02 -0.33804905956E+03  0.35497919233E+03  0.80419002446E+02 0.  1.
<mgrwt>
<rscale>  0 0.10831925E+03</rscale>
<asrwt>0</asrwt>
<pdfrwt beam="1">  1        2 0.26607695E+00 0.10831925E+03</pdfrwt>
<pdfrwt beam="2">  1       -2 0.16286207E-02 0.10831925E+03</pdfrwt>
<totfact> 0.10444351E+04</totfact>
</mgrwt>
</event>
<event>
 4    3  0.8789582E-001  0.8056099E+02  0.7546771E-02  0.1327467E+00
          2   -1    0    0  501    0  0.00000000000E+00  0.00000000000E+00  0.76189816007E+03  0.76189816007E+03  0.00000000000E+00 0. -1.
         -2   -1    0    0    0  501 -0.00000000000E+00 -0.00000000000E+00 -0.23473958064E+02  0.23473958064E+02  0.00000000000E+00 0.  1.
         24    1    1    2    0    0 -0.47179145559E+01  0.77397107247E+00  0.68265262849E+03  0.68738976199E+03  0.80419002446E+02 0.  0.
        -24    1    1    2    0    0  0.47179145559E+01 -0.77397107247E+00  0.55771573518E+02  0.97982356146E+02  0.80419002446E+02 0.  1.
<mgrwt>
<rscale>  0 0.80560994E+02</rscale>
<asrwt>0</asrwt>
<pdfrwt beam="1">  1        2 0.11721508E+00 0.80560994E+02</pdfrwt>
<pdfrwt beam="2">  1       -2 0.36113788E-02 0.80560994E+02</pdfrwt>
<totfact> 0.11153691E+04</totfact>
</mgrwt>
</event>
<event>
 4    3  0.8789582E-001  0.8772765E+02  0.7546771E-02  0.1308450E+00
         -2   -1    0    0    0  501 -0.00000000000E+00  0.00000000000E+00  0.56972107507E+01  0.56972107507E+01  0.00000000000E+00 0.  1.
          2   -1    0    0  501    0  0.00000000000E+00 -0.00000000000E+00 -0.14135690659E+04  0.14135690659E+04  0.00000000000E+00 0. -1.
         24    1    1    2    0    0 -0.19402545093E+02  0.29197020559E+02 -0.85339990073E+03  0.85789715659E+03  0.80419002446E+02 0. -1.
        -24    1    1    2    0    0  0.19402545093E+02 -0.29197020559E+02 -0.55447195444E+03  0.56136912008E+03  0.80419002446E+02 0.  1.
<mgrwt>
<rscale>  0 0.87727651E+02</rscale>
<asrwt>0</asrwt>
<pdfrwt beam="1">  1        2 0.21747206E+00 0.87727651E+02</pdfrwt>
<pdfrwt beam="2">  1       -2 0.87649440E-03 0.87727651E+02</pdfrwt>
<totfact> 0.36029702E+04</totfact>
</mgrwt>
</event>
<event>
 4    3  0.8789582E-001  0.1246286E+03  0.7546771E-02  0.1235651E+00
         -1   -1    0    0    0  501 -0.00000000000E+00  0.00000000000E+00  0.28616954548E+03  0.28616954548E+03  0.00000000000E+00 0.  1.
          1   -1    0    0  501    0  0.00000000000E+00 -0.00000000000E+00 -0.59864029398E+02  0.59864029398E+02  0.00000000000E+00 0. -1.
         24    1    1    2    0    0 -0.78056718672E+02  0.54518120250E+02  0.16601111209E+03  0.20758608349E+03  0.80419002446E+02 0.  1.
        -24    1    1    2    0    0  0.78056718672E+02 -0.54518120250E+02  0.60294403990E+02  0.13844749139E+03  0.80419002446E+02 0. -1.
<mgrwt>
<rscale>  0 0.12462862E+03</rscale>
<asrwt>0</asrwt>
<pdfrwt beam="1">  1        1 0.92098509E-02 0.12462862E+03</pdfrwt>
<pdfrwt beam="2">  1       -1 0.44026083E-01 0.12462862E+03</pdfrwt>
<totfact> 0.35608572E+03</totfact>
</mgrwt>
</event>
<event>
 4    3  0.8789582E-001  0.8231802E+02  0.7546771E-02  0.1322599E+00
          1   -1    0    0  501    0  0.00000000000E+00  0.00000000000E+00  0.69150248634E+02  0.69150248634E+02  0.00000000000E+00 0. -1.
         -1   -1    0    0    0  501 -0.00000000000E+00 -0.00000000000E+00 -0.12598827507E+03  0.12598827507E+03  0.00000000000E+00 0.  1.
         24    1    1    2    0    0 -0.35521827897E+01  0.17216926512E+02 -0.74411670980E+02  0.11096555003E+03  0.80419002446E+02 0.  1.
        -24    1    1    2    0    0  0.35521827897E+01 -0.17216926512E+02  0.17573644539E+02  0.84172973678E+02  0.80419002446E+02 0.  0.
<mgrwt>
<rscale>  0 0.82318021E+02</rscale>
<asrwt>0</asrwt>
<pdfrwt beam="1">  1        1 0.10638500E-01 0.82318021E+02</pdfrwt>
<pdfrwt beam="2">  1       -1 0.19382811E-01 0.82318021E+02</pdfrwt>
<totfact> 0.11182957E+04</totfact>
</mgrwt>
</event>
<event>
 4    3  0.8789582E-001  0.9430604E+02  0.7546771E-02  0.1292747E+00
         -4   -1    0    0    0  501 -0.00000000000E+00  0.00000000000E+00  0.59656601837E+03  0.59656601837E+03  0.00000000000E+00 0.  1.
          4   -1    0    0  501    0  0.00000000000E+00 -0.00000000000E+00 -0.31210450941E+02  0.31210450941E+02  0.00000000000E+00 0. -1.
         24    1    1    2    0    0  0.49253630796E+02  0.70283528728E+00  0.55821437174E+02  0.10958860765E+03  0.80419002446E+02 0. -1.
        -24    1    1    2    0    0 -0.49253630796E+02 -0.70283528728E+00  0.50953413025E+03  0.51818786166E+03  0.80419002446E+02 0.  1.
<mgrwt>
<rscale>  0 0.94306045E+02</rscale>
<asrwt>0</asrwt>
<pdfrwt beam="1">  1        4 0.48016083E-02 0.94306045E+02</pdfrwt>
<pdfrwt beam="2">  1       -4 0.91779379E-01 0.94306045E+02</pdfrwt>
<totfact> 0.41014126E+02</totfact>
</mgrwt>
</event>
<event>
 4    3  0.8789582E-001  0.8374170E+02  0.7546771E-02  0.1318756E+00
          2   -1    0    0  501    0  0.00000000000E+00  0.00000000000E+00  0.71606921970E+03  0.71606921970E+03  0.00000000000E+00 0. -1.
         -2   -1    0    0    0  501 -0.00000000000E+00 -0.00000000000E+00 -0.19510579116E+02  0.19510579116E+02  0.00000000000E+00 0.  1.
         24    1    1    2    0    0  0.43362762746E+01  0.22948839006E+02  0.88719515838E+02  0.12199926618E+03  0.80419002446E+02 0.  1.
        -24    1    1    2    0    0 -0.43362762746E+01 -0.22948839006E+02  0.60783912474E+03  0.61358053263E+03  0.80419002446E+02 0. -1.
<mgrwt>
<rscale>  0 0.83741687E+02</rscale>
<asrwt>0</asrwt>
<pdfrwt beam="1">  1        2 0.11016448E+00 0.83741698E+02</pdfrwt>
<pdfrwt beam="2">  1       -2 0.30016281E-02 0.83741698E+02</pdfrwt>
<totfact> 0.15758258E+04</totfact>
</mgrwt>
</event>
<event>
 4    3  0.8789582E-001  0.8677976E+02  0.7546771E-02  0.1310843E+00
          2   -1    0    0  501    0  0.00000000000E+00  0.00000000000E+00  0.22637001821E+03  0.22637001821E+03  0.00000000000E+00 0. -1.
         -2   -1    0    0    0  501 -0.00000000000E+00 -0.00000000000E+00 -0.10403020597E+03  0.10403020597E+03  0.00000000000E+00 0.  1.
         24    1    1    2    0    0 -0.22043196176E+02  0.24033480252E+02  0.19741891100E+03  0.21565007082E+03  0.80419002446E+02 0. -1.
        -24    1    1    2    0    0  0.22043196176E+02 -0.24033480252E+02 -0.75079098757E+02  0.11475015336E+03  0.80419002446E+02 0.  1.
<mgrwt>
<rscale>  0 0.86779759E+02</rscale>
<asrwt>0</asrwt>
<pdfrwt beam="1">  1        2 0.34826156E-01 0.86779759E+02</pdfrwt>
<pdfrwt beam="2">  1       -2 0.16004647E-01 0.86779759E+02</pdfrwt>
<totfact> 0.42625266E+03</totfact>
</mgrwt>
</event>
<event>
 4    3  0.8789582E-001  0.9338164E+02  0.7546771E-02  0.1294863E+00
          2   -1    0    0  501    0  0.00000000000E+00  0.00000000000E+00  0.37991279024E+02  0.37991279024E+02  0.00000000000E+00 0. -1.
         -2   -1    0    0    0  501 -0.00000000000E+00 -0.00000000000E+00 -0.34222403055E+03  0.34222403055E+03  0.00000000000E+00 0.  1.
         24    1    1    2    0    0 -0.38759272973E+02 -0.27397687511E+02 -0.43023797765E+02  0.10281623243E+03  0.80419002446E+02 0. -1.
        -24    1    1    2    0    0  0.38759272973E+02  0.27397687511E+02 -0.26120895376E+03  0.27739907715E+03  0.80419002446E+02 0.  1.
<mgrwt>
<rscale>  0 0.93381639E+02</rscale>
<asrwt>0</asrwt>
<pdfrwt beam="1">  1        2 0.58448122E-02 0.93381639E+02</pdfrwt>
<pdfrwt beam="2">  1       -2 0.52649850E-01 0.93381639E+02</pdfrwt>
<totfact> 0.40890377E+03</totfact>
</mgrwt>
</event>
<event>
 4    3  0.8789582E-001  0.8347762E+02  0.7546771E-02  0.1319462E+00
          2   -1    0    0  501    0  0.00000000000E+00  0.00000000000E+00  0.57166063644E+03  0.57166063644E+03  0.00000000000E+00 0. -1.
         -2   -1    0    0    0  501 -0.00000000000E+00 -0.00000000000E+00 -0.16616693452E+02  0.16616693452E+02  0.00000000000E+00 0.  1.
         24    1    1    2    0    0 -0.22368583204E+02  0.97165011638E+00  0.42933955543E+03  0.43737966051E+03  0.80419002446E+02 0. -1.
        -24    1    1    2    0    0  0.22368583204E+02 -0.97165011638E+00  0.12570438756E+03  0.15089766938E+03  0.80419002446E+02 0.  0.
<mgrwt>
<rscale>  0 0.83477623E+02</rscale>
<asrwt>0</asrwt>
<pdfrwt beam="1">  1        2 0.87947775E-01 0.83477623E+02</pdfrwt>
<pdfrwt beam="2">  1       -2 0.25564148E-02 0.83477623E+02</pdfrwt>
<totfact> 0.25655376E+04</totfact>
</mgrwt>
</event>
<event>
 4    3  0.8789582E-001  0.8514921E+02  0.7546771E-02  0.1315043E+00
          1   -1    0    0  501    0  0.00000000000E+00  0.00000000000E+00  0.34606927738E+02  0.34606927738E+02  0.00000000000E+00 0. -1.
         -1   -1    0    0    0  501 -0.00000000000E+00 -0.00000000000E+00 -0.40078578990E+03  0.40078578990E+03  0.00000000000E+00 0.  1.
         24    1    1    2    0    0 -0.22317004119E+02 -0.16885588750E+02 -0.33348277237E+03  0.34418185193E+03  0.80419002446E+02 0.  1.
        -24    1    1    2    0    0  0.22317004119E+02  0.16885588750E+02 -0.32696089794E+02  0.91210865704E+02  0.80419002446E+02 0. -1.
<mgrwt>
<rscale>  0 0.85149209E+02</rscale>
<asrwt>0</asrwt>
<pdfrwt beam="1">  1        1 0.53241426E-02 0.85149209E+02</pdfrwt>
<pdfrwt beam="2">  1       -1 0.61659353E-01 0.85149209E+02</pdfrwt>
<totfact> 0.39003392E+03</totfact>
</mgrwt>
</event>
<event>
 4    3  0.8789582E-001  0.1002264E+03  0.7546771E-02  0.1279821E+00
         -2   -1    0    0    0  501 -0.00000000000E+00  0.00000000000E+00  0.14457990249E+02  0.14457990249E+02  0.00000000000E+00 0.  1.
          2   -1    0    0  501    0  0.00000000000E+00 -0.00000000000E+00 -0.13768390467E+04  0.13768390467E+04  0.00000000000E+00 0. -1.
         24    1    1    2    0    0 -0.53781733591E+02 -0.26184690066E+02 -0.11708055349E+04  0.11750876262E+04  0.80419002446E+02 0. -1.
        -24    1    1    2    0    0  0.53781733591E+02  0.26184690066E+02 -0.19157552154E+03  0.21620941069E+03  0.80419002446E+02 0.  1.
<mgrwt>
<rscale>  0 0.10022639E+03</rscale>
<asrwt>0</asrwt>
<pdfrwt beam="1">  1        2 0.21182135E+00 0.10022639E+03</pdfrwt>
<pdfrwt beam="2">  1       -2 0.22243066E-02 0.10022639E+03</pdfrwt>
<totfact> 0.10070792E+04</totfact>
</mgrwt>
</event>
<event>
 4    3  0.8789582E-001  0.8804924E+02  0.7546771E-02  0.1307646E+00
         -2   -1    0    0    0  501 -0.00000000000E+00  0.00000000000E+00  0.11583444219E+02  0.11583444219E+02  0.00000000000E+00 0.  1.
          2   -1    0    0  501    0  0.00000000000E+00 -0.00000000000E+00 -0.10372575109E+04  0.10372575109E+04  0.00000000000E+00 0. -1.
         24    1    1    2    0    0  0.26636936938E+02  0.23998468579E+02 -0.82518725961E+03  0.82987148540E+03  0.80419002446E+02 0. -1.
        -24    1    1    2    0    0 -0.26636936938E+02 -0.23998468579E+02 -0.20048680702E+03  0.21896946967E+03  0.80419002446E+02 0.  1.
<mgrwt>
<rscale>  0 0.88049241E+02</rscale>
<asrwt>0</asrwt>
<pdfrwt beam="1">  1        2 0.15957810E+00 0.88049241E+02</pdfrwt>
<pdfrwt beam="2">  1       -2 0.17820681E-02 0.88049241E+02</pdfrwt>
<totfact> 0.21017986E+04</totfact>
</mgrwt>
</event>
<event>
 4    3  0.8789582E-001  0.1424304E+03  0.7546771E-02  0.1210096E+00
         -2   -1    0    0    0  501 -0.00000000000E+00  0.00000000000E+00  0.58260816449E+02  0.58260816449E+02  0.00000000000E+00 0.  1.
          2   -1    0    0  501    0  0.00000000000E+00 -0.00000000000E+00 -0.37342011329E+03  0.37342011329E+03  0.00000000000E+00 0. -1.
         24    1    1    2    0    0 -0.10513490778E+03  0.52591388010E+02 -0.21367245212E+03  0.25679239800E+03  0.80419002446E+02 0. -1.
        -24    1    1    2    0    0  0.10513490778E+03 -0.52591388010E+02 -0.10148684473E+03  0.17488853174E+03  0.80419002446E+02 0.  1.
<mgrwt>
<rscale>  0 0.14243040E+03</rscale>
<asrwt>0</asrwt>
<pdfrwt beam="1">  1        2 0.57449249E-01 0.14243040E+03</pdfrwt>
<pdfrwt beam="2">  1       -2 0.89632024E-02 0.14243040E+03</pdfrwt>
<totfact> 0.65221430E+03</totfact>
</mgrwt>
</event>
<event>
 4    3  0.8789582E-001  0.8967753E+02  0.7546771E-02  0.1303635E+00
         -1   -1    0    0    0  501 -0.00000000000E+00  0.00000000000E+00  0.51205972424E+02  0.51205972424E+02  0.00000000000E+00 0.  1.
          1   -1    0    0  501    0  0.00000000000E+00 -0.00000000000E+00 -0.15705673057E+03  0.15705673057E+03  0.00000000000E+00 0. -1.
         24    1    1    2    0    0  0.53678141097E+01 -0.39319546663E+02 -0.53426810441E+02  0.10438620697E+03  0.80419002446E+02 0. -1.
        -24    1    1    2    0    0 -0.53678141097E+01  0.39319546663E+02 -0.52423947708E+02  0.10387649602E+03  0.80419002446E+02 0.  1.
<mgrwt>
<rscale>  0 0.89677523E+02</rscale>
<asrwt>0</asrwt>
<pdfrwt beam="1">  1        1 0.24162574E-01 0.89677534E+02</pdfrwt>
<pdfrwt beam="2">  1       -1 0.78778420E-02 0.89677534E+02</pdfrwt>
<totfact> 0.15765968E+04</totfact>
</mgrwt>
</event>
<event>
 4    3  0.8789582E-001  0.9267174E+02  0.7546771E-02  0.1296508E+00
         -2   -1    0    0    0  501 -0.00000000000E+00  0.00000000000E+00  0.12100218155E+03  0.12100218155E+03  0.00000000000E+00 0.  1.
          2   -1    0    0  501    0  0.00000000000E+00 -0.00000000000E+00 -0.13954083786E+03  0.13954083786E+03  0.00000000000E+00 0. -1.
         24    1    1    2    0    0 -0.24625416974E+02 -0.38915594727E+02 -0.10058698301E+03  0.13676911851E+03  0.80419002446E+02 0. -1.
        -24    1    1    2    0    0  0.24625416974E+02  0.38915594727E+02  0.82048326695E+02  0.12377390089E+03  0.80419002446E+02 0.  1.
<mgrwt>
<rscale>  0 0.92671736E+02</rscale>
<asrwt>0</asrwt>
<pdfrwt beam="1">  1        2 0.21467821E-01 0.92671736E+02</pdfrwt>
<pdfrwt beam="2">  1       -2 0.18615720E-01 0.92671736E+02</pdfrwt>
<totfact> 0.56324983E+03</totfact>
</mgrwt>
</event>
<event>
 4    3  0.8789582E-001  0.8788301E+02  0.7546771E-02  0.1308061E+00
         -3   -1    0    0    0  501 -0.00000000000E+00  0.00000000000E+00  0.40480015263E+02  0.40480015263E+02  0.00000000000E+00 0.  1.
          3   -1    0    0  501    0  0.00000000000E+00 -0.00000000000E+00 -0.29888282432E+03  0.29888282432E+03  0.00000000000E+00 0. -1.
         24    1    1    2    0    0  0.11180077460E+01 -0.35425377611E+02 -0.27161445868E+02  0.91984604235E+02  0.80419002446E+02 0.  1.
        -24    1    1    2    0    0 -0.11180077460E+01  0.35425377611E+02 -0.23124136319E+03  0.24737823535E+03  0.80419002446E+02 0. -1.
<mgrwt>
<rscale>  0 0.87883009E+02</rscale>
<asrwt>0</asrwt>
<pdfrwt beam="1">  1        3 0.45981974E-01 0.87883009E+02</pdfrwt>
<pdfrwt beam="2">  1       -3 0.62276945E-02 0.87883009E+02</pdfrwt>
<totfact> 0.16051111E+03</totfact>
</mgrwt>
</event>
<event>
 4    3  0.8789582E-001  0.8139703E+02  0.7546771E-02  0.1325133E+00
         -2   -1    0    0    0  501 -0.00000000000E+00  0.00000000000E+00  0.32895028570E+02  0.32895028570E+02  0.00000000000E+00 0.  1.
          2   -1    0    0  501    0  0.00000000000E+00 -0.00000000000E+00 -0.53400508971E+03  0.53400508971E+03  0.00000000000E+00 0. -1.
         24    1    1    2    0    0  0.12573100752E+02 -0.42122106377E+00 -0.47425195497E+03  0.48118644311E+03  0.80419002446E+02 0.  0.
        -24    1    1    2    0    0 -0.12573100752E+02  0.42122106377E+00 -0.26858106176E+02  0.85713675172E+02  0.80419002446E+02 0.  1.
<mgrwt>
<rscale>  0 0.81397028E+02</rscale>
<asrwt>0</asrwt>
<pdfrwt beam="1">  1        2 0.82154629E-01 0.81397028E+02</pdfrwt>
<pdfrwt beam="2">  1       -2 0.50607736E-02 0.81397028E+02</pdfrwt>
<totfact> 0.10169668E+04</totfact>
</mgrwt>
</event>
<event>
 4    3  0.8789582E-001  0.1226758E+03  0.7546771E-02  0.1238747E+00
          2   -1    0    0  501    0  0.00000000000E+00  0.00000000000E+00  0.23117259460E+04  0.23117259460E+04  0.00000000000E+00 0. -1.
         -2   -1    0    0    0  501 -0.00000000000E+00 -0.00000000000E+00 -0.78676851382E+01  0.78676851382E+01  0.00000000000E+00 0.  1.
         24    1    1    2    0    0  0.28859423468E+02  0.88029924670E+02  0.16337182516E+04  0.16383176357E+04  0.80419002446E+02 0. -1.
        -24    1    1    2    0    0 -0.28859423468E+02 -0.88029924670E+02  0.67014000931E+03  0.68127599547E+03  0.80419002446E+02 0.  1.
<mgrwt>
<rscale>  0 0.12267579E+03</rscale>
<asrwt>0</asrwt>
<pdfrwt beam="1">  1        2 0.35564960E+00 0.12267579E+03</pdfrwt>
<pdfrwt beam="2">  1       -2 0.12104149E-02 0.12267579E+03</pdfrwt>
<totfact> 0.80977789E+03</totfact>
</mgrwt>
</event>
<event>
 4    3  0.8789582E-001  0.8827981E+02  0.7546771E-02  0.1307072E+00
         -1   -1    0    0    0  501 -0.00000000000E+00  0.00000000000E+00  0.20424293509E+02  0.20424293509E+02  0.00000000000E+00 0.  1.
          1   -1    0    0  501    0  0.00000000000E+00 -0.00000000000E+00 -0.49309509456E+03  0.49309509456E+03  0.00000000000E+00 0. -1.
         24    1    1    2    0    0  0.16145678862E+02 -0.32640851143E+02 -0.11422707022E+03  0.14436463429E+03  0.80419002446E+02 0.  1.
        -24    1    1    2    0    0 -0.16145678862E+02  0.32640851143E+02 -0.35844373083E+03  0.36915475377E+03  0.80419002446E+02 0. -1.
<mgrwt>
<rscale>  0 0.88279806E+02</rscale>
<asrwt>0</asrwt>
<pdfrwt beam="1">  1        1 0.75860784E-01 0.88279806E+02</pdfrwt>
<pdfrwt beam="2">  1       -1 0.31421990E-02 0.88279806E+02</pdfrwt>
<totfact> 0.14750611E+04</totfact>
</mgrwt>
</event>
<event>
 4    3  0.8789582E-001  0.9528144E+02  0.7546771E-02  0.1290543E+00
         -1   -1    0    0    0  501 -0.00000000000E+00  0.00000000000E+00  0.15230009387E+03  0.15230009387E+03  0.00000000000E+00 0.  1.
          1   -1    0    0  501    0  0.00000000000E+00 -0.00000000000E+00 -0.88069752487E+02  0.88069752487E+02  0.00000000000E+00 0. -1.
         24    1    1    2    0    0 -0.50778036670E+02  0.57382851324E+01  0.10043628688E+03  0.13844132548E+03  0.80419002446E+02 0.  1.
        -24    1    1    2    0    0  0.50778036670E+02 -0.57382851324E+01 -0.36205945496E+02  0.10192852088E+03  0.80419002446E+02 0. -1.
<mgrwt>
<rscale>  0 0.95281440E+02</rscale>
<asrwt>0</asrwt>
<pdfrwt beam="1">  1        1 0.13549193E-01 0.95281440E+02</pdfrwt>
<pdfrwt beam="2">  1       -1 0.23430784E-01 0.95281440E+02</pdfrwt>
<totfact> 0.61199646E+03</totfact>
</mgrwt>
</event>
<event>
 4    3  0.8789582E-001  0.9257373E+02  0.7546771E-02  0.1296736E+00
         -1   -1    0    0    0  501 -0.00000000000E+00  0.00000000000E+00  0.63108806998E+02  0.63108806998E+02  0.00000000000E+00 0.  1.
          1   -1    0    0  501    0  0.00000000000E+00 -0.00000000000E+00 -0.30620497826E+03  0.30620497826E+03  0.00000000000E+00 0. -1.
         24    1    1    2    0    0  0.24766640567E+02  0.38591349197E+02  0.16206548910E+02  0.93981630651E+02  0.80419002446E+02 0.  1.
        -24    1    1    2    0    0 -0.24766640567E+02 -0.38591349197E+02 -0.25930272017E+03  0.27533215460E+03  0.80419002446E+02 0. -1.
<mgrwt>
<rscale>  0 0.92573726E+02</rscale>
<asrwt>0</asrwt>
<pdfrwt beam="1">  1        1 0.47108456E-01 0.92573726E+02</pdfrwt>
<pdfrwt beam="2">  1       -1 0.97090476E-02 0.92573726E+02</pdfrwt>
<totfact> 0.50968856E+03</totfact>
</mgrwt>
</event>
<event>
 4    3  0.8789582E-001  0.8065075E+02  0.7546771E-02  0.1327215E+00
          2   -1    0    0  501    0  0.00000000000E+00  0.00000000000E+00  0.11794113012E+04  0.11794113012E+04  0.00000000000E+00 0. -1.
         -2   -1    0    0    0  501 -0.00000000000E+00 -0.00000000000E+00 -0.60760533475E+01  0.60760533475E+01  0.00000000000E+00 0.  1.
         24    1    1    2    0    0  0.26091972879E+01  0.55244958225E+01  0.76677375162E+03  0.77100358630E+03  0.80419002446E+02 0.  0.
        -24    1    1    2    0    0 -0.26091972879E+01 -0.55244958225E+01  0.40656149622E+03  0.41448376823E+03  0.80419002446E+02 0.  1.
<mgrwt>
<rscale>  0 0.80650753E+02</rscale>
<asrwt>0</asrwt>
<pdfrwt beam="1">  1        2 0.18144771E+00 0.80650753E+02</pdfrwt>
<pdfrwt beam="2">  1       -2 0.93477838E-03 0.80650753E+02</pdfrwt>
<totfact> 0.43380884E+04</totfact>
</mgrwt>
</event>
<event>
 4    3  0.8789582E-001  0.8064435E+02  0.7546771E-02  0.1327233E+00
          2   -1    0    0  501    0  0.00000000000E+00  0.00000000000E+00  0.98074045344E+03  0.98074045344E+03  0.00000000000E+00 0. -1.
         -2   -1    0    0    0  501 -0.00000000000E+00 -0.00000000000E+00 -0.66717875547E+01  0.66717875547E+01  0.00000000000E+00 0.  1.
         24    1    1    2    0    0 -0.16182129835E+01  0.58031928159E+01  0.52552935672E+03  0.53168093476E+03  0.80419002446E+02 0. -1.
        -24    1    1    2    0    0  0.16182129835E+01 -0.58031928159E+01  0.44853930917E+03  0.45573130624E+03  0.80419002446E+02 0.  0.
<mgrwt>
<rscale>  0 0.80644353E+02</rscale>
<asrwt>0</asrwt>
<pdfrwt beam="1">  1        2 0.15088303E+00 0.80644353E+02</pdfrwt>
<pdfrwt beam="2">  1       -2 0.10264296E-02 0.80644353E+02</pdfrwt>
<totfact> 0.49203622E+04</totfact>
</mgrwt>
</event>
<event>
 4    3  0.8789582E-001  0.1025783E+03  0.7546771E-02  0.1274966E+00
          2   -1    0    0  501    0  0.00000000000E+00  0.00000000000E+00  0.10163747406E+04  0.10163747406E+04  0.00000000000E+00 0. -1.
         -2   -1    0    0    0  501 -0.00000000000E+00 -0.00000000000E+00 -0.18342662707E+02  0.18342662707E+02  0.00000000000E+00 0.  1.
         24    1    1    2    0    0 -0.19700471996E+02  0.60555556846E+02  0.84046899651E+03  0.84670563605E+03  0.80419002446E+02 0. -1.
        -24    1    1    2    0    0  0.19700471996E+02 -0.60555556846E+02  0.15756308142E+03  0.18801176730E+03  0.80419002446E+02 0.  1.
<mgrwt>
<rscale>  0 0.10257826E+03</rscale>
<asrwt>0</asrwt>
<pdfrwt beam="1">  1        2 0.15636530E+00 0.10257826E+03</pdfrwt>
<pdfrwt beam="2">  1       -2 0.28219489E-02 0.10257826E+03</pdfrwt>
<totfact> 0.11263811E+04</totfact>
</mgrwt>
</event>
<event>
 4    3  0.8789582E-001  0.1971094E+03  0.7546771E-02  0.1152201E+00
         -4   -1    0    0    0  501 -0.00000000000E+00  0.00000000000E+00  0.39759674765E+03  0.39759674765E+03  0.00000000000E+00 0.  1.
          4   -1    0    0  501    0  0.00000000000E+00 -0.00000000000E+00 -0.20452248367E+03  0.20452248367E+03  0.00000000000E+00 0. -1.
         24    1    1    2    0    0  0.15084685246E+03  0.98133242428E+02 -0.12102230561E+03  0.23129747205E+03  0.80419002446E+02 0. -1.
        -24    1    1    2    0    0 -0.15084685246E+03 -0.98133242428E+02  0.31409656959E+03  0.37082175927E+03  0.80419002446E+02 0.  1.
<mgrwt>
<rscale>  0 0.19710942E+03</rscale>
<asrwt>0</asrwt>
<pdfrwt beam="1">  1        4 0.31464997E-01 0.19710942E+03</pdfrwt>
<pdfrwt beam="2">  1       -4 0.61168730E-01 0.19710942E+03</pdfrwt>
<totfact> 0.43828741E+01</totfact>
</mgrwt>
</event>
<event>
 4    3  0.8789582E-001  0.8615333E+02  0.7546771E-02  0.1312444E+00
          2   -1    0    0  501    0  0.00000000000E+00  0.00000000000E+00  0.33275901880E+04  0.33275901880E+04  0.00000000000E+00 0. -1.
         -2   -1    0    0    0  501 -0.00000000000E+00 -0.00000000000E+00 -0.27165336102E+01  0.27165336102E+01  0.00000000000E+00 0.  1.
         24    1    1    2    0    0  0.29432642059E+02 -0.94286315122E+01  0.23667280053E+04  0.23682955573E+04  0.80419002446E+02 0. -1.
        -24    1    1    2    0    0 -0.29432642059E+02  0.94286315122E+01  0.95814564908E+03  0.96201116434E+03  0.80419002446E+02 0.  1.
<mgrwt>
<rscale>  0 0.86153325E+02</rscale>
<asrwt>0</asrwt>
<pdfrwt beam="1">  1        2 0.51193369E+00 0.86153325E+02</pdfrwt>
<pdfrwt beam="2">  1       -2 0.41793091E-03 0.86153325E+02</pdfrwt>
<totfact> 0.98132528E+03</totfact>
</mgrwt>
</event>
<event>
 4    3  0.8789582E-001  0.9129471E+02  0.7546771E-02  0.1299746E+00
         -1   -1    0    0    0  501 -0.00000000000E+00  0.00000000000E+00  0.56875282752E+03  0.56875282752E+03  0.00000000000E+00 0.  1.
          1   -1    0    0  501    0  0.00000000000E+00 -0.00000000000E+00 -0.30779779119E+02  0.30779779119E+02  0.00000000000E+00 0. -1.
         24    1    1    2    0    0  0.37263432595E+02  0.21884800351E+02  0.48595928219E+03  0.49446046131E+03  0.80419002446E+02 0.  1.
        -24    1    1    2    0    0 -0.37263432595E+02 -0.21884800351E+02  0.52013766215E+02  0.10507214534E+03  0.80419002446E+02 0. -1.
<mgrwt>
<rscale>  0 0.91294709E+02</rscale>
<asrwt>0</asrwt>
<pdfrwt beam="1">  1        1 0.47353510E-02 0.91294709E+02</pdfrwt>
<pdfrwt beam="2">  1       -1 0.87500428E-01 0.91294709E+02</pdfrwt>
<totfact> 0.22960352E+03</totfact>
</mgrwt>
</event>
<event>
 4    3  0.8789582E-001  0.1096493E+03  0.7546771E-02  0.1261221E+00
         -2   -1    0    0    0  501 -0.00000000000E+00  0.00000000000E+00  0.13645066117E+02  0.13645066117E+02  0.00000000000E+00 0.  1.
          2   -1    0    0  501    0  0.00000000000E+00 -0.00000000000E+00 -0.18308790588E+04  0.18308790588E+04  0.00000000000E+00 0. -1.
         24    1    1    2    0    0  0.39560747323E+02  0.63171913190E+02 -0.15728660211E+04  0.15766833796E+04  0.80419002446E+02 0. -1.
        -24    1    1    2    0    0 -0.39560747323E+02 -0.63171913190E+02 -0.24436797166E+03  0.26784074535E+03  0.80419002446E+02 0.  1.
<mgrwt>
<rscale>  0 0.10964926E+03</rscale>
<asrwt>0</asrwt>
<pdfrwt beam="1">  1        2 0.28167351E+00 0.10964926E+03</pdfrwt>
<pdfrwt beam="2">  1       -2 0.20992424E-02 0.10964926E+03</pdfrwt>
<totfact> 0.64410876E+03</totfact>
</mgrwt>
</event>
<event>
 4    3  0.8789582E-001  0.9532976E+02  0.7546771E-02  0.1290435E+00
          2   -1    0    0  501    0  0.00000000000E+00  0.00000000000E+00  0.96534546896E+03  0.96534546896E+03  0.00000000000E+00 0. -1.
         -2   -1    0    0    0  501 -0.00000000000E+00 -0.00000000000E+00 -0.11754759671E+02  0.11754759671E+02  0.00000000000E+00 0.  1.
         24    1    1    2    0    0 -0.95804548048E+01 -0.50286800681E+02  0.69480742797E+03  0.70131670831E+03  0.80419002446E+02 0. -1.
        -24    1    1    2    0    0  0.95804548048E+01  0.50286800681E+02  0.25878328132E+03  0.27578352032E+03  0.80419002446E+02 0.  1.
<mgrwt>
<rscale>  0 0.95329761E+02</rscale>
<asrwt>0</asrwt>
<pdfrwt beam="1">  1        2 0.14851463E+00 0.95329761E+02</pdfrwt>
<pdfrwt beam="2">  1       -2 0.18084253E-02 0.95329761E+02</pdfrwt>
<totfact> 0.22836126E+04</totfact>
</mgrwt>
</event>
<event>
 4    3  0.8789582E-001  0.8240440E+02  0.7546771E-02  0.1322363E+00
          2   -1    0    0  501    0  0.00000000000E+00  0.00000000000E+00  0.57204829727E+03  0.57204829727E+03  0.00000000000E+00 0. -1.
         -2   -1    0    0    0  501 -0.00000000000E+00 -0.00000000000E+00 -0.12033171006E+02  0.12033171006E+02  0.00000000000E+00 0.  1.
         24    1    1    2    0    0  0.22377632803E+01  0.17839908939E+02  0.31396538170E+03  0.32459936352E+03  0.80419002446E+02 0.  0.
        -24    1    1    2    0    0 -0.22377632803E+01 -0.17839908939E+02  0.24604974456E+03  0.25948210476E+03  0.80419002446E+02 0.  0.
<mgrwt>
<rscale>  0 0.82404405E+02</rscale>
<asrwt>0</asrwt>
<pdfrwt beam="1">  1        2 0.88007409E-01 0.82404405E+02</pdfrwt>
<pdfrwt beam="2">  1       -2 0.18512575E-02 0.82404405E+02</pdfrwt>
<totfact> 0.40690082E+04</totfact>
</mgrwt>
</event>
<event>
 4    3  0.8789582E-001  0.8833971E+02  0.7546771E-02  0.1306923E+00
         -2   -1    0    0    0  501 -0.00000000000E+00  0.00000000000E+00  0.26316780466E+03  0.26316780466E+03  0.00000000000E+00 0.  1.
          2   -1    0    0  501    0  0.00000000000E+00 -0.00000000000E+00 -0.81238747378E+02  0.81238747378E+02  0.00000000000E+00 0. -1.
         24    1    1    2    0    0 -0.12486108419E+02 -0.34362557171E+02 -0.46256805024E+02  0.99717582222E+02  0.80419002446E+02 0. -1.
        -24    1    1    2    0    0  0.12486108419E+02  0.34362557171E+02  0.22818586231E+03  0.24468896982E+03  0.80419002446E+02 0.  1.
<mgrwt>
<rscale>  0 0.88339709E+02</rscale>
<asrwt>0</asrwt>
<pdfrwt beam="1">  1        2 0.12498269E-01 0.88339709E+02</pdfrwt>
<pdfrwt beam="2">  1       -2 0.40487354E-01 0.88339709E+02</pdfrwt>
<totfact> 0.26537810E+03</totfact>
</mgrwt>
</event>
<event>
 4    3  0.8789582E-001  0.1336726E+03  0.7546771E-02  0.1222106E+00
         -1   -1    0    0    0  501 -0.00000000000E+00  0.00000000000E+00  0.22615493036E+03  0.22615493036E+03  0.00000000000E+00 0.  1.
          1   -1    0    0  501    0  0.00000000000E+00 -0.00000000000E+00 -0.87681725414E+02  0.87681725414E+02  0.00000000000E+00 0. -1.
         24    1    1    2    0    0  0.91796130769E+02 -0.54540183388E+02  0.11858642570E+03  0.17869280216E+03  0.80419002446E+02 0.  1.
        -24    1    1    2    0    0 -0.91796130769E+02  0.54540183388E+02  0.19886779249E+02  0.13514385362E+03  0.80419002446E+02 0. -1.
<mgrwt>
<rscale>  0 0.13367265E+03</rscale>
<asrwt>0</asrwt>
<pdfrwt beam="1">  1        1 0.13489496E-01 0.13367265E+03</pdfrwt>
<pdfrwt beam="2">  1       -1 0.34793066E-01 0.13367265E+03</pdfrwt>
<totfact> 0.32628129E+03</totfact>
</mgrwt>
</event>
<event>
 4    3  0.8789582E-001  0.8166110E+02  0.7546771E-02  0.1324402E+00
         -1   -1    0    0    0  501 -0.00000000000E+00  0.00000000000E+00  0.36133419852E+03  0.36133419852E+03  0.00000000000E+00 0.  1.
          1   -1    0    0  501    0  0.00000000000E+00 -0.00000000000E+00 -0.20435576356E+02  0.20435576356E+02  0.00000000000E+00 0. -1.
         24    1    1    2    0    0 -0.50826389207E+01 -0.13247139779E+02  0.22987025271E+03  0.24394439728E+03  0.80419002446E+02 0. -1.
        -24    1    1    2    0    0  0.50826389207E+01  0.13247139779E+02  0.11102836946E+03  0.13782537760E+03  0.80419002446E+02 0. -1.
<mgrwt>
<rscale>  0 0.81661104E+02</rscale>
<asrwt>0</asrwt>
<pdfrwt beam="1">  1        1 0.31439351E-02 0.81661104E+02</pdfrwt>
<pdfrwt beam="2">  1       -1 0.55589872E-01 0.81661104E+02</pdfrwt>
<totfact> 0.96235217E+03</totfact>
</mgrwt>
</event>
<event>
 4    3  0.8789582E-001  0.8948854E+02  0.7546771E-02  0.1304095E+00
         -2   -1    0    0    0  501 -0.00000000000E+00  0.00000000000E+00  0.25250188225E+03  0.25250188225E+03  0.00000000000E+00 0.  1.
          2   -1    0    0  501    0  0.00000000000E+00 -0.00000000000E+00 -0.13477422249E+03  0.13477422249E+03  0.00000000000E+00 0. -1.
         24    1    1    2    0    0 -0.37903569018E+02  0.10212806584E+02 -0.11046459895E+03  0.14216407963E+03  0.80419002446E+02 0. -1.
        -24    1    1    2    0    0  0.37903569018E+02 -0.10212806584E+02  0.22819225871E+03  0.24511202511E+03  0.80419002446E+02 0.  1.
<mgrwt>
<rscale>  0 0.89488535E+02</rscale>
<asrwt>0</asrwt>
<pdfrwt beam="1">  1        2 0.20734496E-01 0.89488535E+02</pdfrwt>
<pdfrwt beam="2">  1       -2 0.38846443E-01 0.89488535E+02</pdfrwt>
<totfact> 0.16066831E+03</totfact>
</mgrwt>
</event>
<event>
 4    3  0.8789582E-001  0.8672974E+02  0.7546771E-02  0.1310970E+00
          1   -1    0    0  501    0  0.00000000000E+00  0.00000000000E+00  0.28253510411E+03  0.28253510411E+03  0.00000000000E+00 0. -1.
         -1   -1    0    0    0  501 -0.00000000000E+00 -0.00000000000E+00 -0.48613014838E+02  0.48613014838E+02  0.00000000000E+00 0.  1.
         24    1    1    2    0    0  0.32477934394E+02  0.12371714105E+00  0.56021922616E+01  0.86910482917E+02  0.80419002446E+02 0.  1.
        -24    1    1    2    0    0 -0.32477934394E+02 -0.12371714105E+00  0.22831989701E+03  0.24423763603E+03  0.80419002446E+02 0. -1.
<mgrwt>
<rscale>  0 0.86729738E+02</rscale>
<asrwt>0</asrwt>
<pdfrwt beam="1">  1        1 0.43466938E-01 0.86729738E+02</pdfrwt>
<pdfrwt beam="2">  1       -1 0.74789255E-02 0.86729738E+02</pdfrwt>
<totfact> 0.82676869E+03</totfact>
</mgrwt>
</event>
<event>
 4    3  0.8789582E-001  0.1880954E+03  0.7546771E-02  0.1160190E+00
          2   -1    0    0  501    0  0.00000000000E+00  0.00000000000E+00  0.85493617242E+03  0.85493617242E+03  0.00000000000E+00 0. -1.
         -2   -1    0    0    0  501 -0.00000000000E+00 -0.00000000000E+00 -0.42231546223E+02  0.42231546223E+02  0.00000000000E+00 0.  1.
         24    1    1    2    0    0 -0.14412497188E+03 -0.90225525974E+02  0.34276809750E+03  0.39098572566E+03  0.80419002446E+02 0.  0.
        -24    1    1    2    0    0  0.14412497188E+03  0.90225525974E+02  0.46993652870E+03  0.50618199298E+03  0.80419002446E+02 0.  0.
<mgrwt>
<rscale>  0 0.18809540E+03</rscale>
<asrwt>0</asrwt>
<pdfrwt beam="1">  1        2 0.13152863E+00 0.18809542E+03</pdfrwt>
<pdfrwt beam="2">  1       -2 0.64971616E-02 0.18809542E+03</pdfrwt>
<totfact> 0.42023174E+03</totfact>
</mgrwt>
</event>
<event>
 4    3  0.8789582E-001  0.1129428E+03  0.7546771E-02  0.1255215E+00
         -2   -1    0    0    0  501 -0.00000000000E+00  0.00000000000E+00  0.96087148407E+01  0.96087148407E+01  0.00000000000E+00 0.  1.
          2   -1    0    0  501    0  0.00000000000E+00 -0.00000000000E+00 -0.13338919814E+04  0.13338919814E+04  0.00000000000E+00 0. -1.
         24    1    1    2    0    0  0.77081122351E+02 -0.18637511066E+02 -0.61583120903E+03  0.62610234804E+03  0.80419002446E+02 0.  0.
        -24    1    1    2    0    0 -0.77081122351E+02  0.18637511066E+02 -0.70845205757E+03  0.71739834825E+03  0.80419002446E+02 0.  0.
<mgrwt>
<rscale>  0 0.11294280E+03</rscale>
<asrwt>0</asrwt>
<pdfrwt beam="1">  1        2 0.20521405E+00 0.11294281E+03</pdfrwt>
<pdfrwt beam="2">  1       -2 0.14782645E-02 0.11294281E+03</pdfrwt>
<totfact> 0.19240165E+04</totfact>
</mgrwt>
</event>
<event>
 4    3  0.8789582E-001  0.8468221E+02  0.7546771E-02  0.1316266E+00
         -2   -1    0    0    0  501 -0.00000000000E+00  0.00000000000E+00  0.92501148414E+02  0.92501148414E+02  0.00000000000E+00 0.  1.
          2   -1    0    0  501    0  0.00000000000E+00 -0.00000000000E+00 -0.97776870943E+02  0.97776870943E+02  0.00000000000E+00 0. -1.
         24    1    1    2    0    0 -0.25343004469E+02 -0.78481617185E+01 -0.45937245372E+02  0.96339545279E+02  0.80419002446E+02 0. -1.
        -24    1    1    2    0    0  0.25343004469E+02  0.78481617185E+01  0.40661522842E+02  0.93938474078E+02  0.80419002446E+02 0.  1.
<mgrwt>
<rscale>  0 0.84682215E+02</rscale>
<asrwt>0</asrwt>
<pdfrwt beam="1">  1        2 0.15042596E-01 0.84682215E+02</pdfrwt>
<pdfrwt beam="2">  1       -2 0.14230946E-01 0.84682215E+02</pdfrwt>
<totfact> 0.12946701E+04</totfact>
</mgrwt>
</event>
<event>
 4    3  0.8789582E-001  0.9441701E+02  0.7546771E-02  0.1292495E+00
          3   -1    0    0  501    0  0.00000000000E+00  0.00000000000E+00  0.71645058353E+02  0.71645058353E+02  0.00000000000E+00 0. -1.
         -3   -1    0    0    0  501 -0.00000000000E+00 -0.00000000000E+00 -0.43015587602E+03  0.43015587602E+03  0.00000000000E+00 0.  1.
         24    1    1    2    0    0 -0.45926837534E+02  0.18386965761E+02 -0.39077804833E+03  0.40202245450E+03  0.80419002446E+02 0.  1.
        -24    1    1    2    0    0  0.45926837534E+02 -0.18386965761E+02  0.32267230662E+02  0.99778479868E+02  0.80419002446E+02 0. -1.
<mgrwt>
<rscale>  0 0.94417005E+02</rscale>
<asrwt>0</asrwt>
<pdfrwt beam="1">  1        3 0.11022317E-01 0.94417005E+02</pdfrwt>
<pdfrwt beam="2">  1       -3 0.66177827E-01 0.94417005E+02</pdfrwt>
<totfact> 0.31045974E+02</totfact>
</mgrwt>
</event>
<event>
 4    3  0.8789582E-001  0.8192800E+02  0.7546771E-02  0.1323667E+00
          2   -1    0    0  501    0  0.00000000000E+00  0.00000000000E+00  0.26800990117E+03  0.26800990117E+03  0.00000000000E+00 0. -1.
         -2   -1    0    0    0  501 -0.00000000000E+00 -0.00000000000E+00 -0.25091385823E+02  0.25091385823E+02  0.00000000000E+00 0.  1.
         24    1    1    2    0    0  0.12367673656E+02 -0.95925936073E+01  0.11512910276E+03  0.14130429385E+03  0.80419002446E+02 0. -1.
        -24    1    1    2    0    0 -0.12367673656E+02  0.95925936073E+01  0.12778941259E+03  0.15179699315E+03  0.80419002446E+02 0.  1.
<mgrwt>
<rscale>  0 0.81927986E+02</rscale>
<asrwt>0</asrwt>
<pdfrwt beam="1">  1        2 0.41232290E-01 0.81927996E+02</pdfrwt>
<pdfrwt beam="2">  1       -2 0.38602134E-02 0.81927996E+02</pdfrwt>
<totfact> 0.31316830E+04</totfact>
</mgrwt>
</event>
<event>
 4    3  0.8789582E-001  0.8098939E+02  0.7546771E-02  0.1326267E+00
          2   -1    0    0  501    0  0.00000000000E+00  0.00000000000E+00  0.61202363422E+03  0.61202363422E+03  0.00000000000E+00 0. -1.
         -2   -1    0    0    0  501 -0.00000000000E+00 -0.00000000000E+00 -0.11752434813E+02  0.11752434813E+02  0.00000000000E+00 0.  1.
         24    1    1    2    0    0 -0.86435091601E+01  0.41659352434E+01  0.39269476356E+03  0.40095942257E+03  0.80419002446E+02 0. -1.
        -24    1    1    2    0    0  0.86435091601E+01 -0.41659352434E+01  0.20757643584E+03  0.22281664646E+03  0.80419002446E+02 0.  1.
<mgrwt>
<rscale>  0 0.80989390E+02</rscale>
<asrwt>0</asrwt>
<pdfrwt beam="1">  1        2 0.94157457E-01 0.80989390E+02</pdfrwt>
<pdfrwt beam="2">  1       -2 0.18080674E-02 0.80989390E+02</pdfrwt>
<totfact> 0.38964391E+04</totfact>
</mgrwt>
</event>
<event>
 4    3  0.8789582E-001  0.8059119E+02  0.7546771E-02  0.1327382E+00
         -2   -1    0    0    0  501 -0.00000000000E+00  0.00000000000E+00  0.78248016555E+01  0.78248016555E+01  0.00000000000E+00 0.  1.
          2   -1    0    0  501    0  0.00000000000E+00 -0.00000000000E+00 -0.89877382852E+03  0.89877382852E+03  0.00000000000E+00 0. -1.
         24    1    1    2    0    0 -0.52032651309E+01 -0.80402429128E+00 -0.32012294451E+03  0.33011155081E+03  0.80419002446E+02 0.  0.
        -24    1    1    2    0    0  0.52032651309E+01  0.80402429128E+00 -0.57082608236E+03  0.57648707937E+03  0.80419002446E+02 0. -1.
<mgrwt>
<rscale>  0 0.80591178E+02</rscale>
<asrwt>0</asrwt>
<pdfrwt beam="1">  1        2 0.13827290E+00 0.80591188E+02</pdfrwt>
<pdfrwt beam="2">  1       -2 0.12038156E-02 0.80591188E+02</pdfrwt>
<totfact> 0.43997527E+04</totfact>
</mgrwt>
</event>
<event>
 4    3  0.8789582E-001  0.1353979E+03  0.7546771E-02  0.1219659E+00
          2   -1    0    0  501    0  0.00000000000E+00  0.00000000000E+00  0.10344230954E+04  0.10344230954E+04  0.00000000000E+00 0. -1.
         -2   -1    0    0    0  501 -0.00000000000E+00 -0.00000000000E+00 -0.29759561923E+02  0.29759561923E+02  0.00000000000E+00 0.  1.
         24    1    1    2    0    0  0.62687032187E+02 -0.89082568843E+02  0.84073367274E+03  0.85156661073E+03  0.80419002446E+02 0. -1.
        -24    1    1    2    0    0 -0.62687032187E+02  0.89082568843E+02  0.16392986077E+03  0.21261604662E+03  0.80419002446E+02 0.  1.
<mgrwt>
<rscale>  0 0.13539787E+03</rscale>
<asrwt>0</asrwt>
<pdfrwt beam="1">  1        2 0.15914199E+00 0.13539787E+03</pdfrwt>
<pdfrwt beam="2">  1       -2 0.45783949E-02 0.13539787E+03</pdfrwt>
<totfact> 0.54630970E+03</totfact>
</mgrwt>
</event>
<event>
 4    3  0.8789582E-001  0.9264983E+02  0.7546771E-02  0.1296559E+00
          1   -1    0    0  501    0  0.00000000000E+00  0.00000000000E+00  0.44159469038E+03  0.44159469038E+03  0.00000000000E+00 0. -1.
         -1   -1    0    0    0  501 -0.00000000000E+00 -0.00000000000E+00 -0.19449242152E+02  0.19449242152E+02  0.00000000000E+00 0.  1.
         24    1    1    2    0    0  0.37448339012E+02  0.26728203400E+02  0.20568520048E+03  0.22558899043E+03  0.80419002446E+02 0.  1.
        -24    1    1    2    0    0 -0.37448339012E+02 -0.26728203400E+02  0.21646024775E+03  0.23545494210E+03  0.80419002446E+02 0. -1.
<mgrwt>
<rscale>  0 0.92649829E+02</rscale>
<asrwt>0</asrwt>
<pdfrwt beam="1">  1        1 0.67937637E-01 0.92649829E+02</pdfrwt>
<pdfrwt beam="2">  1       -1 0.29921914E-02 0.92649829E+02</pdfrwt>
<totfact> 0.18291384E+04</totfact>
</mgrwt>
</event>
<event>
 4    3  0.8789582E-001  0.8318005E+02  0.7546771E-02  0.1320262E+00
         -2   -1    0    0    0  501 -0.00000000000E+00  0.00000000000E+00  0.13728233394E+02  0.13728233394E+02  0.00000000000E+00 0.  1.
          2   -1    0    0  501    0  0.00000000000E+00 -0.00000000000E+00 -0.15327863966E+04  0.15327863966E+04  0.00000000000E+00 0. -1.
         24    1    1    2    0    0  0.72060722012E+01  0.19994447008E+02 -0.13930303516E+04  0.13955115484E+04  0.80419002446E+02 0. -1.
        -24    1    1    2    0    0 -0.72060722012E+01 -0.19994447008E+02 -0.12602781162E+03  0.15100308157E+03  0.80419002446E+02 0.  0.
<mgrwt>
<rscale>  0 0.83180054E+02</rscale>
<asrwt>0</asrwt>
<pdfrwt beam="1">  1        2 0.23581327E+00 0.83180054E+02</pdfrwt>
<pdfrwt beam="2">  1       -2 0.21120361E-02 0.83180054E+02</pdfrwt>
<totfact> 0.89336834E+03</totfact>
</mgrwt>
</event>
<event>
 4    3  0.8789582E-001  0.8220716E+02  0.7546771E-02  0.1322902E+00
         -3   -1    0    0    0  501 -0.00000000000E+00  0.00000000000E+00  0.28156632451E+03  0.28156632451E+03  0.00000000000E+00 0.  1.
          3   -1    0    0  501    0  0.00000000000E+00 -0.00000000000E+00 -0.42116412861E+02  0.42116412861E+02  0.00000000000E+00 0. -1.
         24    1    1    2    0    0  0.28520572574E+01 -0.16812679635E+02  0.22586564044E+03  0.24036077865E+03  0.80419002446E+02 0.  1.
        -24    1    1    2    0    0 -0.28520572574E+01  0.16812679635E+02  0.13584271212E+02  0.83321958725E+02  0.80419002446E+02 0.  0.
<mgrwt>
<rscale>  0 0.82207155E+02</rscale>
<asrwt>0</asrwt>
<pdfrwt beam="1">  1        3 0.64794483E-02 0.82207155E+02</pdfrwt>
<pdfrwt beam="2">  1       -3 0.43317895E-01 0.82207155E+02</pdfrwt>
<totfact> 0.16685939E+03</totfact>
</mgrwt>
</event>
<event>
 4    3  0.8789582E-001  0.9368321E+02  0.7546771E-02  0.1294170E+00
         -2   -1    0    0    0  501 -0.00000000000E+00  0.00000000000E+00  0.81455891650E+02  0.81455891650E+02  0.00000000000E+00 0.  1.
          2   -1    0    0  501    0  0.00000000000E+00 -0.00000000000E+00 -0.10820691341E+03  0.10820691341E+03  0.00000000000E+00 0. -1.
         24    1    1    2    0    0 -0.16812070627E+02  0.45018690020E+02 -0.19564904363E+02  0.95704386561E+02  0.80419002446E+02 0.  0.
        -24    1    1    2    0    0  0.16812070627E+02 -0.45018690020E+02 -0.71861174004E+01  0.93958418503E+02  0.80419002446E+02 0.  0.
<mgrwt>
<rscale>  0 0.93683212E+02</rscale>
<asrwt>0</asrwt>
<pdfrwt beam="1">  1        2 0.16647217E-01 0.93683212E+02</pdfrwt>
<pdfrwt beam="2">  1       -2 0.12531676E-01 0.93683212E+02</pdfrwt>
<totfact> 0.14267378E+04</totfact>
</mgrwt>
</event>
<event>
 4    3  0.8789582E-001  0.9174210E+02  0.7546771E-02  0.1298687E+00
         -2   -1    0    0    0  501 -0.00000000000E+00  0.00000000000E+00  0.48696843797E+01  0.48696843797E+01  0.00000000000E+00 0.  1.
          2   -1    0    0  501    0  0.00000000000E+00 -0.00000000000E+00 -0.17352280193E+04  0.17352280193E+04  0.00000000000E+00 0. -1.
         24    1    1    2    0    0  0.41229150597E+02 -0.15797157154E+02 -0.81047595249E+03  0.81565181208E+03  0.80419002446E+02 0.  0.
        -24    1    1    2    0    0 -0.41229150597E+02  0.15797157154E+02 -0.91988238248E+03  0.92444589164E+03  0.80419002446E+02 0.  0.
<mgrwt>
<rscale>  0 0.91742090E+02</rscale>
<asrwt>0</asrwt>
<pdfrwt beam="1">  1        2 0.26695825E+00 0.91742102E+02</pdfrwt>
<pdfrwt beam="2">  1       -2 0.74918194E-03 0.91742102E+02</pdfrwt>
<totfact> 0.30984873E+04</totfact>
</mgrwt>
</event>
<event>
 4    3  0.8789582E-001  0.1130363E+03  0.7546771E-02  0.1255048E+00
          2   -1    0    0  501    0  0.00000000000E+00  0.00000000000E+00  0.43052066252E+03  0.43052066252E+03  0.00000000000E+00 0. -1.
         -2   -1    0    0    0  501 -0.00000000000E+00 -0.00000000000E+00 -0.12359330310E+03  0.12359330310E+03  0.00000000000E+00 0.  1.
         24    1    1    2    0    0 -0.38532774320E+02 -0.69463833275E+02  0.39497562596E+03  0.41083203367E+03  0.80419002446E+02 0. -1.
        -24    1    1    2    0    0  0.38532774320E+02  0.69463833275E+02 -0.88048266535E+02  0.14328193195E+03  0.80419002446E+02 0.  1.
<mgrwt>
<rscale>  0 0.11303634E+03</rscale>
<asrwt>0</asrwt>
<pdfrwt beam="1">  1        2 0.66233947E-01 0.11303634E+03</pdfrwt>
<pdfrwt beam="2">  1       -2 0.19014355E-01 0.11303634E+03</pdfrwt>
<totfact> 0.16516523E+03</totfact>
</mgrwt>
</event>
<event>
 4    3  0.8789582E-001  0.1051599E+03  0.7546771E-02  0.1269805E+00
         -2   -1    0    0    0  501 -0.00000000000E+00  0.00000000000E+00  0.33356565996E+01  0.33356565996E+01  0.00000000000E+00 0.  1.
          2   -1    0    0  501    0  0.00000000000E+00 -0.00000000000E+00 -0.33818775674E+04  0.33818775674E+04  0.00000000000E+00 0. -1.
         24    1    1    2    0    0  0.57026659785E+02 -0.36597059344E+02 -0.19268129856E+04  0.19296805129E+04  0.80419002446E+02 0.  1.
        -24    1    1    2    0    0 -0.57026659785E+02  0.36597059344E+02 -0.14517289252E+04  0.14555327111E+04  0.80419002446E+02 0.  0.
<mgrwt>
<rscale>  0 0.10515988E+03</rscale>
<asrwt>0</asrwt>
<pdfrwt beam="1">  1        2 0.52028722E+00 0.10515988E+03</pdfrwt>
<pdfrwt beam="2">  1       -2 0.51317956E-03 0.10515988E+03</pdfrwt>
<totfact> 0.68245643E+03</totfact>
</mgrwt>
</event>
<event>
 4    3  0.8789582E-001  0.8079594E+02  0.7546771E-02  0.1326808E+00
         -2   -1    0    0    0  501 -0.00000000000E+00  0.00000000000E+00  0.15499950243E+02  0.15499950243E+02  0.00000000000E+00 0.  1.
          2   -1    0    0  501    0  0.00000000000E+00 -0.00000000000E+00 -0.42201360615E+03  0.42201360615E+03  0.00000000000E+00 0. -1.
         24    1    1    2    0    0 -0.36135462531E+01 -0.69069956163E+01 -0.19342626022E+03  0.20962275259E+03  0.80419002446E+02 0.  1.
        -24    1    1    2    0    0  0.36135462531E+01  0.69069956163E+01 -0.21308739569E+03  0.22789080381E+03  0.80419002446E+02 0. -1.
<mgrwt>
<rscale>  0 0.80795927E+02</rscale>
<asrwt>0</asrwt>
<pdfrwt beam="1">  1        2 0.64925169E-01 0.80795938E+02</pdfrwt>
<pdfrwt beam="2">  1       -2 0.23846078E-02 0.80795938E+02</pdfrwt>
<totfact> 0.39149080E+04</totfact>
</mgrwt>
</event>
<event>
 4    3  0.8789582E-001  0.9288005E+02  0.7546771E-02  0.1296023E+00
          3   -1    0    0  501    0  0.00000000000E+00  0.00000000000E+00  0.27111592571E+03  0.27111592571E+03  0.00000000000E+00 0. -1.
         -3   -1    0    0    0  501 -0.00000000000E+00 -0.00000000000E+00 -0.53198636049E+02  0.53198636049E+02  0.00000000000E+00 0.  1.
         24    1    1    2    0    0  0.41054437014E+02  0.21772009612E+02  0.61608250190E+01  0.93084149673E+02  0.80419002446E+02 0.  1.
        -24    1    1    2    0    0 -0.41054437014E+02 -0.21772009612E+02  0.21175646464E+03  0.23123041209E+03  0.80419002446E+02 0. -1.
<mgrwt>
<rscale>  0 0.92880047E+02</rscale>
<asrwt>0</asrwt>
<pdfrwt beam="1">  1        3 0.41710142E-01 0.92880047E+02</pdfrwt>
<pdfrwt beam="2">  1       -3 0.81844057E-02 0.92880047E+02</pdfrwt>
<totfact> 0.12657597E+03</totfact>
</mgrwt>
</event>
<event>
 4    3  0.8789582E-001  0.2892568E+03  0.7546771E-02  0.1090738E+00
         -1   -1    0    0    0  501 -0.00000000000E+00  0.00000000000E+00  0.19478703018E+03  0.19478703018E+03  0.00000000000E+00 0.  1.
          1   -1    0    0  501    0  0.00000000000E+00 -0.00000000000E+00 -0.93304450753E+03  0.93304450753E+03  0.00000000000E+00 0. -1.
         24    1    1    2    0    0 -0.16891240079E+03  0.22061480725E+03  0.45121930141E+02  0.29275501166E+03  0.80419002446E+02 0.  1.
        -24    1    1    2    0    0  0.16891240079E+03 -0.22061480725E+03 -0.78337940750E+03  0.83507652605E+03  0.80419002446E+02 0. -1.
<mgrwt>
<rscale>  0 0.28925682E+03</rscale>
<asrwt>0</asrwt>
<pdfrwt beam="1">  1        1 0.14354531E+00 0.28925682E+03</pdfrwt>
<pdfrwt beam="2">  1       -1 0.29967236E-01 0.28925682E+03</pdfrwt>
<totfact> 0.18552119E+02</totfact>
</mgrwt>
</event>
<event>
 4    3  0.8789582E-001  0.9350860E+02  0.7546771E-02  0.1294571E+00
         -2   -1    0    0    0  501 -0.00000000000E+00  0.00000000000E+00  0.10142585375E+02  0.10142585375E+02  0.00000000000E+00 0.  1.
          2   -1    0    0  501    0  0.00000000000E+00 -0.00000000000E+00 -0.91458126810E+03  0.91458126810E+03  0.00000000000E+00 0. -1.
         24    1    1    2    0    0 -0.36518868167E+02 -0.30708466909E+02 -0.34145465755E+03  0.35402702833E+03  0.80419002446E+02 0.  0.
        -24    1    1    2    0    0  0.36518868167E+02  0.30708466909E+02 -0.56298402518E+03  0.57069682515E+03  0.80419002446E+02 0.  0.
<mgrwt>
<rscale>  0 0.93508587E+02</rscale>
<asrwt>0</asrwt>
<pdfrwt beam="1">  1        2 0.14070481E+00 0.93508599E+02</pdfrwt>
<pdfrwt beam="2">  1       -2 0.15603977E-02 0.93508599E+02</pdfrwt>
<totfact> 0.30222674E+04</totfact>
</mgrwt>
</event>
<event>
 4    3  0.8789582E-001  0.8391227E+02  0.7546771E-02  0.1318302E+00
          2   -1    0    0  501    0  0.00000000000E+00  0.00000000000E+00  0.12387129332E+04  0.12387129332E+04  0.00000000000E+00 0. -1.
         -2   -1    0    0    0  501 -0.00000000000E+00 -0.00000000000E+00 -0.57587275762E+01  0.57587275762E+01  0.00000000000E+00 0.  1.
         24    1    1    2    0    0 -0.12821747540E+02  0.20239947134E+02  0.68719584531E+03  0.69230007831E+03  0.80419002446E+02 0. -1.
        -24    1    1    2    0    0  0.12821747540E+02 -0.20239947134E+02  0.54575836029E+03  0.55217158244E+03  0.80419002446E+02 0.  1.
<mgrwt>
<rscale>  0 0.83912267E+02</rscale>
<asrwt>0</asrwt>
<pdfrwt beam="1">  1        2 0.19057101E+00 0.83912267E+02</pdfrwt>
<pdfrwt beam="2">  1       -2 0.88595908E-03 0.83912267E+02</pdfrwt>
<totfact> 0.43648540E+04</totfact>
</mgrwt>
</event>
<event>
 4    3  0.8789582E-001  0.8132225E+02  0.7546771E-02  0.1325340E+00
          1   -1    0    0  501    0  0.00000000000E+00  0.00000000000E+00  0.21263682188E+03  0.21263682188E+03  0.00000000000E+00 0. -1.
         -1   -1    0    0    0  501 -0.00000000000E+00 -0.00000000000E+00 -0.34962207304E+02  0.34962207304E+02  0.00000000000E+00 0.  1.
         24    1    1    2    0    0 -0.10228062537E+02  0.64404206798E+01  0.47697982538E+02  0.94278342022E+02  0.80419002446E+02 0.  1.
        -24    1    1    2    0    0  0.10228062537E+02 -0.64404206798E+01  0.12997663204E+03  0.15332068716E+03  0.80419002446E+02 0. -1.
<mgrwt>
<rscale>  0 0.81322249E+02</rscale>
<asrwt>0</asrwt>
<pdfrwt beam="1">  1        1 0.32713356E-01 0.81322249E+02</pdfrwt>
<pdfrwt beam="2">  1       -1 0.53788012E-02 0.81322249E+02</pdfrwt>
<totfact> 0.18876101E+04</totfact>
</mgrwt>
</event>
<event>
 4    3  0.8789582E-001  0.8152515E+02  0.7546771E-02  0.1324778E+00
          2   -1    0    0  501    0  0.00000000000E+00  0.00000000000E+00  0.21778468100E+04  0.21778468100E+04  0.00000000000E+00 0. -1.
         -2   -1    0    0    0  501 -0.00000000000E+00 -0.00000000000E+00 -0.47411240347E+02  0.47411240347E+02  0.00000000000E+00 0.  1.
         24    1    1    2    0    0 -0.11134246985E+02 -0.74271987159E+01  0.21414420030E+04  0.21429932811E+04  0.80419002446E+02 0. -1.
        -24    1    1    2    0    0  0.11134246985E+02  0.74271987159E+01 -0.11006433297E+02  0.82264769282E+02  0.80419002446E+02 0.  1.
<mgrwt>
<rscale>  0 0.81525154E+02</rscale>
<asrwt>0</asrwt>
<pdfrwt beam="1">  1        2 0.33505328E+00 0.81525154E+02</pdfrwt>
<pdfrwt beam="2">  1       -2 0.72940387E-02 0.81525154E+02</pdfrwt>
<totfact> 0.68776280E+02</totfact>
</mgrwt>
</event>
<event>
 4    3  0.8789582E-001  0.8274048E+02  0.7546771E-02  0.1321449E+00
         -4   -1    0    0    0  501 -0.00000000000E+00  0.00000000000E+00  0.22908007785E+02  0.22908007785E+02  0.00000000000E+00 0.  1.
          4   -1    0    0  501    0  0.00000000000E+00 -0.00000000000E+00 -0.30077981895E+03  0.30077981895E+03  0.00000000000E+00 0. -1.
         24    1    1    2    0    0 -0.58757582840E+01 -0.18553809778E+02 -0.12596135260E+03  0.15070582834E+03  0.80419002446E+02 0. -1.
        -24    1    1    2    0    0  0.58757582840E+01  0.18553809778E+02 -0.15191045856E+03  0.17298199839E+03  0.80419002446E+02 0.  1.
<mgrwt>
<rscale>  0 0.82740474E+02</rscale>
<asrwt>0</asrwt>
<pdfrwt beam="1">  1        4 0.46273820E-01 0.82740484E+02</pdfrwt>
<pdfrwt beam="2">  1       -4 0.35243088E-02 0.82740484E+02</pdfrwt>
<totfact> 0.27454377E+03</totfact>
</mgrwt>
</event>
<event>
 4    3  0.8789582E-001  0.8395898E+02  0.7546771E-02  0.1318178E+00
          1   -1    0    0  501    0  0.00000000000E+00  0.00000000000E+00  0.25900467501E+03  0.25900467501E+03  0.00000000000E+00 0. -1.
         -1   -1    0    0    0  501 -0.00000000000E+00 -0.00000000000E+00 -0.27258243703E+02  0.27258243703E+02  0.00000000000E+00 0.  1.
         24    1    1    2    0    0  0.84239442130E+01  0.22603709808E+02  0.12149878374E+03  0.14768568292E+03  0.80419002446E+02 0.  1.
        -24    1    1    2    0    0 -0.84239442130E+01 -0.22603709808E+02  0.11024764757E+03  0.13857723580E+03  0.80419002446E+02 0. -1.
<mgrwt>
<rscale>  0 0.83958968E+02</rscale>
<asrwt>0</asrwt>
<pdfrwt beam="1">  1        1 0.39846871E-01 0.83958978E+02</pdfrwt>
<pdfrwt beam="2">  1       -1 0.41935761E-02 0.83958978E+02</pdfrwt>
<totfact> 0.21409684E+04</totfact>
</mgrwt>
</event>
<event>
 4    3  0.8789582E-001  0.8402556E+02  0.7546771E-02  0.1318001E+00
          2   -1    0    0  501    0  0.00000000000E+00  0.00000000000E+00  0.32778847417E+03  0.32778847417E+03  0.00000000000E+00 0. -1.
         -2   -1    0    0    0  501 -0.00000000000E+00 -0.00000000000E+00 -0.59782330805E+02  0.59782330805E+02  0.00000000000E+00 0.  1.
         24    1    1    2    0    0  0.16000043383E+02  0.18359652240E+02  0.28899585741E+03  0.30096328643E+03  0.80419002446E+02 0. -1.
        -24    1    1    2    0    0 -0.16000043383E+02 -0.18359652240E+02 -0.20989714052E+02  0.86607518548E+02  0.80419002446E+02 0.  0.
<mgrwt>
<rscale>  0 0.84025557E+02</rscale>
<asrwt>0</asrwt>
<pdfrwt beam="1">  1        2 0.50428995E-01 0.84025557E+02</pdfrwt>
<pdfrwt beam="2">  1       -2 0.91972818E-02 0.84025557E+02</pdfrwt>
<totfact> 0.69332293E+03</totfact>
</mgrwt>
</event>
<event>
 4    3  0.8789582E-001  0.9529896E+02  0.7546771E-02  0.1290504E+00
         -2   -1    0    0    0  501 -0.00000000000E+00  0.00000000000E+00  0.57121998558E+02  0.57121998558E+02  0.00000000000E+00 0.  1.
          2   -1    0    0  501    0  0.00000000000E+00 -0.00000000000E+00 -0.19315589445E+03  0.19315589445E+03  0.00000000000E+00 0. -1.
         24    1    1    2    0    0 -0.42313576781E+02  0.28709437919E+02 -0.15387570594E+02  0.96533226864E+02  0.80419002446E+02 0.  0.
        -24    1    1    2    0    0  0.42313576781E+02 -0.28709437919E+02 -0.12064632530E+03  0.15374466615E+03  0.80419002446E+02 0. -1.
<mgrwt>
<rscale>  0 0.95298945E+02</rscale>
<asrwt>0</asrwt>
<pdfrwt beam="1">  1        2 0.29716292E-01 0.95298956E+02</pdfrwt>
<pdfrwt beam="2">  1       -2 0.87879997E-02 0.95298956E+02</pdfrwt>
<totfact> 0.13117301E+04</totfact>
</mgrwt>
</event>
<event>
 4    3  0.8789582E-001  0.1060981E+03  0.7546771E-02  0.1267971E+00
         -1   -1    0    0    0  501 -0.00000000000E+00  0.00000000000E+00  0.13320768937E+02  0.13320768937E+02  0.00000000000E+00 0.  1.
          1   -1    0    0  501    0  0.00000000000E+00 -0.00000000000E+00 -0.25109841486E+04  0.25109841486E+04  0.00000000000E+00 0. -1.
         24    1    1    2    0    0  0.11341437925E+02 -0.68271280021E+02 -0.22077323886E+03  0.24494414637E+03  0.80419002446E+02 0.  1.
        -24    1    1    2    0    0 -0.11341437925E+02  0.68271280021E+02 -0.22768901408E+04  0.22793607712E+04  0.80419002446E+02 0. -1.
<mgrwt>
<rscale>  0 0.10609812E+03</rscale>
<asrwt>0</asrwt>
<pdfrwt beam="1">  1        1 0.38630527E+00 0.10609812E+03</pdfrwt>
<pdfrwt beam="2">  1       -1 0.20493490E-02 0.10609812E+03</pdfrwt>
<totfact> 0.10548096E+03</totfact>
</mgrwt>
</event>
<event>
 4    3  0.8789582E-001  0.9294778E+02  0.7546771E-02  0.1295866E+00
         -3   -1    0    0    0  501 -0.00000000000E+00  0.00000000000E+00  0.30680363289E+02  0.30680363289E+02  0.00000000000E+00 0.  1.
          3   -1    0    0  501    0  0.00000000000E+00 -0.00000000000E+00 -0.30380132669E+03  0.30380132669E+03  0.00000000000E+00 0. -1.
         24    1    1    2    0    0 -0.53562962060E+01 -0.46296697545E+02 -0.91340261067E+02  0.13031628202E+03  0.80419002446E+02 0. -1.
        -24    1    1    2    0    0  0.53562962060E+01  0.46296697545E+02 -0.18178070233E+03  0.20416540796E+03  0.80419002446E+02 0.  0.
<mgrwt>
<rscale>  0 0.92947781E+02</rscale>
<asrwt>0</asrwt>
<pdfrwt beam="1">  1        3 0.46738668E-01 0.92947781E+02</pdfrwt>
<pdfrwt beam="2">  1       -3 0.47200557E-02 0.92947781E+02</pdfrwt>
<totfact> 0.24326804E+03</totfact>
</mgrwt>
</event>
<event>
 4    3  0.8789582E-001  0.9205937E+02  0.7546771E-02  0.1297940E+00
         -1   -1    0    0    0  501 -0.00000000000E+00  0.00000000000E+00  0.58547093292E+02  0.58547093292E+02  0.00000000000E+00 0.  1.
          1   -1    0    0  501    0  0.00000000000E+00 -0.00000000000E+00 -0.15919581660E+03  0.15919581660E+03  0.00000000000E+00 0. -1.
         24    1    1    2    0    0  0.21521272510E+02 -0.39300724683E+02 -0.17533066998E+02  0.93714121261E+02  0.80419002446E+02 0.  1.
        -24    1    1    2    0    0 -0.21521272510E+02  0.39300724683E+02 -0.83115656307E+02  0.12402878863E+03  0.80419002446E+02 0. -1.
<mgrwt>
<rscale>  0 0.92059373E+02</rscale>
<asrwt>0</asrwt>
<pdfrwt beam="1">  1        1 0.24491664E-01 0.92059373E+02</pdfrwt>
<pdfrwt beam="2">  1       -1 0.90072451E-02 0.92059373E+02</pdfrwt>
<totfact> 0.12721390E+04</totfact>
</mgrwt>
</event>
<event>
 4    3  0.8789582E-001  0.8416383E+02  0.7546771E-02  0.1317634E+00
          2   -1    0    0  501    0  0.00000000000E+00  0.00000000000E+00  0.70823410879E+02  0.70823410879E+02  0.00000000000E+00 0. -1.
         -2   -1    0    0    0  501 -0.00000000000E+00 -0.00000000000E+00 -0.41574776510E+03  0.41574776510E+03  0.00000000000E+00 0.  1.
         24    1    1    2    0    0  0.16377229556E+02  0.18657982585E+02  0.39549521199E+02  0.92993088687E+02  0.80419002446E+02 0. -1.
        -24    1    1    2    0    0 -0.16377229556E+02 -0.18657982585E+02 -0.38447387542E+03  0.39357808729E+03  0.80419002446E+02 0.  1.
<mgrwt>
<rscale>  0 0.84163828E+02</rscale>
<asrwt>0</asrwt>
<pdfrwt beam="1">  1        2 0.10895909E-01 0.84163828E+02</pdfrwt>
<pdfrwt beam="2">  1       -2 0.63961194E-01 0.84163828E+02</pdfrwt>
<totfact> 0.12663254E+03</totfact>
</mgrwt>
</event>
<event>
 4    3  0.8789582E-001  0.8368399E+02  0.7546771E-02  0.1318910E+00
          2   -1    0    0  501    0  0.00000000000E+00  0.00000000000E+00  0.13442764166E+03  0.13442764166E+03  0.00000000000E+00 0. -1.
         -2   -1    0    0    0  501 -0.00000000000E+00 -0.00000000000E+00 -0.62838962021E+02  0.62838962021E+02  0.00000000000E+00 0.  1.
         24    1    1    2    0    0 -0.51728623471E+01 -0.22561822034E+02  0.76578447031E+02  0.11343398442E+03  0.80419002446E+02 0. -1.
        -24    1    1    2    0    0  0.51728623471E+01  0.22561822034E+02 -0.49897673919E+01  0.83832619256E+02  0.80419002446E+02 0. -1.
<mgrwt>
<rscale>  0 0.83683991E+02</rscale>
<asrwt>0</asrwt>
<pdfrwt beam="1">  1        2 0.20681175E-01 0.83683991E+02</pdfrwt>
<pdfrwt beam="2">  1       -2 0.96675327E-02 0.83683991E+02</pdfrwt>
<totfact> 0.16583125E+04</totfact>
</mgrwt>
</event>
<event>
 4    3  0.8789582E-001  0.1007746E+03  0.7546771E-02  0.1278675E+00
         -1   -1    0    0    0  501 -0.00000000000E+00  0.00000000000E+00  0.23692331766E+03  0.23692331766E+03  0.00000000000E+00 0.  1.
          1   -1    0    0  501    0  0.00000000000E+00 -0.00000000000E+00 -0.98392471840E+02  0.98392471840E+02  0.00000000000E+00 0. -1.
         24    1    1    2    0    0 -0.41749932937E+02  0.44104975278E+02  0.19521602951E+03  0.21969255763E+03  0.80419002446E+02 0.  1.
        -24    1    1    2    0    0  0.41749932937E+02 -0.44104975278E+02 -0.56685183690E+02  0.11562323187E+03  0.80419002446E+02 0. -1.
<mgrwt>
<rscale>  0 0.10077461E+03</rscale>
<asrwt>0</asrwt>
<pdfrwt beam="1">  1        1 0.15137303E-01 0.10077461E+03</pdfrwt>
<pdfrwt beam="2">  1       -1 0.36449741E-01 0.10077461E+03</pdfrwt>
<totfact> 0.25567044E+03</totfact>
</mgrwt>
</event>
<event>
 4    3  0.8789582E-001  0.1481241E+03  0.7546771E-02  0.1202797E+00
          2   -1    0    0  501    0  0.00000000000E+00  0.00000000000E+00  0.18289460587E+04  0.18289460587E+04  0.00000000000E+00 0. -1.
         -2   -1    0    0    0  501 -0.00000000000E+00 -0.00000000000E+00 -0.24518998853E+02  0.24518998853E+02  0.00000000000E+00 0.  1.
         24    1    1    2    0    0  0.23395127564E+02  0.12217284353E+03  0.23992011841E+03  0.28196172588E+03  0.80419002446E+02 0.  0.
        -24    1    1    2    0    0 -0.23395127564E+02 -0.12217284353E+03  0.15645069415E+04  0.15715033317E+04  0.80419002446E+02 0.  0.
<mgrwt>
<rscale>  0 0.14812413E+03</rscale>
<asrwt>0</asrwt>
<pdfrwt beam="1">  1        2 0.28137621E+00 0.14812415E+03</pdfrwt>
<pdfrwt beam="2">  1       -2 0.37721551E-02 0.14812415E+03</pdfrwt>
<totfact> 0.27479087E+03</totfact>
</mgrwt>
</event>
<event>
 4    3  0.8789582E-001  0.9101656E+02  0.7546771E-02  0.1300408E+00
          2   -1    0    0  501    0  0.00000000000E+00  0.00000000000E+00  0.75722199439E+03  0.75722199439E+03  0.00000000000E+00 0. -1.
         -2   -1    0    0    0  501 -0.00000000000E+00 -0.00000000000E+00 -0.12709846274E+02  0.12709846274E+02  0.00000000000E+00 0.  1.
         24    1    1    2    0    0 -0.40282355836E+02  0.13933055511E+02  0.51591049878E+03  0.52387752093E+03  0.80419002446E+02 0. -1.
        -24    1    1    2    0    0  0.40282355836E+02 -0.13933055511E+02  0.22860164934E+03  0.24605431974E+03  0.80419002446E+02 0.  1.
<mgrwt>
<rscale>  0 0.91016560E+02</rscale>
<asrwt>0</asrwt>
<pdfrwt beam="1">  1        2 0.11649566E+00 0.91016560E+02</pdfrwt>
<pdfrwt beam="2">  1       -2 0.19553615E-02 0.91016560E+02</pdfrwt>
<totfact> 0.27590645E+04</totfact>
</mgrwt>
</event>
<event>
 4    3  0.8789582E-001  0.9552583E+02  0.7546771E-02  0.1289996E+00
          2   -1    0    0  501    0  0.00000000000E+00  0.00000000000E+00  0.17676143942E+04  0.17676143942E+04  0.00000000000E+00 0. -1.
         -2   -1    0    0    0  501 -0.00000000000E+00 -0.00000000000E+00 -0.52461216843E+01  0.52461216843E+01  0.00000000000E+00 0.  1.
         24    1    1    2    0    0 -0.43474940987E+02  0.27710877187E+02  0.76922076635E+03  0.77512951598E+03  0.80419002446E+02 0.  0.
        -24    1    1    2    0    0  0.43474940987E+02 -0.27710877187E+02  0.99314750615E+03  0.99773099989E+03  0.80419002446E+02 0.  0.
<mgrwt>
<rscale>  0 0.95525816E+02</rscale>
<asrwt>0</asrwt>
<pdfrwt beam="1">  1        2 0.27194020E+00 0.95525828E+02</pdfrwt>
<pdfrwt beam="2">  1       -2 0.80709705E-03 0.95525828E+02</pdfrwt>
<totfact> 0.26950550E+04</totfact>
</mgrwt>
</event>
<event>
 4    3  0.8789582E-001  0.8962968E+02  0.7546771E-02  0.1303751E+00
         -1   -1    0    0    0  501 -0.00000000000E+00  0.00000000000E+00  0.42874351890E+02  0.42874351890E+02  0.00000000000E+00 0.  1.
          1   -1    0    0  501    0  0.00000000000E+00 -0.00000000000E+00 -0.37483601376E+03  0.37483601376E+03  0.00000000000E+00 0. -1.
         24    1    1    2    0    0 -0.38775932313E+02 -0.79177178924E+01 -0.18280029170E+02  0.91474797645E+02  0.80419002446E+02 0.  1.
        -24    1    1    2    0    0  0.38775932313E+02  0.79177178924E+01 -0.31368163270E+03  0.32623556800E+03  0.80419002446E+02 0. -1.
<mgrwt>
<rscale>  0 0.89629678E+02</rscale>
<asrwt>0</asrwt>
<pdfrwt beam="1">  1        1 0.57667078E-01 0.89629678E+02</pdfrwt>
<pdfrwt beam="2">  1       -1 0.65960542E-02 0.89629678E+02</pdfrwt>
<totfact> 0.70640268E+03</totfact>
</mgrwt>
</event>
<event>
 4    3  0.8789582E-001  0.8348405E+02  0.7546771E-02  0.1319445E+00
         -1   -1    0    0    0  501 -0.00000000000E+00  0.00000000000E+00  0.56963809758E+01  0.56963809758E+01  0.00000000000E+00 0.  1.
          1   -1    0    0  501    0  0.00000000000E+00 -0.00000000000E+00 -0.17919745169E+04  0.17919745169E+04  0.00000000000E+00 0. -1.
         24    1    1    2    0    0 -0.17095763756E+02  0.14494993495E+02 -0.38688852803E+03  0.39579327818E+03  0.80419002446E+02 0.  1.
        -24    1    1    2    0    0  0.17095763756E+02 -0.14494993495E+02 -0.13993896079E+04  0.14018776197E+04  0.80419002446E+02 0. -1.
<mgrwt>
<rscale>  0 0.83484046E+02</rscale>
<asrwt>0</asrwt>
<pdfrwt beam="1">  1        1 0.27568829E+00 0.83484046E+02</pdfrwt>
<pdfrwt beam="2">  1       -1 0.87636662E-03 0.83484046E+02</pdfrwt>
<totfact> 0.99856228E+03</totfact>
</mgrwt>
</event>
<event>
 4    3  0.8789582E-001  0.9338527E+02  0.7546771E-02  0.1294855E+00
         -3   -1    0    0    0  501 -0.00000000000E+00  0.00000000000E+00  0.18468550052E+04  0.18468550052E+04  0.00000000000E+00 0.  1.
          3   -1    0    0  501    0  0.00000000000E+00 -0.00000000000E+00 -0.49191514900E+01  0.49191514900E+01  0.00000000000E+00 0. -1.
         24    1    1    2    0    0 -0.42522938673E+02  0.21104302047E+02  0.11063371824E+04  0.11102714844E+04  0.80419002446E+02 0. -1.
        -24    1    1    2    0    0  0.42522938673E+02 -0.21104302047E+02  0.73559867132E+03  0.74150267233E+03  0.80419002446E+02 0.  1.
<mgrwt>
<rscale>  0 0.93385266E+02</rscale>
<asrwt>0</asrwt>
<pdfrwt beam="1">  1        3 0.75679401E-03 0.93385266E+02</pdfrwt>
<pdfrwt beam="2">  1       -3 0.28413099E+00 0.93385266E+02</pdfrwt>
<totfact> 0.50214291E+02</totfact>
</mgrwt>
</event>
<event>
 4    3  0.8789582E-001  0.8392837E+02  0.7546771E-02  0.1318259E+00
         -2   -1    0    0    0  501 -0.00000000000E+00  0.00000000000E+00  0.16124113076E+02  0.16124113076E+02  0.00000000000E+00 0.  1.
          2   -1    0    0  501    0  0.00000000000E+00 -0.00000000000E+00 -0.87315731655E+03  0.87315731655E+03  0.00000000000E+00 0. -1.
         24    1    1    2    0    0  0.75790932552E+01 -0.22788439246E+02 -0.74282393301E+03  0.74755024381E+03  0.80419002446E+02 0. -1.
        -24    1    1    2    0    0 -0.75790932552E+01  0.22788439246E+02 -0.11420927047E+03  0.14173118582E+03  0.80419002446E+02 0.  1.
<mgrwt>
<rscale>  0 0.83928372E+02</rscale>
<asrwt>0</asrwt>
<pdfrwt beam="1">  1        2 0.13433191E+00 0.83928372E+02</pdfrwt>
<pdfrwt beam="2">  1       -2 0.24806325E-02 0.83928372E+02</pdfrwt>
<totfact> 0.16324663E+04</totfact>
</mgrwt>
</event>
<event>
 4    3  0.8789582E-001  0.8377872E+02  0.7546771E-02  0.1318658E+00
         -4   -1    0    0    0  501 -0.00000000000E+00  0.00000000000E+00  0.96203831933E+03  0.96203831933E+03  0.00000000000E+00 0.  1.
          4   -1    0    0  501    0  0.00000000000E+00 -0.00000000000E+00 -0.12024061898E+02  0.12024061898E+02  0.00000000000E+00 0. -1.
         24    1    1    2    0    0  0.18399999058E+02  0.14597861051E+02  0.16959920641E+03  0.18916332700E+03  0.80419002446E+02 0.  0.
        -24    1    1    2    0    0 -0.18399999058E+02 -0.14597861051E+02  0.78041505102E+03  0.78489905422E+03  0.80419002446E+02 0.  1.
<mgrwt>
<rscale>  0 0.83778717E+02</rscale>
<asrwt>0</asrwt>
<pdfrwt beam="1">  1        4 0.18498564E-02 0.83778717E+02</pdfrwt>
<pdfrwt beam="2">  1       -4 0.14800583E+00 0.83778717E+02</pdfrwt>
<totfact> 0.56717740E+02</totfact>
</mgrwt>
</event>
<event>
 4    3  0.8789582E-001  0.8510838E+02  0.7546771E-02  0.1315149E+00
          1   -1    0    0  501    0  0.00000000000E+00  0.00000000000E+00  0.16146252964E+04  0.16146252964E+04  0.00000000000E+00 0. -1.
         -1   -1    0    0    0  501 -0.00000000000E+00 -0.00000000000E+00 -0.46641863367E+01  0.46641863367E+01  0.00000000000E+00 0.  1.
         24    1    1    2    0    0  0.24271351592E+01  0.27754749583E+02  0.96316895494E+03  0.96692185249E+03  0.80419002446E+02 0.  0.
        -24    1    1    2    0    0 -0.24271351592E+01 -0.27754749583E+02  0.64679215514E+03  0.65236763026E+03  0.80419002446E+02 0. -1.
<mgrwt>
<rscale>  0 0.85108371E+02</rscale>
<asrwt>0</asrwt>
<pdfrwt beam="1">  1        1 0.24840345E+00 0.85108382E+02</pdfrwt>
<pdfrwt beam="2">  1       -1 0.71756842E-03 0.85108382E+02</pdfrwt>
<totfact> 0.17098421E+04</totfact>
</mgrwt>
</event>
<event>
 4    3  0.8789582E-001  0.8860323E+02  0.7546771E-02  0.1306270E+00
          1   -1    0    0  501    0  0.00000000000E+00  0.00000000000E+00  0.40954472079E+03  0.40954472079E+03  0.00000000000E+00 0. -1.
         -1   -1    0    0    0  501 -0.00000000000E+00 -0.00000000000E+00 -0.22984877892E+02  0.22984877892E+02  0.00000000000E+00 0.  1.
         24    1    1    2    0    0  0.36859517494E+02 -0.49692066471E+01  0.10516162250E+03  0.13751181712E+03  0.80419002446E+02 0. -1.
        -24    1    1    2    0    0 -0.36859517494E+02  0.49692066471E+01  0.28139822039E+03  0.29501778156E+03  0.80419002446E+02 0.  0.
<mgrwt>
<rscale>  0 0.88603234E+02</rscale>
<asrwt>0</asrwt>
<pdfrwt beam="1">  1        1 0.63006875E-01 0.88603234E+02</pdfrwt>
<pdfrwt beam="2">  1       -1 0.35361354E-02 0.88603234E+02</pdfrwt>
<totfact> 0.15724585E+04</totfact>
</mgrwt>
</event>
<event>
 4    3  0.8789582E-001  0.8337844E+02  0.7546771E-02  0.1319728E+00
          2   -1    0    0  501    0  0.00000000000E+00  0.00000000000E+00  0.97054600045E+02  0.97054600045E+02  0.00000000000E+00 0. -1.
         -2   -1    0    0    0  501 -0.00000000000E+00 -0.00000000000E+00 -0.73953294538E+02  0.73953294538E+02  0.00000000000E+00 0.  1.
         24    1    1    2    0    0 -0.12733329666E+01 -0.21980059302E+02 -0.36065112139E+01  0.83456379392E+02  0.80419002446E+02 0. -1.
        -24    1    1    2    0    0  0.12733329666E+01  0.21980059302E+02  0.26707816721E+02  0.87551515190E+02  0.80419002446E+02 0.  1.
<mgrwt>
<rscale>  0 0.83378427E+02</rscale>
<asrwt>0</asrwt>
<pdfrwt beam="1">  1        2 0.14931477E-01 0.83378437E+02</pdfrwt>
<pdfrwt beam="2">  1       -2 0.11377430E-01 0.83378437E+02</pdfrwt>
<totfact> 0.18593350E+04</totfact>
</mgrwt>
</event>
<event>
 4    3  0.8789582E-001  0.1864379E+03  0.7546771E-02  0.1161714E+00
          2   -1    0    0  501    0  0.00000000000E+00  0.00000000000E+00  0.22119000746E+03  0.22119000746E+03  0.00000000000E+00 0. -1.
         -2   -1    0    0    0  501 -0.00000000000E+00 -0.00000000000E+00 -0.16394933367E+03  0.16394933367E+03  0.00000000000E+00 0.  1.
         24    1    1    2    0    0 -0.54707870395E+02 -0.15905630841E+03  0.67848770088E+02  0.19839992915E+03  0.80419002446E+02 0.  1.
        -24    1    1    2    0    0  0.54707870395E+02  0.15905630841E+03 -0.10608096295E+02  0.18673941199E+03  0.80419002446E+02 0. -1.
<mgrwt>
<rscale>  0 0.18643786E+03</rscale>
<asrwt>0</asrwt>
<pdfrwt beam="1">  1        2 0.34029232E-01 0.18643786E+03</pdfrwt>
<pdfrwt beam="2">  1       -2 0.25222974E-01 0.18643786E+03</pdfrwt>
<totfact> 0.21033166E+03</totfact>
</mgrwt>
</event>
<event>
 4    3  0.8789582E-001  0.1076623E+03  0.7546771E-02  0.1264961E+00
         -1   -1    0    0    0  501 -0.00000000000E+00  0.00000000000E+00  0.13883497248E+03  0.13883497248E+03  0.00000000000E+00 0.  1.
          1   -1    0    0  501    0  0.00000000000E+00 -0.00000000000E+00 -0.45273563773E+03  0.45273563773E+03  0.00000000000E+00 0. -1.
         24    1    1    2    0    0 -0.50389200575E+01  0.71404259177E+02  0.11017347988E+03  0.15404340481E+03  0.80419002446E+02 0.  1.
        -24    1    1    2    0    0  0.50389200575E+01 -0.71404259177E+02 -0.42407414512E+03  0.43752720539E+03  0.80419002446E+02 0. -1.
<mgrwt>
<rscale>  0 0.10766232E+03</rscale>
<asrwt>0</asrwt>
<pdfrwt beam="1">  1        1 0.69651636E-01 0.10766232E+03</pdfrwt>
<pdfrwt beam="2">  1       -1 0.21359227E-01 0.10766232E+03</pdfrwt>
<totfact> 0.92815755E+02</totfact>
</mgrwt>
</event>
<event>
 4    3  0.8789582E-001  0.8354670E+02  0.7546771E-02  0.1319277E+00
          1   -1    0    0  501    0  0.00000000000E+00  0.00000000000E+00  0.72280589412E+02  0.72280589412E+02  0.00000000000E+00 0. -1.
         -1   -1    0    0    0  501 -0.00000000000E+00 -0.00000000000E+00 -0.16353706854E+03  0.16353706854E+03  0.00000000000E+00 0.  1.
         24    1    1    2    0    0  0.64878508988E+01  0.21696600691E+02 -0.12108058048E+03  0.14710729966E+03  0.80419002446E+02 0.  1.
        -24    1    1    2    0    0 -0.64878508988E+01 -0.21696600691E+02  0.29824101355E+02  0.88710358284E+02  0.80419002446E+02 0. -1.
<mgrwt>
<rscale>  0 0.83546697E+02</rscale>
<asrwt>0</asrwt>
<pdfrwt beam="1">  1        1 0.11120091E-01 0.83546697E+02</pdfrwt>
<pdfrwt beam="2">  1       -1 0.25159549E-01 0.83546697E+02</pdfrwt>
<totfact> 0.69646223E+03</totfact>
</mgrwt>
</event>
<event>
 4    3  0.8789582E-001  0.8896286E+02  0.7546771E-02  0.1305383E+00
          1   -1    0    0  501    0  0.00000000000E+00  0.00000000000E+00  0.97804269699E+03  0.97804269699E+03  0.00000000000E+00 0. -1.
         -1   -1    0    0    0  501 -0.00000000000E+00 -0.00000000000E+00 -0.13709231405E+03  0.13709231405E+03  0.00000000000E+00 0.  1.
         24    1    1    2    0    0  0.17858678278E+02  0.33589310485E+02 -0.12038643234E+03  0.14969062501E+03  0.80419002446E+02 0.  1.
        -24    1    1    2    0    0 -0.17858678278E+02 -0.33589310485E+02  0.96133681527E+03  0.96544438603E+03  0.80419002446E+02 0. -1.
<mgrwt>
<rscale>  0 0.88962858E+02</rscale>
<asrwt>0</asrwt>
<pdfrwt beam="1">  1        1 0.15046810E+00 0.88962858E+02</pdfrwt>
<pdfrwt beam="2">  1       -1 0.21091126E-01 0.88962858E+02</pdfrwt>
<totfact> 0.32039281E+02</totfact>
</mgrwt>
</event>
<event>
 4    3  0.8789582E-001  0.1049178E+03  0.7546771E-02  0.1270282E+00
          2   -1    0    0  501    0  0.00000000000E+00  0.00000000000E+00  0.38625058116E+03  0.38625058116E+03  0.00000000000E+00 0. -1.
         -2   -1    0    0    0  501 -0.00000000000E+00 -0.00000000000E+00 -0.33514925540E+02  0.33514925540E+02  0.00000000000E+00 0.  1.
         24    1    1    2    0    0 -0.55571042488E+02 -0.38110318725E+02  0.25756359892E+03  0.27811285587E+03  0.80419002446E+02 0. -1.
        -24    1    1    2    0    0  0.55571042488E+02  0.38110318725E+02  0.95172056698E+02  0.14165265083E+03  0.80419002446E+02 0.  0.
<mgrwt>
<rscale>  0 0.10491784E+03</rscale>
<asrwt>0</asrwt>
<pdfrwt beam="1">  1        2 0.59423163E-01 0.10491784E+03</pdfrwt>
<pdfrwt beam="2">  1       -2 0.51561427E-02 0.10491784E+03</pdfrwt>
<totfact> 0.14290763E+04</totfact>
</mgrwt>
</event>
<event>
 4    3  0.8789582E-001  0.1230693E+03  0.7546771E-02  0.1238118E+00
         -1   -1    0    0    0  501 -0.00000000000E+00  0.00000000000E+00  0.66490666751E+02  0.66490666751E+02  0.00000000000E+00 0.  1.
          1   -1    0    0  501    0  0.00000000000E+00 -0.00000000000E+00 -0.26078931472E+03  0.26078931472E+03  0.00000000000E+00 0. -1.
         24    1    1    2    0    0 -0.85264130236E+02 -0.37534920563E+02 -0.38941381306E+02  0.12908326498E+03  0.80419002446E+02 0.  1.
        -24    1    1    2    0    0  0.85264130236E+02  0.37534920563E+02 -0.15535726666E+03  0.19819671649E+03  0.80419002446E+02 0. -1.
<mgrwt>
<rscale>  0 0.12306932E+03</rscale>
<asrwt>0</asrwt>
<pdfrwt beam="1">  1        1 0.40121433E-01 0.12306932E+03</pdfrwt>
<pdfrwt beam="2">  1       -1 0.10229333E-01 0.12306932E+03</pdfrwt>
<totfact> 0.58425374E+03</totfact>
</mgrwt>
</event>
<event>
 4    3  0.8789582E-001  0.9108768E+02  0.7546771E-02  0.1300239E+00
         -4   -1    0    0    0  501 -0.00000000000E+00  0.00000000000E+00  0.13282626890E+03  0.13282626890E+03  0.00000000000E+00 0.  1.
          4   -1    0    0  501    0  0.00000000000E+00 -0.00000000000E+00 -0.66091206315E+02  0.66091206315E+02  0.00000000000E+00 0. -1.
         24    1    1    2    0    0  0.94100524039E-01  0.42775465696E+02  0.10070005228E+02  0.91642622617E+02  0.80419002446E+02 0. -1.
        -24    1    1    2    0    0 -0.94100524039E-01 -0.42775465696E+02  0.56665057359E+02  0.10727485260E+03  0.80419002446E+02 0.  1.
<mgrwt>
<rscale>  0 0.91087679E+02</rscale>
<asrwt>0</asrwt>
<pdfrwt beam="1">  1        4 0.10167878E-01 0.91087679E+02</pdfrwt>
<pdfrwt beam="2">  1       -4 0.20434811E-01 0.91087679E+02</pdfrwt>
<totfact> 0.23787660E+03</totfact>
</mgrwt>
</event>
<event>
 4    3  0.8789582E-001  0.1283654E+03  0.7546771E-02  0.1229902E+00
         -2   -1    0    0    0  501 -0.00000000000E+00  0.00000000000E+00  0.54107744356E+02  0.54107744356E+02  0.00000000000E+00 0.  1.
          2   -1    0    0  501    0  0.00000000000E+00 -0.00000000000E+00 -0.84660014571E+03  0.84660014571E+03  0.00000000000E+00 0. -1.
         24    1    1    2    0    0 -0.72912731114E+01 -0.99786257976E+02 -0.75660965099E+03  0.76742155291E+03  0.80419002446E+02 0. -1.
        -24    1    1    2    0    0  0.72912731114E+01  0.99786257976E+02 -0.35882750364E+02  0.13328633716E+03  0.80419002446E+02 0.  1.
<mgrwt>
<rscale>  0 0.12836540E+03</rscale>
<asrwt>0</asrwt>
<pdfrwt beam="1">  1        2 0.13024615E+00 0.12836540E+03</pdfrwt>
<pdfrwt beam="2">  1       -2 0.83242701E-02 0.12836540E+03</pdfrwt>
<totfact> 0.28718432E+03</totfact>
</mgrwt>
</event>
<event>
 4    3  0.8789582E-001  0.9706167E+02  0.7546771E-02  0.1286599E+00
         -2   -1    0    0    0  501 -0.00000000000E+00  0.00000000000E+00  0.54722587956E+03  0.54722587956E+03  0.00000000000E+00 0.  1.
          2   -1    0    0  501    0  0.00000000000E+00 -0.00000000000E+00 -0.57324679096E+02  0.57324679096E+02  0.00000000000E+00 0. -1.
         24    1    1    2    0    0 -0.26704292736E+02  0.47335312769E+02 -0.78928593401E+01  0.97382053113E+02  0.80419002446E+02 0. -1.
        -24    1    1    2    0    0  0.26704292736E+02 -0.47335312769E+02  0.49779405980E+03  0.50716850554E+03  0.80419002446E+02 0.  1.
<mgrwt>
<rscale>  0 0.97061666E+02</rscale>
<asrwt>0</asrwt>
<pdfrwt beam="1">  1        2 0.88191818E-02 0.97061666E+02</pdfrwt>
<pdfrwt beam="2">  1       -2 0.84188593E-01 0.97061666E+02</pdfrwt>
<totfact> 0.91816932E+02</totfact>
</mgrwt>
</event>
<event>
 4    3  0.8789582E-001  0.8759331E+02  0.7546771E-02  0.1308787E+00
         -2   -1    0    0    0  501 -0.00000000000E+00  0.00000000000E+00  0.65499320015E+02  0.65499320015E+02  0.00000000000E+00 0.  1.
          2   -1    0    0  501    0  0.00000000000E+00 -0.00000000000E+00 -0.32913569681E+03  0.32913569681E+03  0.00000000000E+00 0. -1.
         24    1    1    2    0    0  0.34412542009E+02  0.45987488564E+01 -0.29017680415E+03  0.30310916377E+03  0.80419002446E+02 0. -1.
        -24    1    1    2    0    0 -0.34412542009E+02 -0.45987488564E+01  0.26540427359E+02  0.91525853054E+02  0.80419002446E+02 0.  1.
<mgrwt>
<rscale>  0 0.87593307E+02</rscale>
<asrwt>0</asrwt>
<pdfrwt beam="1">  1        2 0.50636260E-01 0.87593307E+02</pdfrwt>
<pdfrwt beam="2">  1       -2 0.10076819E-01 0.87593307E+02</pdfrwt>
<totfact> 0.60123967E+03</totfact>
</mgrwt>
</event>
<event>
 4    3  0.8789582E-001  0.8404477E+02  0.7546771E-02  0.1317950E+00
          1   -1    0    0  501    0  0.00000000000E+00  0.00000000000E+00  0.66302888246E+02  0.66302888246E+02  0.00000000000E+00 0. -1.
         -1   -1    0    0    0  501 -0.00000000000E+00 -0.00000000000E+00 -0.34029258663E+03  0.34029258663E+03  0.00000000000E+00 0.  1.
         24    1    1    2    0    0 -0.20659270306E+02 -0.13019272751E+02 -0.30549098053E+03  0.31684106750E+03  0.80419002446E+02 0.  0.
        -24    1    1    2    0    0  0.20659270306E+02  0.13019272751E+02  0.31501282148E+02  0.89754407379E+02  0.80419002446E+02 0. -1.
<mgrwt>
<rscale>  0 0.84044767E+02</rscale>
<asrwt>0</asrwt>
<pdfrwt beam="1">  1        1 0.10200444E-01 0.84044767E+02</pdfrwt>
<pdfrwt beam="2">  1       -1 0.52352706E-01 0.84044767E+02</pdfrwt>
<totfact> 0.22279291E+03</totfact>
</mgrwt>
</event>
<event>
 4    3  0.8789582E-001  0.8687380E+02  0.7546771E-02  0.1310604E+00
          1   -1    0    0  501    0  0.00000000000E+00  0.00000000000E+00  0.14118021236E+04  0.14118021236E+04  0.00000000000E+00 0. -1.
         -1   -1    0    0    0  501 -0.00000000000E+00 -0.00000000000E+00 -0.99024737979E+01  0.99024737979E+01  0.00000000000E+00 0.  1.
         24    1    1    2    0    0 -0.19660257479E+02  0.26330887705E+02  0.21873927822E+03  0.23535914931E+03  0.80419002446E+02 0.  1.
        -24    1    1    2    0    0  0.19660257479E+02 -0.26330887705E+02  0.11831603716E+04  0.11863454481E+04  0.80419002446E+02 0. -1.
<mgrwt>
<rscale>  0 0.86873801E+02</rscale>
<asrwt>0</asrwt>
<pdfrwt beam="1">  1        1 0.21720017E+00 0.86873801E+02</pdfrwt>
<pdfrwt beam="2">  1       -1 0.15234586E-02 0.86873801E+02</pdfrwt>
<totfact> 0.79752336E+03</totfact>
</mgrwt>
</event>
<event>
 4    3  0.8789582E-001  0.8106217E+02  0.7546771E-02  0.1326064E+00
         -2   -1    0    0    0  501 -0.00000000000E+00  0.00000000000E+00  0.17694963202E+02  0.17694963202E+02  0.00000000000E+00 0.  1.
          2   -1    0    0  501    0  0.00000000000E+00 -0.00000000000E+00 -0.32472649960E+04  0.32472649960E+04  0.00000000000E+00 0. -1.
         24    1    1    2    0    0 -0.92787417768E+01  0.42147328554E+01 -0.31510877595E+04  0.31521302548E+04  0.80419002446E+02 0. -1.
        -24    1    1    2    0    0  0.92787417768E+01 -0.42147328554E+01 -0.78482273248E+02  0.11282970438E+03  0.80419002446E+02 0.  1.
<mgrwt>
<rscale>  0 0.81062167E+02</rscale>
<asrwt>0</asrwt>
<pdfrwt beam="1">  1        2 0.49957953E+00 0.81062167E+02</pdfrwt>
<pdfrwt beam="2">  1       -2 0.27223004E-02 0.81062167E+02</pdfrwt>
<totfact> 0.77352915E+02</totfact>
</mgrwt>
</event>
<event>
 4    3  0.8789582E-001  0.8294623E+02  0.7546771E-02  0.1320892E+00
         -2   -1    0    0    0  501 -0.00000000000E+00  0.00000000000E+00  0.34119204054E+03  0.34119204054E+03  0.00000000000E+00 0.  1.
          2   -1    0    0  501    0  0.00000000000E+00 -0.00000000000E+00 -0.20185844224E+02  0.20185844224E+02  0.00000000000E+00 0. -1.
         24    1    1    2    0    0  0.14668589996E+02 -0.14060258383E+02  0.16633513784E+03  0.18586944997E+03  0.80419002446E+02 0. -1.
        -24    1    1    2    0    0 -0.14668589996E+02  0.14060258383E+02  0.15467105848E+03  0.17550843479E+03  0.80419002446E+02 0.  1.
<mgrwt>
<rscale>  0 0.82946224E+02</rscale>
<asrwt>0</asrwt>
<pdfrwt beam="1">  1        2 0.31055148E-02 0.82946234E+02</pdfrwt>
<pdfrwt beam="2">  1       -2 0.52491079E-01 0.82946234E+02</pdfrwt>
<totfact> 0.92552454E+03</totfact>
</mgrwt>
</event>
<event>
 4    3  0.8789582E-001  0.1256266E+03  0.7546771E-02  0.1234093E+00
          1   -1    0    0  501    0  0.00000000000E+00  0.00000000000E+00  0.26264792902E+04  0.26264792902E+04  0.00000000000E+00 0. -1.
         -1   -1    0    0    0  501 -0.00000000000E+00 -0.00000000000E+00 -0.69398967700E+01  0.69398967700E+01  0.00000000000E+00 0.  1.
         24    1    1    2    0    0 -0.87838290412E+02  0.39990645705E+02  0.82748111532E+03  0.83696297957E+03  0.80419002446E+02 0.  1.
        -24    1    1    2    0    0  0.87838290412E+02 -0.39990645705E+02  0.17920582781E+04  0.17964562074E+04  0.80419002446E+02 0. -1.
<mgrwt>
<rscale>  0 0.12562656E+03</rscale>
<asrwt>0</asrwt>
<pdfrwt beam="1">  1        1 0.40407294E+00 0.12562656E+03</pdfrwt>
<pdfrwt beam="2">  1       -1 0.10676785E-02 0.12562656E+03</pdfrwt>
<totfact> 0.22465535E+03</totfact>
</mgrwt>
</event>
<event>
 4    3  0.8789582E-001  0.1787187E+03  0.7546771E-02  0.1169049E+00
         -2   -1    0    0    0  501 -0.00000000000E+00  0.00000000000E+00  0.11924137621E+02  0.11924137621E+02  0.00000000000E+00 0.  1.
          2   -1    0    0  501    0  0.00000000000E+00 -0.00000000000E+00 -0.28178267423E+04  0.28178267423E+04  0.00000000000E+00 0. -1.
         24    1    1    2    0    0 -0.15692516824E+03  0.29114274560E+02 -0.17174174867E+04  0.17266913994E+04  0.80419002446E+02 0. -1.
        -24    1    1    2    0    0  0.15692516824E+03 -0.29114274560E+02 -0.10884851180E+04  0.11030594805E+04  0.80419002446E+02 0.  1.
<mgrwt>
<rscale>  0 0.17871868E+03</rscale>
<asrwt>0</asrwt>
<pdfrwt beam="1">  1        2 0.43351148E+00 0.17871868E+03</pdfrwt>
<pdfrwt beam="2">  1       -2 0.18344841E-02 0.17871868E+03</pdfrwt>
<totfact> 0.23618751E+03</totfact>
</mgrwt>
</event>
<event>
 4    3  0.8789582E-001  0.8905113E+02  0.7546771E-02  0.1305166E+00
         -1   -1    0    0    0  501 -0.00000000000E+00  0.00000000000E+00  0.12302418634E+02  0.12302418634E+02  0.00000000000E+00 0.  1.
          1   -1    0    0  501    0  0.00000000000E+00 -0.00000000000E+00 -0.11079411635E+04  0.11079411635E+04  0.00000000000E+00 0. -1.
         24    1    1    2    0    0  0.34507899408E+02  0.16495213365E+02 -0.18559644989E+03  0.20585467047E+03  0.80419002446E+02 0.  1.
        -24    1    1    2    0    0 -0.34507899408E+02 -0.16495213365E+02 -0.91004229501E+03  0.91438891170E+03  0.80419002446E+02 0. -1.
<mgrwt>
<rscale>  0 0.89051127E+02</rscale>
<asrwt>0</asrwt>
<pdfrwt beam="1">  1        1 0.17045249E+00 0.89051127E+02</pdfrwt>
<pdfrwt beam="2">  1       -1 0.18926798E-02 0.89051127E+02</pdfrwt>
<totfact> 0.93378376E+03</totfact>
</mgrwt>
</event>
<event>
 4    3  0.8789582E-001  0.8136646E+02  0.7546771E-02  0.1325218E+00
         -1   -1    0    0    0  501 -0.00000000000E+00  0.00000000000E+00  0.10632794511E+04  0.10632794511E+04  0.00000000000E+00 0.  1.
          1   -1    0    0  501    0  0.00000000000E+00 -0.00000000000E+00 -0.11624608751E+02  0.11624608751E+02  0.00000000000E+00 0. -1.
         24    1    1    2    0    0 -0.11919182000E+02 -0.33492999109E+01  0.89207240429E+03  0.89577546023E+03  0.80419002446E+02 0.  0.
        -24    1    1    2    0    0  0.11919182000E+02  0.33492999109E+01  0.15958243807E+03  0.17912859962E+03  0.80419002446E+02 0. -1.
<mgrwt>
<rscale>  0 0.81366459E+02</rscale>
<asrwt>0</asrwt>
<pdfrwt beam="1">  1        1 0.17884022E-02 0.81366459E+02</pdfrwt>
<pdfrwt beam="2">  1       -1 0.16358138E+00 0.81366459E+02</pdfrwt>
<totfact> 0.19955508E+03</totfact>
</mgrwt>
</event>
<event>
 4    3  0.8789582E-001  0.8121943E+02  0.7546771E-02  0.1325626E+00
         -2   -1    0    0    0  501 -0.00000000000E+00  0.00000000000E+00  0.16520960412E+03  0.16520960412E+03  0.00000000000E+00 0.  1.
          2   -1    0    0  501    0  0.00000000000E+00 -0.00000000000E+00 -0.25955282108E+03  0.25955282108E+03  0.00000000000E+00 0. -1.
         24    1    1    2    0    0  0.61565278150E+01 -0.95643552933E+01 -0.24253504750E+03  0.25577303405E+03  0.80419002446E+02 0.  0.
        -24    1    1    2    0    0 -0.61565278150E+01  0.95643552933E+01  0.14819183054E+03  0.16898939115E+03  0.80419002446E+02 0.  1.
<mgrwt>
<rscale>  0 0.81219429E+02</rscale>
<asrwt>0</asrwt>
<pdfrwt beam="1">  1        2 0.39931203E-01 0.81219429E+02</pdfrwt>
<pdfrwt beam="2">  1       -2 0.25416862E-01 0.81219429E+02</pdfrwt>
<totfact> 0.16943633E+03</totfact>
</mgrwt>
</event>
<event>
 4    3  0.8789582E-001  0.8845773E+02  0.7546771E-02  0.1306630E+00
          2   -1    0    0  501    0  0.00000000000E+00  0.00000000000E+00  0.16903476987E+02  0.16903476987E+02  0.00000000000E+00 0. -1.
         -2   -1    0    0    0  501 -0.00000000000E+00 -0.00000000000E+00 -0.57439988669E+03  0.57439988669E+03  0.00000000000E+00 0.  1.
         24    1    1    2    0    0 -0.35961063436E+02 -0.80222254439E+01 -0.14849361449E+03  0.17284421796E+03  0.80419002446E+02 0. -1.
        -24    1    1    2    0    0  0.35961063436E+02  0.80222254439E+01 -0.40900279522E+03  0.41845914572E+03  0.80419002446E+02 0. -1.
<mgrwt>
<rscale>  0 0.88457731E+02</rscale>
<asrwt>0</asrwt>
<pdfrwt beam="1">  1        2 0.26005350E-02 0.88457731E+02</pdfrwt>
<pdfrwt beam="2">  1       -2 0.88369210E-01 0.88457731E+02</pdfrwt>
<totfact> 0.39619206E+03</totfact>
</mgrwt>
</event>
<event>
 4    3  0.8789582E-001  0.8452504E+02  0.7546771E-02  0.1316679E+00
          1   -1    0    0  501    0  0.00000000000E+00  0.00000000000E+00  0.46278316940E+03  0.46278316940E+03  0.00000000000E+00 0. -1.
         -1   -1    0    0    0  501 -0.00000000000E+00 -0.00000000000E+00 -0.32894335500E+02  0.32894335500E+02  0.00000000000E+00 0.  1.
         24    1    1    2    0    0  0.41163919682E+01 -0.25696727252E+02  0.34399929909E+02  0.91256986617E+02  0.80419002446E+02 0.  1.
        -24    1    1    2    0    0 -0.41163919682E+01  0.25696727252E+02  0.39548890399E+03  0.40442051829E+03  0.80419002446E+02 0. -1.
<mgrwt>
<rscale>  0 0.84525040E+02</rscale>
<asrwt>0</asrwt>
<pdfrwt beam="1">  1        1 0.71197406E-01 0.84525040E+02</pdfrwt>
<pdfrwt beam="2">  1       -1 0.50606673E-02 0.84525040E+02</pdfrwt>
<totfact> 0.79802779E+03</totfact>
</mgrwt>
</event>
<event>
 4    3  0.8789582E-001  0.8114676E+02  0.7546771E-02  0.1325828E+00
         -1   -1    0    0    0  501 -0.00000000000E+00  0.00000000000E+00  0.77608951953E+03  0.77608951953E+03  0.00000000000E+00 0.  1.
          1   -1    0    0  501    0  0.00000000000E+00 -0.00000000000E+00 -0.16133336829E+02  0.16133336829E+02  0.00000000000E+00 0. -1.
         24    1    1    2    0    0 -0.15659767404E+01  0.10729807518E+02  0.65271918322E+03  0.65774396930E+03  0.80419002446E+02 0.  0.
        -24    1    1    2    0    0  0.15659767404E+01 -0.10729807518E+02  0.10723699948E+03  0.13447888706E+03  0.80419002446E+02 0. -1.
<mgrwt>
<rscale>  0 0.81146762E+02</rscale>
<asrwt>0</asrwt>
<pdfrwt beam="1">  1        1 0.24820524E-02 0.81146762E+02</pdfrwt>
<pdfrwt beam="2">  1       -1 0.11939836E+00 0.81146762E+02</pdfrwt>
<totfact> 0.27780148E+03</totfact>
</mgrwt>
</event>
<event>
 4    3  0.8789582E-001  0.1573517E+03  0.7546771E-02  0.1191719E+00
         -2   -1    0    0    0  501 -0.00000000000E+00  0.00000000000E+00  0.13909965343E+02  0.13909965343E+02  0.00000000000E+00 0.  1.
          2   -1    0    0  501    0  0.00000000000E+00 -0.00000000000E+00 -0.18721490774E+04  0.18721490774E+04  0.00000000000E+00 0. -1.
         24    1    1    2    0    0 -0.13524050196E+03 -0.15356311681E+01 -0.11383522309E+04  0.11491759522E+04  0.80419002446E+02 0. -1.
        -24    1    1    2    0    0  0.13524050196E+03  0.15356311681E+01 -0.71988688116E+03  0.73688309056E+03  0.80419002446E+02 0.  1.
<mgrwt>
<rscale>  0 0.15735173E+03</rscale>
<asrwt>0</asrwt>
<pdfrwt beam="1">  1        2 0.28802304E+00 0.15735173E+03</pdfrwt>
<pdfrwt beam="2">  1       -2 0.21399939E-02 0.15735173E+03</pdfrwt>
<totfact> 0.60174155E+03</totfact>
</mgrwt>
</event>
<event>
 4    3  0.8789582E-001  0.8277581E+02  0.7546771E-02  0.1321354E+00
          1   -1    0    0  501    0  0.00000000000E+00  0.00000000000E+00  0.24005787765E+03  0.24005787765E+03  0.00000000000E+00 0. -1.
         -1   -1    0    0    0  501 -0.00000000000E+00 -0.00000000000E+00 -0.36024662743E+02  0.36024662743E+02  0.00000000000E+00 0.  1.
         24    1    1    2    0    0 -0.32165031462E+01  0.19346138248E+02  0.39105892227E+02  0.91548379116E+02  0.80419002446E+02 0.  1.
        -24    1    1    2    0    0  0.32165031462E+01 -0.19346138248E+02  0.16492732268E+03  0.18453416128E+03  0.80419002446E+02 0. -1.
<mgrwt>
<rscale>  0 0.82775811E+02</rscale>
<asrwt>0</asrwt>
<pdfrwt beam="1">  1        1 0.36931980E-01 0.82775811E+02</pdfrwt>
<pdfrwt beam="2">  1       -1 0.55422559E-02 0.82775811E+02</pdfrwt>
<totfact> 0.15614597E+04</totfact>
</mgrwt>
</event>
<event>
 4    3  0.8789582E-001  0.8115887E+02  0.7546771E-02  0.1325795E+00
          1   -1    0    0  501    0  0.00000000000E+00  0.00000000000E+00  0.13243268253E+04  0.13243268253E+04  0.00000000000E+00 0. -1.
         -1   -1    0    0    0  501 -0.00000000000E+00 -0.00000000000E+00 -0.67576016162E+01  0.67576016162E+01  0.00000000000E+00 0.  1.
         24    1    1    2    0    0 -0.89152773997E+01  0.63296589453E+01  0.31682990222E+03  0.32705955062E+03  0.80419002446E+02 0.  1.
        -24    1    1    2    0    0  0.89152773997E+01 -0.63296589453E+01  0.10007393215E+04  0.10040248763E+04  0.80419002446E+02 0. -1.
<mgrwt>
<rscale>  0 0.81158873E+02</rscale>
<asrwt>0</asrwt>
<pdfrwt beam="1">  1        1 0.20374238E+00 0.81158873E+02</pdfrwt>
<pdfrwt beam="2">  1       -1 0.10396321E-02 0.81158873E+02</pdfrwt>
<totfact> 0.15516317E+04</totfact>
</mgrwt>
</event>
<event>
 4    3  0.8789582E-001  0.8528485E+02  0.7546771E-02  0.1314689E+00
         -1   -1    0    0    0  501 -0.00000000000E+00  0.00000000000E+00  0.15801134846E+03  0.15801134846E+03  0.00000000000E+00 0.  1.
          1   -1    0    0  501    0  0.00000000000E+00 -0.00000000000E+00 -0.84740022287E+02  0.84740022287E+02  0.00000000000E+00 0. -1.
         24    1    1    2    0    0 -0.62616795458E+01  0.27696228831E+02  0.11866901949E+03  0.14613638104E+03  0.80419002446E+02 0.  0.
        -24    1    1    2    0    0  0.62616795458E+01 -0.27696228831E+02 -0.45397693321E+02  0.96614989704E+02  0.80419002446E+02 0.  0.
<mgrwt>
<rscale>  0 0.85284850E+02</rscale>
<asrwt>0</asrwt>
<pdfrwt beam="1">  1        1 0.13036927E-01 0.85284850E+02</pdfrwt>
<pdfrwt beam="2">  1       -1 0.24309438E-01 0.85284850E+02</pdfrwt>
<totfact> 0.60055110E+03</totfact>
</mgrwt>
</event>
<event>
 4    3  0.8789582E-001  0.8773751E+02  0.7546771E-02  0.1308425E+00
         -2   -1    0    0    0  501 -0.00000000000E+00  0.00000000000E+00  0.11369145353E+03  0.11369145353E+03  0.00000000000E+00 0.  1.
          2   -1    0    0  501    0  0.00000000000E+00 -0.00000000000E+00 -0.36279545253E+03  0.36279545253E+03  0.00000000000E+00 0. -1.
         24    1    1    2    0    0  0.16095778303E+02 -0.31170176730E+02 -0.33941671959E+03  0.35057321559E+03  0.80419002446E+02 0. -1.
        -24    1    1    2    0    0 -0.16095778303E+02  0.31170176730E+02  0.90312720580E+02  0.12591369048E+03  0.80419002446E+02 0.  1.
<mgrwt>
<rscale>  0 0.87737506E+02</rscale>
<asrwt>0</asrwt>
<pdfrwt beam="1">  1        2 0.55814685E-01 0.87737506E+02</pdfrwt>
<pdfrwt beam="2">  1       -2 0.17490993E-01 0.87737506E+02</pdfrwt>
<totfact> 0.22514423E+03</totfact>
</mgrwt>
</event>
<event>
 4    3  0.8789582E-001  0.1254118E+03  0.7546771E-02  0.1234427E+00
         -1   -1    0    0    0  501 -0.00000000000E+00  0.00000000000E+00  0.60852598287E+03  0.60852598287E+03  0.00000000000E+00 0.  1.
          1   -1    0    0  501    0  0.00000000000E+00 -0.00000000000E+00 -0.34386555965E+03  0.34386555965E+03  0.00000000000E+00 0. -1.
         24    1    1    2    0    0 -0.67825167840E+02 -0.68268995514E+02  0.59028006856E+03  0.60345561928E+03  0.80419002446E+02 0.  1.
        -24    1    1    2    0    0  0.67825167840E+02  0.68268995514E+02 -0.32561964534E+03  0.34893592324E+03  0.80419002446E+02 0. -1.
<mgrwt>
<rscale>  0 0.12541182E+03</rscale>
<asrwt>0</asrwt>
<pdfrwt beam="1">  1        1 0.52902394E-01 0.12541182E+03</pdfrwt>
<pdfrwt beam="2">  1       -1 0.93619382E-01 0.12541182E+03</pdfrwt>
<totfact> 0.89972942E+01</totfact>
</mgrwt>
</event>
<event>
 4    3  0.8789582E-001  0.8297494E+02  0.7546771E-02  0.1320815E+00
          2   -1    0    0  501    0  0.00000000000E+00  0.00000000000E+00  0.39970148545E+03  0.39970148545E+03  0.00000000000E+00 0. -1.
         -2   -1    0    0    0  501 -0.00000000000E+00 -0.00000000000E+00 -0.17430415852E+02  0.17430415852E+02  0.00000000000E+00 0.  1.
         24    1    1    2    0    0  0.19077356046E+02 -0.73266473222E+01  0.21377942775E+03  0.22931743274E+03  0.80419002446E+02 0.  0.
        -24    1    1    2    0    0 -0.19077356046E+02  0.73266473222E+01  0.16849164186E+03  0.18781446857E+03  0.80419002446E+02 0.  0.
<mgrwt>
<rscale>  0 0.82974943E+02</rscale>
<asrwt>0</asrwt>
<pdfrwt beam="1">  1        2 0.61492529E-01 0.82974943E+02</pdfrwt>
<pdfrwt beam="2">  1       -2 0.26816028E-02 0.82974943E+02</pdfrwt>
<totfact> 0.35110723E+04</totfact>
</mgrwt>
</event>
<event>
 4    3  0.8789582E-001  0.8282022E+02  0.7546771E-02  0.1321233E+00
          2   -1    0    0  501    0  0.00000000000E+00  0.00000000000E+00  0.18278288025E+04  0.18278288025E+04  0.00000000000E+00 0. -1.
         -2   -1    0    0    0  501 -0.00000000000E+00 -0.00000000000E+00 -0.16758926024E+02  0.16758926024E+02  0.00000000000E+00 0.  1.
         24    1    1    2    0    0 -0.19401251548E+02  0.39451064642E+01  0.17180339340E+04  0.17200290075E+04  0.80419002446E+02 0. -1.
        -24    1    1    2    0    0  0.19401251548E+02 -0.39451064642E+01  0.93035942454E+02  0.12455872097E+03  0.80419002446E+02 0.  1.
<mgrwt>
<rscale>  0 0.82820217E+02</rscale>
<asrwt>0</asrwt>
<pdfrwt beam="1">  1        2 0.28120427E+00 0.82820217E+02</pdfrwt>
<pdfrwt beam="2">  1       -2 0.25782978E-02 0.82820217E+02</pdfrwt>
<totfact> 0.47677673E+03</totfact>
</mgrwt>
</event>
<event>
 4    3  0.8789582E-001  0.1140877E+03  0.7546771E-02  0.1253182E+00
          3   -1    0    0  501    0  0.00000000000E+00  0.00000000000E+00  0.10729559178E+03  0.10729559178E+03  0.00000000000E+00 0. -1.
         -3   -1    0    0    0  501 -0.00000000000E+00 -0.00000000000E+00 -0.23226508389E+03  0.23226508389E+03  0.00000000000E+00 0.  1.
         24    1    1    2    0    0  0.15380855414E+02  0.79449488733E+02 -0.17983104673E+03  0.21296763438E+03  0.80419002446E+02 0.  1.
        -24    1    1    2    0    0 -0.15380855414E+02 -0.79449488733E+02  0.54861554622E+02  0.12659304129E+03  0.80419002446E+02 0. -1.
<mgrwt>
<rscale>  0 0.11408772E+03</rscale>
<asrwt>0</asrwt>
<pdfrwt beam="1">  1        3 0.16507014E-01 0.11408772E+03</pdfrwt>
<pdfrwt beam="2">  1       -3 0.35733090E-01 0.11408772E+03</pdfrwt>
<totfact> 0.54788984E+02</totfact>
</mgrwt>
</event>
<event>
 4    3  0.8789582E-001  0.1115380E+03  0.7546771E-02  0.1257748E+00
          2   -1    0    0  501    0  0.00000000000E+00  0.00000000000E+00  0.31072710507E+04  0.31072710507E+04  0.00000000000E+00 0. -1.
         -2   -1    0    0    0  501 -0.00000000000E+00 -0.00000000000E+00 -0.41490302417E+01  0.41490302417E+01  0.00000000000E+00 0.  1.
         24    1    1    2    0    0 -0.64676713985E+02  0.42313617298E+02  0.18426723345E+04  0.18460449799E+04  0.80419002446E+02 0.  0.
        -24    1    1    2    0    0  0.64676713985E+02 -0.42313617298E+02  0.12604496860E+04  0.12653751010E+04  0.80419002446E+02 0.  1.
<mgrwt>
<rscale>  0 0.11153805E+03</rscale>
<asrwt>0</asrwt>
<pdfrwt beam="1">  1        2 0.47803984E+00 0.11153805E+03</pdfrwt>
<pdfrwt beam="2">  1       -2 0.63831483E-03 0.11153805E+03</pdfrwt>
<totfact> 0.73503831E+03</totfact>
</mgrwt>
</event>
<event>
 4    3  0.8789582E-001  0.8200473E+02  0.7546771E-02  0.1323457E+00
          2   -1    0    0  501    0  0.00000000000E+00  0.00000000000E+00  0.20056301927E+04  0.20056301927E+04  0.00000000000E+00 0. -1.
         -2   -1    0    0    0  501 -0.00000000000E+00 -0.00000000000E+00 -0.40586032949E+01  0.40586032949E+01  0.00000000000E+00 0.  1.
         24    1    1    2    0    0  0.97379887109E+01  0.12756612164E+02  0.14197785769E+04  0.14221448530E+04  0.80419002446E+02 0.  1.
        -24    1    1    2    0    0 -0.97379887109E+01 -0.12756612164E+02  0.58179301248E+03  0.58754394295E+03  0.80419002446E+02 0.  1.
<mgrwt>
<rscale>  0 0.82004729E+02</rscale>
<asrwt>0</asrwt>
<pdfrwt beam="1">  1        2 0.30855770E+00 0.82004729E+02</pdfrwt>
<pdfrwt beam="2">  1       -2 0.62440211E-03 0.82004729E+02</pdfrwt>
<totfact> 0.29064316E+04</totfact>
</mgrwt>
</event>
<event>
 4    3  0.8789582E-001  0.9327973E+02  0.7546771E-02  0.1295098E+00
          1   -1    0    0  501    0  0.00000000000E+00  0.00000000000E+00  0.84421949059E+03  0.84421949059E+03  0.00000000000E+00 0. -1.
         -1   -1    0    0    0  501 -0.00000000000E+00 -0.00000000000E+00 -0.12128313361E+02  0.12128313361E+02  0.00000000000E+00 0.  1.
         24    1    1    2    0    0  0.44970857896E+02  0.14543387581E+02  0.58198513907E+03  0.58941310321E+03  0.80419002446E+02 0.  0.
        -24    1    1    2    0    0 -0.44970857896E+02 -0.14543387581E+02  0.25010603816E+03  0.26693470074E+03  0.80419002446E+02 0. -1.
<mgrwt>
<rscale>  0 0.93279721E+02</rscale>
<asrwt>0</asrwt>
<pdfrwt beam="1">  1        1 0.12987988E+00 0.93279732E+02</pdfrwt>
<pdfrwt beam="2">  1       -1 0.18658950E-02 0.93279732E+02</pdfrwt>
<totfact> 0.14901309E+04</totfact>
</mgrwt>
</event>
<event>
 4    3  0.8789582E-001  0.1916803E+03  0.7546771E-02  0.1156954E+00
          1   -1    0    0  501    0  0.00000000000E+00  0.00000000000E+00  0.21224860935E+04  0.21224860935E+04  0.00000000000E+00 0. -1.
         -1   -1    0    0    0  501 -0.00000000000E+00 -0.00000000000E+00 -0.27595536358E+02  0.27595536358E+02  0.00000000000E+00 0.  1.
         24    1    1    2    0    0 -0.19492738863E+02  0.17289927255E+03  0.39113683180E+03  0.43557934118E+03  0.80419002446E+02 0.  1.
        -24    1    1    2    0    0  0.19492738863E+02 -0.17289927255E+03  0.17037537254E+04  0.17145022887E+04  0.80419002446E+02 0. -1.
<mgrwt>
<rscale>  0 0.19168031E+03</rscale>
<asrwt>0</asrwt>
<pdfrwt beam="1">  1        1 0.32653619E+00 0.19168031E+03</pdfrwt>
<pdfrwt beam="2">  1       -1 0.42454688E-02 0.19168031E+03</pdfrwt>
<totfact> 0.63930356E+02</totfact>
</mgrwt>
</event>
<event>
 4    3  0.8789582E-001  0.9363286E+02  0.7546771E-02  0.1294285E+00
          3   -1    0    0  501    0  0.00000000000E+00  0.00000000000E+00  0.17071988924E+02  0.17071988924E+02  0.00000000000E+00 0. -1.
         -3   -1    0    0    0  501 -0.00000000000E+00 -0.00000000000E+00 -0.54562715444E+03  0.54562715444E+03  0.00000000000E+00 0.  1.
         24    1    1    2    0    0  0.40372199077E+02 -0.25884021815E+02 -0.33250803024E+03  0.34543986912E+03  0.80419002446E+02 0.  1.
        -24    1    1    2    0    0 -0.40372199077E+02  0.25884021815E+02 -0.19604713527E+03  0.21725927424E+03  0.80419002446E+02 0. -1.
<mgrwt>
<rscale>  0 0.93632863E+02</rscale>
<asrwt>0</asrwt>
<pdfrwt beam="1">  1        3 0.26264596E-02 0.93632863E+02</pdfrwt>
<pdfrwt beam="2">  1       -3 0.83942645E-01 0.93632863E+02</pdfrwt>
<totfact> 0.18011537E+03</totfact>
</mgrwt>
</event>
<event>
 4    3  0.8789582E-001  0.8312892E+02  0.7546771E-02  0.1320399E+00
         -1   -1    0    0    0  501 -0.00000000000E+00  0.00000000000E+00  0.41806529081E+02  0.41806529081E+02  0.00000000000E+00 0.  1.
          1   -1    0    0  501    0  0.00000000000E+00 -0.00000000000E+00 -0.19882097353E+03  0.19882097353E+03  0.00000000000E+00 0. -1.
         24    1    1    2    0    0 -0.85928211358E+01 -0.19218870839E+02 -0.29101899819E+02  0.88075752048E+02  0.80419002446E+02 0.  1.
        -24    1    1    2    0    0  0.85928211358E+01  0.19218870839E+02 -0.12791254463E+03  0.15255175056E+03  0.80419002446E+02 0. -1.
<mgrwt>
<rscale>  0 0.83128921E+02</rscale>
<asrwt>0</asrwt>
<pdfrwt beam="1">  1        1 0.30587842E-01 0.83128921E+02</pdfrwt>
<pdfrwt beam="2">  1       -1 0.64317738E-02 0.83128921E+02</pdfrwt>
<totfact> 0.15797861E+04</totfact>
</mgrwt>
</event>
<event>
 4    3  0.8789582E-001  0.8940298E+02  0.7546771E-02  0.1304304E+00
         -2   -1    0    0    0  501 -0.00000000000E+00  0.00000000000E+00  0.87448797950E+02  0.87448797950E+02  0.00000000000E+00 0.  1.
          2   -1    0    0  501    0  0.00000000000E+00 -0.00000000000E+00 -0.13074226985E+03  0.13074226985E+03  0.00000000000E+00 0. -1.
         24    1    1    2    0    0  0.31493545198E+01 -0.38932736903E+02 -0.81491217292E+02  0.12096987595E+03  0.80419002446E+02 0.  1.
        -24    1    1    2    0    0 -0.31493545198E+01  0.38932736903E+02  0.38197745396E+02  0.97221191848E+02  0.80419002446E+02 0. -1.
<mgrwt>
<rscale>  0 0.89402978E+02</rscale>
<asrwt>0</asrwt>
<pdfrwt beam="1">  1        2 0.20114195E-01 0.89402978E+02</pdfrwt>
<pdfrwt beam="2">  1       -2 0.13453661E-01 0.89402978E+02</pdfrwt>
<totfact> 0.10243798E+04</totfact>
</mgrwt>
</event>
<event>
 4    3  0.8789582E-001  0.8140495E+02  0.7546771E-02  0.1325111E+00
          2   -1    0    0  501    0  0.00000000000E+00  0.00000000000E+00  0.13434073720E+04  0.13434073720E+04  0.00000000000E+00 0. -1.
         -2   -1    0    0    0  501 -0.00000000000E+00 -0.00000000000E+00 -0.84670879503E+01  0.84670879503E+01  0.00000000000E+00 0.  1.
         24    1    1    2    0    0 -0.13220658826E+00 -0.12630597154E+02  0.11041770322E+04  0.11071737370E+04  0.80419002446E+02 0. -1.
        -24    1    1    2    0    0  0.13220658826E+00  0.12630597154E+02  0.23076325181E+03  0.24470072293E+03  0.80419002446E+02 0.  1.
<mgrwt>
<rscale>  0 0.81404947E+02</rscale>
<asrwt>0</asrwt>
<pdfrwt beam="1">  1        2 0.20667789E+00 0.81404947E+02</pdfrwt>
<pdfrwt beam="2">  1       -2 0.13026300E-02 0.81404947E+02</pdfrwt>
<totfact> 0.22226320E+04</totfact>
</mgrwt>
</event>
<event>
 4    3  0.8789582E-001  0.9313568E+02  0.7546771E-02  0.1295431E+00
          1   -1    0    0  501    0  0.00000000000E+00  0.00000000000E+00  0.82558698754E+02  0.82558698754E+02  0.00000000000E+00 0. -1.
         -1   -1    0    0    0  501 -0.00000000000E+00 -0.00000000000E+00 -0.16043265772E+03  0.16043265772E+03  0.00000000000E+00 0.  1.
         24    1    1    2    0    0  0.32670748479E+02 -0.33758856975E+02 -0.11030963432E+03  0.14436921281E+03  0.80419002446E+02 0. -1.
        -24    1    1    2    0    0 -0.32670748479E+02  0.33758856975E+02  0.32435675353E+02  0.98622143662E+02  0.80419002446E+02 0.  1.
<mgrwt>
<rscale>  0 0.93135676E+02</rscale>
<asrwt>0</asrwt>
<pdfrwt beam="1">  1        1 0.12701338E-01 0.93135676E+02</pdfrwt>
<pdfrwt beam="2">  1       -1 0.24681947E-01 0.93135676E+02</pdfrwt>
<totfact> 0.61037461E+03</totfact>
</mgrwt>
</event>
<event>
 4    3  0.8789582E-001  0.8352579E+02  0.7546771E-02  0.1319333E+00
          1   -1    0    0  501    0  0.00000000000E+00  0.00000000000E+00  0.16415552392E+03  0.16415552392E+03  0.00000000000E+00 0. -1.
         -1   -1    0    0    0  501 -0.00000000000E+00 -0.00000000000E+00 -0.45447099993E+02  0.45447099993E+02  0.00000000000E+00 0.  1.
         24    1    1    2    0    0  0.18874740120E+02  0.12372623649E+02  0.86043456629E+02  0.11991676285E+03  0.80419002446E+02 0.  1.
        -24    1    1    2    0    0 -0.18874740120E+02 -0.12372623649E+02  0.32664967297E+02  0.89685861057E+02  0.80419002446E+02 0.  1.
<mgrwt>
<rscale>  0 0.83525776E+02</rscale>
<asrwt>0</asrwt>
<pdfrwt beam="1">  1        1 0.25254696E-01 0.83525787E+02</pdfrwt>
<pdfrwt beam="2">  1       -1 0.69918616E-02 0.83525787E+02</pdfrwt>
<totfact> 0.17682125E+04</totfact>
</mgrwt>
</event>
<event>
 4    3  0.8789582E-001  0.8458223E+02  0.7546771E-02  0.1316529E+00
         -2   -1    0    0    0  501 -0.00000000000E+00  0.00000000000E+00  0.13429278343E+02  0.13429278343E+02  0.00000000000E+00 0.  1.
          2   -1    0    0  501    0  0.00000000000E+00 -0.00000000000E+00 -0.55759532580E+03  0.55759532580E+03  0.00000000000E+00 0. -1.
         24    1    1    2    0    0  0.18173704622E+02 -0.18885266867E+02 -0.33237779779E+03  0.34297106768E+03  0.80419002446E+02 0.  1.
        -24    1    1    2    0    0 -0.18173704622E+02  0.18885266867E+02 -0.21178824967E+03  0.22805353647E+03  0.80419002446E+02 0.  1.
<mgrwt>
<rscale>  0 0.84582225E+02</rscale>
<asrwt>0</asrwt>
<pdfrwt beam="1">  1        2 0.85783885E-01 0.84582225E+02</pdfrwt>
<pdfrwt beam="2">  1       -2 0.20660431E-02 0.84582225E+02</pdfrwt>
<totfact> 0.35874854E+04</totfact>
</mgrwt>
</event>
<event>
 4    3  0.8789582E-001  0.8477579E+02  0.7546771E-02  0.1316020E+00
          1   -1    0    0  501    0  0.00000000000E+00  0.00000000000E+00  0.11224952433E+03  0.11224952433E+03  0.00000000000E+00 0. -1.
         -1   -1    0    0    0  501 -0.00000000000E+00 -0.00000000000E+00 -0.28947628667E+03  0.28947628667E+03  0.00000000000E+00 0.  1.
         24    1    1    2    0    0 -0.16782218199E+02  0.20930255770E+02 -0.26587644121E+03  0.27906489640E+03  0.80419002446E+02 0.  1.
        -24    1    1    2    0    0  0.16782218199E+02 -0.20930255770E+02  0.88649678873E+02  0.12266091461E+03  0.80419002446E+02 0. -1.
<mgrwt>
<rscale>  0 0.84775789E+02</rscale>
<asrwt>0</asrwt>
<pdfrwt beam="1">  1        1 0.17269158E-01 0.84775789E+02</pdfrwt>
<pdfrwt beam="2">  1       -1 0.44534814E-01 0.84775789E+02</pdfrwt>
<totfact> 0.15136449E+03</totfact>
</mgrwt>
</event>
<event>
 4    3  0.8789582E-001  0.8591844E+02  0.7546771E-02  0.1313048E+00
         -1   -1    0    0    0  501 -0.00000000000E+00  0.00000000000E+00  0.41929630229E+03  0.41929630229E+03  0.00000000000E+00 0.  1.
          1   -1    0    0  501    0  0.00000000000E+00 -0.00000000000E+00 -0.62298121073E+02  0.62298121073E+02  0.00000000000E+00 0. -1.
         24    1    1    2    0    0 -0.19945778058E+02 -0.22736067220E+02  0.38245261914E+03  0.39198467401E+03  0.80419002446E+02 0.  1.
        -24    1    1    2    0    0  0.19945778058E+02  0.22736067220E+02 -0.25454437925E+02  0.89609749355E+02  0.80419002446E+02 0. -1.
<mgrwt>
<rscale>  0 0.85918443E+02</rscale>
<asrwt>0</asrwt>
<pdfrwt beam="1">  1        1 0.95843266E-02 0.85918443E+02</pdfrwt>
<pdfrwt beam="2">  1       -1 0.64507122E-01 0.85918443E+02</pdfrwt>
<totfact> 0.16401002E+03</totfact>
</mgrwt>
</event>
<event>
 4    3  0.8789582E-001  0.1036341E+03  0.7546771E-02  0.1272834E+00
          1   -1    0    0  501    0  0.00000000000E+00  0.00000000000E+00  0.17393324500E+02  0.17393324500E+02  0.00000000000E+00 0. -1.
         -1   -1    0    0    0  501 -0.00000000000E+00 -0.00000000000E+00 -0.12956893471E+04  0.12956893471E+04  0.00000000000E+00 0.  1.
         24    1    1    2    0    0  0.61225618515E+02 -0.22896324764E+02 -0.11141478284E+04  0.11189572903E+04  0.80419002446E+02 0.  1.
        -24    1    1    2    0    0 -0.61225618515E+02  0.22896324764E+02 -0.16414819423E+03  0.19412538133E+03  0.80419002446E+02 0. -1.
<mgrwt>
<rscale>  0 0.10363414E+03</rscale>
<asrwt>0</asrwt>
<pdfrwt beam="1">  1        1 0.26758959E-02 0.10363414E+03</pdfrwt>
<pdfrwt beam="2">  1       -1 0.19933683E+00 0.10363414E+03</pdfrwt>
<totfact> 0.66292252E+02</totfact>
</mgrwt>
</event>
<event>
 4    3  0.8789582E-001  0.8283097E+02  0.7546771E-02  0.1321204E+00
          2   -1    0    0  501    0  0.00000000000E+00  0.00000000000E+00  0.83905915705E+03  0.83905915705E+03  0.00000000000E+00 0. -1.
         -2   -1    0    0    0  501 -0.00000000000E+00 -0.00000000000E+00 -0.74178337432E+02  0.74178337432E+02  0.00000000000E+00 0.  1.
         24    1    1    2    0    0  0.10380087903E+02  0.16911751236E+02  0.81315702583E+03  0.81736486233E+03  0.80419002446E+02 0. -1.
        -24    1    1    2    0    0 -0.10380087903E+02 -0.16911751236E+02 -0.48276206215E+02  0.95872632152E+02  0.80419002446E+02 0.  1.
<mgrwt>
<rscale>  0 0.82830970E+02</rscale>
<asrwt>0</asrwt>
<pdfrwt beam="1">  1        2 0.12908602E+00 0.82830970E+02</pdfrwt>
<pdfrwt beam="2">  1       -2 0.11412052E-01 0.82830970E+02</pdfrwt>
<totfact> 0.17562634E+03</totfact>
</mgrwt>
</event>
<event>
 4    3  0.8789582E-001  0.8600199E+02  0.7546771E-02  0.1312833E+00
         -1   -1    0    0    0  501 -0.00000000000E+00  0.00000000000E+00  0.10710494646E+03  0.10710494646E+03  0.00000000000E+00 0.  1.
          1   -1    0    0  501    0  0.00000000000E+00 -0.00000000000E+00 -0.69091538642E+02  0.69091538642E+02  0.00000000000E+00 0. -1.
         24    1    1    2    0    0  0.21765984775E+02  0.21339267341E+02  0.17034865868E+02  0.87672829505E+02  0.80419002446E+02 0. -1.
        -24    1    1    2    0    0 -0.21765984775E+02 -0.21339267341E+02  0.20978541952E+02  0.88523655599E+02  0.80419002446E+02 0.  0.
<mgrwt>
<rscale>  0 0.86001978E+02</rscale>
<asrwt>0</asrwt>
<pdfrwt beam="1">  1        1 0.10629468E-01 0.86001989E+02</pdfrwt>
<pdfrwt beam="2">  1       -1 0.16477684E-01 0.86001989E+02</pdfrwt>
<totfact> 0.14510902E+04</totfact>
</mgrwt>
</event>
<event>
 4    3  0.8789582E-001  0.8266397E+02  0.7546771E-02  0.1321657E+00
          2   -1    0    0  501    0  0.00000000000E+00  0.00000000000E+00  0.50688731052E+02  0.50688731052E+02  0.00000000000E+00 0. -1.
         -2   -1    0    0    0  501 -0.00000000000E+00 -0.00000000000E+00 -0.13487434054E+03  0.13487434054E+03  0.00000000000E+00 0.  1.
         24    1    1    2    0    0 -0.56384772221E+01 -0.18284438468E+02 -0.44125091344E+02  0.93703536518E+02  0.80419002446E+02 0. -1.
        -24    1    1    2    0    0  0.56384772221E+01  0.18284438468E+02 -0.40060518141E+02  0.91859535072E+02  0.80419002446E+02 0.  0.
<mgrwt>
<rscale>  0 0.82663963E+02</rscale>
<asrwt>0</asrwt>
<pdfrwt beam="1">  1        2 0.77982663E-02 0.82663973E+02</pdfrwt>
<pdfrwt beam="2">  1       -2 0.20749899E-01 0.82663973E+02</pdfrwt>
<totfact> 0.15272835E+04</totfact>
</mgrwt>
</event>
<event>
 4    3  0.8789582E-001  0.9821481E+02  0.7546771E-02  0.1284095E+00
         -2   -1    0    0    0  501 -0.00000000000E+00  0.00000000000E+00  0.48973967552E+01  0.48973967552E+01  0.00000000000E+00 0.  1.
          2   -1    0    0  501    0  0.00000000000E+00 -0.00000000000E+00 -0.21692552277E+04  0.21692552277E+04  0.00000000000E+00 0. -1.
         24    1    1    2    0    0 -0.32084813560E+02 -0.46362680756E+02 -0.14119347354E+04  0.14153465464E+04  0.80419002446E+02 0. -1.
        -24    1    1    2    0    0  0.32084813560E+02  0.46362680756E+02 -0.75242309560E+03  0.75880607811E+03  0.80419002446E+02 0.  0.
<mgrwt>
<rscale>  0 0.98214812E+02</rscale>
<asrwt>0</asrwt>
<pdfrwt beam="1">  1        2 0.33373099E+00 0.98214812E+02</pdfrwt>
<pdfrwt beam="2">  1       -2 0.75344697E-03 0.98214812E+02</pdfrwt>
<totfact> 0.18659607E+04</totfact>
</mgrwt>
</event>
<event>
 4    3  0.8789582E-001  0.8162859E+02  0.7546771E-02  0.1324492E+00
         -2   -1    0    0    0  501 -0.00000000000E+00  0.00000000000E+00  0.25773657136E+02  0.25773657136E+02  0.00000000000E+00 0.  1.
          2   -1    0    0  501    0  0.00000000000E+00 -0.00000000000E+00 -0.25908365649E+03  0.25908365649E+03  0.00000000000E+00 0. -1.
         24    1    1    2    0    0 -0.13167575795E+02  0.47566392220E+01 -0.12324763736E+03  0.14782830155E+03  0.80419002446E+02 0. -1.
        -24    1    1    2    0    0  0.13167575795E+02 -0.47566392220E+01 -0.11006236199E+03  0.13702901207E+03  0.80419002446E+02 0.  1.
<mgrwt>
<rscale>  0 0.81628589E+02</rscale>
<asrwt>0</asrwt>
<pdfrwt beam="1">  1        2 0.39859026E-01 0.81628589E+02</pdfrwt>
<pdfrwt beam="2">  1       -2 0.39651778E-02 0.81628589E+02</pdfrwt>
<totfact> 0.31179570E+04</totfact>
</mgrwt>
</event>
<event>
 4    3  0.8789582E-001  0.8217196E+02  0.7546771E-02  0.1322998E+00
          1   -1    0    0  501    0  0.00000000000E+00  0.00000000000E+00  0.40198813116E+02  0.40198813116E+02  0.00000000000E+00 0. -1.
         -1   -1    0    0    0  501 -0.00000000000E+00 -0.00000000000E+00 -0.18857408522E+03  0.18857408522E+03  0.00000000000E+00 0.  1.
         24    1    1    2    0    0 -0.42749695772E+01  0.16332161238E+02 -0.11199712084E+03  0.13890855224E+03  0.80419002446E+02 0.  1.
        -24    1    1    2    0    0  0.42749695772E+01 -0.16332161238E+02 -0.36378151273E+02  0.89864346100E+02  0.80419002446E+02 0. -1.
<mgrwt>
<rscale>  0 0.82171959E+02</rscale>
<asrwt>0</asrwt>
<pdfrwt beam="1">  1        1 0.61844328E-02 0.82171959E+02</pdfrwt>
<pdfrwt beam="2">  1       -1 0.29011398E-01 0.82171959E+02</pdfrwt>
<totfact> 0.11935664E+04</totfact>
</mgrwt>
</event>
<event>
 4    3  0.8789582E-001  0.8405334E+02  0.7546771E-02  0.1317927E+00
         -2   -1    0    0    0  501 -0.00000000000E+00  0.00000000000E+00  0.22962340858E+03  0.22962340858E+03  0.00000000000E+00 0.  1.
          2   -1    0    0  501    0  0.00000000000E+00 -0.00000000000E+00 -0.53873697377E+02  0.53873697377E+02  0.00000000000E+00 0. -1.
         24    1    1    2    0    0  0.10817063595E+01 -0.24424958670E+02 -0.49562239223E+01  0.84199339692E+02  0.80419002446E+02 0.  0.
        -24    1    1    2    0    0 -0.10817063595E+01  0.24424958670E+02  0.18070593513E+03  0.19929776627E+03  0.80419002446E+02 0.  1.
<mgrwt>
<rscale>  0 0.84053344E+02</rscale>
<asrwt>0</asrwt>
<pdfrwt beam="1">  1        2 0.82882613E-02 0.84053344E+02</pdfrwt>
<pdfrwt beam="2">  1       -2 0.35326678E-01 0.84053344E+02</pdfrwt>
<totfact> 0.55892641E+03</totfact>
</mgrwt>
</event>
<event>
 4    3  0.8789582E-001  0.8151616E+02  0.7546771E-02  0.1324803E+00
         -2   -1    0    0    0  501 -0.00000000000E+00  0.00000000000E+00  0.11110699624E+02  0.11110699624E+02  0.00000000000E+00 0.  1.
          2   -1    0    0  501    0  0.00000000000E+00 -0.00000000000E+00 -0.60076789405E+03  0.60076789405E+03  0.00000000000E+00 0. -1.
         24    1    1    2    0    0  0.12787259453E+02 -0.37621985271E+01 -0.31536195596E+03  0.32572695216E+03  0.80419002446E+02 0.  1.
        -24    1    1    2    0    0 -0.12787259453E+02  0.37621985271E+01 -0.27429523847E+03  0.28615164152E+03  0.80419002446E+02 0. -1.
<mgrwt>
<rscale>  0 0.81516158E+02</rscale>
<asrwt>0</asrwt>
<pdfrwt beam="1">  1        2 0.92425801E-01 0.81516158E+02</pdfrwt>
<pdfrwt beam="2">  1       -2 0.17093389E-02 0.81516158E+02</pdfrwt>
<totfact> 0.43132789E+04</totfact>
</mgrwt>
</event>
<event>
 4    3  0.8789582E-001  0.1302148E+03  0.7546771E-02  0.1227137E+00
         -3   -1    0    0    0  501 -0.00000000000E+00  0.00000000000E+00  0.10970014214E+03  0.10970014214E+03  0.00000000000E+00 0.  1.
          3   -1    0    0  501    0  0.00000000000E+00 -0.00000000000E+00 -0.36313731179E+03  0.36313731179E+03  0.00000000000E+00 0. -1.
         24    1    1    2    0    0 -0.10235901695E+03  0.33618810161E+01  0.52454993333E+02  0.14038309327E+03  0.80419002446E+02 0.  0.
        -24    1    1    2    0    0  0.10235901695E+03 -0.33618810161E+01 -0.30589216298E+03  0.33245436066E+03  0.80419002446E+02 0. -1.
<mgrwt>
<rscale>  0 0.13021477E+03</rscale>
<asrwt>0</asrwt>
<pdfrwt beam="1">  1        3 0.55867279E-01 0.13021477E+03</pdfrwt>
<pdfrwt beam="2">  1       -3 0.16876945E-01 0.13021477E+03</pdfrwt>
<totfact> 0.22428032E+02</totfact>
</mgrwt>
</event>
<event>
 4    3  0.8789582E-001  0.8535039E+02  0.7546771E-02  0.1314519E+00
         -1   -1    0    0    0  501 -0.00000000000E+00  0.00000000000E+00  0.30157072185E+01  0.30157072185E+01  0.00000000000E+00 0.  1.
          1   -1    0    0  501    0  0.00000000000E+00 -0.00000000000E+00 -0.32813602811E+04  0.32813602811E+04  0.00000000000E+00 0. -1.
         24    1    1    2    0    0  0.25954254847E+02 -0.11993760443E+02 -0.79564500815E+03  0.80020976536E+03  0.80419002446E+02 0.  1.
        -24    1    1    2    0    0 -0.25954254847E+02  0.11993760443E+02 -0.24826995657E+04  0.24841662229E+04  0.80419002446E+02 0. -1.
<mgrwt>
<rscale>  0 0.85350393E+02</rscale>
<asrwt>0</asrwt>
<pdfrwt beam="1">  1        1 0.50482447E+00 0.85350393E+02</pdfrwt>
<pdfrwt beam="2">  1       -1 0.46395513E-03 0.85350393E+02</pdfrwt>
<totfact> 0.26101837E+03</totfact>
</mgrwt>
</event>
<event>
 4    3  0.8789582E-001  0.1588180E+03  0.7546771E-02  0.1190038E+00
          2   -1    0    0  501    0  0.00000000000E+00  0.00000000000E+00  0.41573512956E+04  0.41573512956E+04  0.00000000000E+00 0. -1.
         -2   -1    0    0    0  501 -0.00000000000E+00 -0.00000000000E+00 -0.12642342602E+02  0.12642342602E+02  0.00000000000E+00 0.  1.
         24    1    1    2    0    0  0.84602674567E+02  0.10769554874E+03  0.35760045007E+04  0.35795294871E+04  0.80419002446E+02 0. -1.
        -24    1    1    2    0    0 -0.84602674567E+02 -0.10769554874E+03  0.56870445227E+03  0.59046415111E+03  0.80419002446E+02 0.  1.
<mgrwt>
<rscale>  0 0.15881801E+03</rscale>
<asrwt>0</asrwt>
<pdfrwt beam="1">  1        2 0.63959142E+00 0.15881801E+03</pdfrwt>
<pdfrwt beam="2">  1       -2 0.19449791E-02 0.15881801E+03</pdfrwt>
<totfact> 0.28502111E+02</totfact>
</mgrwt>
</event>
<event>
 4    3  0.8789582E-001  0.8162936E+02  0.7546771E-02  0.1324490E+00
         -1   -1    0    0    0  501 -0.00000000000E+00  0.00000000000E+00  0.11358687591E+02  0.11358687591E+02  0.00000000000E+00 0.  1.
          1   -1    0    0  501    0  0.00000000000E+00 -0.00000000000E+00 -0.62834485611E+03  0.62834485611E+03  0.00000000000E+00 0. -1.
         24    1    1    2    0    0  0.72556145442E+01 -0.11978864094E+02 -0.22608073937E+03  0.24036608287E+03  0.80419002446E+02 0.  1.
        -24    1    1    2    0    0 -0.72556145442E+01  0.11978864094E+02 -0.39090542915E+03  0.39933746083E+03  0.80419002446E+02 0. -1.
<mgrwt>
<rscale>  0 0.81629364E+02</rscale>
<asrwt>0</asrwt>
<pdfrwt beam="1">  1        1 0.96668459E-01 0.81629364E+02</pdfrwt>
<pdfrwt beam="2">  1       -1 0.17474900E-02 0.81629364E+02</pdfrwt>
<totfact> 0.24626034E+04</totfact>
</mgrwt>
</event>
<event>
 4    3  0.8789582E-001  0.8281221E+02  0.7546771E-02  0.1321255E+00
          2   -1    0    0  501    0  0.00000000000E+00  0.00000000000E+00  0.17951072811E+03  0.17951072811E+03  0.00000000000E+00 0. -1.
         -2   -1    0    0    0  501 -0.00000000000E+00 -0.00000000000E+00 -0.43664162676E+02  0.43664162676E+02  0.00000000000E+00 0.  1.
         24    1    1    2    0    0 -0.18952171092E+02  0.56091134246E+01  0.10738646474E+03  0.13560868595E+03  0.80419002446E+02 0. -1.
        -24    1    1    2    0    0  0.18952171092E+02 -0.56091134246E+01  0.28460100693E+02  0.87566204830E+02  0.80419002446E+02 0.  0.
<mgrwt>
<rscale>  0 0.82812215E+02</rscale>
<asrwt>0</asrwt>
<pdfrwt beam="1">  1        2 0.27617035E-01 0.82812215E+02</pdfrwt>
<pdfrwt beam="2">  1       -2 0.67175636E-02 0.82812215E+02</pdfrwt>
<totfact> 0.21053305E+04</totfact>
</mgrwt>
</event>
<event>
 4    3  0.8789582E-001  0.8118566E+02  0.7546771E-02  0.1325720E+00
          1   -1    0    0  501    0  0.00000000000E+00  0.00000000000E+00  0.40863807995E+03  0.40863807995E+03  0.00000000000E+00 0. -1.
         -1   -1    0    0    0  501 -0.00000000000E+00 -0.00000000000E+00 -0.16140100682E+02  0.16140100682E+02  0.00000000000E+00 0.  1.
         24    1    1    2    0    0 -0.41736827497E+01  0.10318546299E+02  0.20170459289E+03  0.21743010549E+03  0.80419002446E+02 0.  1.
        -24    1    1    2    0    0  0.41736827497E+01 -0.10318546299E+02  0.19079338637E+03  0.20734807514E+03  0.80419002446E+02 0.  0.
<mgrwt>
<rscale>  0 0.81185649E+02</rscale>
<asrwt>0</asrwt>
<pdfrwt beam="1">  1        1 0.62867389E-01 0.81185659E+02</pdfrwt>
<pdfrwt beam="2">  1       -1 0.24830927E-02 0.81185659E+02</pdfrwt>
<totfact> 0.25963553E+04</totfact>
</mgrwt>
</event>
<event>
 4    3  0.8789582E-001  0.1452451E+03  0.7546771E-02  0.1206441E+00
          2   -1    0    0  501    0  0.00000000000E+00  0.00000000000E+00  0.23637880301E+04  0.23637880301E+04  0.00000000000E+00 0. -1.
         -2   -1    0    0    0  501 -0.00000000000E+00 -0.00000000000E+00 -0.19318556486E+02  0.19318556486E+02  0.00000000000E+00 0.  1.
         24    1    1    2    0    0  0.10459490178E+03 -0.60735696297E+02  0.20462402700E+04  0.20513886460E+04  0.80419002446E+02 0. -1.
        -24    1    1    2    0    0 -0.10459490178E+03  0.60735696297E+02  0.29822920358E+03  0.33171794058E+03  0.80419002446E+02 0.  1.
<mgrwt>
<rscale>  0 0.14524508E+03</rscale>
<asrwt>0</asrwt>
<pdfrwt beam="1">  1        2 0.36365947E+00 0.14524508E+03</pdfrwt>
<pdfrwt beam="2">  1       -2 0.29720875E-02 0.14524508E+03</pdfrwt>
<totfact> 0.20679517E+03</totfact>
</mgrwt>
</event>
<event>
 4    3  0.8789582E-001  0.8807957E+02  0.7546771E-02  0.1307570E+00
         -1   -1    0    0    0  501 -0.00000000000E+00  0.00000000000E+00  0.13910339034E+02  0.13910339034E+02  0.00000000000E+00 0.  1.
          1   -1    0    0  501    0  0.00000000000E+00 -0.00000000000E+00 -0.56039132931E+03  0.56039132931E+03  0.00000000000E+00 0. -1.
         24    1    1    2    0    0 -0.35280491697E+02 -0.67880699140E+01 -0.29308413228E+03  0.30603319352E+03  0.80419002446E+02 0. -1.
        -24    1    1    2    0    0  0.35280491697E+02  0.67880699140E+01 -0.25339685799E+03  0.26826847482E+03  0.80419002446E+02 0.  1.
<mgrwt>
<rscale>  0 0.88079560E+02</rscale>
<asrwt>0</asrwt>
<pdfrwt beam="1">  1        1 0.86214034E-01 0.88079571E+02</pdfrwt>
<pdfrwt beam="2">  1       -1 0.21400526E-02 0.88079571E+02</pdfrwt>
<totfact> 0.21670755E+04</totfact>
</mgrwt>
</event>
<event>
 4    3  0.8789582E-001  0.8201140E+02  0.7546771E-02  0.1323438E+00
          1   -1    0    0  501    0  0.00000000000E+00  0.00000000000E+00  0.12171353876E+03  0.12171353876E+03  0.00000000000E+00 0. -1.
         -1   -1    0    0    0  501 -0.00000000000E+00 -0.00000000000E+00 -0.16551362511E+03  0.16551362511E+03  0.00000000000E+00 0.  1.
         24    1    1    2    0    0 -0.35613633680E+01  0.15683440572E+02 -0.13911294311E+03  0.16148771010E+03  0.80419002446E+02 0.  0.
        -24    1    1    2    0    0  0.35613633680E+01 -0.15683440572E+02  0.95312856764E+02  0.12573945378E+03  0.80419002446E+02 0. -1.
<mgrwt>
<rscale>  0 0.82011399E+02</rscale>
<asrwt>0</asrwt>
<pdfrwt beam="1">  1        1 0.18725160E-01 0.82011399E+02</pdfrwt>
<pdfrwt beam="2">  1       -1 0.25463634E-01 0.82011399E+02</pdfrwt>
<totfact> 0.35044509E+03</totfact>
</mgrwt>
</event>
<event>
 4    3  0.8789582E-001  0.8085415E+02  0.7546771E-02  0.1326645E+00
         -2   -1    0    0    0  501 -0.00000000000E+00  0.00000000000E+00  0.11282819928E+02  0.11282819928E+02  0.00000000000E+00 0.  1.
          2   -1    0    0  501    0  0.00000000000E+00 -0.00000000000E+00 -0.59996929782E+03  0.59996929782E+03  0.00000000000E+00 0. -1.
         24    1    1    2    0    0 -0.61274715564E+01 -0.57123550303E+01 -0.35091722040E+03  0.36011149445E+03  0.80419002446E+02 0. -1.
        -24    1    1    2    0    0  0.61274715564E+01  0.57123550303E+01 -0.23776925750E+03  0.25114062330E+03  0.80419002446E+02 0. -1.
<mgrwt>
<rscale>  0 0.80854146E+02</rscale>
<asrwt>0</asrwt>
<pdfrwt beam="1">  1        2 0.92302979E-01 0.80854146E+02</pdfrwt>
<pdfrwt beam="2">  1       -2 0.17358183E-02 0.80854146E+02</pdfrwt>
<totfact> 0.42217925E+04</totfact>
</mgrwt>
</event>
<event>
 4    3  0.8789582E-001  0.8225157E+02  0.7546771E-02  0.1322781E+00
          2   -1    0    0  501    0  0.00000000000E+00  0.00000000000E+00  0.37184712041E+02  0.37184712041E+02  0.00000000000E+00 0. -1.
         -2   -1    0    0    0  501 -0.00000000000E+00 -0.00000000000E+00 -0.22245327739E+03  0.22245327739E+03  0.00000000000E+00 0.  1.
         24    1    1    2    0    0 -0.27875542000E+01 -0.17039206149E+02 -0.37232087289E+02  0.90285930703E+02  0.80419002446E+02 0. -1.
        -24    1    1    2    0    0  0.27875542000E+01  0.17039206149E+02 -0.14803647806E+03  0.16935205872E+03  0.80419002446E+02 0.  1.
<mgrwt>
<rscale>  0 0.82251571E+02</rscale>
<asrwt>0</asrwt>
<pdfrwt beam="1">  1        2 0.57207248E-02 0.82251571E+02</pdfrwt>
<pdfrwt beam="2">  1       -2 0.34223582E-01 0.82251571E+02</pdfrwt>
<totfact> 0.94052990E+03</totfact>
</mgrwt>
</event>
<event>
 4    3  0.8789582E-001  0.9377165E+02  0.7546771E-02  0.1293967E+00
         -1   -1    0    0    0  501 -0.00000000000E+00  0.00000000000E+00  0.22130037464E+02  0.22130037464E+02  0.00000000000E+00 0.  1.
          1   -1    0    0  501    0  0.00000000000E+00 -0.00000000000E+00 -0.40836634486E+03  0.40836634486E+03  0.00000000000E+00 0. -1.
         24    1    1    2    0    0 -0.25488082967E+02  0.40942207622E+02 -0.15774662654E+03  0.18351327167E+03  0.80419002446E+02 0.  0.
        -24    1    1    2    0    0  0.25488082967E+02 -0.40942207622E+02 -0.22848968086E+03  0.24698311066E+03  0.80419002446E+02 0. -1.
<mgrwt>
<rscale>  0 0.93771652E+02</rscale>
<asrwt>0</asrwt>
<pdfrwt beam="1">  1        1 0.62825586E-01 0.93771652E+02</pdfrwt>
<pdfrwt beam="2">  1       -1 0.34046214E-02 0.93771652E+02</pdfrwt>
<totfact> 0.16762793E+04</totfact>
</mgrwt>
</event>
<event>
 4    3  0.8789582E-001  0.9237172E+02  0.7546771E-02  0.1297208E+00
         -2   -1    0    0    0  501 -0.00000000000E+00  0.00000000000E+00  0.38286519535E+02  0.38286519535E+02  0.00000000000E+00 0.  1.
          2   -1    0    0  501    0  0.00000000000E+00 -0.00000000000E+00 -0.61822055046E+03  0.61822055046E+03  0.00000000000E+00 0. -1.
         24    1    1    2    0    0  0.44069239759E+02  0.11100489740E+02 -0.55247006036E+03  0.56013900267E+03  0.80419002446E+02 0. -1.
        -24    1    1    2    0    0 -0.44069239759E+02 -0.11100489740E+02 -0.27463970559E+02  0.96368067318E+02  0.80419002446E+02 0.  1.
<mgrwt>
<rscale>  0 0.92371720E+02</rscale>
<asrwt>0</asrwt>
<pdfrwt beam="1">  1        2 0.95110852E-01 0.92371720E+02</pdfrwt>
<pdfrwt beam="2">  1       -2 0.58902339E-02 0.92371720E+02</pdfrwt>
<totfact> 0.69632424E+03</totfact>
</mgrwt>
</event>
<event>
 4    3  0.8789582E-001  0.1509935E+03  0.7546771E-02  0.1199258E+00
         -1   -1    0    0    0  501 -0.00000000000E+00  0.00000000000E+00  0.27963503970E+03  0.27963503970E+03  0.00000000000E+00 0.  1.
          1   -1    0    0  501    0  0.00000000000E+00 -0.00000000000E+00 -0.87609540813E+03  0.87609540813E+03  0.00000000000E+00 0. -1.
         24    1    1    2    0    0 -0.11112642067E+03  0.63108858177E+02  0.25208983588E+03  0.29385083063E+03  0.80419002446E+02 0.  1.
        -24    1    1    2    0    0  0.11112642067E+03 -0.63108858177E+02 -0.84855020431E+03  0.86187961720E+03  0.80419002446E+02 0. -1.
<mgrwt>
<rscale>  0 0.15099346E+03</rscale>
<asrwt>0</asrwt>
<pdfrwt beam="1">  1        1 0.13478391E+00 0.15099346E+03</pdfrwt>
<pdfrwt beam="2">  1       -1 0.43020776E-01 0.15099346E+03</pdfrwt>
<totfact> 0.11306804E+02</totfact>
</mgrwt>
</event>
<event>
 4    3  0.8789582E-001  0.1363869E+03  0.7546771E-02  0.1218275E+00
          2   -1    0    0  501    0  0.00000000000E+00  0.00000000000E+00  0.41510394126E+04  0.41510394126E+04  0.00000000000E+00 0. -1.
         -2   -1    0    0    0  501 -0.00000000000E+00 -0.00000000000E+00 -0.51513681383E+01  0.51513681383E+01  0.00000000000E+00 0.  1.
         24    1    1    2    0    0  0.12284786285E+02 -0.10946806823E+03  0.13233684498E+04  0.13303779327E+04  0.80419002446E+02 0. -1.
        -24    1    1    2    0    0 -0.12284786285E+02  0.10946806823E+03  0.28225195947E+04  0.28258128481E+04  0.80419002446E+02 0.  1.
<mgrwt>
<rscale>  0 0.13638693E+03</rscale>
<asrwt>0</asrwt>
<pdfrwt beam="1">  1        2 0.63861877E+00 0.13638695E+03</pdfrwt>
<pdfrwt beam="2">  1       -2 0.79252149E-03 0.13638695E+03</pdfrwt>
<totfact> 0.10628293E+03</totfact>
</mgrwt>
</event>
<event>
 4    3  0.8789582E-001  0.1112297E+03  0.7546771E-02  0.1258309E+00
         -2   -1    0    0    0  501 -0.00000000000E+00  0.00000000000E+00  0.64484535203E+02  0.64484535203E+02  0.00000000000E+00 0.  1.
          2   -1    0    0  501    0  0.00000000000E+00 -0.00000000000E+00 -0.40554177778E+03  0.40554177778E+03  0.00000000000E+00 0. -1.
         24    1    1    2    0    0  0.23843830355E+02 -0.73049999111E+02 -0.34112013843E+03  0.35879659337E+03  0.80419002446E+02 0. -1.
        -24    1    1    2    0    0 -0.23843830355E+02  0.73049999111E+02  0.62895849564E-01  0.11122971962E+03  0.80419002446E+02 0.  1.
<mgrwt>
<rscale>  0 0.11122970E+03</rscale>
<asrwt>0</asrwt>
<pdfrwt beam="1">  1        2 0.62391041E-01 0.11122970E+03</pdfrwt>
<pdfrwt beam="2">  1       -2 0.99206981E-02 0.11122970E+03</pdfrwt>
<totfact> 0.50241673E+03</totfact>
</mgrwt>
</event>
<event>
 4    3  0.8789582E-001  0.9644744E+02  0.7546771E-02  0.1287949E+00
         -3   -1    0    0    0  501 -0.00000000000E+00  0.00000000000E+00  0.31988311290E+03  0.31988311290E+03  0.00000000000E+00 0.  1.
          3   -1    0    0  501    0  0.00000000000E+00 -0.00000000000E+00 -0.75007854593E+02  0.75007854593E+02  0.00000000000E+00 0. -1.
         24    1    1    2    0    0 -0.22911155657E+02  0.48062166984E+02  0.27693933259E+03  0.29325330832E+03  0.80419002446E+02 0.  1.
        -24    1    1    2    0    0  0.22911155657E+02 -0.48062166984E+02 -0.32064074283E+02  0.10163765918E+03  0.80419002446E+02 0. -1.
<mgrwt>
<rscale>  0 0.96447441E+02</rscale>
<asrwt>0</asrwt>
<pdfrwt beam="1">  1        3 0.11539670E-01 0.96447441E+02</pdfrwt>
<pdfrwt beam="2">  1       -3 0.49212786E-01 0.96447441E+02</pdfrwt>
<totfact> 0.52610200E+02</totfact>
</mgrwt>
</event>
<event>
 4    3  0.8789582E-001  0.9278702E+02  0.7546771E-02  0.1296239E+00
          2   -1    0    0  501    0  0.00000000000E+00  0.00000000000E+00  0.11730369061E+04  0.11730369061E+04  0.00000000000E+00 0. -1.
         -2   -1    0    0    0  501 -0.00000000000E+00 -0.00000000000E+00 -0.11340196000E+02  0.11340196000E+02  0.00000000000E+00 0.  1.
         24    1    1    2    0    0 -0.20986962975E+02  0.41252429138E+02  0.93258763909E+03  0.93719215536E+03  0.80419002446E+02 0. -1.
        -24    1    1    2    0    0  0.20986962975E+02 -0.41252429138E+02  0.22910907105E+03  0.24718494678E+03  0.80419002446E+02 0.  1.
<mgrwt>
<rscale>  0 0.92787022E+02</rscale>
<asrwt>0</asrwt>
<pdfrwt beam="1">  1        2 0.18046712E+00 0.92787022E+02</pdfrwt>
<pdfrwt beam="2">  1       -2 0.17446465E-02 0.92787022E+02</pdfrwt>
<totfact> 0.18259785E+04</totfact>
</mgrwt>
</event>
<event>
 4    3  0.8789582E-001  0.8505425E+02  0.7546771E-02  0.1315291E+00
         -2   -1    0    0    0  501 -0.00000000000E+00  0.00000000000E+00  0.19434124176E+03  0.19434124176E+03  0.00000000000E+00 0.  1.
          2   -1    0    0  501    0  0.00000000000E+00 -0.00000000000E+00 -0.39032599917E+03  0.39032599917E+03  0.00000000000E+00 0. -1.
         24    1    1    2    0    0 -0.18823598343E+02  0.20314570270E+02 -0.37603725775E+03  0.38553630800E+03  0.80419002446E+02 0. -1.
        -24    1    1    2    0    0  0.18823598343E+02 -0.20314570270E+02  0.18005250033E+03  0.19913093293E+03  0.80419002446E+02 0.  1.
<mgrwt>
<rscale>  0 0.85054251E+02</rscale>
<asrwt>0</asrwt>
<pdfrwt beam="1">  1        2 0.60050153E-01 0.85054251E+02</pdfrwt>
<pdfrwt beam="2">  1       -2 0.29898653E-01 0.85054251E+02</pdfrwt>
<totfact> 0.83395251E+02</totfact>
</mgrwt>
</event>
<event>
 4    3  0.8789582E-001  0.9927732E+02  0.7546771E-02  0.1281823E+00
         -2   -1    0    0    0  501 -0.00000000000E+00  0.00000000000E+00  0.39329313192E+02  0.39329313192E+02  0.00000000000E+00 0.  1.
          2   -1    0    0  501    0  0.00000000000E+00 -0.00000000000E+00 -0.26110629296E+03  0.26110629296E+03  0.00000000000E+00 0. -1.
         24    1    1    2    0    0 -0.52950312196E+02  0.24187507863E+02 -0.14101892083E+03  0.17245962740E+03  0.80419002446E+02 0.  1.
        -24    1    1    2    0    0  0.52950312196E+02 -0.24187507863E+02 -0.80758058941E+02  0.12797597875E+03  0.80419002446E+02 0.  0.
<mgrwt>
<rscale>  0 0.99277324E+02</rscale>
<asrwt>0</asrwt>
<pdfrwt beam="1">  1        2 0.40170201E-01 0.99277324E+02</pdfrwt>
<pdfrwt beam="2">  1       -2 0.60506633E-02 0.99277324E+02</pdfrwt>
<totfact> 0.16878844E+04</totfact>
</mgrwt>
</event>
<event>
 4    3  0.8789582E-001  0.8436149E+02  0.7546771E-02  0.1317111E+00
          2   -1    0    0  501    0  0.00000000000E+00  0.00000000000E+00  0.29690487148E+03  0.29690487148E+03  0.00000000000E+00 0. -1.
         -2   -1    0    0    0  501 -0.00000000000E+00 -0.00000000000E+00 -0.25123920928E+02  0.25123920928E+02  0.00000000000E+00 0.  1.
         24    1    1    2    0    0 -0.13795986444E+02 -0.21431663076E+02  0.17039502075E+03  0.19013501643E+03  0.80419002446E+02 0. -1.
        -24    1    1    2    0    0  0.13795986444E+02  0.21431663076E+02  0.10138592980E+03  0.13189377597E+03  0.80419002446E+02 0.  1.
<mgrwt>
<rscale>  0 0.84361492E+02</rscale>
<asrwt>0</asrwt>
<pdfrwt beam="1">  1        2 0.45677670E-01 0.84361492E+02</pdfrwt>
<pdfrwt beam="2">  1       -2 0.38652188E-02 0.84361492E+02</pdfrwt>
<totfact> 0.28192952E+04</totfact>
</mgrwt>
</event>
<event>
 4    3  0.8789582E-001  0.8686902E+02  0.7546771E-02  0.1310616E+00
         -2   -1    0    0    0  501 -0.00000000000E+00  0.00000000000E+00  0.21108041860E+02  0.21108041860E+02  0.00000000000E+00 0.  1.
          2   -1    0    0  501    0  0.00000000000E+00 -0.00000000000E+00 -0.20813317225E+04  0.20813317225E+04  0.00000000000E+00 0. -1.
         24    1    1    2    0    0 -0.56998203917E+01 -0.32350002170E+02 -0.19867985539E+04  0.19886967392E+04  0.80419002446E+02 0. -1.
        -24    1    1    2    0    0  0.56998203917E+01  0.32350002170E+02 -0.73425126757E+02  0.11374302522E+03  0.80419002446E+02 0.  1.
<mgrwt>
<rscale>  0 0.86869019E+02</rscale>
<asrwt>0</asrwt>
<pdfrwt beam="1">  1        2 0.32020491E+00 0.86869019E+02</pdfrwt>
<pdfrwt beam="2">  1       -2 0.32473908E-02 0.86869019E+02</pdfrwt>
<totfact> 0.25494245E+03</totfact>
</mgrwt>
</event>
<event>
 4    3  0.8789582E-001  0.8177815E+02  0.7546771E-02  0.1324080E+00
         -1   -1    0    0    0  501 -0.00000000000E+00  0.00000000000E+00  0.13952426498E+03  0.13952426498E+03  0.00000000000E+00 0.  1.
          1   -1    0    0  501    0  0.00000000000E+00 -0.00000000000E+00 -0.53352890458E+02  0.53352890458E+02  0.00000000000E+00 0. -1.
         24    1    1    2    0    0  0.12588163585E+02  0.78732693518E+01  0.73826140065E+02  0.11017243368E+03  0.80419002446E+02 0.  1.
        -24    1    1    2    0    0 -0.12588163585E+02 -0.78732693518E+01  0.12345234460E+02  0.82704721758E+02  0.80419002446E+02 0.  0.
<mgrwt>
<rscale>  0 0.81778152E+02</rscale>
<asrwt>0</asrwt>
<pdfrwt beam="1">  1        1 0.82081371E-02 0.81778152E+02</pdfrwt>
<pdfrwt beam="2">  1       -1 0.21465271E-01 0.81778152E+02</pdfrwt>
<totfact> 0.13350215E+04</totfact>
</mgrwt>
</event>
<event>
 4    3  0.8789582E-001  0.8489191E+02  0.7546771E-02  0.1315715E+00
         -2   -1    0    0    0  501 -0.00000000000E+00  0.00000000000E+00  0.13510935968E+03  0.13510935968E+03  0.00000000000E+00 0.  1.
          2   -1    0    0  501    0  0.00000000000E+00 -0.00000000000E+00 -0.59583882257E+02  0.59583882257E+02  0.00000000000E+00 0. -1.
         24    1    1    2    0    0  0.17843995004E+02 -0.20518599134E+02  0.62483707211E+01  0.85121555197E+02  0.80419002446E+02 0.  0.
        -24    1    1    2    0    0 -0.17843995004E+02  0.20518599134E+02  0.69277106706E+02  0.10957168674E+03  0.80419002446E+02 0.  0.
<mgrwt>
<rscale>  0 0.84891914E+02</rscale>
<asrwt>0</asrwt>
<pdfrwt beam="1">  1        2 0.91667512E-02 0.84891914E+02</pdfrwt>
<pdfrwt beam="2">  1       -2 0.20786055E-01 0.84891914E+02</pdfrwt>
<totfact> 0.12518844E+04</totfact>
</mgrwt>
</event>
<event>
 4    3  0.8789582E-001  0.1049091E+03  0.7546771E-02  0.1270299E+00
          2   -1    0    0  501    0  0.00000000000E+00  0.00000000000E+00  0.24593232933E+03  0.24593232933E+03  0.00000000000E+00 0. -1.
         -2   -1    0    0    0  501 -0.00000000000E+00 -0.00000000000E+00 -0.63478378728E+02  0.63478378728E+02  0.00000000000E+00 0.  1.
         24    1    1    2    0    0 -0.37763438887E+02  0.55790877443E+02  0.17525450784E+03  0.20425488438E+03  0.80419002446E+02 0. -1.
        -24    1    1    2    0    0  0.37763438887E+02 -0.55790877443E+02  0.71994427646E+01  0.10515582368E+03  0.80419002446E+02 0.  1.
<mgrwt>
<rscale>  0 0.10490908E+03</rscale>
<asrwt>0</asrwt>
<pdfrwt beam="1">  1        2 0.37835742E-01 0.10490908E+03</pdfrwt>
<pdfrwt beam="2">  1       -2 0.97659046E-02 0.10490908E+03</pdfrwt>
<totfact> 0.86872903E+03</totfact>
</mgrwt>
</event>
<event>
 4    3  0.8789582E-001  0.9157288E+02  0.7546771E-02  0.1299087E+00
          1   -1    0    0  501    0  0.00000000000E+00  0.00000000000E+00  0.55943514807E+03  0.55943514807E+03  0.00000000000E+00 0. -1.
         -1   -1    0    0    0  501 -0.00000000000E+00 -0.00000000000E+00 -0.18434506244E+02  0.18434506244E+02  0.00000000000E+00 0.  1.
         24    1    1    2    0    0 -0.37074668664E+02 -0.23320502553E+02  0.14559356204E+03  0.17199732020E+03  0.80419002446E+02 0.  1.
        -24    1    1    2    0    0  0.37074668664E+02  0.23320502553E+02  0.39540707979E+03  0.40587233411E+03  0.80419002446E+02 0. -1.
<mgrwt>
<rscale>  0 0.91572883E+02</rscale>
<asrwt>0</asrwt>
<pdfrwt beam="1">  1        1 0.86066933E-01 0.91572883E+02</pdfrwt>
<pdfrwt beam="2">  1       -1 0.28360783E-02 0.91572883E+02</pdfrwt>
<totfact> 0.14563341E+04</totfact>
</mgrwt>
</event>
<event>
 4    3  0.8789582E-001  0.1093439E+03  0.7546771E-02  0.1261790E+00
          4   -1    0    0  501    0  0.00000000000E+00  0.00000000000E+00  0.13384339927E+04  0.13384339927E+04  0.00000000000E+00 0. -1.
         -4   -1    0    0    0  501 -0.00000000000E+00 -0.00000000000E+00 -0.19774042897E+02  0.19774042897E+02  0.00000000000E+00 0.  1.
         24    1    1    2    0    0  0.68955150367E+02  0.27093464684E+02  0.11621658846E+04  0.11672984313E+04  0.80419002446E+02 0. -1.
        -24    1    1    2    0    0 -0.68955150367E+02 -0.27093464684E+02  0.15649406523E+03  0.19090960425E+03  0.80419002446E+02 0.  1.
<mgrwt>
<rscale>  0 0.10934388E+03</rscale>
<asrwt>0</asrwt>
<pdfrwt beam="1">  1        4 0.20591285E+00 0.10934388E+03</pdfrwt>
<pdfrwt beam="2">  1       -4 0.30421615E-02 0.10934388E+03</pdfrwt>
<totfact> 0.11528460E+02</totfact>
</mgrwt>
</event>
<event>
 4    3  0.8789582E-001  0.8196390E+02  0.7546771E-02  0.1323569E+00
         -1   -1    0    0    0  501 -0.00000000000E+00  0.00000000000E+00  0.52150760515E+03  0.52150760515E+03  0.00000000000E+00 0.  1.
          1   -1    0    0  501    0  0.00000000000E+00 -0.00000000000E+00 -0.16872249815E+02  0.16872249815E+02  0.00000000000E+00 0. -1.
         24    1    1    2    0    0 -0.14147164187E+02 -0.71217920445E+01  0.12140836000E+03  0.14648572630E+03  0.80419002446E+02 0.  1.
        -24    1    1    2    0    0  0.14147164187E+02  0.71217920445E+01  0.38322699534E+03  0.39189412867E+03  0.80419002446E+02 0.  0.
<mgrwt>
<rscale>  0 0.81963893E+02</rscale>
<asrwt>0</asrwt>
<pdfrwt beam="1">  1        1 0.25957311E-02 0.81963904E+02</pdfrwt>
<pdfrwt beam="2">  1       -1 0.80231927E-01 0.81963904E+02</pdfrwt>
<totfact> 0.61682841E+03</totfact>
</mgrwt>
</event>
<event>
 4    3  0.8789582E-001  0.8460289E+02  0.7546771E-02  0.1316474E+00
          2   -1    0    0  501    0  0.00000000000E+00  0.00000000000E+00  0.34425235343E+03  0.34425235343E+03  0.00000000000E+00 0. -1.
         -2   -1    0    0    0  501 -0.00000000000E+00 -0.00000000000E+00 -0.23434180366E+02  0.23434180366E+02  0.00000000000E+00 0.  1.
         24    1    1    2    0    0  0.21184035657E+02 -0.15545603997E+02  0.98676287932E+02  0.12997944039E+03  0.80419002446E+02 0. -1.
        -24    1    1    2    0    0 -0.21184035657E+02  0.15545603997E+02  0.22214188514E+03  0.23770709341E+03  0.80419002446E+02 0. -1.
<mgrwt>
<rscale>  0 0.84602878E+02</rscale>
<asrwt>0</asrwt>
<pdfrwt beam="1">  1        2 0.52961897E-01 0.84602888E+02</pdfrwt>
<pdfrwt beam="2">  1       -2 0.36052588E-02 0.84602888E+02</pdfrwt>
<totfact> 0.26763374E+04</totfact>
</mgrwt>
</event>
<event>
 4    3  0.8789582E-001  0.1041231E+03  0.7546771E-02  0.1271857E+00
         -4   -1    0    0    0  501 -0.00000000000E+00  0.00000000000E+00  0.88628790659E+02  0.88628790659E+02  0.00000000000E+00 0.  1.
          4   -1    0    0  501    0  0.00000000000E+00 -0.00000000000E+00 -0.14113672662E+03  0.14113672662E+03  0.00000000000E+00 0. -1.
         24    1    1    2    0    0 -0.59916655809E+02  0.28007242074E+02 -0.68194582240E+02  0.12446737827E+03  0.80419002446E+02 0. -1.
        -24    1    1    2    0    0  0.59916655809E+02 -0.28007242074E+02  0.15686646284E+02  0.10529813901E+03  0.80419002446E+02 0.  1.
<mgrwt>
<rscale>  0 0.10412313E+03</rscale>
<asrwt>0</asrwt>
<pdfrwt beam="1">  1        4 0.21713343E-01 0.10412313E+03</pdfrwt>
<pdfrwt beam="2">  1       -4 0.13635199E-01 0.10412313E+03</pdfrwt>
<totfact> 0.13412701E+03</totfact>
</mgrwt>
</event>
<event>
 4    3  0.8789582E-001  0.8745965E+02  0.7546771E-02  0.1309123E+00
          2   -1    0    0  501    0  0.00000000000E+00  0.00000000000E+00  0.10968776656E+04  0.10968776656E+04  0.00000000000E+00 0. -1.
         -2   -1    0    0    0  501 -0.00000000000E+00 -0.00000000000E+00 -0.76630741622E+01  0.76630741622E+01  0.00000000000E+00 0.  1.
         24    1    1    2    0    0  0.72732163271E+01  0.33601696493E+02  0.71026369154E+03  0.71562818639E+03  0.80419002446E+02 0. -1.
        -24    1    1    2    0    0 -0.72732163271E+01 -0.33601696493E+02  0.37895089995E+03  0.38891255342E+03  0.80419002446E+02 0. -1.
<mgrwt>
<rscale>  0 0.87459646E+02</rscale>
<asrwt>0</asrwt>
<pdfrwt beam="1">  1        2 0.16875029E+00 0.87459646E+02</pdfrwt>
<pdfrwt beam="2">  1       -2 0.11789354E-02 0.87459646E+02</pdfrwt>
<totfact> 0.34994555E+04</totfact>
</mgrwt>
</event>
<event>
 4    3  0.8789582E-001  0.9138988E+02  0.7546771E-02  0.1299520E+00
         -4   -1    0    0    0  501 -0.00000000000E+00  0.00000000000E+00  0.13731648352E+04  0.13731648352E+04  0.00000000000E+00 0.  1.
          4   -1    0    0  501    0  0.00000000000E+00 -0.00000000000E+00 -0.61614129963E+01  0.61614129963E+01  0.00000000000E+00 0. -1.
         24    1    1    2    0    0  0.42886550470E+02  0.67555744326E+01  0.60539257651E+03  0.61225181229E+03  0.80419002446E+02 0. -1.
        -24    1    1    2    0    0 -0.42886550470E+02 -0.67555744326E+01  0.76161084565E+03  0.76707443587E+03  0.80419002446E+02 0.  1.
<mgrwt>
<rscale>  0 0.91389879E+02</rscale>
<asrwt>0</asrwt>
<pdfrwt beam="1">  1        4 0.94791078E-03 0.91389879E+02</pdfrwt>
<pdfrwt beam="2">  1       -4 0.21125589E+00 0.91389879E+02</pdfrwt>
<totfact> 0.61149127E+02</totfact>
</mgrwt>
</event>
<event>
 4    3  0.8789582E-001  0.8116356E+02  0.7546771E-02  0.1325781E+00
         -1   -1    0    0    0  501 -0.00000000000E+00  0.00000000000E+00  0.64913909525E+01  0.64913909525E+01  0.00000000000E+00 0.  1.
          1   -1    0    0  501    0  0.00000000000E+00 -0.00000000000E+00 -0.10394099816E+04  0.10394099816E+04  0.00000000000E+00 0. -1.
         24    1    1    2    0    0  0.35413388930E+01 -0.10381029489E+02 -0.43600627351E+03  0.44349632845E+03  0.80419002446E+02 0.  1.
        -24    1    1    2    0    0 -0.35413388930E+01  0.10381029489E+02 -0.59691231710E+03  0.60240504407E+03  0.80419002446E+02 0. -1.
<mgrwt>
<rscale>  0 0.81163556E+02</rscale>
<asrwt>0</asrwt>
<pdfrwt beam="1">  1        1 0.15990927E+00 0.81163556E+02</pdfrwt>
<pdfrwt beam="2">  1       -1 0.99867529E-03 0.81163556E+02</pdfrwt>
<totfact> 0.25561333E+04</totfact>
</mgrwt>
</event>
<event>
 4    3  0.8789582E-001  0.8544008E+02  0.7546771E-02  0.1314286E+00
         -2   -1    0    0    0  501 -0.00000000000E+00  0.00000000000E+00  0.42992763367E+01  0.42992763367E+01  0.00000000000E+00 0.  1.
          2   -1    0    0  501    0  0.00000000000E+00 -0.00000000000E+00 -0.19672084748E+04  0.19672084748E+04  0.00000000000E+00 0. -1.
         24    1    1    2    0    0  0.60777257586E+01 -0.28210866198E+02 -0.13461399723E+04  0.13488487063E+04  0.80419002446E+02 0.  1.
        -24    1    1    2    0    0 -0.60777257586E+01  0.28210866198E+02 -0.61676922616E+03  0.62265904476E+03  0.80419002446E+02 0.  1.
<mgrwt>
<rscale>  0 0.85440082E+02</rscale>
<asrwt>0</asrwt>
<pdfrwt beam="1">  1        2 0.30264842E+00 0.85440082E+02</pdfrwt>
<pdfrwt beam="2">  1       -2 0.66142503E-03 0.85440082E+02</pdfrwt>
<totfact> 0.28104802E+04</totfact>
</mgrwt>
</event>
<event>
 4    3  0.8789582E-001  0.8571134E+02  0.7546771E-02  0.1313583E+00
          2   -1    0    0  501    0  0.00000000000E+00  0.00000000000E+00  0.59765091096E+03  0.59765091096E+03  0.00000000000E+00 0. -1.
         -2   -1    0    0    0  501 -0.00000000000E+00 -0.00000000000E+00 -0.15245763345E+02  0.15245763345E+02  0.00000000000E+00 0.  1.
         24    1    1    2    0    0 -0.42892765887E+01  0.29339747067E+02  0.42608552121E+03  0.43462087615E+03  0.80419002446E+02 0. -1.
        -24    1    1    2    0    0  0.42892765887E+01 -0.29339747067E+02  0.15631962640E+03  0.17827579815E+03  0.80419002446E+02 0.  1.
<mgrwt>
<rscale>  0 0.85711345E+02</rscale>
<asrwt>0</asrwt>
<pdfrwt beam="1">  1        2 0.91946276E-01 0.85711345E+02</pdfrwt>
<pdfrwt beam="2">  1       -2 0.23455025E-02 0.85711345E+02</pdfrwt>
<totfact> 0.27727731E+04</totfact>
</mgrwt>
</event>
<event>
 4    3  0.8789582E-001  0.9984649E+02  0.7546771E-02  0.1280619E+00
          4   -1    0    0  501    0  0.00000000000E+00  0.00000000000E+00  0.43430756968E+03  0.43430756968E+03  0.00000000000E+00 0. -1.
         -4   -1    0    0    0  501 -0.00000000000E+00 -0.00000000000E+00 -0.28687500044E+02  0.28687500044E+02  0.00000000000E+00 0.  1.
         24    1    1    2    0    0  0.59065391781E+02  0.36585981554E+01  0.30629809188E+03  0.32216120637E+03  0.80419002446E+02 0. -1.
        -24    1    1    2    0    0 -0.59065391781E+02 -0.36585981554E+01  0.99321977749E+02  0.14083386335E+03  0.80419002446E+02 0.  1.
<mgrwt>
<rscale>  0 0.99846491E+02</rscale>
<asrwt>0</asrwt>
<pdfrwt beam="1">  1        4 0.66816545E-01 0.99846491E+02</pdfrwt>
<pdfrwt beam="2">  1       -4 0.44134619E-02 0.99846491E+02</pdfrwt>
<totfact> 0.95061979E+02</totfact>
</mgrwt>
</event>
<event>
 4    3  0.8789582E-001  0.8322476E+02  0.7546771E-02  0.1320141E+00
          2   -1    0    0  501    0  0.00000000000E+00  0.00000000000E+00  0.19391906034E+04  0.19391906034E+04  0.00000000000E+00 0. -1.
         -2   -1    0    0    0  501 -0.00000000000E+00 -0.00000000000E+00 -0.42664922142E+01  0.42664922142E+01  0.00000000000E+00 0.  1.
         24    1    1    2    0    0 -0.20068854673E+02  0.75088675399E+01  0.57534779819E+03  0.58133591568E+03  0.80419002446E+02 0.  1.
        -24    1    1    2    0    0  0.20068854673E+02 -0.75088675399E+01  0.13595763130E+04  0.13621211799E+04  0.80419002446E+02 0.  0.
<mgrwt>
<rscale>  0 0.83224754E+02</rscale>
<asrwt>0</asrwt>
<pdfrwt beam="1">  1        2 0.29833631E+00 0.83224765E+02</pdfrwt>
<pdfrwt beam="2">  1       -2 0.65638496E-03 0.83224765E+02</pdfrwt>
<totfact> 0.29283970E+04</totfact>
</mgrwt>
</event>
<event>
 4    3  0.8789582E-001  0.9575223E+02  0.7546771E-02  0.1289491E+00
         -2   -1    0    0    0  501 -0.00000000000E+00  0.00000000000E+00  0.47361270033E+02  0.47361270033E+02  0.00000000000E+00 0.  1.
          2   -1    0    0  501    0  0.00000000000E+00 -0.00000000000E+00 -0.19436053499E+03  0.19436053499E+03  0.00000000000E+00 0. -1.
         24    1    1    2    0    0  0.51122564921E+02  0.93679147929E+01 -0.81128034988E+02  0.12549999397E+03  0.80419002446E+02 0.  0.
        -24    1    1    2    0    0 -0.51122564921E+02 -0.93679147929E+01 -0.65871229966E+02  0.11622181105E+03  0.80419002446E+02 0. -1.
<mgrwt>
<rscale>  0 0.95752235E+02</rscale>
<asrwt>0</asrwt>
<pdfrwt beam="1">  1        2 0.29901620E-01 0.95752235E+02</pdfrwt>
<pdfrwt beam="2">  1       -2 0.72863493E-02 0.95752235E+02</pdfrwt>
<totfact> 0.17366120E+04</totfact>
</mgrwt>
</event>
<event>
 4    3  0.8789582E-001  0.8472811E+02  0.7546771E-02  0.1316145E+00
          1   -1    0    0  501    0  0.00000000000E+00  0.00000000000E+00  0.43178158303E+03  0.43178158303E+03  0.00000000000E+00 0. -1.
         -1   -1    0    0    0  501 -0.00000000000E+00 -0.00000000000E+00 -0.18065104934E+02  0.18065104934E+02  0.00000000000E+00 0.  1.
         24    1    1    2    0    0 -0.24268778979E+02  0.11075360657E+02  0.14337747643E+03  0.16654114791E+03  0.80419002446E+02 0.  1.
        -24    1    1    2    0    0  0.24268778979E+02 -0.11075360657E+02  0.27033900167E+03  0.28330554005E+03  0.80419002446E+02 0. -1.
<mgrwt>
<rscale>  0 0.84728113E+02</rscale>
<asrwt>0</asrwt>
<pdfrwt beam="1">  1        1 0.66427928E-01 0.84728113E+02</pdfrwt>
<pdfrwt beam="2">  1       -1 0.27792472E-02 0.84728113E+02</pdfrwt>
<totfact> 0.20728588E+04</totfact>
</mgrwt>
</event>
<event>
 4    3  0.8789582E-001  0.8513685E+02  0.7546771E-02  0.1315075E+00
         -1   -1    0    0    0  501 -0.00000000000E+00  0.00000000000E+00  0.10689739316E+03  0.10689739316E+03  0.00000000000E+00 0.  1.
          1   -1    0    0  501    0  0.00000000000E+00 -0.00000000000E+00 -0.76192466235E+02  0.76192466235E+02  0.00000000000E+00 0. -1.
         24    1    1    2    0    0  0.15532766639E+02  0.23233593935E+02  0.45724104326E+02  0.96638379526E+02  0.80419002446E+02 0.  1.
        -24    1    1    2    0    0 -0.15532766639E+02 -0.23233593935E+02 -0.15019177405E+02  0.86451479865E+02  0.80419002446E+02 0. -1.
<mgrwt>
<rscale>  0 0.85136847E+02</rscale>
<asrwt>0</asrwt>
<pdfrwt beam="1">  1        1 0.11721918E-01 0.85136847E+02</pdfrwt>
<pdfrwt beam="2">  1       -1 0.16445753E-01 0.85136847E+02</pdfrwt>
<totfact> 0.12803738E+04</totfact>
</mgrwt>
</event>
<event>
 4    3  0.8789582E-001  0.8783012E+02  0.7546771E-02  0.1308193E+00
         -2   -1    0    0    0  501 -0.00000000000E+00  0.00000000000E+00  0.10884502181E+02  0.10884502181E+02  0.00000000000E+00 0.  1.
          2   -1    0    0  501    0  0.00000000000E+00 -0.00000000000E+00 -0.71148055767E+03  0.71148055767E+03  0.00000000000E+00 0. -1.
         24    1    1    2    0    0 -0.14335419065E+02  0.32270885872E+02 -0.37277133432E+03  0.38297858681E+03  0.80419002446E+02 0. -1.
        -24    1    1    2    0    0  0.14335419065E+02 -0.32270885872E+02 -0.32782472117E+03  0.33938647304E+03  0.80419002446E+02 0.  1.
<mgrwt>
<rscale>  0 0.87830122E+02</rscale>
<asrwt>0</asrwt>
<pdfrwt beam="1">  1        2 0.10945857E+00 0.87830122E+02</pdfrwt>
<pdfrwt beam="2">  1       -2 0.16745384E-02 0.87830122E+02</pdfrwt>
<totfact> 0.36945022E+04</totfact>
</mgrwt>
</event>
<event>
 4    3  0.8789582E-001  0.8950736E+02  0.7546771E-02  0.1304049E+00
          1   -1    0    0  501    0  0.00000000000E+00  0.00000000000E+00  0.20694353621E+02  0.20694353621E+02  0.00000000000E+00 0. -1.
         -1   -1    0    0    0  501 -0.00000000000E+00 -0.00000000000E+00 -0.47677262384E+03  0.47677262384E+03  0.00000000000E+00 0.  1.
         24    1    1    2    0    0  0.33429378689E+02  0.20659807159E+02 -0.33588833872E+03  0.34760975682E+03  0.80419002446E+02 0.  0.
        -24    1    1    2    0    0 -0.33429378689E+02 -0.20659807159E+02 -0.12018993150E+03  0.14985722064E+03  0.80419002446E+02 0.  0.
<mgrwt>
<rscale>  0 0.89507357E+02</rscale>
<asrwt>0</asrwt>
<pdfrwt beam="1">  1        1 0.31837470E-02 0.89507357E+02</pdfrwt>
<pdfrwt beam="2">  1       -1 0.73349628E-01 0.89507357E+02</pdfrwt>
<totfact> 0.56260674E+03</totfact>
</mgrwt>
</event>
<event>
 4    3  0.8789582E-001  0.9307566E+02  0.7546771E-02  0.1295570E+00
         -2   -1    0    0    0  501 -0.00000000000E+00  0.00000000000E+00  0.62672500957E+02  0.62672500957E+02  0.00000000000E+00 0.  1.
          2   -1    0    0  501    0  0.00000000000E+00 -0.00000000000E+00 -0.25460685837E+03  0.25460685837E+03  0.00000000000E+00 0. -1.
         24    1    1    2    0    0  0.46613481976E+02  0.48006961149E+01 -0.20322136979E+03  0.22352182103E+03  0.80419002446E+02 0. -1.
        -24    1    1    2    0    0 -0.46613481976E+02 -0.48006961149E+01  0.11287012371E+02  0.93757538298E+02  0.80419002446E+02 0.  1.
<mgrwt>
<rscale>  0 0.93075665E+02</rscale>
<asrwt>0</asrwt>
<pdfrwt beam="1">  1        2 0.39170286E-01 0.93075665E+02</pdfrwt>
<pdfrwt beam="2">  1       -2 0.96419232E-02 0.93075665E+02</pdfrwt>
<totfact> 0.84612637E+03</totfact>
</mgrwt>
</event>
<event>
 4    3  0.8789582E-001  0.8048498E+02  0.7546771E-02  0.1327681E+00
         -2   -1    0    0    0  501 -0.00000000000E+00  0.00000000000E+00  0.16440940737E+02  0.16440940737E+02  0.00000000000E+00 0.  1.
          2   -1    0    0  501    0  0.00000000000E+00 -0.00000000000E+00 -0.71057632694E+03  0.71057632694E+03  0.00000000000E+00 0. -1.
         24    1    1    2    0    0 -0.32356284719E+01 -0.38355670164E+00 -0.58969760332E+03  0.59516476351E+03  0.80419002446E+02 0. -1.
        -24    1    1    2    0    0  0.32356284719E+01  0.38355670164E+00 -0.10443778288E+03  0.13185250416E+03  0.80419002446E+02 0.  0.
<mgrwt>
<rscale>  0 0.80484982E+02</rscale>
<asrwt>0</asrwt>
<pdfrwt beam="1">  1        2 0.10931946E+00 0.80484982E+02</pdfrwt>
<pdfrwt beam="2">  1       -2 0.25293748E-02 0.80484982E+02</pdfrwt>
<totfact> 0.20290297E+04</totfact>
</mgrwt>
</event>
<event>
 4    3  0.8789582E-001  0.8858503E+02  0.7546771E-02  0.1306315E+00
         -1   -1    0    0    0  501 -0.00000000000E+00  0.00000000000E+00  0.72369671955E+01  0.72369671955E+01  0.00000000000E+00 0.  1.
          1   -1    0    0  501    0  0.00000000000E+00 -0.00000000000E+00 -0.20486339111E+04  0.20486339111E+04  0.00000000000E+00 0. -1.
         24    1    1    2    0    0  0.26793334226E+02 -0.25733422939E+02 -0.31545486493E+03  0.32765695411E+03  0.80419002446E+02 0.  1.
        -24    1    1    2    0    0 -0.26793334226E+02  0.25733422939E+02 -0.17259420790E+04  0.17282139242E+04  0.80419002446E+02 0. -1.
<mgrwt>
<rscale>  0 0.88585031E+02</rscale>
<asrwt>0</asrwt>
<pdfrwt beam="1">  1        1 0.31517459E+00 0.88585031E+02</pdfrwt>
<pdfrwt beam="2">  1       -1 0.11133791E-02 0.88585031E+02</pdfrwt>
<totfact> 0.49388632E+03</totfact>
</mgrwt>
</event>
<event>
 4    3  0.8789582E-001  0.9444964E+02  0.7546771E-02  0.1292420E+00
          2   -1    0    0  501    0  0.00000000000E+00  0.00000000000E+00  0.39930190060E+02  0.39930190060E+02  0.00000000000E+00 0. -1.
         -2   -1    0    0    0  501 -0.00000000000E+00 -0.00000000000E+00 -0.22537194217E+03  0.22537194217E+03  0.00000000000E+00 0.  1.
         24    1    1    2    0    0 -0.48700649767E+02  0.90421982239E+01 -0.10510332777E+03  0.14130619271E+03  0.80419002446E+02 0.  1.
        -24    1    1    2    0    0  0.48700649767E+02 -0.90421982239E+01 -0.80338424336E+02  0.12399593951E+03  0.80419002446E+02 0. -1.
<mgrwt>
<rscale>  0 0.94449631E+02</rscale>
<asrwt>0</asrwt>
<pdfrwt beam="1">  1        2 0.61431061E-02 0.94449643E+02</pdfrwt>
<pdfrwt beam="2">  1       -2 0.34672607E-01 0.94449643E+02</pdfrwt>
<totfact> 0.85083342E+03</totfact>
</mgrwt>
</event>
<event>
 4    3  0.8789582E-001  0.8624582E+02  0.7546771E-02  0.1312206E+00
         -2   -1    0    0    0  501 -0.00000000000E+00  0.00000000000E+00  0.42180375996E+01  0.42180375996E+01  0.00000000000E+00 0.  1.
          2   -1    0    0  501    0  0.00000000000E+00 -0.00000000000E+00 -0.19146838159E+04  0.19146838159E+04  0.00000000000E+00 0. -1.
         24    1    1    2    0    0  0.29638835777E+02  0.96263038887E+01 -0.12248725407E+04  0.12279051605E+04  0.80419002446E+02 0.  0.
        -24    1    1    2    0    0 -0.29638835777E+02 -0.96263038887E+01 -0.68559323759E+03  0.69099669297E+03  0.80419002446E+02 0.  0.
<mgrwt>
<rscale>  0 0.86245825E+02</rscale>
<asrwt>0</asrwt>
<pdfrwt beam="1">  1        2 0.29456721E+00 0.86245825E+02</pdfrwt>
<pdfrwt beam="2">  1       -2 0.64892783E-03 0.86245825E+02</pdfrwt>
<totfact> 0.30689856E+04</totfact>
</mgrwt>
</event>
<event>
 4    3  0.8789582E-001  0.1197375E+03  0.7546771E-02  0.1243531E+00
          1   -1    0    0  501    0  0.00000000000E+00  0.00000000000E+00  0.13500911866E+02  0.13500911866E+02  0.00000000000E+00 0. -1.
         -1   -1    0    0    0  501 -0.00000000000E+00 -0.00000000000E+00 -0.10875146581E+04  0.10875146581E+04  0.00000000000E+00 0.  1.
         24    1    1    2    0    0 -0.88698343719E+02 -0.15664777665E+01 -0.62143922790E+03  0.63286948098E+03  0.80419002446E+02 0.  1.
        -24    1    1    2    0    0  0.88698343719E+02  0.15664777665E+01 -0.45257451830E+03  0.46814608895E+03  0.80419002446E+02 0.  0.
<mgrwt>
<rscale>  0 0.11973749E+03</rscale>
<asrwt>0</asrwt>
<pdfrwt beam="1">  1        1 0.20770620E-02 0.11973749E+03</pdfrwt>
<pdfrwt beam="2">  1       -1 0.16731006E+00 0.11973749E+03</pdfrwt>
<totfact> 0.15613697E+03</totfact>
</mgrwt>
</event>
<event>
 4    3  0.8789582E-001  0.8221466E+02  0.7546771E-02  0.1322881E+00
         -2   -1    0    0    0  501 -0.00000000000E+00  0.00000000000E+00  0.55151187628E+01  0.55151187628E+01  0.00000000000E+00 0.  1.
          2   -1    0    0  501    0  0.00000000000E+00 -0.00000000000E+00 -0.13060720976E+04  0.13060720976E+04  0.00000000000E+00 0. -1.
         24    1    1    2    0    0  0.16166130616E+02  0.55399406441E+01 -0.81307491133E+03  0.81722093837E+03  0.80419002446E+02 0. -1.
        -24    1    1    2    0    0 -0.16166130616E+02 -0.55399406441E+01 -0.48748206754E+03  0.49436627802E+03  0.80419002446E+02 0.  1.
<mgrwt>
<rscale>  0 0.82214662E+02</rscale>
<asrwt>0</asrwt>
<pdfrwt beam="1">  1        2 0.20093445E+00 0.82214662E+02</pdfrwt>
<pdfrwt beam="2">  1       -2 0.84847864E-03 0.82214662E+02</pdfrwt>
<totfact> 0.42638108E+04</totfact>
</mgrwt>
</event>
<event>
 4    3  0.8789582E-001  0.2274891E+03  0.7546771E-02  0.1128420E+00
         -1   -1    0    0    0  501 -0.00000000000E+00  0.00000000000E+00  0.52051816140E+02  0.52051816140E+02  0.00000000000E+00 0.  1.
          1   -1    0    0  501    0  0.00000000000E+00 -0.00000000000E+00 -0.29102729398E+04  0.29102729398E+04  0.00000000000E+00 0. -1.
         24    1    1    2    0    0 -0.90205348607E+01 -0.21260925079E+03 -0.22729212860E+03  0.32157890362E+03  0.80419002446E+02 0.  1.
        -24    1    1    2    0    0  0.90205348607E+01  0.21260925079E+03 -0.26309289951E+04  0.26407458523E+04  0.80419002446E+02 0. -1.
<mgrwt>
<rscale>  0 0.22748908E+03</rscale>
<asrwt>0</asrwt>
<pdfrwt beam="1">  1        1 0.44773427E+00 0.22748908E+03</pdfrwt>
<pdfrwt beam="2">  1       -1 0.80079723E-02 0.22748908E+03</pdfrwt>
<totfact> 0.73085011E+01</totfact>
</mgrwt>
</event>
<event>
 4    3  0.8789582E-001  0.1128783E+03  0.7546771E-02  0.1255331E+00
          1   -1    0    0  501    0  0.00000000000E+00  0.00000000000E+00  0.88934359516E+03  0.88934359516E+03  0.00000000000E+00 0. -1.
         -1   -1    0    0    0  501 -0.00000000000E+00 -0.00000000000E+00 -0.19871664705E+02  0.19871664705E+02  0.00000000000E+00 0.  1.
         24    1    1    2    0    0  0.43154560548E+02 -0.66422682143E+02  0.19459703871E+03  0.22496558009E+03  0.80419002446E+02 0.  1.
        -24    1    1    2    0    0 -0.43154560548E+02  0.66422682143E+02  0.67487489175E+03  0.68424967977E+03  0.80419002446E+02 0. -1.
<mgrwt>
<rscale>  0 0.11287827E+03</rscale>
<asrwt>0</asrwt>
<pdfrwt beam="1">  1        1 0.13682206E+00 0.11287827E+03</pdfrwt>
<pdfrwt beam="2">  1       -1 0.30571799E-02 0.11287827E+03</pdfrwt>
<totfact> 0.68506703E+03</totfact>
</mgrwt>
</event>
<event>
 4    3  0.8789582E-001  0.8749070E+02  0.7546771E-02  0.1309045E+00
         -2   -1    0    0    0  501 -0.00000000000E+00  0.00000000000E+00  0.53850766625E+01  0.53850766625E+01  0.00000000000E+00 0.  1.
          2   -1    0    0  501    0  0.00000000000E+00 -0.00000000000E+00 -0.17458846134E+04  0.17458846134E+04  0.00000000000E+00 0. -1.
         24    1    1    2    0    0  0.32230637610E+02 -0.12189855454E+02 -0.12477160804E+04  0.12507797728E+04  0.80419002446E+02 0. -1.
        -24    1    1    2    0    0 -0.32230637610E+02  0.12189855454E+02 -0.49278345629E+03  0.50048991730E+03  0.80419002446E+02 0.  1.
<mgrwt>
<rscale>  0 0.87490700E+02</rscale>
<asrwt>0</asrwt>
<pdfrwt beam="1">  1        2 0.26859795E+00 0.87490700E+02</pdfrwt>
<pdfrwt beam="2">  1       -2 0.82847234E-03 0.87490700E+02</pdfrwt>
<totfact> 0.26464380E+04</totfact>
</mgrwt>
</event>
<event>
 4    3  0.8789582E-001  0.1448987E+03  0.7546771E-02  0.1206885E+00
         -2   -1    0    0    0  501 -0.00000000000E+00  0.00000000000E+00  0.90683917421E+02  0.90683917421E+02  0.00000000000E+00 0.  1.
          2   -1    0    0  501    0  0.00000000000E+00 -0.00000000000E+00 -0.30530418246E+03  0.30530418246E+03  0.00000000000E+00 0. -1.
         24    1    1    2    0    0  0.17221148846E+02  0.11929732008E+03 -0.20464117308E+03  0.25074617488E+03  0.80419002446E+02 0.  1.
        -24    1    1    2    0    0 -0.17221148846E+02 -0.11929732008E+03 -0.99790919642E+01  0.14524192500E+03  0.80419002446E+02 0. -1.
<mgrwt>
<rscale>  0 0.14489870E+03</rscale>
<asrwt>0</asrwt>
<pdfrwt beam="1">  1        2 0.46969874E-01 0.14489870E+03</pdfrwt>
<pdfrwt beam="2">  1       -2 0.13951372E-01 0.14489870E+03</pdfrwt>
<totfact> 0.40030266E+03</totfact>
</mgrwt>
</event>
<event>
 4    3  0.8789582E-001  0.1056439E+03  0.7546771E-02  0.1268856E+00
         -2   -1    0    0    0  501 -0.00000000000E+00  0.00000000000E+00  0.13241841947E+02  0.13241841947E+02  0.00000000000E+00 0.  1.
          2   -1    0    0  501    0  0.00000000000E+00 -0.00000000000E+00 -0.10475197627E+04  0.10475197627E+04  0.00000000000E+00 0. -1.
         24    1    1    2    0    0 -0.58809183678E+02  0.35141006840E+02 -0.75159118823E+03  0.75897953900E+03  0.80419002446E+02 0. -1.
        -24    1    1    2    0    0  0.58809183678E+02 -0.35141006840E+02 -0.28268673255E+03  0.30178206567E+03  0.80419002446E+02 0.  1.
<mgrwt>
<rscale>  0 0.10564387E+03</rscale>
<asrwt>0</asrwt>
<pdfrwt beam="1">  1        2 0.16115686E+00 0.10564387E+03</pdfrwt>
<pdfrwt beam="2">  1       -2 0.20372067E-02 0.10564387E+03</pdfrwt>
<totfact> 0.17360095E+04</totfact>
</mgrwt>
</event>
<event>
 4    3  0.8789582E-001  0.9823131E+02  0.7546771E-02  0.1284060E+00
         -2   -1    0    0    0  501 -0.00000000000E+00  0.00000000000E+00  0.11832721225E+03  0.11832721225E+03  0.00000000000E+00 0.  1.
          2   -1    0    0  501    0  0.00000000000E+00 -0.00000000000E+00 -0.97376647341E+02  0.97376647341E+02  0.00000000000E+00 0. -1.
         24    1    1    2    0    0 -0.54673445818E+02 -0.13891878494E+02  0.53958128237E+02  0.11207526722E+03  0.80419002446E+02 0.  1.
        -24    1    1    2    0    0  0.54673445818E+02  0.13891878494E+02 -0.33007563326E+02  0.10362859237E+03  0.80419002446E+02 0. -1.
<mgrwt>
<rscale>  0 0.98231300E+02</rscale>
<asrwt>0</asrwt>
<pdfrwt beam="1">  1        2 0.14981023E-01 0.98231312E+02</pdfrwt>
<pdfrwt beam="2">  1       -2 0.18204186E-01 0.98231312E+02</pdfrwt>
<totfact> 0.88306139E+03</totfact>
</mgrwt>
</event>
<event>
 4    3  0.8789582E-001  0.1140688E+03  0.7546771E-02  0.1253215E+00
         -2   -1    0    0    0  501 -0.00000000000E+00  0.00000000000E+00  0.61573698592E+02  0.61573698592E+02  0.00000000000E+00 0.  1.
          2   -1    0    0  501    0  0.00000000000E+00 -0.00000000000E+00 -0.49870721647E+03  0.49870721647E+03  0.00000000000E+00 0. -1.
         24    1    1    2    0    0  0.48690122673E+01  0.80751300767E+02 -0.43122755936E+03  0.44605930521E+03  0.80419002446E+02 0. -1.
        -24    1    1    2    0    0 -0.48690122673E+01 -0.80751300767E+02 -0.59059585110E+01  0.11422160985E+03  0.80419002446E+02 0.  1.
<mgrwt>
<rscale>  0 0.11406882E+03</rscale>
<asrwt>0</asrwt>
<pdfrwt beam="1">  1        2 0.76724186E-01 0.11406882E+03</pdfrwt>
<pdfrwt beam="2">  1       -2 0.94728769E-02 0.11406882E+03</pdfrwt>
<totfact> 0.43293536E+03</totfact>
</mgrwt>
</event>
<event>
 4    3  0.8789582E-001  0.1217251E+03  0.7546771E-02  0.1240278E+00
          3   -1    0    0  501    0  0.00000000000E+00  0.00000000000E+00  0.24030297589E+03  0.24030297589E+03  0.00000000000E+00 0. -1.
         -3   -1    0    0    0  501 -0.00000000000E+00 -0.00000000000E+00 -0.18458808803E+03  0.18458808803E+03  0.00000000000E+00 0.  1.
         24    1    1    2    0    0 -0.83746703617E+02 -0.36555240243E+02 -0.14551171445E+03  0.18971207382E+03  0.80419002446E+02 0.  1.
        -24    1    1    2    0    0  0.83746703617E+02  0.36555240243E+02  0.20122660230E+03  0.23517899010E+03  0.80419002446E+02 0. -1.
<mgrwt>
<rscale>  0 0.12172515E+03</rscale>
<asrwt>0</asrwt>
<pdfrwt beam="1">  1        3 0.36969689E-01 0.12172515E+03</pdfrwt>
<pdfrwt beam="2">  1       -3 0.28398167E-01 0.12172515E+03</pdfrwt>
<totfact> 0.19825091E+02</totfact>
</mgrwt>
</event>
<event>
 4    3  0.8789582E-001  0.1011710E+03  0.7546771E-02  0.1277853E+00
          2   -1    0    0  501    0  0.00000000000E+00  0.00000000000E+00  0.15900877618E+04  0.15900877618E+04  0.00000000000E+00 0. -1.
         -2   -1    0    0    0  501 -0.00000000000E+00 -0.00000000000E+00 -0.79324642432E+01  0.79324642432E+01  0.00000000000E+00 0.  1.
         24    1    1    2    0    0 -0.36696104543E+02 -0.49211219052E+02  0.11379908126E+04  0.11424791699E+04  0.80419002446E+02 0. -1.
        -24    1    1    2    0    0  0.36696104543E+02  0.49211219052E+02  0.44416448498E+03  0.45554105616E+03  0.80419002446E+02 0.  1.
<mgrwt>
<rscale>  0 0.10117096E+03</rscale>
<asrwt>0</asrwt>
<pdfrwt beam="1">  1        2 0.24462863E+00 0.10117096E+03</pdfrwt>
<pdfrwt beam="2">  1       -2 0.12203804E-02 0.10117096E+03</pdfrwt>
<totfact> 0.18504500E+04</totfact>
</mgrwt>
</event>
<event>
 4    3  0.8789582E-001  0.1128233E+03  0.7546771E-02  0.1255429E+00
         -2   -1    0    0    0  501 -0.00000000000E+00  0.00000000000E+00  0.14040051236E+02  0.14040051236E+02  0.00000000000E+00 0.  1.
          2   -1    0    0  501    0  0.00000000000E+00 -0.00000000000E+00 -0.21630054147E+04  0.21630054147E+04  0.00000000000E+00 0. -1.
         24    1    1    2    0    0 -0.17492931951E+02  0.77174387133E+02 -0.19040826889E+04  0.19074223420E+04  0.80419002446E+02 0. -1.
        -24    1    1    2    0    0  0.17492931951E+02 -0.77174387133E+02 -0.24488267458E+03  0.26962312393E+03  0.80419002446E+02 0.  1.
<mgrwt>
<rscale>  0 0.11282333E+03</rscale>
<asrwt>0</asrwt>
<pdfrwt beam="1">  1        2 0.33276984E+00 0.11282333E+03</pdfrwt>
<pdfrwt beam="2">  1       -2 0.21600093E-02 0.11282333E+03</pdfrwt>
<totfact> 0.41935284E+03</totfact>
</mgrwt>
</event>
<event>
 4    3  0.8789582E-001  0.8130026E+02  0.7546771E-02  0.1325401E+00
         -2   -1    0    0    0  501 -0.00000000000E+00  0.00000000000E+00  0.17883276191E+02  0.17883276191E+02  0.00000000000E+00 0.  1.
          2   -1    0    0  501    0  0.00000000000E+00 -0.00000000000E+00 -0.25107202845E+04  0.25107202845E+04  0.00000000000E+00 0. -1.
         24    1    1    2    0    0 -0.10879804365E+02  0.49138019909E+01 -0.24139583327E+04  0.24153270097E+04  0.80419002446E+02 0. -1.
        -24    1    1    2    0    0  0.10879804365E+02 -0.49138019909E+01 -0.78878675580E+02  0.11327655101E+03  0.80419002446E+02 0.  1.
<mgrwt>
<rscale>  0 0.81300256E+02</rscale>
<asrwt>0</asrwt>
<pdfrwt beam="1">  1        2 0.38626445E+00 0.81300256E+02</pdfrwt>
<pdfrwt beam="2">  1       -2 0.27512747E-02 0.81300256E+02</pdfrwt>
<totfact> 0.19556829E+03</totfact>
</mgrwt>
</event>
<event>
 4    3  0.8789582E-001  0.8923244E+02  0.7546771E-02  0.1304721E+00
          2   -1    0    0  501    0  0.00000000000E+00  0.00000000000E+00  0.19913599412E+04  0.19913599412E+04  0.00000000000E+00 0. -1.
         -2   -1    0    0    0  501 -0.00000000000E+00 -0.00000000000E+00 -0.44935479747E+01  0.44935479747E+01  0.00000000000E+00 0.  1.
         24    1    1    2    0    0  0.57679094833E+01 -0.38235363155E+02  0.13246658322E+04  0.13276678782E+04  0.80419002446E+02 0. -1.
        -24    1    1    2    0    0 -0.57679094833E+01  0.38235363155E+02  0.66220056102E+03  0.66818561099E+03  0.80419002446E+02 0.  1.
<mgrwt>
<rscale>  0 0.89232437E+02</rscale>
<asrwt>0</asrwt>
<pdfrwt beam="1">  1        2 0.30636236E+00 0.89232437E+02</pdfrwt>
<pdfrwt beam="2">  1       -2 0.69131666E-03 0.89232437E+02</pdfrwt>
<totfact> 0.25763025E+04</totfact>
</mgrwt>
</event>
<event>
 4    3  0.8789582E-001  0.1001550E+03  0.7546771E-02  0.1279970E+00
         -1   -1    0    0    0  501 -0.00000000000E+00  0.00000000000E+00  0.44012064430E+03  0.44012064430E+03  0.00000000000E+00 0.  1.
          1   -1    0    0  501    0  0.00000000000E+00 -0.00000000000E+00 -0.50607949200E+02  0.50607949200E+02  0.00000000000E+00 0. -1.
         24    1    1    2    0    0 -0.64629112562E+01  0.59346817597E+02  0.37666463486E+03  0.38975284103E+03  0.80419002446E+02 0.  1.
        -24    1    1    2    0    0  0.64629112562E+01 -0.59346817597E+02  0.12848060238E+02  0.10097575247E+03  0.80419002446E+02 0. -1.
<mgrwt>
<rscale>  0 0.10015503E+03</rscale>
<asrwt>0</asrwt>
<pdfrwt beam="1">  1        1 0.77858386E-02 0.10015503E+03</pdfrwt>
<pdfrwt beam="2">  1       -1 0.67710866E-01 0.10015503E+03</pdfrwt>
<totfact> 0.19807135E+03</totfact>
</mgrwt>
</event>
<event>
 4    3  0.8789582E-001  0.8099644E+02  0.7546771E-02  0.1326247E+00
          3   -1    0    0  501    0  0.00000000000E+00  0.00000000000E+00  0.41794091276E+02  0.41794091276E+02  0.00000000000E+00 0. -1.
         -3   -1    0    0    0  501 -0.00000000000E+00 -0.00000000000E+00 -0.16739744063E+03  0.16739744063E+03  0.00000000000E+00 0.  1.
         24    1    1    2    0    0  0.93877477285E+01  0.22533742722E+01 -0.88906818741E+02  0.12026988765E+03  0.80419002446E+02 0.  1.
        -24    1    1    2    0    0 -0.93877477285E+01 -0.22533742722E+01 -0.36696530611E+02  0.88921644251E+02  0.80419002446E+02 0. -1.
<mgrwt>
<rscale>  0 0.80996441E+02</rscale>
<asrwt>0</asrwt>
<pdfrwt beam="1">  1        3 0.64298602E-02 0.80996441E+02</pdfrwt>
<pdfrwt beam="2">  1       -3 0.25753453E-01 0.80996441E+02</pdfrwt>
<totfact> 0.44198741E+03</totfact>
</mgrwt>
</event>
<event>
 4    3  0.8789582E-001  0.9362086E+02  0.7546771E-02  0.1294313E+00
          2   -1    0    0  501    0  0.00000000000E+00  0.00000000000E+00  0.21749089164E+04  0.21749089164E+04  0.00000000000E+00 0. -1.
         -2   -1    0    0    0  501 -0.00000000000E+00 -0.00000000000E+00 -0.60055348152E+01  0.60055348152E+01  0.00000000000E+00 0.  1.
         24    1    1    2    0    0  0.47882686563E+02  0.22128970362E+01  0.17098778807E+04  0.17124389716E+04  0.80419002446E+02 0. -1.
        -24    1    1    2    0    0 -0.47882686563E+02 -0.22128970362E+01  0.45902550088E+03  0.46847547962E+03  0.80419002446E+02 0.  1.
<mgrwt>
<rscale>  0 0.93620855E+02</rscale>
<asrwt>0</asrwt>
<pdfrwt beam="1">  1        2 0.33460075E+00 0.93620855E+02</pdfrwt>
<pdfrwt beam="2">  1       -2 0.92393016E-03 0.93620855E+02</pdfrwt>
<totfact> 0.13861139E+04</totfact>
</mgrwt>
</event>
<event>
 4    3  0.8789582E-001  0.1033748E+03  0.7546771E-02  0.1273355E+00
          1   -1    0    0  501    0  0.00000000000E+00  0.00000000000E+00  0.38240096870E+04  0.38240096870E+04  0.00000000000E+00 0. -1.
         -1   -1    0    0    0  501 -0.00000000000E+00 -0.00000000000E+00 -0.51550938029E+01  0.51550938029E+01  0.00000000000E+00 0.  1.
         24    1    1    2    0    0 -0.58516341424E+02  0.28195165713E+02  0.61385162033E+03  0.62249510626E+03  0.80419002446E+02 0.  1.
        -24    1    1    2    0    0  0.58516341424E+02 -0.28195165713E+02  0.32050029729E+04  0.32066696746E+04  0.80419002446E+02 0. -1.
<mgrwt>
<rscale>  0 0.10337478E+03</rscale>
<asrwt>0</asrwt>
<pdfrwt beam="1">  1        1 0.58830692E+00 0.10337478E+03</pdfrwt>
<pdfrwt beam="2">  1       -1 0.79309441E-03 0.10337478E+03</pdfrwt>
<totfact> 0.48365210E+02</totfact>
</mgrwt>
</event>
<event>
 4    3  0.8789582E-001  0.9582749E+02  0.7546771E-02  0.1289323E+00
          2   -1    0    0  501    0  0.00000000000E+00  0.00000000000E+00  0.13159622118E+03  0.13159622118E+03  0.00000000000E+00 0. -1.
         -2   -1    0    0    0  501 -0.00000000000E+00 -0.00000000000E+00 -0.85000900354E+02  0.85000900354E+02  0.00000000000E+00 0.  1.
         24    1    1    2    0    0 -0.34038827789E+02  0.39459469608E+02  0.69124271205E+02  0.11815698186E+03  0.80419002446E+02 0. -1.
        -24    1    1    2    0    0  0.34038827789E+02 -0.39459469608E+02 -0.22528950378E+02  0.98440139671E+02  0.80419002446E+02 0. -1.
<mgrwt>
<rscale>  0 0.95827488E+02</rscale>
<asrwt>0</asrwt>
<pdfrwt beam="1">  1        2 0.20245572E-01 0.95827488E+02</pdfrwt>
<pdfrwt beam="2">  1       -2 0.13077062E-01 0.95827488E+02</pdfrwt>
<totfact> 0.10709954E+04</totfact>
</mgrwt>
</event>
<event>
 4    3  0.8789582E-001  0.1002304E+03  0.7546771E-02  0.1279812E+00
         -1   -1    0    0    0  501 -0.00000000000E+00  0.00000000000E+00  0.27949474586E+02  0.27949474586E+02  0.00000000000E+00 0.  1.
          1   -1    0    0  501    0  0.00000000000E+00 -0.00000000000E+00 -0.38987622252E+03  0.38987622252E+03  0.00000000000E+00 0. -1.
         24    1    1    2    0    0 -0.32775360496E+02 -0.50046920490E+02 -0.23933522322E+03  0.25947540064E+03  0.80419002446E+02 0.  0.
        -24    1    1    2    0    0  0.32775360496E+02  0.50046920490E+02 -0.12259152471E+03  0.15835029647E+03  0.80419002446E+02 0.  0.
<mgrwt>
<rscale>  0 0.10023042E+03</rscale>
<asrwt>0</asrwt>
<pdfrwt beam="1">  1        1 0.59980957E-01 0.10023043E+03</pdfrwt>
<pdfrwt beam="2">  1       -1 0.42999192E-02 0.10023043E+03</pdfrwt>
<totfact> 0.12727849E+04</totfact>
</mgrwt>
</event>
<event>
 4    3  0.8789582E-001  0.9403491E+02  0.7546771E-02  0.1293365E+00
         -2   -1    0    0    0  501 -0.00000000000E+00  0.00000000000E+00  0.63172470168E+03  0.63172470168E+03  0.00000000000E+00 0.  1.
          2   -1    0    0  501    0  0.00000000000E+00 -0.00000000000E+00 -0.24432508271E+02  0.24432508271E+02  0.00000000000E+00 0. -1.
         24    1    1    2    0    0  0.38348895784E+02 -0.30078410016E+02  0.89238411994E+02  0.12963818375E+03  0.80419002446E+02 0. -1.
        -24    1    1    2    0    0 -0.38348895784E+02  0.30078410016E+02  0.51805378141E+03  0.52651902620E+03  0.80419002446E+02 0.  1.
<mgrwt>
<rscale>  0 0.94034911E+02</rscale>
<asrwt>0</asrwt>
<pdfrwt beam="1">  1        2 0.37588479E-02 0.94034911E+02</pdfrwt>
<pdfrwt beam="2">  1       -2 0.97188403E-01 0.94034911E+02</pdfrwt>
<totfact> 0.19748049E+03</totfact>
</mgrwt>
</event>
<event>
 4    3  0.8789582E-001  0.9949238E+02  0.7546771E-02  0.1281367E+00
         -4   -1    0    0    0  501 -0.00000000000E+00  0.00000000000E+00  0.97595648217E+03  0.97595648217E+03  0.00000000000E+00 0.  1.
          4   -1    0    0  501    0  0.00000000000E+00 -0.00000000000E+00 -0.10956903940E+02  0.10956903940E+02  0.00000000000E+00 0. -1.
         24    1    1    2    0    0 -0.55258685482E+02  0.19442117886E+02  0.34797605020E+03  0.36191997145E+03  0.80419002446E+02 0. -1.
        -24    1    1    2    0    0  0.55258685482E+02 -0.19442117886E+02  0.61702352803E+03  0.62499341465E+03  0.80419002446E+02 0.  1.
<mgrwt>
<rscale>  0 0.99492383E+02</rscale>
<asrwt>0</asrwt>
<pdfrwt beam="1">  1        4 0.16856783E-02 0.99492383E+02</pdfrwt>
<pdfrwt beam="2">  1       -4 0.15014708E+00 0.99492383E+02</pdfrwt>
<totfact> 0.65519288E+02</totfact>
</mgrwt>
</event>
<event>
 4    3  0.8789582E-001  0.1306506E+03  0.7546771E-02  0.1226494E+00
          2   -1    0    0  501    0  0.00000000000E+00  0.00000000000E+00  0.23332934793E+04  0.23332934793E+04  0.00000000000E+00 0. -1.
         -2   -1    0    0    0  501 -0.00000000000E+00 -0.00000000000E+00 -0.73208756807E+01  0.73208756807E+01  0.00000000000E+00 0.  1.
         24    1    1    2    0    0 -0.45028807867E+02 -0.92600055150E+02  0.11942262825E+04  0.12013517360E+04  0.80419002446E+02 0. -1.
        -24    1    1    2    0    0  0.45028807867E+02  0.92600055150E+02  0.11317463211E+04  0.11392626190E+04  0.80419002446E+02 0.  0.
<mgrwt>
<rscale>  0 0.13065060E+03</rscale>
<asrwt>0</asrwt>
<pdfrwt beam="1">  1        2 0.35896763E+00 0.13065060E+03</pdfrwt>
<pdfrwt beam="2">  1       -2 0.11262904E-02 0.13065060E+03</pdfrwt>
<totfact> 0.87595486E+03</totfact>
</mgrwt>
</event>
<event>
 4    3  0.8789582E-001  0.9070134E+02  0.7546771E-02  0.1301162E+00
          2   -1    0    0  501    0  0.00000000000E+00  0.00000000000E+00  0.21102416104E+04  0.21102416104E+04  0.00000000000E+00 0. -1.
         -2   -1    0    0    0  501 -0.00000000000E+00 -0.00000000000E+00 -0.14770245678E+02  0.14770245678E+02  0.00000000000E+00 0.  1.
         24    1    1    2    0    0  0.35601801081E+02 -0.22181716305E+02  0.19593005161E+04  0.19613987981E+04  0.80419002446E+02 0. -1.
        -24    1    1    2    0    0 -0.35601801081E+02  0.22181716305E+02  0.13617084864E+03  0.16361305801E+03  0.80419002446E+02 0.  1.
<mgrwt>
<rscale>  0 0.90701338E+02</rscale>
<asrwt>0</asrwt>
<pdfrwt beam="1">  1        2 0.32465232E+00 0.90701338E+02</pdfrwt>
<pdfrwt beam="2">  1       -2 0.22723472E-02 0.90701338E+02</pdfrwt>
<totfact> 0.41359022E+03</totfact>
</mgrwt>
</event>
<event>
 4    3  0.8789582E-001  0.8506069E+02  0.7546771E-02  0.1315274E+00
          2   -1    0    0  501    0  0.00000000000E+00  0.00000000000E+00  0.11774556025E+04  0.11774556025E+04  0.00000000000E+00 0. -1.
         -2   -1    0    0    0  501 -0.00000000000E+00 -0.00000000000E+00 -0.63722128132E+01  0.63722128132E+01  0.00000000000E+00 0.  1.
         24    1    1    2    0    0  0.18666350679E+02 -0.20485809695E+02  0.47373967529E+03  0.48131548588E+03  0.80419002446E+02 0. -1.
        -24    1    1    2    0    0 -0.18666350679E+02  0.20485809695E+02  0.69734371434E+03  0.70251232938E+03  0.80419002446E+02 0. -1.
<mgrwt>
<rscale>  0 0.85060677E+02</rscale>
<asrwt>0</asrwt>
<pdfrwt beam="1">  1        2 0.18114684E+00 0.85060688E+02</pdfrwt>
<pdfrwt beam="2">  1       -2 0.98034137E-03 0.85060688E+02</pdfrwt>
<totfact> 0.40889765E+04</totfact>
</mgrwt>
</event>
<event>
 4    3  0.8789582E-001  0.8729375E+02  0.7546771E-02  0.1309541E+00
         -2   -1    0    0    0  501 -0.00000000000E+00  0.00000000000E+00  0.58637830734E+01  0.58637830734E+01  0.00000000000E+00 0.  1.
          2   -1    0    0  501    0  0.00000000000E+00 -0.00000000000E+00 -0.13011519888E+04  0.13011519888E+04  0.00000000000E+00 0. -1.
         24    1    1    2    0    0 -0.30936768587E+02 -0.13996411004E+02 -0.67067240116E+03  0.67632955636E+03  0.80419002446E+02 0.  1.
        -24    1    1    2    0    0  0.30936768587E+02  0.13996411004E+02 -0.62461580453E+03  0.63068621547E+03  0.80419002446E+02 0. -1.
<mgrwt>
<rscale>  0 0.87293752E+02</rscale>
<asrwt>0</asrwt>
<pdfrwt beam="1">  1        2 0.20017739E+00 0.87293752E+02</pdfrwt>
<pdfrwt beam="2">  1       -2 0.90211973E-03 0.87293752E+02</pdfrwt>
<totfact> 0.39577468E+04</totfact>
</mgrwt>
</event>
<event>
 4    3  0.8789582E-001  0.8139604E+02  0.7546771E-02  0.1325136E+00
         -2   -1    0    0    0  501 -0.00000000000E+00  0.00000000000E+00  0.11899593047E+02  0.11899593047E+02  0.00000000000E+00 0.  1.
          2   -1    0    0  501    0  0.00000000000E+00 -0.00000000000E+00 -0.56982491046E+03  0.56982491046E+03  0.00000000000E+00 0. -1.
         24    1    1    2    0    0  0.81185499373E+00 -0.12547539990E+02 -0.32299100619E+03  0.33308933622E+03  0.80419002446E+02 0.  0.
        -24    1    1    2    0    0 -0.81185499373E+00  0.12547539990E+02 -0.23493431122E+03  0.24863516729E+03  0.80419002446E+02 0. -1.
<mgrwt>
<rscale>  0 0.81396043E+02</rscale>
<asrwt>0</asrwt>
<pdfrwt beam="1">  1        2 0.87665386E-01 0.81396043E+02</pdfrwt>
<pdfrwt beam="2">  1       -2 0.18307063E-02 0.81396043E+02</pdfrwt>
<totfact> 0.41460179E+04</totfact>
</mgrwt>
</event>
<event>
 4    3  0.8789582E-001  0.1010588E+03  0.7546771E-02  0.1278085E+00
         -2   -1    0    0    0  501 -0.00000000000E+00  0.00000000000E+00  0.96995315074E+01  0.96995315074E+01  0.00000000000E+00 0.  1.
          2   -1    0    0  501    0  0.00000000000E+00 -0.00000000000E+00 -0.31590160981E+04  0.31590160981E+04  0.00000000000E+00 0. -1.
         24    1    1    2    0    0 -0.58375083358E+02  0.18385420441E+02 -0.28683053629E+04  0.28700851111E+04  0.80419002446E+02 0. -1.
        -24    1    1    2    0    0  0.58375083358E+02 -0.18385420441E+02 -0.28101120370E+03  0.29863051854E+03  0.80419002446E+02 0.  1.
<mgrwt>
<rscale>  0 0.10105884E+03</rscale>
<asrwt>0</asrwt>
<pdfrwt beam="1">  1        2 0.48600203E+00 0.10105884E+03</pdfrwt>
<pdfrwt beam="2">  1       -2 0.14922370E-02 0.10105884E+03</pdfrwt>
<totfact> 0.20519595E+03</totfact>
</mgrwt>
</event>
<event>
 4    3  0.8789582E-001  0.9316573E+02  0.7546771E-02  0.1295362E+00
         -1   -1    0    0    0  501 -0.00000000000E+00  0.00000000000E+00  0.19403116359E+02  0.19403116359E+02  0.00000000000E+00 0.  1.
          1   -1    0    0  501    0  0.00000000000E+00 -0.00000000000E+00 -0.10016879409E+04  0.10016879409E+04  0.00000000000E+00 0. -1.
         24    1    1    2    0    0  0.47015765355E+02 -0.14683212629E+01 -0.11133959602E+03  0.14517699458E+03  0.80419002446E+02 0.  1.
        -24    1    1    2    0    0 -0.47015765355E+02  0.14683212629E+01 -0.87094522852E+03  0.87591406267E+03  0.80419002446E+02 0. -1.
<mgrwt>
<rscale>  0 0.93165735E+02</rscale>
<asrwt>0</asrwt>
<pdfrwt beam="1">  1        1 0.15410586E+00 0.93165735E+02</pdfrwt>
<pdfrwt beam="2">  1       -1 0.29850944E-02 0.93165735E+02</pdfrwt>
<totfact> 0.57920515E+03</totfact>
</mgrwt>
</event>
<event>
 4    3  0.8789582E-001  0.8163923E+02  0.7546771E-02  0.1324463E+00
          2   -1    0    0  501    0  0.00000000000E+00  0.00000000000E+00  0.15810138538E+03  0.15810138538E+03  0.00000000000E+00 0. -1.
         -2   -1    0    0    0  501 -0.00000000000E+00 -0.00000000000E+00 -0.71913243273E+02  0.71913243273E+02  0.00000000000E+00 0.  1.
         24    1    1    2    0    0  0.76610136114E+01 -0.11792253832E+02  0.11707425687E+03  0.14272822411E+03  0.80419002446E+02 0. -1.
        -24    1    1    2    0    0 -0.76610136114E+01  0.11792253832E+02 -0.30886114762E+02  0.87286404551E+02  0.80419002446E+02 0.  1.
<mgrwt>
<rscale>  0 0.81639233E+02</rscale>
<asrwt>0</asrwt>
<pdfrwt beam="1">  1        2 0.24323290E-01 0.81639233E+02</pdfrwt>
<pdfrwt beam="2">  1       -2 0.11063576E-01 0.81639233E+02</pdfrwt>
<totfact> 0.11220715E+04</totfact>
</mgrwt>
</event>
<event>
 4    3  0.8789582E-001  0.8252959E+02  0.7546771E-02  0.1322022E+00
         -2   -1    0    0    0  501 -0.00000000000E+00  0.00000000000E+00  0.14314158879E+03  0.14314158879E+03  0.00000000000E+00 0.  1.
          2   -1    0    0  501    0  0.00000000000E+00 -0.00000000000E+00 -0.30017487601E+03  0.30017487601E+03  0.00000000000E+00 0. -1.
         24    1    1    2    0    0  0.50412721725E+01 -0.17846653931E+02 -0.28184887256E+03  0.29368336759E+03  0.80419002446E+02 0. -1.
        -24    1    1    2    0    0 -0.50412721725E+01  0.17846653931E+02  0.12481558534E+03  0.14963309720E+03  0.80419002446E+02 0.  1.
<mgrwt>
<rscale>  0 0.82529591E+02</rscale>
<asrwt>0</asrwt>
<pdfrwt beam="1">  1        2 0.46180750E-01 0.82529591E+02</pdfrwt>
<pdfrwt beam="2">  1       -2 0.22021783E-01 0.82529591E+02</pdfrwt>
<totfact> 0.18625535E+03</totfact>
</mgrwt>
</event>
<event>
 4    3  0.8789582E-001  0.8516623E+02  0.7546771E-02  0.1314998E+00
         -1   -1    0    0    0  501 -0.00000000000E+00  0.00000000000E+00  0.49192043263E+02  0.49192043263E+02  0.00000000000E+00 0.  1.
          1   -1    0    0  501    0  0.00000000000E+00 -0.00000000000E+00 -0.15278289624E+03  0.15278289624E+03  0.00000000000E+00 0. -1.
         24    1    1    2    0    0  0.21778743651E+02 -0.17656620715E+02 -0.32925133709E+02  0.91309092177E+02  0.80419002446E+02 0. -1.
        -24    1    1    2    0    0 -0.21778743651E+02  0.17656620715E+02 -0.70665719267E+02  0.11066584732E+03  0.80419002446E+02 0.  1.
<mgrwt>
<rscale>  0 0.85166225E+02</rscale>
<asrwt>0</asrwt>
<pdfrwt beam="1">  1        1 0.23505060E-01 0.85166225E+02</pdfrwt>
<pdfrwt beam="2">  1       -1 0.75680068E-02 0.85166225E+02</pdfrwt>
<totfact> 0.17222331E+04</totfact>
</mgrwt>
</event>
<event>
 4    3  0.8789582E-001  0.9186838E+02  0.7546771E-02  0.1298389E+00
         -2   -1    0    0    0  501 -0.00000000000E+00  0.00000000000E+00  0.80649189784E+03  0.80649189784E+03  0.00000000000E+00 0. -1.
          2   -1    0    0  501    0  0.00000000000E+00 -0.00000000000E+00 -0.10464903624E+02  0.10464903624E+02  0.00000000000E+00 0.  1.
         24    1    1    2    0    0  0.22669331130E+02  0.38192679228E+02  0.39914455473E+03  0.40958048152E+03  0.80419002446E+02 0.  0.
        -24    1    1    2    0    0 -0.22669331130E+02 -0.38192679228E+02  0.39688243949E+03  0.40737631994E+03  0.80419002446E+02 0.  0.
<mgrwt>
<rscale>  0 0.91868370E+02</rscale>
<asrwt>0</asrwt>
<pdfrwt beam="1">  1        2 0.16099858E-02 0.91868381E+02</pdfrwt>
<pdfrwt beam="2">  1       -2 0.12407563E+00 0.91868381E+02</pdfrwt>
<totfact> 0.34645551E+03</totfact>
</mgrwt>
</event>
<event>
 4    3  0.8789582E-001  0.8774122E+02  0.7546771E-02  0.1308416E+00
         -1   -1    0    0    0  501 -0.00000000000E+00  0.00000000000E+00  0.25292355471E+03  0.25292355471E+03  0.00000000000E+00 0.  1.
          1   -1    0    0  501    0  0.00000000000E+00 -0.00000000000E+00 -0.30828721857E+02  0.30828721857E+02  0.00000000000E+00 0. -1.
         24    1    1    2    0    0  0.33210278827E+01  0.34932451014E+02  0.12701688215E+03  0.15437554750E+03  0.80419002446E+02 0.  0.
        -24    1    1    2    0    0 -0.33210278827E+01 -0.34932451014E+02  0.95077950701E+02  0.12937672907E+03  0.80419002446E+02 0. -1.
<mgrwt>
<rscale>  0 0.87741218E+02</rscale>
<asrwt>0</asrwt>
<pdfrwt beam="1">  1        1 0.47428805E-02 0.87741218E+02</pdfrwt>
<pdfrwt beam="2">  1       -1 0.38911315E-01 0.87741218E+02</pdfrwt>
<totfact> 0.10466878E+04</totfact>
</mgrwt>
</event>
<event>
 4    3  0.8789582E-001  0.1011708E+03  0.7546771E-02  0.1277853E+00
          2   -1    0    0  501    0  0.00000000000E+00  0.00000000000E+00  0.34623416820E+04  0.34623416820E+04  0.00000000000E+00 0. -1.
         -2   -1    0    0    0  501 -0.00000000000E+00 -0.00000000000E+00 -0.32524118240E+01  0.32524118240E+01  0.00000000000E+00 0.  1.
         24    1    1    2    0    0  0.54874508565E+02  0.27515538926E+02  0.22524374364E+04  0.22547083930E+04  0.80419002446E+02 0. -1.
        -24    1    1    2    0    0 -0.54874508565E+02 -0.27515538926E+02  0.12066518338E+04  0.12108857008E+04  0.80419002446E+02 0.  1.
<mgrwt>
<rscale>  0 0.10117081E+03</rscale>
<asrwt>0</asrwt>
<pdfrwt beam="1">  1        2 0.53266500E+00 0.10117081E+03</pdfrwt>
<pdfrwt beam="2">  1       -2 0.50037382E-03 0.10117081E+03</pdfrwt>
<totfact> 0.62949518E+03</totfact>
</mgrwt>
</event>
<event>
 4    3  0.8789582E-001  0.9115651E+02  0.7546771E-02  0.1300075E+00
          4   -1    0    0  501    0  0.00000000000E+00  0.00000000000E+00  0.13816814773E+03  0.13816814773E+03  0.00000000000E+00 0. -1.
         -4   -1    0    0    0  501 -0.00000000000E+00 -0.00000000000E+00 -0.16935217429E+03  0.16935217429E+03  0.00000000000E+00 0.  1.
         24    1    1    2    0    0 -0.32769098497E+02  0.27721479576E+02  0.10788406969E+03  0.14123909761E+03  0.80419002446E+02 0. -1.
        -24    1    1    2    0    0  0.32769098497E+02 -0.27721479576E+02 -0.13906809624E+03  0.16628122441E+03  0.80419002446E+02 0.  1.
<mgrwt>
<rscale>  0 0.91156515E+02</rscale>
<asrwt>0</asrwt>
<pdfrwt beam="1">  1        4 0.21256638E-01 0.91156515E+02</pdfrwt>
<pdfrwt beam="2">  1       -4 0.26054181E-01 0.91156515E+02</pdfrwt>
<totfact> 0.42783277E+02</totfact>
</mgrwt>
</event>
<event>
 4    3  0.8789582E-001  0.1048918E+03  0.7546771E-02  0.1270333E+00
         -1   -1    0    0    0  501 -0.00000000000E+00  0.00000000000E+00  0.80426363579E+03  0.80426363579E+03  0.00000000000E+00 0.  1.
          1   -1    0    0  501    0  0.00000000000E+00 -0.00000000000E+00 -0.21178632698E+02  0.21178632698E+02  0.00000000000E+00 0. -1.
         24    1    1    2    0    0  0.14955156277E+02 -0.65661427512E+02  0.63712640587E+03  0.64570299115E+03  0.80419002446E+02 0.  1.
        -24    1    1    2    0    0 -0.14955156277E+02  0.65661427512E+02  0.14595859722E+03  0.17973927734E+03  0.80419002446E+02 0.  1.
<mgrwt>
<rscale>  0 0.10489183E+03</rscale>
<asrwt>0</asrwt>
<pdfrwt beam="1">  1        1 0.32582518E-02 0.10489183E+03</pdfrwt>
<pdfrwt beam="2">  1       -1 0.12373284E+00 0.10489183E+03</pdfrwt>
<totfact> 0.17882912E+03</totfact>
</mgrwt>
</event>
<event>
 4    3  0.8789582E-001  0.9746954E+02  0.7546771E-02  0.1285709E+00
          2   -1    0    0  501    0  0.00000000000E+00  0.00000000000E+00  0.82526658067E+02  0.82526658067E+02  0.00000000000E+00 0. -1.
         -2   -1    0    0    0  501 -0.00000000000E+00 -0.00000000000E+00 -0.13410109971E+03  0.13410109971E+03  0.00000000000E+00 0.  1.
         24    1    1    2    0    0  0.21144001461E+02 -0.50852989321E+02  0.14964923982E+02  0.98611663736E+02  0.80419002446E+02 0. -1.
        -24    1    1    2    0    0 -0.21144001461E+02  0.50852989321E+02 -0.66539365625E+02  0.11801609404E+03  0.80419002446E+02 0.  1.
<mgrwt>
<rscale>  0 0.97469540E+02</rscale>
<asrwt>0</asrwt>
<pdfrwt beam="1">  1        2 0.12696409E-01 0.97469540E+02</pdfrwt>
<pdfrwt beam="2">  1       -2 0.20630938E-01 0.97469540E+02</pdfrwt>
<totfact> 0.86884522E+03</totfact>
</mgrwt>
</event>
<event>
 4    3  0.8789582E-001  0.8720866E+02  0.7546771E-02  0.1309756E+00
          2   -1    0    0  501    0  0.00000000000E+00  0.00000000000E+00  0.11840337156E+04  0.11840337156E+04  0.00000000000E+00 0. -1.
         -2   -1    0    0    0  501 -0.00000000000E+00 -0.00000000000E+00 -0.74515630482E+01  0.74515630482E+01  0.00000000000E+00 0.  1.
         24    1    1    2    0    0  0.27838761918E+02  0.19056166601E+02  0.80959885544E+03  0.81428229554E+03  0.80419002446E+02 0.  1.
        -24    1    1    2    0    0 -0.27838761918E+02 -0.19056166601E+02  0.36698329715E+03  0.37720298314E+03  0.80419002446E+02 0.  0.
<mgrwt>
<rscale>  0 0.87208658E+02</rscale>
<asrwt>0</asrwt>
<pdfrwt beam="1">  1        2 0.18215888E+00 0.87208658E+02</pdfrwt>
<pdfrwt beam="2">  1       -2 0.11463953E-02 0.87208658E+02</pdfrwt>
<totfact> 0.32580318E+04</totfact>
</mgrwt>
</event>
<event>
 4    3  0.8789582E-001  0.8498527E+02  0.7546771E-02  0.1315471E+00
         -2   -1    0    0    0  501 -0.00000000000E+00  0.00000000000E+00  0.36664430882E+02  0.36664430882E+02  0.00000000000E+00 0.  1.
          2   -1    0    0  501    0  0.00000000000E+00 -0.00000000000E+00 -0.27425840493E+03  0.27425840493E+03  0.00000000000E+00 0. -1.
         24    1    1    2    0    0 -0.11114199896E+02 -0.25134743162E+02 -0.20131445411E+03  0.21851774789E+03  0.80419002446E+02 0. -1.
        -24    1    1    2    0    0  0.11114199896E+02  0.25134743162E+02 -0.36279519936E+02  0.92405087925E+02  0.80419002446E+02 0.  1.
<mgrwt>
<rscale>  0 0.84985273E+02</rscale>
<asrwt>0</asrwt>
<pdfrwt beam="1">  1        2 0.42193600E-01 0.84985273E+02</pdfrwt>
<pdfrwt beam="2">  1       -2 0.56406818E-02 0.84985273E+02</pdfrwt>
<totfact> 0.17530479E+04</totfact>
</mgrwt>
</event>
<event>
 4    3  0.8789582E-001  0.1359830E+03  0.7546771E-02  0.1218839E+00
         -2   -1    0    0    0  501 -0.00000000000E+00  0.00000000000E+00  0.42429113451E+02  0.42429113451E+02  0.00000000000E+00 0.  1.
          2   -1    0    0  501    0  0.00000000000E+00 -0.00000000000E+00 -0.81879706377E+03  0.81879706377E+03  0.00000000000E+00 0. -1.
         24    1    1    2    0    0 -0.79723074360E+02 -0.75288776256E+02 -0.68268474249E+03  0.69609614422E+03  0.80419002446E+02 0. -1.
        -24    1    1    2    0    0  0.79723074360E+02  0.75288776256E+02 -0.93683207833E+02  0.16513003300E+03  0.80419002446E+02 0.  1.
<mgrwt>
<rscale>  0 0.13598303E+03</rscale>
<asrwt>0</asrwt>
<pdfrwt beam="1">  1        2 0.12596877E+00 0.13598303E+03</pdfrwt>
<pdfrwt beam="2">  1       -2 0.65275563E-02 0.13598303E+03</pdfrwt>
<totfact> 0.43589925E+03</totfact>
</mgrwt>
</event>
<event>
 4    3  0.8789582E-001  0.8160220E+02  0.7546771E-02  0.1324565E+00
         -2   -1    0    0    0  501 -0.00000000000E+00  0.00000000000E+00  0.77511643888E+01  0.77511643888E+01  0.00000000000E+00 0.  1.
          2   -1    0    0  501    0  0.00000000000E+00 -0.00000000000E+00 -0.86597953844E+03  0.86597953844E+03  0.00000000000E+00 0. -1.
         24    1    1    2    0    0 -0.10060915300E+02  0.95119858995E+01 -0.39013625428E+03  0.39857899185E+03  0.80419002446E+02 0.  1.
        -24    1    1    2    0    0  0.10060915300E+02 -0.95119858995E+01 -0.46809211978E+03  0.47515171098E+03  0.80419002446E+02 0. -1.
<mgrwt>
<rscale>  0 0.81602191E+02</rscale>
<asrwt>0</asrwt>
<pdfrwt beam="1">  1        2 0.13322762E+00 0.81602201E+02</pdfrwt>
<pdfrwt beam="2">  1       -2 0.11924868E-02 0.81602201E+02</pdfrwt>
<totfact> 0.46803573E+04</totfact>
</mgrwt>
</event>
<event>
 4    3  0.8789582E-001  0.1880277E+03  0.7546771E-02  0.1160252E+00
         -2   -1    0    0    0  501 -0.00000000000E+00  0.00000000000E+00  0.31154365666E+02  0.31154365666E+02  0.00000000000E+00 0.  1.
          2   -1    0    0  501    0  0.00000000000E+00 -0.00000000000E+00 -0.37819784803E+04  0.37819784803E+04  0.00000000000E+00 0. -1.
         24    1    1    2    0    0 -0.27061856557E+02 -0.16779408249E+03 -0.34704935164E+04  0.34755833556E+04  0.80419002446E+02 0. -1.
        -24    1    1    2    0    0  0.27061856557E+02  0.16779408249E+03 -0.28033059819E+03  0.33754949035E+03  0.80419002446E+02 0.  1.
<mgrwt>
<rscale>  0 0.18802770E+03</rscale>
<asrwt>0</asrwt>
<pdfrwt beam="1">  1        2 0.58184225E+00 0.18802770E+03</pdfrwt>
<pdfrwt beam="2">  1       -2 0.47929843E-02 0.18802770E+03</pdfrwt>
<totfact> 0.14091183E+02</totfact>
</mgrwt>
</event>
<event>
 4    3  0.8789582E-001  0.1348037E+03  0.7546771E-02  0.1220497E+00
         -2   -1    0    0    0  501 -0.00000000000E+00  0.00000000000E+00  0.22870012205E+02  0.22870012205E+02  0.00000000000E+00 0.  1.
          2   -1    0    0  501    0  0.00000000000E+00 -0.00000000000E+00 -0.10250519859E+04  0.10250519859E+04  0.00000000000E+00 0. -1.
         24    1    1    2    0    0  0.19581881185E+02  0.10640198529E+03 -0.74953888493E+03  0.76156456622E+03  0.80419002446E+02 0. -1.
        -24    1    1    2    0    0 -0.19581881185E+02 -0.10640198529E+03 -0.25264308881E+03  0.28635743193E+03  0.80419002446E+02 0.  1.
<mgrwt>
<rscale>  0 0.13480374E+03</rscale>
<asrwt>0</asrwt>
<pdfrwt beam="1">  1        2 0.15770028E+00 0.13480374E+03</pdfrwt>
<pdfrwt beam="2">  1       -2 0.35184641E-02 0.13480374E+03</pdfrwt>
<totfact> 0.81816090E+03</totfact>
</mgrwt>
</event>
<event>
 4    3  0.8789582E-001  0.8919008E+02  0.7546771E-02  0.1304825E+00
          4   -1    0    0  501    0  0.00000000000E+00  0.00000000000E+00  0.62463632882E+03  0.62463632882E+03  0.00000000000E+00 0. -1.
         -4   -1    0    0    0  501 -0.00000000000E+00 -0.00000000000E+00 -0.13285916581E+02  0.13285916581E+02  0.00000000000E+00 0.  1.
         24    1    1    2    0    0  0.34542884952E+02  0.17159340085E+02  0.37061416008E+03  0.38119512780E+03  0.80419002446E+02 0. -1.
        -24    1    1    2    0    0 -0.34542884952E+02 -0.17159340085E+02  0.24073625216E+03  0.25672711760E+03  0.80419002446E+02 0.  1.
<mgrwt>
<rscale>  0 0.89190077E+02</rscale>
<asrwt>0</asrwt>
<pdfrwt beam="1">  1        4 0.96097874E-01 0.89190077E+02</pdfrwt>
<pdfrwt beam="2">  1       -4 0.20439877E-02 0.89190077E+02</pdfrwt>
<totfact> 0.13795788E+03</totfact>
</mgrwt>
</event>
<event>
 4    3  0.8789582E-001  0.8912319E+02  0.7546771E-02  0.1304989E+00
         -1   -1    0    0    0  501 -0.00000000000E+00  0.00000000000E+00  0.18750064284E+04  0.18750064284E+04  0.00000000000E+00 0.  1.
          1   -1    0    0  501    0  0.00000000000E+00 -0.00000000000E+00 -0.76368975490E+01  0.76368975490E+01  0.00000000000E+00 0. -1.
         24    1    1    2    0    0 -0.37105438963E+02  0.99455391524E+01  0.15618330479E+04  0.15643738085E+04  0.80419002446E+02 0.  1.
        -24    1    1    2    0    0  0.37105438963E+02 -0.99455391524E+01  0.30553648297E+03  0.31826951744E+03  0.80419002446E+02 0. -1.
<mgrwt>
<rscale>  0 0.89123192E+02</rscale>
<asrwt>0</asrwt>
<pdfrwt beam="1">  1        1 0.11749088E-02 0.89123192E+02</pdfrwt>
<pdfrwt beam="2">  1       -1 0.28846216E+00 0.89123192E+02</pdfrwt>
<totfact> 0.57571444E+02</totfact>
</mgrwt>
</event>
<event>
 4    3  0.8789582E-001  0.1213582E+03  0.7546771E-02  0.1240873E+00
         -2   -1    0    0    0  501 -0.00000000000E+00  0.00000000000E+00  0.15592498494E+03  0.15592498494E+03  0.00000000000E+00 0.  1.
          2   -1    0    0  501    0  0.00000000000E+00 -0.00000000000E+00 -0.21114513962E+03  0.21114513962E+03  0.00000000000E+00 0. -1.
         24    1    1    2    0    0  0.15681857114E+02 -0.89524684633E+02 -0.16405162514E+03  0.20406063184E+03  0.80419002446E+02 0. -1.
        -24    1    1    2    0    0 -0.15681857114E+02  0.89524684633E+02  0.10883147045E+03  0.16300949272E+03  0.80419002446E+02 0.  1.
<mgrwt>
<rscale>  0 0.12135817E+03</rscale>
<asrwt>0</asrwt>
<pdfrwt beam="1">  1        2 0.32483867E-01 0.12135817E+03</pdfrwt>
<pdfrwt beam="2">  1       -2 0.23988459E-01 0.12135817E+03</pdfrwt>
<totfact> 0.23726751E+03</totfact>
</mgrwt>
</event>
<event>
 4    3  0.8789582E-001  0.9283396E+02  0.7546771E-02  0.1296130E+00
         -4   -1    0    0    0  501 -0.00000000000E+00  0.00000000000E+00  0.51867791357E+02  0.51867791357E+02  0.00000000000E+00 0.  1.
          4   -1    0    0  501    0  0.00000000000E+00 -0.00000000000E+00 -0.21989118052E+03  0.21989118052E+03  0.00000000000E+00 0. -1.
         24    1    1    2    0    0  0.35585268302E+02 -0.29742515913E+02 -0.15118231544E+03  0.17740979969E+03  0.80419002446E+02 0. -1.
        -24    1    1    2    0    0 -0.35585268302E+02  0.29742515913E+02 -0.16841073729E+02  0.94349172183E+02  0.80419002446E+02 0.  1.
<mgrwt>
<rscale>  0 0.92833962E+02</rscale>
<asrwt>0</asrwt>
<pdfrwt beam="1">  1        4 0.33829412E-01 0.92833962E+02</pdfrwt>
<pdfrwt beam="2">  1       -4 0.79796603E-02 0.92833962E+02</pdfrwt>
<totfact> 0.14101827E+03</totfact>
</mgrwt>
</event>
<event>
 4    3  0.8789582E-001  0.9174478E+02  0.7546771E-02  0.1298681E+00
          2   -1    0    0  501    0  0.00000000000E+00  0.00000000000E+00  0.35422195935E+03  0.35422195935E+03  0.00000000000E+00 0. -1.
         -2   -1    0    0    0  501 -0.00000000000E+00 -0.00000000000E+00 -0.24308273025E+02  0.24308273025E+02  0.00000000000E+00 0.  1.
         24    1    1    2    0    0 -0.20439845701E+02 -0.39142021232E+02  0.13659007432E+03  0.16454163448E+03  0.80419002446E+02 0.  1.
        -24    1    1    2    0    0  0.20439845701E+02  0.39142021232E+02  0.19332361201E+03  0.21398859790E+03  0.80419002446E+02 0. -1.
<mgrwt>
<rscale>  0 0.91744772E+02</rscale>
<asrwt>0</asrwt>
<pdfrwt beam="1">  1        2 0.54495682E-01 0.91744783E+02</pdfrwt>
<pdfrwt beam="2">  1       -2 0.37397346E-02 0.91744783E+02</pdfrwt>
<totfact> 0.24846357E+04</totfact>
</mgrwt>
</event>
<event>
 4    3  0.8789582E-001  0.8157644E+02  0.7546771E-02  0.1324636E+00
         -2   -1    0    0    0  501 -0.00000000000E+00  0.00000000000E+00  0.21707839218E+01  0.21707839218E+01  0.00000000000E+00 0.  1.
          2   -1    0    0  501    0  0.00000000000E+00 -0.00000000000E+00 -0.35632128619E+04  0.35632128619E+04  0.00000000000E+00 0. -1.
         24    1    1    2    0    0 -0.13493406919E+02  0.23298799569E+01 -0.24467277451E+04  0.24480872891E+04  0.80419002446E+02 0. -1.
        -24    1    1    2    0    0  0.13493406919E+02 -0.23298799569E+01 -0.11143143329E+04  0.11172963568E+04  0.80419002446E+02 0.  1.
<mgrwt>
<rscale>  0 0.81576445E+02</rscale>
<asrwt>0</asrwt>
<pdfrwt beam="1">  1        2 0.54817885E+00 0.81576445E+02</pdfrwt>
<pdfrwt beam="2">  1       -2 0.33397148E-03 0.81576445E+02</pdfrwt>
<totfact> 0.95370079E+03</totfact>
</mgrwt>
</event>
<event>
 4    3  0.8789582E-001  0.8988905E+02  0.7546771E-02  0.1303121E+00
          2   -1    0    0  501    0  0.00000000000E+00  0.00000000000E+00  0.31703948591E+03  0.31703948591E+03  0.00000000000E+00 0. -1.
         -2   -1    0    0    0  501 -0.00000000000E+00 -0.00000000000E+00 -0.27329904828E+02  0.27329904828E+02  0.00000000000E+00 0.  1.
         24    1    1    2    0    0  0.10350541359E+02 -0.38803244396E+02  0.18958024168E+03  0.20981112810E+03  0.80419002446E+02 0. -1.
        -24    1    1    2    0    0 -0.10350541359E+02  0.38803244396E+02  0.10012933939E+03  0.13455826264E+03  0.80419002446E+02 0.  1.
<mgrwt>
<rscale>  0 0.89889051E+02</rscale>
<asrwt>0</asrwt>
<pdfrwt beam="1">  1        2 0.48775303E-01 0.89889051E+02</pdfrwt>
<pdfrwt beam="2">  1       -2 0.42046010E-02 0.89889051E+02</pdfrwt>
<totfact> 0.23436124E+04</totfact>
</mgrwt>
</event>
<event>
 4    3  0.8789582E-001  0.8646957E+02  0.7546771E-02  0.1311634E+00
         -1   -1    0    0    0  501 -0.00000000000E+00  0.00000000000E+00  0.19526941560E+02  0.19526941560E+02  0.00000000000E+00 0.  1.
          1   -1    0    0  501    0  0.00000000000E+00 -0.00000000000E+00 -0.76695563794E+03  0.76695563794E+03  0.00000000000E+00 0. -1.
         24    1    1    2    0    0 -0.30103073392E+02  0.10177208990E+02 -0.95443591544E+02  0.12878845341E+03  0.80419002446E+02 0.  1.
        -24    1    1    2    0    0  0.30103073392E+02 -0.10177208990E+02 -0.65198510483E+03  0.65769412609E+03  0.80419002446E+02 0. -1.
<mgrwt>
<rscale>  0 0.86469570E+02</rscale>
<asrwt>0</asrwt>
<pdfrwt beam="1">  1        1 0.11799315E+00 0.86469570E+02</pdfrwt>
<pdfrwt beam="2">  1       -1 0.30041455E-02 0.86469570E+02</pdfrwt>
<totfact> 0.86395881E+03</totfact>
</mgrwt>
</event>
<event>
 4    3  0.8789582E-001  0.9015709E+02  0.7546771E-02  0.1302472E+00
          2   -1    0    0  501    0  0.00000000000E+00  0.00000000000E+00  0.30018120903E+03  0.30018120903E+03  0.00000000000E+00 0. -1.
         -2   -1    0    0    0  501 -0.00000000000E+00 -0.00000000000E+00 -0.43034690213E+02  0.43034690213E+02  0.00000000000E+00 0.  1.
         24    1    1    2    0    0 -0.28894910206E+02 -0.28743166480E+02  0.23306927039E+03  0.24989915208E+03  0.80419002446E+02 0. -1.
        -24    1    1    2    0    0  0.28894910206E+02  0.28743166480E+02  0.24077248426E+02  0.93316747164E+02  0.80419002446E+02 0.  1.
<mgrwt>
<rscale>  0 0.90157093E+02</rscale>
<asrwt>0</asrwt>
<pdfrwt beam="1">  1        2 0.46181723E-01 0.90157093E+02</pdfrwt>
<pdfrwt beam="2">  1       -2 0.66207217E-02 0.90157093E+02</pdfrwt>
<totfact> 0.12619026E+04</totfact>
</mgrwt>
</event>
<event>
 4    3  0.8789582E-001  0.8892353E+02  0.7546771E-02  0.1305480E+00
         -1   -1    0    0    0  501 -0.00000000000E+00  0.00000000000E+00  0.96102769120E+01  0.96102769120E+01  0.00000000000E+00 0.  1.
          1   -1    0    0  501    0  0.00000000000E+00 -0.00000000000E+00 -0.84762490730E+03  0.84762490730E+03  0.00000000000E+00 0. -1.
         24    1    1    2    0    0  0.11077011521E+01  0.37933518869E+02 -0.34566438153E+03  0.35691912174E+03  0.80419002446E+02 0.  0.
        -24    1    1    2    0    0 -0.11077011521E+01 -0.37933518869E+02 -0.49235024886E+03  0.50031606247E+03  0.80419002446E+02 0. -1.
<mgrwt>
<rscale>  0 0.88923533E+02</rscale>
<asrwt>0</asrwt>
<pdfrwt beam="1">  1        1 0.13040386E+00 0.88923533E+02</pdfrwt>
<pdfrwt beam="2">  1       -1 0.14785039E-02 0.88923533E+02</pdfrwt>
<totfact> 0.20532489E+04</totfact>
</mgrwt>
</event>
<event>
 4    3  0.8789582E-001  0.8177739E+02  0.7546771E-02  0.1324082E+00
         -1   -1    0    0    0  501 -0.00000000000E+00  0.00000000000E+00  0.31848932154E+02  0.31848932154E+02  0.00000000000E+00 0.  1.
          1   -1    0    0  501    0  0.00000000000E+00 -0.00000000000E+00 -0.24871830453E+03  0.24871830453E+03  0.00000000000E+00 0. -1.
         24    1    1    2    0    0 -0.62827641982E+01  0.13448137407E+02 -0.53069022214E+02  0.97487756148E+02  0.80419002446E+02 0.  1.
        -24    1    1    2    0    0  0.62827641982E+01 -0.13448137407E+02 -0.16380035017E+03  0.18307948054E+03  0.80419002446E+02 0. -1.
<mgrwt>
<rscale>  0 0.81777390E+02</rscale>
<asrwt>0</asrwt>
<pdfrwt beam="1">  1        1 0.38264354E-01 0.81777390E+02</pdfrwt>
<pdfrwt beam="2">  1       -1 0.48998357E-02 0.81777390E+02</pdfrwt>
<totfact> 0.17882513E+04</totfact>
</mgrwt>
</event>
<event>
 4    3  0.8789582E-001  0.8065373E+02  0.7546771E-02  0.1327206E+00
         -1   -1    0    0    0  501 -0.00000000000E+00  0.00000000000E+00  0.22946937763E+02  0.22946937763E+02  0.00000000000E+00 0.  1.
          1   -1    0    0  501    0  0.00000000000E+00 -0.00000000000E+00 -0.64514640666E+03  0.64514640666E+03  0.00000000000E+00 0. -1.
         24    1    1    2    0    0 -0.52213947922E+01 -0.32473587010E+01 -0.60989533723E+02  0.10111749344E+03  0.80419002446E+02 0.  0.
        -24    1    1    2    0    0  0.52213947922E+01  0.32473587010E+01 -0.56120993517E+03  0.56697585098E+03  0.80419002446E+02 0. -1.
<mgrwt>
<rscale>  0 0.80653731E+02</rscale>
<asrwt>0</asrwt>
<pdfrwt beam="1">  1        1 0.99253270E-01 0.80653731E+02</pdfrwt>
<pdfrwt beam="2">  1       -1 0.35302990E-02 0.80653731E+02</pdfrwt>
<totfact> 0.86864306E+03</totfact>
</mgrwt>
</event>
<event>
 4    3  0.8789582E-001  0.1119207E+03  0.7546771E-02  0.1257054E+00
          1   -1    0    0  501    0  0.00000000000E+00  0.00000000000E+00  0.22359516035E+02  0.22359516035E+02  0.00000000000E+00 0. -1.
         -1   -1    0    0    0  501 -0.00000000000E+00 -0.00000000000E+00 -0.61338423823E+03  0.61338423823E+03  0.00000000000E+00 0.  1.
         24    1    1    2    0    0  0.14308225990E+02 -0.76513403565E+02 -0.20192942446E+03  0.23087168444E+03  0.80419002446E+02 0.  0.
        -24    1    1    2    0    0 -0.14308225990E+02  0.76513403565E+02 -0.38909529773E+03  0.40487206983E+03  0.80419002446E+02 0. -1.
<mgrwt>
<rscale>  0 0.11192071E+03</rscale>
<asrwt>0</asrwt>
<pdfrwt beam="1">  1        1 0.34399250E-02 0.11192072E+03</pdfrwt>
<pdfrwt beam="2">  1       -1 0.94366820E-01 0.11192072E+03</pdfrwt>
<totfact> 0.30650826E+03</totfact>
</mgrwt>
</event>
<event>
 4    3  0.8789582E-001  0.9668281E+02  0.7546771E-02  0.1287430E+00
          1   -1    0    0  501    0  0.00000000000E+00  0.00000000000E+00  0.24097114244E+03  0.24097114244E+03  0.00000000000E+00 0. -1.
         -1   -1    0    0    0  501 -0.00000000000E+00 -0.00000000000E+00 -0.10731020924E+03  0.10731020924E+03  0.00000000000E+00 0.  1.
         24    1    1    2    0    0 -0.17860266869E+02 -0.50609888502E+02 -0.72320158486E+02  0.12073844137E+03  0.80419002446E+02 0.  1.
        -24    1    1    2    0    0  0.17860266869E+02  0.50609888502E+02  0.20598109168E+03  0.22754291031E+03  0.80419002446E+02 0. -1.
<mgrwt>
<rscale>  0 0.96682811E+02</rscale>
<asrwt>0</asrwt>
<pdfrwt beam="1">  1        1 0.37072483E-01 0.96682811E+02</pdfrwt>
<pdfrwt beam="2">  1       -1 0.16509263E-01 0.96682811E+02</pdfrwt>
<totfact> 0.30323379E+03</totfact>
</mgrwt>
</event>
<event>
 4    3  0.8789582E-001  0.8554375E+02  0.7546771E-02  0.1314017E+00
         -2   -1    0    0    0  501 -0.00000000000E+00  0.00000000000E+00  0.44973038375E+01  0.44973038375E+01  0.00000000000E+00 0.  1.
          2   -1    0    0  501    0  0.00000000000E+00 -0.00000000000E+00 -0.17246538354E+04  0.17246538354E+04  0.00000000000E+00 0. -1.
         24    1    1    2    0    0  0.27363459892E+02  0.10087522505E+02 -0.10656626120E+04  0.10690905180E+04  0.80419002446E+02 0. -1.
        -24    1    1    2    0    0 -0.27363459892E+02 -0.10087522505E+02 -0.65449391957E+03  0.66006062127E+03  0.80419002446E+02 0.  1.
<mgrwt>
<rscale>  0 0.85543749E+02</rscale>
<asrwt>0</asrwt>
<pdfrwt beam="1">  1        2 0.26533114E+00 0.85543749E+02</pdfrwt>
<pdfrwt beam="2">  1       -2 0.69189346E-03 0.85543749E+02</pdfrwt>
<totfact> 0.34884776E+04</totfact>
</mgrwt>
</event>
<event>
 4    3  0.8789582E-001  0.9901317E+02  0.7546771E-02  0.1282385E+00
         -1   -1    0    0    0  501 -0.00000000000E+00  0.00000000000E+00  0.21969228301E+03  0.21969228301E+03  0.00000000000E+00 0.  1.
          1   -1    0    0  501    0  0.00000000000E+00 -0.00000000000E+00 -0.44905514213E+02  0.44905514213E+02  0.00000000000E+00 0. -1.
         24    1    1    2    0    0  0.34507864638E+02  0.46320564204E+02  0.76922974461E+02  0.12538240444E+03  0.80419002446E+02 0. -1.
        -24    1    1    2    0    0 -0.34507864638E+02 -0.46320564204E+02  0.97863794335E+02  0.13921539278E+03  0.80419002446E+02 0.  1.
<mgrwt>
<rscale>  0 0.99013160E+02</rscale>
<asrwt>0</asrwt>
<pdfrwt beam="1">  1        1 0.69085408E-02 0.99013172E+02</pdfrwt>
<pdfrwt beam="2">  1       -1 0.33798812E-01 0.99013172E+02</pdfrwt>
<totfact> 0.81220560E+03</totfact>
</mgrwt>
</event>
<event>
 4    3  0.8789582E-001  0.8280406E+02  0.7546771E-02  0.1321277E+00
         -1   -1    0    0    0  501 -0.00000000000E+00  0.00000000000E+00  0.62681961525E+02  0.62681961525E+02  0.00000000000E+00 0.  1.
          1   -1    0    0  501    0  0.00000000000E+00 -0.00000000000E+00 -0.18902528654E+03  0.18902528654E+03  0.00000000000E+00 0. -1.
         24    1    1    2    0    0 -0.18082255923E+02  0.78948063730E+01  0.18518582634E+02  0.84849571620E+02  0.80419002446E+02 0.  0.
        -24    1    1    2    0    0  0.18082255923E+02 -0.78948063730E+01 -0.14486190765E+03  0.16685767644E+03  0.80419002446E+02 0. -1.
<mgrwt>
<rscale>  0 0.82804057E+02</rscale>
<asrwt>0</asrwt>
<pdfrwt beam="1">  1        1 0.29080813E-01 0.82804057E+02</pdfrwt>
<pdfrwt beam="2">  1       -1 0.96433789E-02 0.82804057E+02</pdfrwt>
<totfact> 0.91964256E+03</totfact>
</mgrwt>
</event>
<event>
 4    3  0.8789582E-001  0.1237138E+03  0.7546771E-02  0.1237093E+00
         -2   -1    0    0    0  501 -0.00000000000E+00  0.00000000000E+00  0.48581897325E+02  0.48581897325E+02  0.00000000000E+00 0.  1.
          2   -1    0    0  501    0  0.00000000000E+00 -0.00000000000E+00 -0.41279216827E+03  0.41279216827E+03  0.00000000000E+00 0. -1.
         24    1    1    2    0    0 -0.93350298598E+02 -0.11117816026E+02 -0.29436566866E+03  0.31930588300E+03  0.80419002446E+02 0. -1.
        -24    1    1    2    0    0  0.93350298598E+02  0.11117816026E+02 -0.69844602284E+02  0.14206818259E+03  0.80419002446E+02 0.  0.
<mgrwt>
<rscale>  0 0.12371378E+03</rscale>
<asrwt>0</asrwt>
<pdfrwt beam="1">  1        2 0.63506487E-01 0.12371378E+03</pdfrwt>
<pdfrwt beam="2">  1       -2 0.74741381E-02 0.12371378E+03</pdfrwt>
<totfact> 0.76920322E+03</totfact>
</mgrwt>
</event>
<event>
 4    3  0.8789582E-001  0.1105050E+03  0.7546771E-02  0.1259638E+00
          2   -1    0    0  501    0  0.00000000000E+00  0.00000000000E+00  0.80066746285E+02  0.80066746285E+02  0.00000000000E+00 0. -1.
         -2   -1    0    0    0  501 -0.00000000000E+00 -0.00000000000E+00 -0.17092540121E+03  0.17092540121E+03  0.00000000000E+00 0.  1.
         24    1    1    2    0    0  0.47105471131E+02  0.59373537440E+02 -0.86616466701E+02  0.14040573570E+03  0.80419002446E+02 0.  1.
        -24    1    1    2    0    0 -0.47105471131E+02 -0.59373537440E+02 -0.42421882210E+01  0.11058641180E+03  0.80419002446E+02 0. -1.
<mgrwt>
<rscale>  0 0.11050503E+03</rscale>
<asrwt>0</asrwt>
<pdfrwt beam="1">  1        2 0.12317961E-01 0.11050504E+03</pdfrwt>
<pdfrwt beam="2">  1       -2 0.26296215E-01 0.11050504E+03</pdfrwt>
<totfact> 0.59996651E+03</totfact>
</mgrwt>
</event>
<event>
 4    3  0.8789582E-001  0.1022260E+03  0.7546771E-02  0.1275683E+00
         -1   -1    0    0    0  501 -0.00000000000E+00  0.00000000000E+00  0.15412238486E+02  0.15412238486E+02  0.00000000000E+00 0.  1.
          1   -1    0    0  501    0  0.00000000000E+00 -0.00000000000E+00 -0.18618213168E+04  0.18618213168E+04  0.00000000000E+00 0. -1.
         24    1    1    2    0    0 -0.56806566581E+02 -0.27494752653E+02 -0.17476888425E+03  0.20247055659E+03  0.80419002446E+02 0.  1.
        -24    1    1    2    0    0  0.56806566581E+02  0.27494752653E+02 -0.16716401940E+04  0.16747629987E+04  0.80419002446E+02 0. -1.
<mgrwt>
<rscale>  0 0.10222604E+03</rscale>
<asrwt>0</asrwt>
<pdfrwt beam="1">  1        1 0.28643394E+00 0.10222604E+03</pdfrwt>
<pdfrwt beam="2">  1       -1 0.23711145E-02 0.10222604E+03</pdfrwt>
<totfact> 0.22117594E+03</totfact>
</mgrwt>
</event>
<event>
 4    3  0.8789582E-001  0.8107584E+02  0.7546771E-02  0.1326026E+00
          2   -1    0    0  501    0  0.00000000000E+00  0.00000000000E+00  0.33402226693E+03  0.33402226693E+03  0.00000000000E+00 0. -1.
         -2   -1    0    0    0  501 -0.00000000000E+00 -0.00000000000E+00 -0.43166486266E+02  0.43166486266E+02  0.00000000000E+00 0.  1.
         24    1    1    2    0    0 -0.75329359104E+01  0.70235996544E+01  0.28454219250E+03  0.29586745570E+03  0.80419002446E+02 0.  0.
        -24    1    1    2    0    0  0.75329359104E+01 -0.70235996544E+01  0.63135881568E+01  0.81321297489E+02  0.80419002446E+02 0.  1.
<mgrwt>
<rscale>  0 0.81075841E+02</rscale>
<asrwt>0</asrwt>
<pdfrwt beam="1">  1        2 0.51388040E-01 0.81075841E+02</pdfrwt>
<pdfrwt beam="2">  1       -2 0.66409981E-02 0.81075841E+02</pdfrwt>
<totfact> 0.11126911E+04</totfact>
</mgrwt>
</event>
<event>
 4    3  0.8789582E-001  0.8172657E+02  0.7546771E-02  0.1324222E+00
          1   -1    0    0  501    0  0.00000000000E+00  0.00000000000E+00  0.30739841840E+03  0.30739841840E+03  0.00000000000E+00 0. -1.
         -1   -1    0    0    0  501 -0.00000000000E+00 -0.00000000000E+00 -0.27209274474E+02  0.27209274474E+02  0.00000000000E+00 0.  1.
         24    1    1    2    0    0  0.60207557242E+01 -0.13257728697E+02  0.65005296985E+02  0.10442663195E+03  0.80419002446E+02 0.  1.
        -24    1    1    2    0    0 -0.60207557242E+01  0.13257728697E+02  0.21518384694E+03  0.23018106092E+03  0.80419002446E+02 0.  0.
<mgrwt>
<rscale>  0 0.81726574E+02</rscale>
<asrwt>0</asrwt>
<pdfrwt beam="1">  1        1 0.47292062E-01 0.81726574E+02</pdfrwt>
<pdfrwt beam="2">  1       -1 0.41860424E-02 0.81726574E+02</pdfrwt>
<totfact> 0.17378580E+04</totfact>
</mgrwt>
</event>
<event>
 4    3  0.8789582E-001  0.9739862E+02  0.7546771E-02  0.1285863E+00
         -1   -1    0    0    0  501 -0.00000000000E+00  0.00000000000E+00  0.47075407469E+02  0.47075407469E+02  0.00000000000E+00 0.  1.
          1   -1    0    0  501    0  0.00000000000E+00 -0.00000000000E+00 -0.26733879371E+03  0.26733879371E+03  0.00000000000E+00 0. -1.
         24    1    1    2    0    0  0.53618779970E+02  0.12012537650E+02 -0.32125995667E+02  0.10256008082E+03  0.80419002446E+02 0.  1.
        -24    1    1    2    0    0 -0.53618779970E+02 -0.12012537650E+02 -0.18813739058E+03  0.21185412036E+03  0.80419002446E+02 0. -1.
<mgrwt>
<rscale>  0 0.97398617E+02</rscale>
<asrwt>0</asrwt>
<pdfrwt beam="1">  1        1 0.41129045E-01 0.97398617E+02</pdfrwt>
<pdfrwt beam="2">  1       -1 0.72423705E-02 0.97398617E+02</pdfrwt>
<totfact> 0.93678705E+03</totfact>
</mgrwt>
</event>
<event>
 4    3  0.8789582E-001  0.9416501E+02  0.7546771E-02  0.1293068E+00
         -3   -1    0    0    0  501 -0.00000000000E+00  0.00000000000E+00  0.39197348702E+03  0.39197348702E+03  0.00000000000E+00 0.  1.
          3   -1    0    0  501    0  0.00000000000E+00 -0.00000000000E+00 -0.25944461926E+02  0.25944461926E+02  0.00000000000E+00 0. -1.
         24    1    1    2    0    0  0.16283184413E+02 -0.46202721335E+02  0.25779664248E+03  0.27445611376E+03  0.80419002446E+02 0.  0.
        -24    1    1    2    0    0 -0.16283184413E+02  0.46202721335E+02  0.10823238261E+03  0.14346183518E+03  0.80419002446E+02 0.  1.
<mgrwt>
<rscale>  0 0.94165012E+02</rscale>
<asrwt>0</asrwt>
<pdfrwt beam="1">  1        3 0.39914560E-02 0.94165012E+02</pdfrwt>
<pdfrwt beam="2">  1       -3 0.60303609E-01 0.94165012E+02</pdfrwt>
<totfact> 0.19017606E+03</totfact>
</mgrwt>
</event>
<event>
 4    3  0.8789582E-001  0.8275350E+02  0.7546771E-02  0.1321414E+00
         -1   -1    0    0    0  501 -0.00000000000E+00  0.00000000000E+00  0.46076688741E+02  0.46076688741E+02  0.00000000000E+00 0.  1.
          1   -1    0    0  501    0  0.00000000000E+00 -0.00000000000E+00 -0.22869919485E+03  0.22869919485E+03  0.00000000000E+00 0. -1.
         24    1    1    2    0    0  0.18765693802E+02  0.53642275871E+01 -0.10016423317E+02  0.83357488517E+02  0.80419002446E+02 0.  1.
        -24    1    1    2    0    0 -0.18765693802E+02 -0.53642275871E+01 -0.17260608280E+03  0.19141839508E+03  0.80419002446E+02 0. -1.
<mgrwt>
<rscale>  0 0.82753502E+02</rscale>
<asrwt>0</asrwt>
<pdfrwt beam="1">  1        1 0.35184492E-01 0.82753502E+02</pdfrwt>
<pdfrwt beam="2">  1       -1 0.70887212E-02 0.82753502E+02</pdfrwt>
<totfact> 0.11529119E+04</totfact>
</mgrwt>
</event>
<event>
 4    3  0.8789582E-001  0.8945217E+02  0.7546771E-02  0.1304184E+00
         -2   -1    0    0    0  501 -0.00000000000E+00  0.00000000000E+00  0.43800652772E+01  0.43800652772E+01  0.00000000000E+00 0.  1.
          2   -1    0    0  501    0  0.00000000000E+00 -0.00000000000E+00 -0.19669425303E+04  0.19669425303E+04  0.00000000000E+00 0. -1.
         24    1    1    2    0    0 -0.27503502240E+02  0.27893223262E+02 -0.12443386770E+04  0.12475497720E+04  0.80419002446E+02 0. -1.
        -24    1    1    2    0    0  0.27503502240E+02 -0.27893223262E+02 -0.71822378806E+03  0.72377282363E+03  0.80419002446E+02 0.  1.
<mgrwt>
<rscale>  0 0.89452169E+02</rscale>
<asrwt>0</asrwt>
<pdfrwt beam="1">  1        2 0.30260635E+00 0.89452169E+02</pdfrwt>
<pdfrwt beam="2">  1       -2 0.67385663E-03 0.89452169E+02</pdfrwt>
<totfact> 0.27475625E+04</totfact>
</mgrwt>
</event>
<event>
 4    3  0.8789582E-001  0.1640416E+03  0.7546771E-02  0.1184208E+00
          2   -1    0    0  501    0  0.00000000000E+00  0.00000000000E+00  0.74862794085E+03  0.74862794085E+03  0.00000000000E+00 0. -1.
         -2   -1    0    0    0  501 -0.00000000000E+00 -0.00000000000E+00 -0.67615374831E+02  0.67615374831E+02  0.00000000000E+00 0.  1.
         24    1    1    2    0    0 -0.13849134572E+03 -0.35532930746E+02  0.61981946877E+03  0.64115975531E+03  0.80419002446E+02 0. -1.
        -24    1    1    2    0    0  0.13849134572E+03  0.35532930746E+02  0.61193097251E+02  0.17508356037E+03  0.80419002446E+02 0.  1.
<mgrwt>
<rscale>  0 0.16404163E+03</rscale>
<asrwt>0</asrwt>
<pdfrwt beam="1">  1        2 0.11517352E+00 0.16404163E+03</pdfrwt>
<pdfrwt beam="2">  1       -2 0.10402366E-01 0.16404163E+03</pdfrwt>
<totfact> 0.23767022E+03</totfact>
</mgrwt>
</event>
<event>
 4    3  0.8789582E-001  0.8731342E+02  0.7546771E-02  0.1309491E+00
          1   -1    0    0  501    0  0.00000000000E+00  0.00000000000E+00  0.27804320535E+04  0.27804320535E+04  0.00000000000E+00 0. -1.
         -1   -1    0    0    0  501 -0.00000000000E+00 -0.00000000000E+00 -0.32322366906E+01  0.32322366906E+01  0.00000000000E+00 0.  1.
         24    1    1    2    0    0  0.20073636242E+02 -0.27449354347E+02  0.84648955793E+03  0.85098073161E+03  0.80419002446E+02 0.  0.
        -24    1    1    2    0    0 -0.20073636242E+02  0.27449354347E+02  0.19307102589E+04  0.19326835586E+04  0.80419002446E+02 0.  0.
<mgrwt>
<rscale>  0 0.87313423E+02</rscale>
<asrwt>0</asrwt>
<pdfrwt beam="1">  1        1 0.42775686E+00 0.87313423E+02</pdfrwt>
<pdfrwt beam="2">  1       -1 0.49726941E-03 0.87313423E+02</pdfrwt>
<totfact> 0.52033323E+03</totfact>
</mgrwt>
</event>
<event>
 4    3  0.8789582E-001  0.8994639E+02  0.7546771E-02  0.1302982E+00
         -1   -1    0    0    0  501 -0.00000000000E+00  0.00000000000E+00  0.25455465429E+02  0.25455465429E+02  0.00000000000E+00 0.  1.
          1   -1    0    0  501    0  0.00000000000E+00 -0.00000000000E+00 -0.32601034749E+03  0.32601034749E+03  0.00000000000E+00 0. -1.
         24    1    1    2    0    0  0.37928091798E+02 -0.13586648756E+02 -0.12242986464E+03  0.15191913929E+03  0.80419002446E+02 0. -1.
        -24    1    1    2    0    0 -0.37928091798E+02  0.13586648756E+02 -0.17812501742E+03  0.19954667363E+03  0.80419002446E+02 0.  1.
<mgrwt>
<rscale>  0 0.89946390E+02</rscale>
<asrwt>0</asrwt>
<pdfrwt beam="1">  1        1 0.50155434E-01 0.89946390E+02</pdfrwt>
<pdfrwt beam="2">  1       -1 0.39162257E-02 0.89946390E+02</pdfrwt>
<totfact> 0.17997277E+04</totfact>
</mgrwt>
</event>
<event>
 4    3  0.8789582E-001  0.8160973E+02  0.7546771E-02  0.1324544E+00
          2   -1    0    0  501    0  0.00000000000E+00  0.00000000000E+00  0.10899520776E+04  0.10899520776E+04  0.00000000000E+00 0. -1.
         -2   -1    0    0    0  501 -0.00000000000E+00 -0.00000000000E+00 -0.57146324437E+02  0.57146324437E+02  0.00000000000E+00 0.  1.
         24    1    1    2    0    0  0.13014936049E+02  0.48522257534E+01  0.10584213755E+04  0.10615629783E+04  0.80419002446E+02 0.  0.
        -24    1    1    2    0    0 -0.13014936049E+02 -0.48522257534E+01 -0.25615622385E+02  0.85535423771E+02  0.80419002446E+02 0. -1.
<mgrwt>
<rscale>  0 0.81609734E+02</rscale>
<asrwt>0</asrwt>
<pdfrwt beam="1">  1        2 0.16768492E+00 0.81609734E+02</pdfrwt>
<pdfrwt beam="2">  1       -2 0.87917431E-02 0.81609734E+02</pdfrwt>
<totfact> 0.18647091E+03</totfact>
</mgrwt>
</event>
<event>
 4    3  0.8789582E-001  0.1017135E+03  0.7546771E-02  0.1276733E+00
          1   -1    0    0  501    0  0.00000000000E+00  0.00000000000E+00  0.24621578789E+03  0.24621578789E+03  0.00000000000E+00 0. -1.
         -1   -1    0    0    0  501 -0.00000000000E+00 -0.00000000000E+00 -0.53816562271E+02  0.53816562271E+02  0.00000000000E+00 0.  1.
         24    1    1    2    0    0 -0.50763677418E+01  0.62069692866E+02  0.25959630072E+02  0.10497397120E+03  0.80419002446E+02 0. -1.
        -24    1    1    2    0    0  0.50763677418E+01 -0.62069692866E+02  0.16643959555E+03  0.19505837896E+03  0.80419002446E+02 0.  0.
<mgrwt>
<rscale>  0 0.10171348E+03</rscale>
<asrwt>0</asrwt>
<pdfrwt beam="1">  1        1 0.37879351E-01 0.10171348E+03</pdfrwt>
<pdfrwt beam="2">  1       -1 0.82794713E-02 0.10171348E+03</pdfrwt>
<totfact> 0.85134226E+03</totfact>
</mgrwt>
</event>
<event>
 4    3  0.8789582E-001  0.8777133E+02  0.7546771E-02  0.1308340E+00
         -2   -1    0    0    0  501 -0.00000000000E+00  0.00000000000E+00  0.17427127191E+02  0.17427127191E+02  0.00000000000E+00 0.  1.
          2   -1    0    0  501    0  0.00000000000E+00 -0.00000000000E+00 -0.61725942407E+03  0.61725942407E+03  0.00000000000E+00 0. -1.
         24    1    1    2    0    0  0.31294231521E+02 -0.16039388546E+02 -0.46898508998E+03  0.47712767839E+03  0.80419002446E+02 0. -1.
        -24    1    1    2    0    0 -0.31294231521E+02  0.16039388546E+02 -0.13084720690E+03  0.15755887287E+03  0.80419002446E+02 0.  1.
<mgrwt>
<rscale>  0 0.87771333E+02</rscale>
<asrwt>0</asrwt>
<pdfrwt beam="1">  1        2 0.94962977E-01 0.87771333E+02</pdfrwt>
<pdfrwt beam="2">  1       -2 0.26810968E-02 0.87771333E+02</pdfrwt>
<totfact> 0.22102826E+04</totfact>
</mgrwt>
</event>
<event>
 4    3  0.8789582E-001  0.8804168E+02  0.7546771E-02  0.1307665E+00
          1   -1    0    0  501    0  0.00000000000E+00  0.00000000000E+00  0.11236170607E+04  0.11236170607E+04  0.00000000000E+00 0. -1.
         -1   -1    0    0    0  501 -0.00000000000E+00 -0.00000000000E+00 -0.38385177491E+02  0.38385177491E+02  0.00000000000E+00 0.  1.
         24    1    1    2    0    0  0.23019798109E+01 -0.35760618283E+02  0.16407011808E+02  0.89557394569E+02  0.80419002446E+02 0.  1.
        -24    1    1    2    0    0 -0.23019798109E+01  0.35760618283E+02  0.10688248714E+04  0.10724448436E+04  0.80419002446E+02 0. -1.
<mgrwt>
<rscale>  0 0.88041677E+02</rscale>
<asrwt>0</asrwt>
<pdfrwt beam="1">  1        1 0.17286414E+00 0.88041677E+02</pdfrwt>
<pdfrwt beam="2">  1       -1 0.59054128E-02 0.88041677E+02</pdfrwt>
<totfact> 0.17587083E+03</totfact>
</mgrwt>
</event>
<event>
 4    3  0.8789582E-001  0.2388291E+03  0.7546771E-02  0.1120575E+00
         -2   -1    0    0    0  501 -0.00000000000E+00  0.00000000000E+00  0.25306936222E+04  0.25306936222E+04  0.00000000000E+00 0.  1.
          2   -1    0    0  501    0  0.00000000000E+00 -0.00000000000E+00 -0.22735861658E+02  0.22735861658E+02  0.00000000000E+00 0. -1.
         24    1    1    2    0    0 -0.13178461724E+03  0.18222214450E+03  0.13727785905E+04  0.13933988553E+04  0.80419002446E+02 0.  1.
        -24    1    1    2    0    0  0.13178461724E+03 -0.18222214450E+03  0.11351791700E+04  0.11600306286E+04  0.80419002446E+02 0. -1.
<mgrwt>
<rscale>  0 0.23882907E+03</rscale>
<asrwt>0</asrwt>
<pdfrwt beam="1">  1        2 0.34978269E-02 0.23882910E+03</pdfrwt>
<pdfrwt beam="2">  1       -2 0.38933726E+00 0.23882910E+03</pdfrwt>
<totfact> 0.26913124E+01</totfact>
</mgrwt>
</event>
