<event>
 4    1  0.5097315E-001  0.9954971E+02  0.7546771E-02  0.1281246E+00
         -2   -1    0    0    0  501 -0.00000000000E+00  0.00000000000E+00  0.17721925613E+02  0.17721925613E+02  0.00000000000E+00 0.  1.
          2   -1    0    0  501    0  0.00000000000E+00 -0.00000000000E+00 -0.70554299248E+03  0.70554299248E+03  0.00000000000E+00 0. -1.
         24    1    1    2    0    0  0.16528496848E+02 -0.56300415155E+02 -0.50860841749E+03  0.51825926547E+03  0.80419002446E+02 0. -1.
        -24    1    1    2    0    0 -0.16528496848E+02  0.56300415155E+02 -0.17921264938E+03  0.20500565262E+03  0.80419002446E+02 0.  1.
<mgrwt>
<rscale>  0 0.99549706E+02</rscale>
<asrwt>0</asrwt>
<pdfrwt beam="1">  1        2 0.10854504E+00 0.99549706E+02</pdfrwt>
<pdfrwt beam="2">  1       -2 0.27264510E-02 0.99549706E+02</pdfrwt>
<totfact> 0.18721282E+04</totfact>
</mgrwt>
</event>
<event>
 4    1  0.5097315E-001  0.8216362E+02  0.7546771E-02  0.1323021E+00
         -1   -1    0    0    0  501 -0.00000000000E+00  0.00000000000E+00  0.61832449070E+02  0.61832449070E+02  0.00000000000E+00 0.  1.
          1   -1    0    0  501    0  0.00000000000E+00 -0.00000000000E+00 -0.29819491746E+03  0.29819491746E+03  0.00000000000E+00 0. -1.
         24    1    1    2    0    0 -0.14498196051E+02 -0.85701113956E+01  0.25137696055E+02  0.85923013305E+02  0.80419002446E+02 0.  1.
        -24    1    1    2    0    0  0.14498196051E+02  0.85701113956E+01 -0.26150016445E+03  0.27410435323E+03  0.80419002446E+02 0.  0.
<mgrwt>
<rscale>  0 0.82163620E+02</rscale>
<asrwt>0</asrwt>
<pdfrwt beam="1">  1        1 0.45876141E-01 0.82163620E+02</pdfrwt>
<pdfrwt beam="2">  1       -1 0.95126845E-02 0.82163620E+02</pdfrwt>
<totfact> 0.53832487E+03</totfact>
</mgrwt>
</event>
<event>
 4    1  0.5097315E-001  0.1064116E+03  0.7546771E-02  0.1267363E+00
          1   -1    0    0  501    0  0.00000000000E+00  0.00000000000E+00  0.55718704779E+02  0.55718704779E+02  0.00000000000E+00 0. -1.
         -1   -1    0    0    0  501 -0.00000000000E+00 -0.00000000000E+00 -0.24806744388E+03  0.24806744388E+03  0.00000000000E+00 0.  1.
         24    1    1    2    0    0 -0.29996253628E+02  0.62900160544E+02 -0.16075448254E+03  0.19278336297E+03  0.80419002446E+02 0.  1.
        -24    1    1    2    0    0  0.29996253628E+02 -0.62900160544E+02 -0.31594256561E+02  0.11100278569E+03  0.80419002446E+02 0. -1.
<mgrwt>
<rscale>  0 0.10641157E+03</rscale>
<asrwt>0</asrwt>
<pdfrwt beam="1">  1        1 0.85721084E-02 0.10641157E+03</pdfrwt>
<pdfrwt beam="2">  1       -1 0.38164222E-01 0.10641157E+03</pdfrwt>
<totfact> 0.49793025E+03</totfact>
</mgrwt>
</event>
<event>
 4    1  0.5097315E-001  0.9796671E+02  0.7546771E-02  0.1284631E+00
          1   -1    0    0  501    0  0.00000000000E+00  0.00000000000E+00  0.24940095418E+03  0.24940095418E+03  0.00000000000E+00 0. -1.
         -1   -1    0    0    0  501 -0.00000000000E+00 -0.00000000000E+00 -0.47529925742E+02  0.47529925742E+02  0.00000000000E+00 0.  1.
         24    1    1    2    0    0  0.55670459209E+02 -0.55732521358E+01  0.36159612584E+02  0.10442698265E+03  0.80419002446E+02 0.  1.
        -24    1    1    2    0    0 -0.55670459209E+02  0.55732521358E+01  0.16571141586E+03  0.19250389728E+03  0.80419002446E+02 0. -1.
<mgrwt>
<rscale>  0 0.97966714E+02</rscale>
<asrwt>0</asrwt>
<pdfrwt beam="1">  1        1 0.38369377E-01 0.97966714E+02</pdfrwt>
<pdfrwt beam="2">  1       -1 0.73122964E-02 0.97966714E+02</pdfrwt>
<totfact> 0.10058176E+04</totfact>
</mgrwt>
</event>
<event>
 4    1  0.5097315E-001  0.8154911E+02  0.7546771E-02  0.1324712E+00
         -2   -1    0    0    0  501 -0.00000000000E+00  0.00000000000E+00  0.41963533352E+03  0.41963533352E+03  0.00000000000E+00 0.  1.
          2   -1    0    0  501    0  0.00000000000E+00 -0.00000000000E+00 -0.17535900901E+02  0.17535900901E+02  0.00000000000E+00 0. -1.
         24    1    1    2    0    0  0.88716401550E+01  0.10214506783E+02  0.13322802503E+03  0.15620488070E+03  0.80419002446E+02 0. -1.
        -24    1    1    2    0    0 -0.88716401550E+01 -0.10214506783E+02  0.26887140759E+03  0.28096635372E+03  0.80419002446E+02 0.  1.
<mgrwt>
<rscale>  0 0.81549115E+02</rscale>
<asrwt>0</asrwt>
<pdfrwt beam="1">  1        2 0.26978312E-02 0.81549115E+02</pdfrwt>
<pdfrwt beam="2">  1       -2 0.64559274E-01 0.81549115E+02</pdfrwt>
<totfact> 0.73266702E+03</totfact>
</mgrwt>
</event>
<event>
 4    1  0.5097315E-001  0.8792274E+02  0.7546771E-02  0.1307961E+00
          1   -1    0    0  501    0  0.00000000000E+00  0.00000000000E+00  0.11124195779E+04  0.11124195779E+04  0.00000000000E+00 0. -1.
         -1   -1    0    0    0  501 -0.00000000000E+00 -0.00000000000E+00 -0.76568428881E+01  0.76568428881E+01  0.00000000000E+00 0.  1.
         24    1    1    2    0    0 -0.35481714862E+02  0.20593361306E+01  0.38212450933E+03  0.39210910413E+03  0.80419002446E+02 0.  0.
        -24    1    1    2    0    0  0.35481714862E+02 -0.20593361306E+01  0.72263822570E+03  0.72796731668E+03  0.80419002446E+02 0.  1.
<mgrwt>
<rscale>  0 0.87922744E+02</rscale>
<asrwt>0</asrwt>
<pdfrwt beam="1">  1        1 0.17114134E+00 0.87922744E+02</pdfrwt>
<pdfrwt beam="2">  1       -1 0.11779767E-02 0.87922744E+02</pdfrwt>
<totfact> 0.18146967E+04</totfact>
</mgrwt>
</event>
<event>
 4    1  0.5097315E-001  0.8310311E+02  0.7546771E-02  0.1320469E+00
          2   -1    0    0  501    0  0.00000000000E+00  0.00000000000E+00  0.61087913573E+03  0.61087913573E+03  0.00000000000E+00 0. -1.
         -2   -1    0    0    0  501 -0.00000000000E+00 -0.00000000000E+00 -0.13047644693E+02  0.13047644693E+02  0.00000000000E+00 0.  1.
         24    1    1    2    0    0  0.15040223971E+02  0.14584338409E+02  0.41291807433E+03  0.42119765352E+03  0.80419002446E+02 0.  0.
        -24    1    1    2    0    0 -0.15040223971E+02 -0.14584338409E+02  0.18491341670E+03  0.20272912690E+03  0.80419002446E+02 0.  0.
<mgrwt>
<rscale>  0 0.83103112E+02</rscale>
<asrwt>0</asrwt>
<pdfrwt beam="1">  1        2 0.93981383E-01 0.83103112E+02</pdfrwt>
<pdfrwt beam="2">  1       -2 0.20073304E-02 0.83103112E+02</pdfrwt>
<totfact> 0.33723849E+04</totfact>
</mgrwt>
</event>
<event>
 4    1  0.5097315E-001  0.9430446E+02  0.7546771E-02  0.1292750E+00
          2   -1    0    0  501    0  0.00000000000E+00  0.00000000000E+00  0.78868762662E+02  0.78868762662E+02  0.00000000000E+00 0. -1.
         -2   -1    0    0    0  501 -0.00000000000E+00 -0.00000000000E+00 -0.11497292967E+03  0.11497292967E+03  0.00000000000E+00 0.  1.
         24    1    1    2    0    0  0.30751773361E+02 -0.38476471673E+02 -0.31495132427E+02  0.99424693906E+02  0.80419002446E+02 0.  1.
        -24    1    1    2    0    0 -0.30751773361E+02  0.38476471673E+02 -0.46090345791E+01  0.94416998424E+02  0.80419002446E+02 0. -1.
<mgrwt>
<rscale>  0 0.94304446E+02</rscale>
<asrwt>0</asrwt>
<pdfrwt beam="1">  1        2 0.12133656E-01 0.94304458E+02</pdfrwt>
<pdfrwt beam="2">  1       -2 0.17688143E-01 0.94304458E+02</pdfrwt>
<totfact> 0.11814737E+04</totfact>
</mgrwt>
</event>
<event>
 4    1  0.5097315E-001  0.8437205E+02  0.7546771E-02  0.1317083E+00
         -1   -1    0    0    0  501 -0.00000000000E+00  0.00000000000E+00  0.21209405039E+03  0.21209405039E+03  0.00000000000E+00 0.  1.
          1   -1    0    0  501    0  0.00000000000E+00 -0.00000000000E+00 -0.33846534148E+02  0.33846534148E+02  0.00000000000E+00 0. -1.
         24    1    1    2    0    0  0.20531905332E+02 -0.15161378986E+02  0.10036660395E+03  0.13111863976E+03  0.80419002446E+02 0.  1.
        -24    1    1    2    0    0 -0.20531905332E+02  0.15161378986E+02  0.77880912294E+02  0.11482194478E+03  0.80419002446E+02 0.  0.
<mgrwt>
<rscale>  0 0.84372048E+02</rscale>
<asrwt>0</asrwt>
<pdfrwt beam="1">  1        1 0.52071592E-02 0.84372048E+02</pdfrwt>
<pdfrwt beam="2">  1       -1 0.32629853E-01 0.84372048E+02</pdfrwt>
<totfact> 0.12396785E+04</totfact>
</mgrwt>
</event>
<event>
 4    1  0.5097315E-001  0.8049938E+02  0.7546771E-02  0.1327640E+00
          2   -1    0    0  501    0  0.00000000000E+00  0.00000000000E+00  0.63447854959E+03  0.63447854959E+03  0.00000000000E+00 0. -1.
         -2   -1    0    0    0  501 -0.00000000000E+00 -0.00000000000E+00 -0.39514430579E+02  0.39514430579E+02  0.00000000000E+00 0.  1.
         24    1    1    2    0    0  0.72762743369E+00 -0.35221520932E+01  0.58767666726E+03  0.59316440907E+03  0.80419002446E+02 0.  0.
        -24    1    1    2    0    0 -0.72762743369E+00  0.35221520932E+01  0.72874517466E+01  0.80828571090E+02  0.80419002446E+02 0.  1.
<mgrwt>
<rscale>  0 0.80499385E+02</rscale>
<asrwt>0</asrwt>
<pdfrwt beam="1">  1        2 0.97612078E-01 0.80499385E+02</pdfrwt>
<pdfrwt beam="2">  1       -2 0.60791436E-02 0.80499385E+02</pdfrwt>
<totfact> 0.63909615E+03</totfact>
</mgrwt>
</event>
<event>
 4    1  0.5097315E-001  0.1029123E+03  0.7546771E-02  0.1274288E+00
         -2   -1    0    0    0  501 -0.00000000000E+00  0.00000000000E+00  0.26891129645E+02  0.26891129645E+02  0.00000000000E+00 0.  1.
          2   -1    0    0  501    0  0.00000000000E+00 -0.00000000000E+00 -0.13112948402E+04  0.13112948402E+04  0.00000000000E+00 0. -1.
         24    1    1    2    0    0 -0.55975253077E+02 -0.31472236392E+02 -0.12018658659E+04  0.12062638626E+04  0.80419002446E+02 0. -1.
        -24    1    1    2    0    0  0.55975253077E+02  0.31472236392E+02 -0.82537844579E+02  0.13192210718E+03  0.80419002446E+02 0.  1.
<mgrwt>
<rscale>  0 0.10291232E+03</rscale>
<asrwt>0</asrwt>
<pdfrwt beam="1">  1        2 0.20173767E+00 0.10291232E+03</pdfrwt>
<pdfrwt beam="2">  1       -2 0.41370969E-02 0.10291232E+03</pdfrwt>
<totfact> 0.44126727E+03</totfact>
</mgrwt>
</event>
<event>
 4    1  0.5097315E-001  0.9840754E+02  0.7546771E-02  0.1283681E+00
         -2   -1    0    0    0  501 -0.00000000000E+00  0.00000000000E+00  0.27234890632E+02  0.27234890632E+02  0.00000000000E+00 0.  1.
          2   -1    0    0  501    0  0.00000000000E+00 -0.00000000000E+00 -0.61159316692E+03  0.61159316692E+03  0.00000000000E+00 0. -1.
         24    1    1    2    0    0  0.17495553473E+02  0.53951223950E+02 -0.49883993871E+03  0.50845386159E+03  0.80419002446E+02 0. -1.
        -24    1    1    2    0    0 -0.17495553473E+02 -0.53951223950E+02 -0.85518337579E+02  0.13037419597E+03  0.80419002446E+02 0.  1.
<mgrwt>
<rscale>  0 0.98407545E+02</rscale>
<asrwt>0</asrwt>
<pdfrwt beam="1">  1        2 0.94091255E-01 0.98407545E+02</pdfrwt>
<pdfrwt beam="2">  1       -2 0.41899832E-02 0.98407545E+02</pdfrwt>
<totfact> 0.11750907E+04</totfact>
</mgrwt>
</event>
<event>
 4    1  0.5097315E-001  0.8345253E+02  0.7546771E-02  0.1319530E+00
          2   -1    0    0  501    0  0.00000000000E+00  0.00000000000E+00  0.19492748220E+02  0.19492748220E+02  0.00000000000E+00 0. -1.
         -2   -1    0    0    0  501 -0.00000000000E+00 -0.00000000000E+00 -0.75308937310E+03  0.75308937310E+03  0.00000000000E+00 0.  1.
         24    1    1    2    0    0 -0.15292024505E+02 -0.16225379789E+02 -0.86748246867E+02  0.12037268482E+03  0.80419002446E+02 0. -1.
        -24    1    1    2    0    0  0.15292024505E+02  0.16225379789E+02 -0.64684837801E+03  0.65220943649E+03  0.80419002446E+02 0.  1.
<mgrwt>
<rscale>  0 0.83452531E+02</rscale>
<asrwt>0</asrwt>
<pdfrwt beam="1">  1        2 0.29988838E-02 0.83452531E+02</pdfrwt>
<pdfrwt beam="2">  1       -2 0.11585992E+00 0.83452531E+02</pdfrwt>
<totfact> 0.17544672E+03</totfact>
</mgrwt>
</event>
<event>
 4    1  0.5097315E-001  0.8268071E+02  0.7546771E-02  0.1321612E+00
          1   -1    0    0  501    0  0.00000000000E+00  0.00000000000E+00  0.28325615671E+03  0.28325615671E+03  0.00000000000E+00 0. -1.
         -1   -1    0    0    0  501 -0.00000000000E+00 -0.00000000000E+00 -0.31303311700E+02  0.31303311700E+02  0.00000000000E+00 0.  1.
         24    1    1    2    0    0  0.25137219150E+01 -0.19041121491E+02  0.50707293167E+02  0.96991384360E+02  0.80419002446E+02 0.  1.
        -24    1    1    2    0    0 -0.25137219150E+01  0.19041121491E+02  0.20124555184E+03  0.21756808404E+03  0.80419002446E+02 0. -1.
<mgrwt>
<rscale>  0 0.82680705E+02</rscale>
<asrwt>0</asrwt>
<pdfrwt beam="1">  1        1 0.43577869E-01 0.82680705E+02</pdfrwt>
<pdfrwt beam="2">  1       -1 0.48158943E-02 0.82680705E+02</pdfrwt>
<totfact> 0.15676728E+04</totfact>
</mgrwt>
</event>
<event>
 4    1  0.5097315E-001  0.8307745E+02  0.7546771E-02  0.1320538E+00
          1   -1    0    0  501    0  0.00000000000E+00  0.00000000000E+00  0.57224147426E+03  0.57224147426E+03  0.00000000000E+00 0. -1.
         -1   -1    0    0    0  501 -0.00000000000E+00 -0.00000000000E+00 -0.12759059285E+02  0.12759059285E+02  0.00000000000E+00 0.  1.
         24    1    1    2    0    0 -0.16225775665E+02  0.13090862168E+02  0.21132932190E+03  0.22707255386E+03  0.80419002446E+02 0.  0.
        -24    1    1    2    0    0  0.16225775665E+02 -0.13090862168E+02  0.34815309308E+03  0.35792797968E+03  0.80419002446E+02 0.  1.
<mgrwt>
<rscale>  0 0.83077448E+02</rscale>
<asrwt>0</asrwt>
<pdfrwt beam="1">  1        1 0.88037130E-01 0.83077448E+02</pdfrwt>
<pdfrwt beam="2">  1       -1 0.19629326E-02 0.83077448E+02</pdfrwt>
<totfact> 0.23697160E+04</totfact>
</mgrwt>
</event>
<event>
 4    1  0.5097315E-001  0.9383551E+02  0.7546771E-02  0.1293821E+00
         -2   -1    0    0    0  501 -0.00000000000E+00  0.00000000000E+00  0.11041627038E+02  0.11041627038E+02  0.00000000000E+00 0.  1.
          2   -1    0    0  501    0  0.00000000000E+00 -0.00000000000E+00 -0.90032041303E+03  0.90032041303E+03  0.00000000000E+00 0. -1.
         24    1    1    2    0    0  0.47437492251E+02  0.93579123009E+01 -0.59867315313E+03  0.60598238128E+03  0.80419002446E+02 0. -1.
        -24    1    1    2    0    0 -0.47437492251E+02 -0.93579123009E+01 -0.29060563286E+03  0.30537965878E+03  0.80419002446E+02 0.  1.
<mgrwt>
<rscale>  0 0.93835506E+02</rscale>
<asrwt>0</asrwt>
<pdfrwt beam="1">  1        2 0.13851086E+00 0.93835506E+02</pdfrwt>
<pdfrwt beam="2">  1       -2 0.16987115E-02 0.93835506E+02</pdfrwt>
<totfact> 0.27322594E+04</totfact>
</mgrwt>
</event>
<event>
 4    1  0.5097315E-001  0.9530738E+02  0.7546771E-02  0.1290485E+00
         -2   -1    0    0    0  501 -0.00000000000E+00  0.00000000000E+00  0.60075214996E+01  0.60075214996E+01  0.00000000000E+00 0.  1.
          2   -1    0    0  501    0  0.00000000000E+00 -0.00000000000E+00 -0.22580556625E+04  0.22580556625E+04  0.00000000000E+00 0. -1.
         24    1    1    2    0    0 -0.25707986514E+02  0.44219676662E+02 -0.17767091402E+04  0.17792635738E+04  0.80419002446E+02 0. -1.
        -24    1    1    2    0    0  0.25707986514E+02 -0.44219676662E+02 -0.47533900088E+03  0.48479961024E+03  0.80419002446E+02 0. -1.
<mgrwt>
<rscale>  0 0.95307378E+02</rscale>
<asrwt>0</asrwt>
<pdfrwt beam="1">  1        2 0.34739327E+00 0.95307378E+02</pdfrwt>
<pdfrwt beam="2">  1       -2 0.92423385E-03 0.95307378E+02</pdfrwt>
<totfact> 0.12574796E+04</totfact>
</mgrwt>
</event>
<event>
 4    1  0.5097315E-001  0.1180415E+03  0.7546771E-02  0.1246363E+00
          2   -1    0    0  501    0  0.00000000000E+00  0.00000000000E+00  0.71709252740E+03  0.71709252740E+03  0.00000000000E+00 0. -1.
         -2   -1    0    0    0  501 -0.00000000000E+00 -0.00000000000E+00 -0.19879123906E+02  0.19879123906E+02  0.00000000000E+00 0.  1.
         24    1    1    2    0    0  0.70785193152E+02 -0.49558519888E+02  0.40393326726E+03  0.42082762602E+03  0.80419002446E+02 0. -1.
        -24    1    1    2    0    0 -0.70785193152E+02  0.49558519888E+02  0.29328013622E+03  0.31614402528E+03  0.80419002446E+02 0.  1.
<mgrwt>
<rscale>  0 0.11804155E+03</rscale>
<asrwt>0</asrwt>
<pdfrwt beam="1">  1        2 0.11032191E+00 0.11804155E+03</pdfrwt>
<pdfrwt beam="2">  1       -2 0.30583273E-02 0.11804155E+03</pdfrwt>
<totfact> 0.15753410E+04</totfact>
</mgrwt>
</event>
<event>
 4    1  0.5097315E-001  0.8370837E+02  0.7546771E-02  0.1318845E+00
         -2   -1    0    0    0  501 -0.00000000000E+00  0.00000000000E+00  0.76338680062E+01  0.76338680062E+01  0.00000000000E+00 0.  1.
          2   -1    0    0  501    0  0.00000000000E+00 -0.00000000000E+00 -0.14562037636E+04  0.14562037636E+04  0.00000000000E+00 0. -1.
         24    1    1    2    0    0  0.19433921967E+02  0.12735726675E+02 -0.11692925373E+04  0.11722850036E+04  0.80419002446E+02 0.  0.
        -24    1    1    2    0    0 -0.19433921967E+02 -0.12735726675E+02 -0.27927735839E+03  0.29155262804E+03  0.80419002446E+02 0.  0.
<mgrwt>
<rscale>  0 0.83708375E+02</rscale>
<asrwt>0</asrwt>
<pdfrwt beam="1">  1        2 0.22403128E+00 0.83708375E+02</pdfrwt>
<pdfrwt beam="2">  1       -2 0.11744416E-02 0.83708375E+02</pdfrwt>
<totfact> 0.22561763E+04</totfact>
</mgrwt>
</event>
<event>
 4    1  0.5097315E-001  0.9269719E+02  0.7546771E-02  0.1296448E+00
         -2   -1    0    0    0  501 -0.00000000000E+00  0.00000000000E+00  0.17281796743E+02  0.17281796743E+02  0.00000000000E+00 0.  1.
          2   -1    0    0  501    0  0.00000000000E+00 -0.00000000000E+00 -0.60594600266E+03  0.60594600266E+03  0.00000000000E+00 0. -1.
         24    1    1    2    0    0 -0.76044687480E+01  0.45472237874E+02 -0.42633290937E+03  0.43629407277E+03  0.80419002446E+02 0. -1.
        -24    1    1    2    0    0  0.76044687480E+01 -0.45472237874E+02 -0.16233129654E+03  0.18693372663E+03  0.80419002446E+02 0.  1.
<mgrwt>
<rscale>  0 0.92697186E+02</rscale>
<asrwt>0</asrwt>
<pdfrwt beam="1">  1        2 0.93222474E-01 0.92697186E+02</pdfrwt>
<pdfrwt beam="2">  1       -2 0.26587376E-02 0.92697186E+02</pdfrwt>
<totfact> 0.22967392E+04</totfact>
</mgrwt>
</event>
<event>
 4    1  0.5097315E-001  0.8492846E+02  0.7546771E-02  0.1315620E+00
          2   -1    0    0  501    0  0.00000000000E+00  0.00000000000E+00  0.14855379463E+04  0.14855379463E+04  0.00000000000E+00 0. -1.
         -2   -1    0    0    0  501 -0.00000000000E+00 -0.00000000000E+00 -0.14645520919E+02  0.14645520919E+02  0.00000000000E+00 0.  1.
         24    1    1    2    0    0 -0.26010276956E+02  0.83122420453E+01  0.13487230323E+04  0.13513943398E+04  0.80419002446E+02 0. -1.
        -24    1    1    2    0    0  0.26010276956E+02 -0.83122420453E+01  0.12216939312E+03  0.14878912744E+03  0.80419002446E+02 0.  1.
<mgrwt>
<rscale>  0 0.84928463E+02</rscale>
<asrwt>0</asrwt>
<pdfrwt beam="1">  1        2 0.22854418E+00 0.84928463E+02</pdfrwt>
<pdfrwt beam="2">  1       -2 0.22531582E-02 0.84928463E+02</pdfrwt>
<totfact> 0.86130179E+03</totfact>
</mgrwt>
</event>
<event>
 4    1  0.5097315E-001  0.8912037E+02  0.7546771E-02  0.1304996E+00
         -3   -1    0    0    0  501 -0.00000000000E+00  0.00000000000E+00  0.23212329253E+03  0.23212329253E+03  0.00000000000E+00 0.  1.
          3   -1    0    0  501    0  0.00000000000E+00 -0.00000000000E+00 -0.81571993129E+02  0.81571993129E+02  0.00000000000E+00 0. -1.
         24    1    1    2    0    0 -0.38333278589E+02  0.24049322520E+01  0.19478249279E+03  0.21420237954E+03  0.80419002446E+02 0.  1.
        -24    1    1    2    0    0  0.38333278589E+02 -0.24049322520E+01 -0.44231193388E+02  0.99492906126E+02  0.80419002446E+02 0. -1.
<mgrwt>
<rscale>  0 0.89120367E+02</rscale>
<asrwt>0</asrwt>
<pdfrwt beam="1">  1        3 0.12549538E-01 0.89120367E+02</pdfrwt>
<pdfrwt beam="2">  1       -3 0.35711275E-01 0.89120367E+02</pdfrwt>
<totfact> 0.83671822E+02</totfact>
</mgrwt>
</event>
<event>
 4    1  0.5097315E-001  0.8448231E+02  0.7546771E-02  0.1316792E+00
          1   -1    0    0  501    0  0.00000000000E+00  0.00000000000E+00  0.29724701526E+04  0.29724701526E+04  0.00000000000E+00 0. -1.
         -1   -1    0    0    0  501 -0.00000000000E+00 -0.00000000000E+00 -0.30033540684E+01  0.30033540684E+01  0.00000000000E+00 0.  1.
         24    1    1    2    0    0  0.14705777643E+02 -0.21302233981E+02  0.81853273511E+03  0.82288097527E+03  0.80419002446E+02 0.  1.
        -24    1    1    2    0    0 -0.14705777643E+02  0.21302233981E+02  0.21509340635E+04  0.21525925314E+04  0.80419002446E+02 0. -1.
<mgrwt>
<rscale>  0 0.84482312E+02</rscale>
<asrwt>0</asrwt>
<pdfrwt beam="1">  1        1 0.45730075E+00 0.84482312E+02</pdfrwt>
<pdfrwt beam="2">  1       -1 0.46205685E-03 0.84482312E+02</pdfrwt>
<totfact> 0.42880799E+03</totfact>
</mgrwt>
</event>
<event>
 4    1  0.5097315E-001  0.8457641E+02  0.7546771E-02  0.1316544E+00
          2   -1    0    0  501    0  0.00000000000E+00  0.00000000000E+00  0.32410512797E+03  0.32410512797E+03  0.00000000000E+00 0. -1.
         -2   -1    0    0    0  501 -0.00000000000E+00 -0.00000000000E+00 -0.84608772137E+02  0.84608772137E+02  0.00000000000E+00 0.  1.
         24    1    1    2    0    0  0.26173875137E+02 -0.93872173488E+00  0.29544122854E+03  0.30730878350E+03  0.80419002446E+02 0. -1.
        -24    1    1    2    0    0 -0.26173875137E+02  0.93872173488E+00 -0.55944872707E+02  0.10140511661E+03  0.80419002446E+02 0.  1.
<mgrwt>
<rscale>  0 0.84576409E+02</rscale>
<asrwt>0</asrwt>
<pdfrwt beam="1">  1        2 0.49862327E-01 0.84576409E+02</pdfrwt>
<pdfrwt beam="2">  1       -2 0.13016734E-01 0.84576409E+02</pdfrwt>
<totfact> 0.40759890E+03</totfact>
</mgrwt>
</event>
<event>
 4    1  0.5097315E-001  0.9386757E+02  0.7546771E-02  0.1293747E+00
         -2   -1    0    0    0  501 -0.00000000000E+00  0.00000000000E+00  0.14976318730E+02  0.14976318730E+02  0.00000000000E+00 0.  1.
          2   -1    0    0  501    0  0.00000000000E+00 -0.00000000000E+00 -0.60181105750E+03  0.60181105750E+03  0.00000000000E+00 0. -1.
         24    1    1    2    0    0 -0.18377726704E+02  0.44790171953E+02 -0.24727167343E+03  0.26448893507E+03  0.80419002446E+02 0. -1.
        -24    1    1    2    0    0  0.18377726704E+02 -0.44790171953E+02 -0.33956306535E+03  0.35229844116E+03  0.80419002446E+02 0.  0.
<mgrwt>
<rscale>  0 0.93867558E+02</rscale>
<asrwt>0</asrwt>
<pdfrwt beam="1">  1        2 0.92586324E-01 0.93867570E+02</pdfrwt>
<pdfrwt beam="2">  1       -2 0.23040489E-02 0.93867570E+02</pdfrwt>
<totfact> 0.28504836E+04</totfact>
</mgrwt>
</event>
<event>
 4    1  0.5097315E-001  0.8750042E+02  0.7546771E-02  0.1309020E+00
          1   -1    0    0  501    0  0.00000000000E+00  0.00000000000E+00  0.13828771327E+03  0.13828771327E+03  0.00000000000E+00 0. -1.
         -1   -1    0    0    0  501 -0.00000000000E+00 -0.00000000000E+00 -0.57346936980E+02  0.57346936980E+02  0.00000000000E+00 0.  1.
         24    1    1    2    0    0  0.16105039734E+02 -0.30491561924E+02  0.22286519442E+02  0.90294033893E+02  0.80419002446E+02 0. -1.
        -24    1    1    2    0    0 -0.16105039734E+02  0.30491561924E+02  0.58654256844E+02  0.10534061635E+03  0.80419002446E+02 0.  0.
<mgrwt>
<rscale>  0 0.87500421E+02</rscale>
<asrwt>0</asrwt>
<pdfrwt beam="1">  1        1 0.21275033E-01 0.87500421E+02</pdfrwt>
<pdfrwt beam="2">  1       -1 0.88226057E-02 0.87500421E+02</pdfrwt>
<totfact> 0.15556095E+04</totfact>
</mgrwt>
</event>
<event>
 4    1  0.5097315E-001  0.9032940E+02  0.7546771E-02  0.1302056E+00
          1   -1    0    0  501    0  0.00000000000E+00  0.00000000000E+00  0.72410458809E+03  0.72410458809E+03  0.00000000000E+00 0. -1.
         -1   -1    0    0    0  501 -0.00000000000E+00 -0.00000000000E+00 -0.15072132184E+02  0.15072132184E+02  0.00000000000E+00 0.  1.
         24    1    1    2    0    0 -0.38881385496E+02 -0.13432134836E+02  0.16884535827E+03  0.19148930870E+03  0.80419002446E+02 0.  1.
        -24    1    1    2    0    0  0.38881385496E+02  0.13432134836E+02  0.54018709764E+03  0.54768741157E+03  0.80419002446E+02 0. -1.
<mgrwt>
<rscale>  0 0.90329399E+02</rscale>
<asrwt>0</asrwt>
<pdfrwt beam="1">  1        1 0.11140068E+00 0.90329399E+02</pdfrwt>
<pdfrwt beam="2">  1       -1 0.23187901E-02 0.90329399E+02</pdfrwt>
<totfact> 0.13652399E+04</totfact>
</mgrwt>
</event>
<event>
 4    1  0.5097315E-001  0.9253272E+02  0.7546771E-02  0.1296832E+00
          1   -1    0    0  501    0  0.00000000000E+00  0.00000000000E+00  0.15141480090E+04  0.15141480090E+04  0.00000000000E+00 0. -1.
         -1   -1    0    0    0  501 -0.00000000000E+00 -0.00000000000E+00 -0.24357631961E+02  0.24357631961E+02  0.00000000000E+00 0.  1.
         24    1    1    2    0    0  0.45743710579E+02 -0.16126227304E+01  0.70825980102E+02  0.11652734881E+03  0.80419002446E+02 0.  1.
        -24    1    1    2    0    0 -0.45743710579E+02  0.16126227304E+01  0.14189643969E+04  0.14219782921E+04  0.80419002446E+02 0. -1.
<mgrwt>
<rscale>  0 0.92532716E+02</rscale>
<asrwt>0</asrwt>
<pdfrwt beam="1">  1        1 0.23294577E+00 0.92532716E+02</pdfrwt>
<pdfrwt beam="2">  1       -1 0.37473292E-02 0.92532716E+02</pdfrwt>
<totfact> 0.18928069E+03</totfact>
</mgrwt>
</event>
<event>
 4    1  0.5097315E-001  0.8452305E+02  0.7546771E-02  0.1316685E+00
          1   -1    0    0  501    0  0.00000000000E+00  0.00000000000E+00  0.42610067318E+02  0.42610067318E+02  0.00000000000E+00 0. -1.
         -1   -1    0    0    0  501 -0.00000000000E+00 -0.00000000000E+00 -0.44485685985E+03  0.44485685985E+03  0.00000000000E+00 0.  1.
         24    1    1    2    0    0  0.25492486474E+02 -0.52022537238E+01 -0.39351962265E+03  0.40249452130E+03  0.80419002446E+02 0.  1.
        -24    1    1    2    0    0 -0.25492486474E+02  0.52022537238E+01 -0.87271698809E+01  0.84972405868E+02  0.80419002446E+02 0. -1.
<mgrwt>
<rscale>  0 0.84523052E+02</rscale>
<asrwt>0</asrwt>
<pdfrwt beam="1">  1        1 0.65553950E-02 0.84523052E+02</pdfrwt>
<pdfrwt beam="2">  1       -1 0.68439517E-01 0.84523052E+02</pdfrwt>
<totfact> 0.24166057E+03</totfact>
</mgrwt>
</event>
<event>
 4    1  0.5097315E-001  0.8876065E+02  0.7546771E-02  0.1305881E+00
          2   -1    0    0  501    0  0.00000000000E+00  0.00000000000E+00  0.54600396172E+03  0.54600396172E+03  0.00000000000E+00 0. -1.
         -2   -1    0    0    0  501 -0.00000000000E+00 -0.00000000000E+00 -0.15232331874E+02  0.15232331874E+02  0.00000000000E+00 0.  1.
         24    1    1    2    0    0 -0.18516673788E+02 -0.32685924133E+02  0.32981757871E+03  0.34155246745E+03  0.80419002446E+02 0.  0.
        -24    1    1    2    0    0  0.18516673788E+02  0.32685924133E+02  0.20095405114E+03  0.21968382614E+03  0.80419002446E+02 0.  1.
<mgrwt>
<rscale>  0 0.88760649E+02</rscale>
<asrwt>0</asrwt>
<pdfrwt beam="1">  1        2 0.84000594E-01 0.88760649E+02</pdfrwt>
<pdfrwt beam="2">  1       -2 0.23434361E-02 0.88760649E+02</pdfrwt>
<totfact> 0.30796653E+04</totfact>
</mgrwt>
</event>
<event>
 4    1  0.5097315E-001  0.8137769E+02  0.7546771E-02  0.1325187E+00
          1   -1    0    0  501    0  0.00000000000E+00  0.00000000000E+00  0.18157264662E+03  0.18157264662E+03  0.00000000000E+00 0. -1.
         -1   -1    0    0    0  501 -0.00000000000E+00 -0.00000000000E+00 -0.42584727785E+02  0.42584727785E+02  0.00000000000E+00 0.  1.
         24    1    1    2    0    0 -0.84708807792E+01  0.91299550842E+01  0.27030867593E+02  0.85749610251E+02  0.80419002446E+02 0.  1.
        -24    1    1    2    0    0  0.84708807792E+01 -0.91299550842E+01  0.11195705124E+03  0.13840776416E+03  0.80419002446E+02 0.  0.
<mgrwt>
<rscale>  0 0.81377686E+02</rscale>
<asrwt>0</asrwt>
<pdfrwt beam="1">  1        1 0.27934253E-01 0.81377686E+02</pdfrwt>
<pdfrwt beam="2">  1       -1 0.65514967E-02 0.81377686E+02</pdfrwt>
<totfact> 0.17142760E+04</totfact>
</mgrwt>
</event>
<event>
 4    1  0.5097315E-001  0.8121254E+02  0.7546771E-02  0.1325645E+00
         -2   -1    0    0    0  501 -0.00000000000E+00  0.00000000000E+00  0.28683160366E+02  0.28683160366E+02  0.00000000000E+00 0.  1.
          2   -1    0    0  501    0  0.00000000000E+00 -0.00000000000E+00 -0.23000300260E+03  0.23000300260E+03  0.00000000000E+00 0. -1.
         24    1    1    2    0    0  0.90648470589E+01 -0.67888536812E+01 -0.10275872231E+03  0.13097645190E+03  0.80419002446E+02 0. -1.
        -24    1    1    2    0    0 -0.90648470589E+01  0.67888536812E+01 -0.98561119927E+02  0.12770971107E+03  0.80419002446E+02 0.  1.
<mgrwt>
<rscale>  0 0.81212536E+02</rscale>
<asrwt>0</asrwt>
<pdfrwt beam="1">  1        2 0.35385076E-01 0.81212536E+02</pdfrwt>
<pdfrwt beam="2">  1       -2 0.44127940E-02 0.81212536E+02</pdfrwt>
<totfact> 0.30172418E+04</totfact>
</mgrwt>
</event>
<event>
 4    1  0.5097315E-001  0.9338259E+02  0.7546771E-02  0.1294861E+00
          2   -1    0    0  501    0  0.00000000000E+00  0.00000000000E+00  0.20071126033E+03  0.20071126033E+03  0.00000000000E+00 0. -1.
         -2   -1    0    0    0  501 -0.00000000000E+00 -0.00000000000E+00 -0.43690735385E+02  0.43690735385E+02  0.00000000000E+00 0.  1.
         24    1    1    2    0    0 -0.39881013403E+02 -0.25740953758E+02  0.87636963195E+02  0.12806461339E+03  0.80419002446E+02 0.  0.
        -24    1    1    2    0    0  0.39881013403E+02  0.25740953758E+02  0.69383561747E+02  0.11633738232E+03  0.80419002446E+02 0.  1.
<mgrwt>
<rscale>  0 0.93382589E+02</rscale>
<asrwt>0</asrwt>
<pdfrwt beam="1">  1        2 0.30878655E-01 0.93382589E+02</pdfrwt>
<pdfrwt beam="2">  1       -2 0.67216517E-02 0.93382589E+02</pdfrwt>
<totfact> 0.18913407E+04</totfact>
</mgrwt>
</event>
<event>
 4    1  0.5097315E-001  0.9110486E+02  0.7546771E-02  0.1300198E+00
         -2   -1    0    0    0  501 -0.00000000000E+00  0.00000000000E+00  0.51879229247E+01  0.51879229247E+01  0.00000000000E+00 0.  1.
          2   -1    0    0  501    0  0.00000000000E+00 -0.00000000000E+00 -0.16063667894E+04  0.16063667894E+04  0.00000000000E+00 0. -1.
         24    1    1    2    0    0  0.40823030011E+02  0.12897878854E+02 -0.74941306350E+03  0.75493048074E+03  0.80419002446E+02 0.  0.
        -24    1    1    2    0    0 -0.40823030011E+02 -0.12897878854E+02 -0.85176580300E+03  0.85662423160E+03  0.80419002446E+02 0.  1.
<mgrwt>
<rscale>  0 0.91104847E+02</rscale>
<asrwt>0</asrwt>
<pdfrwt beam="1">  1        2 0.24713328E+00 0.91104858E+02</pdfrwt>
<pdfrwt beam="2">  1       -2 0.79814224E-03 0.91104858E+02</pdfrwt>
<totfact> 0.32889787E+04</totfact>
</mgrwt>
</event>
<event>
 4    1  0.5097315E-001  0.8326941E+02  0.7546771E-02  0.1320021E+00
          1   -1    0    0  501    0  0.00000000000E+00  0.00000000000E+00  0.32497281322E+02  0.32497281322E+02  0.00000000000E+00 0. -1.
         -1   -1    0    0    0  501 -0.00000000000E+00 -0.00000000000E+00 -0.22814111619E+03  0.22814111619E+03  0.00000000000E+00 0.  1.
         24    1    1    2    0    0  0.21511105101E+02 -0.19624829501E+01 -0.13098700229E+03  0.15521401259E+03  0.80419002446E+02 0.  1.
        -24    1    1    2    0    0 -0.21511105101E+02  0.19624829501E+01 -0.64656832580E+02  0.10542438492E+03  0.80419002446E+02 0. -1.
<mgrwt>
<rscale>  0 0.83269412E+02</rscale>
<asrwt>0</asrwt>
<pdfrwt beam="1">  1        1 0.49995816E-02 0.83269412E+02</pdfrwt>
<pdfrwt beam="2">  1       -1 0.35098634E-01 0.83269412E+02</pdfrwt>
<totfact> 0.11563191E+04</totfact>
</mgrwt>
</event>
<event>
 4    1  0.5097315E-001  0.8682411E+02  0.7546771E-02  0.1310730E+00
          2   -1    0    0  501    0  0.00000000000E+00  0.00000000000E+00  0.98921842216E+03  0.98921842216E+03  0.00000000000E+00 0. -1.
         -2   -1    0    0    0  501 -0.00000000000E+00 -0.00000000000E+00 -0.20160500104E+02  0.20160500104E+02  0.00000000000E+00 0.  1.
         24    1    1    2    0    0 -0.32598794532E+02  0.29204932583E+01  0.88256355678E+03  0.88682402899E+03  0.80419002446E+02 0. -1.
        -24    1    1    2    0    0  0.32598794532E+02 -0.29204932583E+01  0.86494365272E+02  0.12255489327E+03  0.80419002446E+02 0.  1.
<mgrwt>
<rscale>  0 0.86824113E+02</rscale>
<asrwt>0</asrwt>
<pdfrwt beam="1">  1        2 0.15218741E+00 0.86824113E+02</pdfrwt>
<pdfrwt beam="2">  1       -2 0.31016162E-02 0.86824113E+02</pdfrwt>
<totfact> 0.10072137E+04</totfact>
</mgrwt>
</event>
<event>
 4    1  0.5097315E-001  0.1944736E+03  0.7546771E-02  0.1154487E+00
          2   -1    0    0  501    0  0.00000000000E+00  0.00000000000E+00  0.88002346169E+03  0.88002346169E+03  0.00000000000E+00 0. -1.
         -2   -1    0    0    0  501 -0.00000000000E+00 -0.00000000000E+00 -0.80949213927E+02  0.80949213927E+02  0.00000000000E+00 0.  1.
         24    1    1    2    0    0 -0.37534485971E+02  0.17304317507E+03  0.72862563163E+03  0.75413215361E+03  0.80419002446E+02 0. -1.
        -24    1    1    2    0    0  0.37534485971E+02 -0.17304317507E+03  0.70448616126E+02  0.20684052201E+03  0.80419002446E+02 0.  1.
<mgrwt>
<rscale>  0 0.19447363E+03</rscale>
<asrwt>0</asrwt>
<pdfrwt beam="1">  1        2 0.13538822E+00 0.19447363E+03</pdfrwt>
<pdfrwt beam="2">  1       -2 0.12453726E-01 0.19447363E+03</pdfrwt>
<totfact> 0.14557129E+03</totfact>
</mgrwt>
</event>
<event>
 4    1  0.5097315E-001  0.8249242E+02  0.7546771E-02  0.1322123E+00
          3   -1    0    0  501    0  0.00000000000E+00  0.00000000000E+00  0.43434105893E+03  0.43434105893E+03  0.00000000000E+00 0. -1.
         -3   -1    0    0    0  501 -0.00000000000E+00 -0.00000000000E+00 -0.56346425315E+02  0.56346425315E+02  0.00000000000E+00 0.  1.
         24    1    1    2    0    0  0.11702541232E+02  0.14171615137E+02 -0.19464735186E+02  0.84757749009E+02  0.80419002446E+02 0.  1.
        -24    1    1    2    0    0 -0.11702541232E+02 -0.14171615137E+02  0.39745936880E+03  0.40592973524E+03  0.80419002446E+02 0.  0.
<mgrwt>
<rscale>  0 0.82492425E+02</rscale>
<asrwt>0</asrwt>
<pdfrwt beam="1">  1        3 0.66821699E-01 0.82492425E+02</pdfrwt>
<pdfrwt beam="2">  1       -3 0.86686811E-02 0.82492425E+02</pdfrwt>
<totfact> 0.44098105E+02</totfact>
</mgrwt>
</event>
<event>
 4    1  0.5097315E-001  0.9072894E+02  0.7546771E-02  0.1301096E+00
          2   -1    0    0  501    0  0.00000000000E+00  0.00000000000E+00  0.46866304471E+03  0.46866304471E+03  0.00000000000E+00 0. -1.
         -2   -1    0    0    0  501 -0.00000000000E+00 -0.00000000000E+00 -0.21501061287E+02  0.21501061287E+02  0.00000000000E+00 0.  1.
         24    1    1    2    0    0  0.20690838269E+02 -0.36556941274E+02  0.11871098586E+03  0.14941229823E+03  0.80419002446E+02 0.  0.
        -24    1    1    2    0    0 -0.20690838269E+02  0.36556941274E+02  0.32845099756E+03  0.34075180777E+03  0.80419002446E+02 0.  0.
<mgrwt>
<rscale>  0 0.90728930E+02</rscale>
<asrwt>0</asrwt>
<pdfrwt beam="1">  1        2 0.72101999E-01 0.90728941E+02</pdfrwt>
<pdfrwt beam="2">  1       -2 0.33078559E-02 0.90728941E+02</pdfrwt>
<totfact> 0.22094773E+04</totfact>
</mgrwt>
</event>
<event>
 4    1  0.5097315E-001  0.8942198E+02  0.7546771E-02  0.1304258E+00
         -1   -1    0    0    0  501 -0.00000000000E+00  0.00000000000E+00  0.78730964586E+01  0.78730964586E+01  0.00000000000E+00 0.  1.
          1   -1    0    0  501    0  0.00000000000E+00 -0.00000000000E+00 -0.11557259935E+04  0.11557259935E+04  0.00000000000E+00 0. -1.
         24    1    1    2    0    0 -0.35148004923E+02 -0.17137456597E+02 -0.37137670853E+03  0.38199077248E+03  0.80419002446E+02 0.  1.
        -24    1    1    2    0    0  0.35148004923E+02  0.17137456597E+02 -0.77647618853E+03  0.78160831750E+03  0.80419002446E+02 0. -1.
<mgrwt>
<rscale>  0 0.89421981E+02</rscale>
<asrwt>0</asrwt>
<pdfrwt beam="1">  1        1 0.17780403E+00 0.89421981E+02</pdfrwt>
<pdfrwt beam="2">  1       -1 0.12112454E-02 0.89421981E+02</pdfrwt>
<totfact> 0.16317238E+04</totfact>
</mgrwt>
</event>
<event>
 4    1  0.5097315E-001  0.9539654E+02  0.7546771E-02  0.1290285E+00
         -2   -1    0    0    0  501 -0.00000000000E+00  0.00000000000E+00  0.29991270232E+02  0.29991270232E+02  0.00000000000E+00 0.  1.
          2   -1    0    0  501    0  0.00000000000E+00 -0.00000000000E+00 -0.36085018652E+03  0.36085018652E+03  0.00000000000E+00 0. -1.
         24    1    1    2    0    0 -0.51232212068E+02 -0.29230633453E+01 -0.24337801887E+03  0.26140650312E+03  0.80419002446E+02 0. -1.
        -24    1    1    2    0    0  0.51232212068E+02  0.29230633453E+01 -0.87480897417E+02  0.12943495363E+03  0.80419002446E+02 0.  1.
<mgrwt>
<rscale>  0 0.95396540E+02</rscale>
<asrwt>0</asrwt>
<pdfrwt beam="1">  1        2 0.55515418E-01 0.95396540E+02</pdfrwt>
<pdfrwt beam="2">  1       -2 0.46140412E-02 0.95396540E+02</pdfrwt>
<totfact> 0.17950137E+04</totfact>
</mgrwt>
</event>
<event>
 4    1  0.5097315E-001  0.8443266E+02  0.7546771E-02  0.1316923E+00
         -2   -1    0    0    0  501 -0.00000000000E+00  0.00000000000E+00  0.99036397718E+01  0.99036397718E+01  0.00000000000E+00 0.  1.
          2   -1    0    0  501    0  0.00000000000E+00 -0.00000000000E+00 -0.10554357606E+04  0.10554357606E+04  0.00000000000E+00 0. -1.
         24    1    1    2    0    0  0.24539830313E+02 -0.77107344293E+01 -0.82313904430E+03  0.82745801156E+03  0.80419002446E+02 0.  0.
        -24    1    1    2    0    0 -0.24539830313E+02  0.77107344293E+01 -0.22239307648E+03  0.23788138876E+03  0.80419002446E+02 0.  0.
<mgrwt>
<rscale>  0 0.84432663E+02</rscale>
<asrwt>0</asrwt>
<pdfrwt beam="1">  1        2 0.16237477E+00 0.84432663E+02</pdfrwt>
<pdfrwt beam="2">  1       -2 0.15236366E-02 0.84432663E+02</pdfrwt>
<totfact> 0.25566631E+04</totfact>
</mgrwt>
</event>
<event>
 4    1  0.5097315E-001  0.8636837E+02  0.7546771E-02  0.1311892E+00
         -1   -1    0    0    0  501 -0.00000000000E+00  0.00000000000E+00  0.20903675318E+02  0.20903675318E+02  0.00000000000E+00 0.  1.
          1   -1    0    0  501    0  0.00000000000E+00 -0.00000000000E+00 -0.37585314314E+03  0.37585314314E+03  0.00000000000E+00 0. -1.
         24    1    1    2    0    0  0.27547688730E+02  0.15277461017E+02 -0.22208035788E+03  0.23828381665E+03  0.80419002446E+02 0.  1.
        -24    1    1    2    0    0 -0.27547688730E+02 -0.15277461017E+02 -0.13286910995E+03  0.15847300181E+03  0.80419002446E+02 0.  0.
<mgrwt>
<rscale>  0 0.86368361E+02</rscale>
<asrwt>0</asrwt>
<pdfrwt beam="1">  1        1 0.57823566E-01 0.86368372E+02</pdfrwt>
<pdfrwt beam="2">  1       -1 0.32159497E-02 0.86368372E+02</pdfrwt>
<totfact> 0.20003459E+04</totfact>
</mgrwt>
</event>
<event>
 4    1  0.5097315E-001  0.8379558E+02  0.7546771E-02  0.1318613E+00
         -2   -1    0    0    0  501 -0.00000000000E+00  0.00000000000E+00  0.73428059379E+02  0.73428059379E+02  0.00000000000E+00 0.  1.
          2   -1    0    0  501    0  0.00000000000E+00 -0.00000000000E+00 -0.88844686255E+03  0.88844686255E+03  0.00000000000E+00 0. -1.
         24    1    1    2    0    0  0.21388874338E+02  0.98487973053E+01 -0.86182762966E+03  0.86589177265E+03  0.80419002446E+02 0. -1.
        -24    1    1    2    0    0 -0.21388874338E+02 -0.98487973053E+01  0.46808826485E+02  0.95983149277E+02  0.80419002446E+02 0.  1.
<mgrwt>
<rscale>  0 0.83795577E+02</rscale>
<asrwt>0</asrwt>
<pdfrwt beam="1">  1        2 0.13668414E+00 0.83795577E+02</pdfrwt>
<pdfrwt beam="2">  1       -2 0.11296624E-01 0.83795577E+02</pdfrwt>
<totfact> 0.16613769E+03</totfact>
</mgrwt>
</event>
<event>
 4    1  0.5097315E-001  0.9388174E+02  0.7546771E-02  0.1293715E+00
         -1   -1    0    0    0  501 -0.00000000000E+00  0.00000000000E+00  0.36320095788E+02  0.36320095788E+02  0.00000000000E+00 0.  1.
          1   -1    0    0  501    0  0.00000000000E+00 -0.00000000000E+00 -0.47812594369E+03  0.47812594369E+03  0.00000000000E+00 0. -1.
         24    1    1    2    0    0 -0.37143641240E+02  0.31095265046E+02 -0.40395979242E+02  0.10220379976E+03  0.80419002446E+02 0.  1.
        -24    1    1    2    0    0  0.37143641240E+02 -0.31095265046E+02 -0.40140986866E+03  0.41224223972E+03  0.80419002446E+02 0. -1.
<mgrwt>
<rscale>  0 0.93881742E+02</rscale>
<asrwt>0</asrwt>
<pdfrwt beam="1">  1        1 0.73557837E-01 0.93881742E+02</pdfrwt>
<pdfrwt beam="2">  1       -1 0.55877071E-02 0.93881742E+02</pdfrwt>
<totfact> 0.66735045E+03</totfact>
</mgrwt>
</event>
<event>
 4    1  0.5097315E-001  0.9531631E+02  0.7546771E-02  0.1290465E+00
         -1   -1    0    0    0  501 -0.00000000000E+00  0.00000000000E+00  0.22508528938E+02  0.22508528938E+02  0.00000000000E+00 0.  1.
          1   -1    0    0  501    0  0.00000000000E+00 -0.00000000000E+00 -0.53005466145E+03  0.53005466145E+03  0.00000000000E+00 0. -1.
         24    1    1    2    0    0 -0.53976650046E+01  0.50880722425E+02 -0.11884529861E+03  0.15234632801E+03  0.80419002446E+02 0.  1.
        -24    1    1    2    0    0  0.53976650046E+01 -0.50880722425E+02 -0.38870083390E+03  0.40021686238E+03  0.80419002446E+02 0. -1.
<mgrwt>
<rscale>  0 0.95316308E+02</rscale>
<asrwt>0</asrwt>
<pdfrwt beam="1">  1        1 0.81546869E-01 0.95316308E+02</pdfrwt>
<pdfrwt beam="2">  1       -1 0.34628507E-02 0.95316308E+02</pdfrwt>
<totfact> 0.11756600E+04</totfact>
</mgrwt>
</event>
<event>
 4    1  0.5097315E-001  0.1054171E+03  0.7546771E-02  0.1269300E+00
          2   -1    0    0  501    0  0.00000000000E+00  0.00000000000E+00  0.80372349558E+03  0.80372349558E+03  0.00000000000E+00 0. -1.
         -2   -1    0    0    0  501 -0.00000000000E+00 -0.00000000000E+00 -0.15837286645E+02  0.15837286645E+02  0.00000000000E+00 0.  1.
         24    1    1    2    0    0 -0.24411104346E+02  0.63636831760E+02  0.53995318505E+03  0.55014744057E+03  0.80419002446E+02 0. -1.
        -24    1    1    2    0    0  0.24411104346E+02 -0.63636831760E+02  0.24793302388E+03  0.26941334165E+03  0.80419002446E+02 0.  0.
<mgrwt>
<rscale>  0 0.10541710E+03</rscale>
<asrwt>0</asrwt>
<pdfrwt beam="1">  1        2 0.12364974E+00 0.10541710E+03</pdfrwt>
<pdfrwt beam="2">  1       -2 0.24365063E-02 0.10541710E+03</pdfrwt>
<totfact> 0.18939017E+04</totfact>
</mgrwt>
</event>
<event>
 4    1  0.5097315E-001  0.8672916E+02  0.7546771E-02  0.1310972E+00
          1   -1    0    0  501    0  0.00000000000E+00  0.00000000000E+00  0.10246959881E+03  0.10246959881E+03  0.00000000000E+00 0. -1.
         -1   -1    0    0    0  501 -0.00000000000E+00 -0.00000000000E+00 -0.37599368715E+03  0.37599368715E+03  0.00000000000E+00 0.  1.
         24    1    1    2    0    0  0.26070340938E+01  0.32371814144E+02 -0.35137380954E+03  0.36191919121E+03  0.80419002446E+02 0.  1.
        -24    1    1    2    0    0 -0.26070340938E+01 -0.32371814144E+02  0.77849721199E+02  0.11654409476E+03  0.80419002446E+02 0. -1.
<mgrwt>
<rscale>  0 0.86729158E+02</rscale>
<asrwt>0</asrwt>
<pdfrwt beam="1">  1        1 0.15764554E-01 0.86729158E+02</pdfrwt>
<pdfrwt beam="2">  1       -1 0.57845182E-01 0.86729158E+02</pdfrwt>
<totfact> 0.10594428E+03</totfact>
</mgrwt>
</event>
<event>
 4    1  0.5097315E-001  0.9920509E+02  0.7546771E-02  0.1281976E+00
          2   -1    0    0  501    0  0.00000000000E+00  0.00000000000E+00  0.12930814365E+03  0.12930814365E+03  0.00000000000E+00 0. -1.
         -2   -1    0    0    0  501 -0.00000000000E+00 -0.00000000000E+00 -0.86643601581E+02  0.86643601581E+02  0.00000000000E+00 0.  1.
         24    1    1    2    0    0 -0.28067856498E+02  0.50858876368E+02 -0.16316121455E+02  0.10053786176E+03  0.80419002446E+02 0.  0.
        -24    1    1    2    0    0  0.28067856498E+02 -0.50858876368E+02  0.58980663525E+02  0.11541388347E+03  0.80419002446E+02 0.  0.
<mgrwt>
<rscale>  0 0.99205082E+02</rscale>
<asrwt>0</asrwt>
<pdfrwt beam="1">  1        2 0.19893561E-01 0.99205094E+02</pdfrwt>
<pdfrwt beam="2">  1       -2 0.13329785E-01 0.99205094E+02</pdfrwt>
<totfact> 0.10626484E+04</totfact>
</mgrwt>
</event>
<event>
 4    1  0.5097315E-001  0.8904385E+02  0.7546771E-02  0.1305184E+00
          4   -1    0    0  501    0  0.00000000000E+00  0.00000000000E+00  0.58384591568E+03  0.58384591568E+03  0.00000000000E+00 0. -1.
         -4   -1    0    0    0  501 -0.00000000000E+00 -0.00000000000E+00 -0.48957103070E+02  0.48957103070E+02  0.00000000000E+00 0.  1.
         24    1    1    2    0    0  0.37669000023E+02  0.65297768126E+01  0.53640579119E+03  0.54374624626E+03  0.80419002446E+02 0. -1.
        -24    1    1    2    0    0 -0.37669000023E+02 -0.65297768126E+01 -0.15169785775E+01  0.89056772490E+02  0.80419002446E+02 0.  1.
<mgrwt>
<rscale>  0 0.89043852E+02</rscale>
<asrwt>0</asrwt>
<pdfrwt beam="1">  1        4 0.89822443E-01 0.89043852E+02</pdfrwt>
<pdfrwt beam="2">  1       -4 0.75318624E-02 0.89043852E+02</pdfrwt>
<totfact> 0.20577094E+02</totfact>
</mgrwt>
</event>
<event>
 4    1  0.5097315E-001  0.8770905E+02  0.7546771E-02  0.1308496E+00
         -2   -1    0    0    0  501 -0.00000000000E+00  0.00000000000E+00  0.22508544103E+03  0.22508544103E+03  0.00000000000E+00 0.  1.
          2   -1    0    0  501    0  0.00000000000E+00 -0.00000000000E+00 -0.34638467200E+02  0.34638467200E+02  0.00000000000E+00 0. -1.
         24    1    1    2    0    0 -0.32441820766E+02  0.13160173718E+02  0.80244055364E+02  0.11887803112E+03  0.80419002446E+02 0. -1.
        -24    1    1    2    0    0  0.32441820766E+02 -0.13160173718E+02  0.11020291847E+03  0.14084587711E+03  0.80419002446E+02 0.  1.
<mgrwt>
<rscale>  0 0.87709052E+02</rscale>
<asrwt>0</asrwt>
<pdfrwt beam="1">  1        2 0.53289951E-02 0.87709052E+02</pdfrwt>
<pdfrwt beam="2">  1       -2 0.34628528E-01 0.87709052E+02</pdfrwt>
<totfact> 0.10148397E+04</totfact>
</mgrwt>
</event>
<event>
 4    1  0.5097315E-001  0.8287903E+02  0.7546771E-02  0.1321074E+00
          1   -1    0    0  501    0  0.00000000000E+00  0.00000000000E+00  0.14234879945E+02  0.14234879945E+02  0.00000000000E+00 0. -1.
         -1   -1    0    0    0  501 -0.00000000000E+00 -0.00000000000E+00 -0.53763055527E+03  0.53763055527E+03  0.00000000000E+00 0.  1.
         24    1    1    2    0    0  0.14387973395E+02  0.13953636519E+02 -0.35002416710E+03  0.35970244823E+03  0.80419002446E+02 0.  1.
        -24    1    1    2    0    0 -0.14387973395E+02 -0.13953636519E+02 -0.17337150822E+03  0.19216298699E+03  0.80419002446E+02 0. -1.
<mgrwt>
<rscale>  0 0.82879031E+02</rscale>
<asrwt>0</asrwt>
<pdfrwt beam="1">  1        1 0.21899814E-02 0.82879031E+02</pdfrwt>
<pdfrwt beam="2">  1       -1 0.82712397E-01 0.82879031E+02</pdfrwt>
<totfact> 0.73273482E+03</totfact>
</mgrwt>
</event>
<event>
 4    1  0.5097315E-001  0.8767317E+02  0.7546771E-02  0.1308586E+00
         -1   -1    0    0    0  501 -0.00000000000E+00  0.00000000000E+00  0.17462684644E+03  0.17462684644E+03  0.00000000000E+00 0.  1.
          1   -1    0    0  501    0  0.00000000000E+00 -0.00000000000E+00 -0.43811215322E+03  0.43811215322E+03  0.00000000000E+00 0. -1.
         24    1    1    2    0    0 -0.25729958015E+01 -0.34824535300E+02  0.15882904701E+03  0.18142009452E+03  0.80419002446E+02 0.  1.
        -24    1    1    2    0    0  0.25729958015E+01  0.34824535300E+02 -0.42231435379E+03  0.43131890515E+03  0.80419002446E+02 0. -1.
<mgrwt>
<rscale>  0 0.87673169E+02</rscale>
<asrwt>0</asrwt>
<pdfrwt beam="1">  1        1 0.67401870E-01 0.87673169E+02</pdfrwt>
<pdfrwt beam="2">  1       -1 0.26865669E-01 0.87673169E+02</pdfrwt>
<totfact> 0.66560876E+02</totfact>
</mgrwt>
</event>
<event>
 4    1  0.5097315E-001  0.9464463E+02  0.7546771E-02  0.1291978E+00
         -1   -1    0    0    0  501 -0.00000000000E+00  0.00000000000E+00  0.13668685443E+03  0.13668685443E+03  0.00000000000E+00 0.  1.
          1   -1    0    0  501    0  0.00000000000E+00 -0.00000000000E+00 -0.39424288243E+03  0.39424288243E+03  0.00000000000E+00 0. -1.
         24    1    1    2    0    0  0.40895325825E+02  0.28600039260E+02  0.11362107935E+03  0.14787614935E+03  0.80419002446E+02 0.  1.
        -24    1    1    2    0    0 -0.40895325825E+02 -0.28600039260E+02 -0.37117710735E+03  0.38305358750E+03  0.80419002446E+02 0. -1.
<mgrwt>
<rscale>  0 0.94644629E+02</rscale>
<asrwt>0</asrwt>
<pdfrwt beam="1">  1        1 0.60652750E-01 0.94644629E+02</pdfrwt>
<pdfrwt beam="2">  1       -1 0.21028747E-01 0.94644629E+02</pdfrwt>
<totfact> 0.11295924E+03</totfact>
</mgrwt>
</event>
<event>
 4    1  0.5097315E-001  0.1017376E+03  0.7546771E-02  0.1276684E+00
          2   -1    0    0  501    0  0.00000000000E+00  0.00000000000E+00  0.59590402179E+03  0.59590402179E+03  0.00000000000E+00 0. -1.
         -2   -1    0    0    0  501 -0.00000000000E+00 -0.00000000000E+00 -0.23742367295E+02  0.23742367295E+02  0.00000000000E+00 0.  1.
         24    1    1    2    0    0  0.25023140948E+02 -0.57071503486E+02  0.44659773211E+03  0.45803936989E+03  0.80419002446E+02 0. -1.
        -24    1    1    2    0    0 -0.25023140948E+02  0.57071503486E+02  0.12556392239E+03  0.16160701920E+03  0.80419002446E+02 0.  1.
<mgrwt>
<rscale>  0 0.10173755E+03</rscale>
<asrwt>0</asrwt>
<pdfrwt beam="1">  1        2 0.91677531E-01 0.10173755E+03</pdfrwt>
<pdfrwt beam="2">  1       -2 0.36526723E-02 0.10173755E+03</pdfrwt>
<totfact> 0.14850076E+04</totfact>
</mgrwt>
</event>
<event>
 4    1  0.5097315E-001  0.8317243E+02  0.7546771E-02  0.1320282E+00
         -1   -1    0    0    0  501 -0.00000000000E+00  0.00000000000E+00  0.98162267826E+03  0.98162267826E+03  0.00000000000E+00 0.  1.
          1   -1    0    0  501    0  0.00000000000E+00 -0.00000000000E+00 -0.95074112301E+01  0.95074112301E+01  0.00000000000E+00 0. -1.
         24    1    1    2    0    0 -0.12981945012E+02  0.16790083278E+02  0.73814965689E+03  0.74282068476E+03  0.80419002446E+02 0.  1.
        -24    1    1    2    0    0  0.12981945012E+02 -0.16790083278E+02  0.23396561014E+03  0.24830940473E+03  0.80419002446E+02 0. -1.
<mgrwt>
<rscale>  0 0.83172434E+02</rscale>
<asrwt>0</asrwt>
<pdfrwt beam="1">  1        1 0.14626794E-02 0.83172434E+02</pdfrwt>
<pdfrwt beam="2">  1       -1 0.15101879E+00 0.83172434E+02</pdfrwt>
<totfact> 0.32493102E+03</totfact>
</mgrwt>
</event>
<event>
 4    1  0.5097315E-001  0.1099987E+03  0.7546771E-02  0.1260572E+00
         -2   -1    0    0    0  501 -0.00000000000E+00  0.00000000000E+00  0.38068164354E+02  0.38068164354E+02  0.00000000000E+00 0.  1.
          2   -1    0    0  501    0  0.00000000000E+00 -0.00000000000E+00 -0.81531838812E+03  0.81531838812E+03  0.00000000000E+00 0. -1.
         24    1    1    2    0    0 -0.51990448169E+02  0.54124721007E+02 -0.72192708364E+03  0.73025914727E+03  0.80419002446E+02 0. -1.
        -24    1    1    2    0    0  0.51990448169E+02 -0.54124721007E+02 -0.55323140132E+02  0.12312740521E+03  0.80419002446E+02 0.  1.
<mgrwt>
<rscale>  0 0.10999867E+03</rscale>
<asrwt>0</asrwt>
<pdfrwt beam="1">  1        2 0.12543359E+00 0.10999867E+03</pdfrwt>
<pdfrwt beam="2">  1       -2 0.58566411E-02 0.10999867E+03</pdfrwt>
<totfact> 0.51177584E+03</totfact>
</mgrwt>
</event>
<event>
 4    1  0.5097315E-001  0.9761002E+02  0.7546771E-02  0.1285404E+00
          2   -1    0    0  501    0  0.00000000000E+00  0.00000000000E+00  0.39065845799E+03  0.39065845799E+03  0.00000000000E+00 0. -1.
         -2   -1    0    0    0  501 -0.00000000000E+00 -0.00000000000E+00 -0.29522408174E+02  0.29522408174E+02  0.00000000000E+00 0.  1.
         24    1    1    2    0    0 -0.52928584375E+02  0.16095500288E+02  0.26817506839E+03  0.28538672610E+03  0.80419002446E+02 0. -1.
        -24    1    1    2    0    0  0.52928584375E+02 -0.16095500288E+02  0.92960981422E+02  0.13479414006E+03  0.80419002446E+02 0.  1.
<mgrwt>
<rscale>  0 0.97610021E+02</rscale>
<asrwt>0</asrwt>
<pdfrwt beam="1">  1        2 0.60101298E-01 0.97610021E+02</pdfrwt>
<pdfrwt beam="2">  1       -2 0.45419092E-02 0.97610021E+02</pdfrwt>
<totfact> 0.16939982E+04</totfact>
</mgrwt>
</event>
<event>
 4    1  0.5097315E-001  0.9239681E+02  0.7546771E-02  0.1297149E+00
          2   -1    0    0  501    0  0.00000000000E+00  0.00000000000E+00  0.41520101533E+03  0.41520101533E+03  0.00000000000E+00 0. -1.
         -2   -1    0    0    0  501 -0.00000000000E+00 -0.00000000000E+00 -0.21094514138E+02  0.21094514138E+02  0.00000000000E+00 0.  1.
         24    1    1    2    0    0 -0.21823111550E+02  0.39921255411E+02  0.23172857581E+03  0.24947004556E+03  0.80419002446E+02 0.  1.
        -24    1    1    2    0    0  0.21823111550E+02 -0.39921255411E+02  0.16237792538E+03  0.18682548391E+03  0.80419002446E+02 0. -1.
<mgrwt>
<rscale>  0 0.92396812E+02</rscale>
<asrwt>0</asrwt>
<pdfrwt beam="1">  1        2 0.63877073E-01 0.92396812E+02</pdfrwt>
<pdfrwt beam="2">  1       -2 0.32453102E-02 0.92396812E+02</pdfrwt>
<totfact> 0.25890579E+04</totfact>
</mgrwt>
</event>
<event>
 4    1  0.5097315E-001  0.8854610E+02  0.7546771E-02  0.1306411E+00
         -1   -1    0    0    0  501 -0.00000000000E+00  0.00000000000E+00  0.31259988899E+01  0.31259988899E+01  0.00000000000E+00 0.  1.
          1   -1    0    0  501    0  0.00000000000E+00 -0.00000000000E+00 -0.25371935638E+04  0.25371935638E+04  0.00000000000E+00 0. -1.
         24    1    1    2    0    0  0.36887284435E+02 -0.35389759434E+01 -0.11310913975E+04  0.11345519651E+04  0.80419002446E+02 0.  1.
        -24    1    1    2    0    0 -0.36887284435E+02  0.35389759434E+01 -0.14029761674E+04  0.14057675975E+04  0.80419002446E+02 0.  0.
<mgrwt>
<rscale>  0 0.88546101E+02</rscale>
<asrwt>0</asrwt>
<pdfrwt beam="1">  1        1 0.39033800E+00 0.88546101E+02</pdfrwt>
<pdfrwt beam="2">  1       -1 0.48092226E-03 0.88546101E+02</pdfrwt>
<totfact> 0.78613905E+03</totfact>
</mgrwt>
</event>
<event>
 4    1  0.5097315E-001  0.1264218E+03  0.7546771E-02  0.1232864E+00
          4   -1    0    0  501    0  0.00000000000E+00  0.00000000000E+00  0.10847137668E+02  0.10847137668E+02  0.00000000000E+00 0. -1.
         -4   -1    0    0    0  501 -0.00000000000E+00 -0.00000000000E+00 -0.19019053474E+04  0.19019053474E+04  0.00000000000E+00 0.  1.
         24    1    1    2    0    0  0.93751165722E+02  0.26943723667E+02 -0.13994696426E+04  0.14051682254E+04  0.80419002446E+02 0.  0.
        -24    1    1    2    0    0 -0.93751165722E+02 -0.26943723667E+02 -0.49158856721E+03  0.50758425969E+03  0.80419002446E+02 0.  0.
<mgrwt>
<rscale>  0 0.12642178E+03</rscale>
<asrwt>0</asrwt>
<pdfrwt beam="1">  1        4 0.16687886E-02 0.12642179E+03</pdfrwt>
<pdfrwt beam="2">  1       -4 0.29260114E+00 0.12642179E+03</pdfrwt>
<totfact> 0.93458868E+01</totfact>
</mgrwt>
</event>
<event>
 4    1  0.5097315E-001  0.1035855E+03  0.7546771E-02  0.1272932E+00
         -2   -1    0    0    0  501 -0.00000000000E+00  0.00000000000E+00  0.65720207695E+01  0.65720207695E+01  0.00000000000E+00 0.  1.
          2   -1    0    0  501    0  0.00000000000E+00 -0.00000000000E+00 -0.18198073386E+04  0.18198073386E+04  0.00000000000E+00 0. -1.
         24    1    1    2    0    0 -0.25588634369E+02 -0.60066277692E+02 -0.11994551105E+04  0.12039196460E+04  0.80419002446E+02 0.  0.
        -24    1    1    2    0    0  0.25588634369E+02  0.60066277692E+02 -0.61378020735E+03  0.62245971341E+03  0.80419002446E+02 0.  1.
<mgrwt>
<rscale>  0 0.10358548E+03</rscale>
<asrwt>0</asrwt>
<pdfrwt beam="1">  1        2 0.27997065E+00 0.10358548E+03</pdfrwt>
<pdfrwt beam="2">  1       -2 0.10110791E-02 0.10358548E+03</pdfrwt>
<totfact> 0.18532614E+04</totfact>
</mgrwt>
</event>
<event>
 4    1  0.5097315E-001  0.8324501E+02  0.7546771E-02  0.1320087E+00
          3   -1    0    0  501    0  0.00000000000E+00  0.00000000000E+00  0.90254482391E+02  0.90254482391E+02  0.00000000000E+00 0. -1.
         -3   -1    0    0    0  501 -0.00000000000E+00 -0.00000000000E+00 -0.11344144279E+03  0.11344144279E+03  0.00000000000E+00 0.  1.
         24    1    1    2    0    0  0.18197132854E+02  0.11461976388E+02  0.46305638130E+02  0.95257233971E+02  0.80419002446E+02 0.  0.
        -24    1    1    2    0    0 -0.18197132854E+02 -0.11461976388E+02 -0.69492598532E+02  0.10843869121E+03  0.80419002446E+02 0.  1.
<mgrwt>
<rscale>  0 0.83245001E+02</rscale>
<asrwt>0</asrwt>
<pdfrwt beam="1">  1        3 0.13885305E-01 0.83245012E+02</pdfrwt>
<pdfrwt beam="2">  1       -3 0.17452530E-01 0.83245012E+02</pdfrwt>
<totfact> 0.25108093E+03</totfact>
</mgrwt>
</event>
<event>
 4    1  0.5097315E-001  0.8138601E+02  0.7546771E-02  0.1325164E+00
         -1   -1    0    0    0  501 -0.00000000000E+00  0.00000000000E+00  0.98045713952E+01  0.98045713952E+01  0.00000000000E+00 0.  1.
          1   -1    0    0  501    0  0.00000000000E+00 -0.00000000000E+00 -0.72274318901E+03  0.72274318901E+03  0.00000000000E+00 0. -1.
         24    1    1    2    0    0 -0.11126807258E+02 -0.57149707861E+01 -0.26289478501E+03  0.27520419814E+03  0.80419002446E+02 0.  0.
        -24    1    1    2    0    0  0.11126807258E+02  0.57149707861E+01 -0.45004383260E+03  0.45734356227E+03  0.80419002446E+02 0.  0.
<mgrwt>
<rscale>  0 0.81386010E+02</rscale>
<asrwt>0</asrwt>
<pdfrwt beam="1">  1        1 0.11119126E+00 0.81386010E+02</pdfrwt>
<pdfrwt beam="2">  1       -1 0.15083956E-02 0.81386010E+02</pdfrwt>
<totfact> 0.24988634E+04</totfact>
</mgrwt>
</event>
<event>
 4    1  0.5097315E-001  0.1455430E+03  0.7546771E-02  0.1206059E+00
         -2   -1    0    0    0  501 -0.00000000000E+00  0.00000000000E+00  0.20286688608E+02  0.20286688608E+02  0.00000000000E+00 0.  1.
          2   -1    0    0  501    0  0.00000000000E+00 -0.00000000000E+00 -0.18169922982E+04  0.18169922982E+04  0.00000000000E+00 0. -1.
         24    1    1    2    0    0 -0.10500312359E+03 -0.60744530018E+02 -0.14974649713E+04  0.15045212228E+04  0.80419002446E+02 0. -1.
        -24    1    1    2    0    0  0.10500312359E+03  0.60744530018E+02 -0.29924063830E+03  0.33275776393E+03  0.80419002446E+02 0.  1.
<mgrwt>
<rscale>  0 0.14554302E+03</rscale>
<asrwt>0</asrwt>
<pdfrwt beam="1">  1        2 0.27953734E+00 0.14554302E+03</pdfrwt>
<pdfrwt beam="2">  1       -2 0.31210283E-02 0.14554302E+03</pdfrwt>
<totfact> 0.36887168E+03</totfact>
</mgrwt>
</event>
<event>
 4    1  0.5097315E-001  0.9003078E+02  0.7546771E-02  0.1302777E+00
          2   -1    0    0  501    0  0.00000000000E+00  0.00000000000E+00  0.53342193209E+03  0.53342193209E+03  0.00000000000E+00 0. -1.
         -2   -1    0    0    0  501 -0.00000000000E+00 -0.00000000000E+00 -0.35705274986E+02  0.35705274986E+02  0.00000000000E+00 0.  1.
         24    1    1    2    0    0 -0.30800276741E+02 -0.26261543177E+02  0.46453095349E+03  0.47317496595E+03  0.80419002446E+02 0. -1.
        -24    1    1    2    0    0  0.30800276741E+02  0.26261543177E+02  0.33185703607E+02  0.95952241118E+02  0.80419002446E+02 0.  1.
<mgrwt>
<rscale>  0 0.90030782E+02</rscale>
<asrwt>0</asrwt>
<pdfrwt beam="1">  1        2 0.82064906E-01 0.90030782E+02</pdfrwt>
<pdfrwt beam="2">  1       -2 0.54931196E-02 0.90030782E+02</pdfrwt>
<totfact> 0.90864445E+03</totfact>
</mgrwt>
</event>
<event>
 4    1  0.5097315E-001  0.1072657E+03  0.7546771E-02  0.1265719E+00
         -1   -1    0    0    0  501 -0.00000000000E+00  0.00000000000E+00  0.15827958481E+02  0.15827958481E+02  0.00000000000E+00 0.  1.
          1   -1    0    0  501    0  0.00000000000E+00 -0.00000000000E+00 -0.73205241374E+03  0.73205241374E+03  0.00000000000E+00 0. -1.
         24    1    1    2    0    0  0.68218023725E+02 -0.19621789995E+02 -0.38937082931E+03  0.40387568889E+03  0.80419002446E+02 0.  0.
        -24    1    1    2    0    0 -0.68218023725E+02  0.19621789995E+02 -0.32685362595E+03  0.34400468333E+03  0.80419002446E+02 0.  0.
<mgrwt>
<rscale>  0 0.10726571E+03</rscale>
<asrwt>0</asrwt>
<pdfrwt beam="1">  1        1 0.11262346E+00 0.10726572E+03</pdfrwt>
<pdfrwt beam="2">  1       -1 0.24350702E-02 0.10726572E+03</pdfrwt>
<totfact> 0.12703621E+04</totfact>
</mgrwt>
</event>
<event>
 4    1  0.5097315E-001  0.9036072E+02  0.7546771E-02  0.1301980E+00
          1   -1    0    0  501    0  0.00000000000E+00  0.00000000000E+00  0.31054763075E+03  0.31054763075E+03  0.00000000000E+00 0. -1.
         -1   -1    0    0    0  501 -0.00000000000E+00 -0.00000000000E+00 -0.33354961352E+02  0.33354961352E+02  0.00000000000E+00 0.  1.
         24    1    1    2    0    0 -0.19633762565E+02  0.36226508431E+02  0.59473002291E+02  0.10817623816E+03  0.80419002446E+02 0.  1.
        -24    1    1    2    0    0  0.19633762565E+02 -0.36226508431E+02  0.21771966711E+03  0.23572635395E+03  0.80419002446E+02 0. -1.
<mgrwt>
<rscale>  0 0.90360724E+02</rscale>
<asrwt>0</asrwt>
<pdfrwt beam="1">  1        1 0.47776557E-01 0.90360724E+02</pdfrwt>
<pdfrwt beam="2">  1       -1 0.51315327E-02 0.90360724E+02</pdfrwt>
<totfact> 0.12886772E+04</totfact>
</mgrwt>
</event>
<event>
 4    1  0.5097315E-001  0.8046473E+02  0.7546771E-02  0.1327738E+00
          1   -1    0    0  501    0  0.00000000000E+00  0.00000000000E+00  0.70326107195E+03  0.70326107195E+03  0.00000000000E+00 0. -1.
         -1   -1    0    0    0  501 -0.00000000000E+00 -0.00000000000E+00 -0.92942151114E+01  0.92942151114E+01  0.00000000000E+00 0.  1.
         24    1    1    2    0    0 -0.11628314830E+01 -0.24503315372E+01  0.31237178291E+03  0.32256891204E+03  0.80419002446E+02 0.  0.
        -24    1    1    2    0    0  0.11628314830E+01  0.24503315372E+01  0.38159507393E+03  0.38998637502E+03  0.80419002446E+02 0. -1.
<mgrwt>
<rscale>  0 0.80464727E+02</rscale>
<asrwt>0</asrwt>
<pdfrwt beam="1">  1        1 0.10819397E+00 0.80464727E+02</pdfrwt>
<pdfrwt beam="2">  1       -1 0.14298798E-02 0.80464727E+02</pdfrwt>
<totfact> 0.27974237E+04</totfact>
</mgrwt>
</event>
<event>
 4    1  0.5097315E-001  0.8337890E+02  0.7546771E-02  0.1319727E+00
          3   -1    0    0  501    0  0.00000000000E+00  0.00000000000E+00  0.17319227605E+03  0.17319227605E+03  0.00000000000E+00 0. -1.
         -3   -1    0    0    0  501 -0.00000000000E+00 -0.00000000000E+00 -0.40256042219E+02  0.40256042219E+02  0.00000000000E+00 0.  1.
         24    1    1    2    0    0  0.18905348762E+00 -0.22017912141E+02  0.60752695289E+02  0.10316457791E+03  0.80419002446E+02 0.  0.
        -24    1    1    2    0    0 -0.18905348762E+00  0.22017912141E+02  0.72183538538E+02  0.11028374035E+03  0.80419002446E+02 0. -1.
<mgrwt>
<rscale>  0 0.83378895E+02</rscale>
<asrwt>0</asrwt>
<pdfrwt beam="1">  1        3 0.26644965E-01 0.83378895E+02</pdfrwt>
<pdfrwt beam="2">  1       -3 0.61932374E-02 0.83378895E+02</pdfrwt>
<totfact> 0.44420857E+03</totfact>
</mgrwt>
</event>
<event>
 4    1  0.5097315E-001  0.8823009E+02  0.7546771E-02  0.1307195E+00
         -1   -1    0    0    0  501 -0.00000000000E+00  0.00000000000E+00  0.29219120726E+02  0.29219120726E+02  0.00000000000E+00 0.  1.
          1   -1    0    0  501    0  0.00000000000E+00 -0.00000000000E+00 -0.10784584620E+04  0.10784584620E+04  0.00000000000E+00 0. -1.
         24    1    1    2    0    0 -0.13991377684E+02 -0.33489898603E+02 -0.44034845745E+02  0.98608394937E+02  0.80419002446E+02 0.  1.
        -24    1    1    2    0    0  0.13991377684E+02  0.33489898603E+02 -0.10052044955E+04  0.10090691878E+04  0.80419002446E+02 0. -1.
<mgrwt>
<rscale>  0 0.88230085E+02</rscale>
<asrwt>0</asrwt>
<pdfrwt beam="1">  1        1 0.16591670E+00 0.88230085E+02</pdfrwt>
<pdfrwt beam="2">  1       -1 0.44952489E-02 0.88230085E+02</pdfrwt>
<totfact> 0.28178357E+03</totfact>
</mgrwt>
</event>
<event>
 4    1  0.5097315E-001  0.8635964E+02  0.7546771E-02  0.1311915E+00
          1   -1    0    0  501    0  0.00000000000E+00  0.00000000000E+00  0.25447696517E+02  0.25447696517E+02  0.00000000000E+00 0. -1.
         -1   -1    0    0    0  501 -0.00000000000E+00 -0.00000000000E+00 -0.58571569081E+03  0.58571569081E+03  0.00000000000E+00 0.  1.
         24    1    1    2    0    0 -0.10863027665E+01 -0.31457764707E+02 -0.49613416085E+03  0.50359417444E+03  0.80419002446E+02 0.  1.
        -24    1    1    2    0    0  0.10863027665E+01  0.31457764707E+02 -0.64133833440E+02  0.10756921288E+03  0.80419002446E+02 0. -1.
<mgrwt>
<rscale>  0 0.86359637E+02</rscale>
<asrwt>0</asrwt>
<pdfrwt beam="1">  1        1 0.39150302E-02 0.86359637E+02</pdfrwt>
<pdfrwt beam="2">  1       -1 0.90110108E-01 0.86359637E+02</pdfrwt>
<totfact> 0.27844932E+03</totfact>
</mgrwt>
</event>
<event>
 4    1  0.5097315E-001  0.9560396E+02  0.7546771E-02  0.1289822E+00
         -2   -1    0    0    0  501 -0.00000000000E+00  0.00000000000E+00  0.99183059842E+01  0.99183059842E+01  0.00000000000E+00 0.  1.
          2   -1    0    0  501    0  0.00000000000E+00 -0.00000000000E+00 -0.10942201519E+04  0.10942201519E+04  0.00000000000E+00 0. -1.
         24    1    1    2    0    0 -0.39801042747E+02  0.32996570993E+02 -0.32283872701E+03  0.33669712846E+03  0.80419002446E+02 0.  1.
        -24    1    1    2    0    0  0.39801042747E+02 -0.32996570993E+02 -0.76146311892E+03  0.76744132944E+03  0.80419002446E+02 0.  0.
<mgrwt>
<rscale>  0 0.95603948E+02</rscale>
<asrwt>0</asrwt>
<pdfrwt beam="1">  1        2 0.16834154E+00 0.95603960E+02</pdfrwt>
<pdfrwt beam="2">  1       -2 0.15258934E-02 0.95603960E+02</pdfrwt>
<totfact> 0.24524666E+04</totfact>
</mgrwt>
</event>
<event>
 4    1  0.5097315E-001  0.1465609E+03  0.7546771E-02  0.1204764E+00
          1   -1    0    0  501    0  0.00000000000E+00  0.00000000000E+00  0.17151888621E+04  0.17151888621E+04  0.00000000000E+00 0. -1.
         -1   -1    0    0    0  501 -0.00000000000E+00 -0.00000000000E+00 -0.25831909025E+02  0.25831909025E+02  0.00000000000E+00 0.  1.
         24    1    1    2    0    0  0.11855432825E+03 -0.30947794312E+02  0.21985215237E+03  0.26422543325E+03  0.80419002446E+02 0.  1.
        -24    1    1    2    0    0 -0.11855432825E+03  0.30947794312E+02  0.14695048007E+04  0.14767953379E+04  0.80419002446E+02 0. -1.
<mgrwt>
<rscale>  0 0.14656095E+03</rscale>
<asrwt>0</asrwt>
<pdfrwt beam="1">  1        1 0.26387512E+00 0.14656095E+03</pdfrwt>
<pdfrwt beam="2">  1       -1 0.39741412E-02 0.14656095E+03</pdfrwt>
<totfact> 0.12929204E+03</totfact>
</mgrwt>
</event>
<event>
 4    1  0.5097315E-001  0.1249582E+03  0.7546771E-02  0.1235135E+00
          2   -1    0    0  501    0  0.00000000000E+00  0.00000000000E+00  0.13036074327E+04  0.13036074327E+04  0.00000000000E+00 0. -1.
         -2   -1    0    0    0  501 -0.00000000000E+00 -0.00000000000E+00 -0.15286506166E+02  0.15286506166E+02  0.00000000000E+00 0.  1.
         24    1    1    2    0    0  0.40849055693E+02 -0.86479307448E+02  0.33736731550E+03  0.35976553127E+03  0.80419002446E+02 0.  1.
        -24    1    1    2    0    0 -0.40849055693E+02  0.86479307448E+02  0.95095361107E+03  0.95912840763E+03  0.80419002446E+02 0. -1.
<mgrwt>
<rscale>  0 0.12495814E+03</rscale>
<asrwt>0</asrwt>
<pdfrwt beam="1">  1        2 0.20055490E+00 0.12495815E+03</pdfrwt>
<pdfrwt beam="2">  1       -2 0.23517712E-02 0.12495815E+03</pdfrwt>
<totfact> 0.10273042E+04</totfact>
</mgrwt>
</event>
<event>
 4    1  0.5097315E-001  0.9685179E+02  0.7546771E-02  0.1287059E+00
          3   -1    0    0  501    0  0.00000000000E+00  0.00000000000E+00  0.56697051560E+03  0.56697051560E+03  0.00000000000E+00 0. -1.
         -3   -1    0    0    0  501 -0.00000000000E+00 -0.00000000000E+00 -0.16576707936E+02  0.16576707936E+02  0.00000000000E+00 0.  1.
         24    1    1    2    0    0  0.32997648839E+02 -0.42710743237E+02  0.26234449033E+03  0.27965139009E+03  0.80419002446E+02 0. -1.
        -24    1    1    2    0    0 -0.32997648839E+02  0.42710743237E+02  0.28804931734E+03  0.30389583345E+03  0.80419002446E+02 0.  1.
<mgrwt>
<rscale>  0 0.96851786E+02</rscale>
<asrwt>0</asrwt>
<pdfrwt beam="1">  1        3 0.87226219E-01 0.96851786E+02</pdfrwt>
<pdfrwt beam="2">  1       -3 0.25502632E-02 0.96851786E+02</pdfrwt>
<totfact> 0.17468490E+03</totfact>
</mgrwt>
</event>
<event>
 4    1  0.5097315E-001  0.8642623E+02  0.7546771E-02  0.1311744E+00
         -2   -1    0    0    0  501 -0.00000000000E+00  0.00000000000E+00  0.10086387267E+02  0.10086387267E+02  0.00000000000E+00 0.  1.
          2   -1    0    0  501    0  0.00000000000E+00 -0.00000000000E+00 -0.74869183508E+03  0.74869183508E+03  0.00000000000E+00 0. -1.
         24    1    1    2    0    0 -0.31241957302E+02  0.51203427226E+01 -0.40886146362E+03  0.41789614762E+03  0.80419002446E+02 0. -1.
        -24    1    1    2    0    0  0.31241957302E+02 -0.51203427226E+01 -0.32974398419E+03  0.34088207473E+03  0.80419002446E+02 0.  1.
<mgrwt>
<rscale>  0 0.86426233E+02</rscale>
<asrwt>0</asrwt>
<pdfrwt beam="1">  1        2 0.11518341E+00 0.86426233E+02</pdfrwt>
<pdfrwt beam="2">  1       -2 0.15517512E-02 0.86426233E+02</pdfrwt>
<totfact> 0.38711530E+04</totfact>
</mgrwt>
</event>
<event>
 4    1  0.5097315E-001  0.1968556E+03  0.7546771E-02  0.1152419E+00
         -2   -1    0    0    0  501 -0.00000000000E+00  0.00000000000E+00  0.44623686322E+02  0.44623686322E+02  0.00000000000E+00 0.  1.
          2   -1    0    0  501    0  0.00000000000E+00 -0.00000000000E+00 -0.19422684380E+04  0.19422684380E+04  0.00000000000E+00 0. -1.
         24    1    1    2    0    0 -0.15039121642E+03  0.98322918170E+02 -0.16875103554E+04  0.16989535985E+04  0.80419002446E+02 0. -1.
        -24    1    1    2    0    0  0.15039121642E+03 -0.98322918170E+02 -0.21013439626E+03  0.28793852583E+03  0.80419002446E+02 0.  1.
<mgrwt>
<rscale>  0 0.19685561E+03</rscale>
<asrwt>0</asrwt>
<pdfrwt beam="1">  1        2 0.29881057E+00 0.19685561E+03</pdfrwt>
<pdfrwt beam="2">  1       -2 0.68651816E-02 0.19685561E+03</pdfrwt>
<totfact> 0.96707409E+02</totfact>
</mgrwt>
</event>
<event>
 4    1  0.5097315E-001  0.8084448E+02  0.7546771E-02  0.1326672E+00
          1   -1    0    0  501    0  0.00000000000E+00  0.00000000000E+00  0.47147196072E+02  0.47147196072E+02  0.00000000000E+00 0. -1.
         -1   -1    0    0    0  501 -0.00000000000E+00 -0.00000000000E+00 -0.13868441633E+03  0.13868441633E+03  0.00000000000E+00 0.  1.
         24    1    1    2    0    0  0.22058678435E+01 -0.79842192021E+01 -0.47674758375E+02  0.93854739623E+02  0.80419002446E+02 0. -1.
        -24    1    1    2    0    0 -0.22058678435E+01  0.79842192021E+01 -0.43862461883E+02  0.91976872778E+02  0.80419002446E+02 0.  0.
<mgrwt>
<rscale>  0 0.80844478E+02</rscale>
<asrwt>0</asrwt>
<pdfrwt beam="1">  1        1 0.72534150E-02 0.80844478E+02</pdfrwt>
<pdfrwt beam="2">  1       -1 0.21336063E-01 0.80844478E+02</pdfrwt>
<totfact> 0.15853562E+04</totfact>
</mgrwt>
</event>
<event>
 4    1  0.5097315E-001  0.8133411E+02  0.7546771E-02  0.1325307E+00
          2   -1    0    0  501    0  0.00000000000E+00  0.00000000000E+00  0.55517898200E+03  0.55517898200E+03  0.00000000000E+00 0. -1.
         -2   -1    0    0    0  501 -0.00000000000E+00 -0.00000000000E+00 -0.23420829207E+03  0.23420829207E+03  0.00000000000E+00 0.  1.
         24    1    1    2    0    0 -0.96287815648E+01  0.74369414879E+01  0.54500777464E+03  0.55104329404E+03  0.80419002446E+02 0. -1.
        -24    1    1    2    0    0  0.96287815648E+01 -0.74369414879E+01 -0.22403708471E+03  0.23834398002E+03  0.80419002446E+02 0.  1.
<mgrwt>
<rscale>  0 0.81334110E+02</rscale>
<asrwt>0</asrwt>
<pdfrwt beam="1">  1        2 0.85412151E-01 0.81334110E+02</pdfrwt>
<pdfrwt beam="2">  1       -2 0.36032045E-01 0.81334110E+02</pdfrwt>
<totfact> 0.40850626E+02</totfact>
</mgrwt>
</event>
<event>
 4    1  0.5097315E-001  0.9310176E+02  0.7546771E-02  0.1295510E+00
         -1   -1    0    0    0  501 -0.00000000000E+00  0.00000000000E+00  0.59444592121E+02  0.59444592121E+02  0.00000000000E+00 0.  1.
          1   -1    0    0  501    0  0.00000000000E+00 -0.00000000000E+00 -0.16045723299E+03  0.16045723299E+03  0.00000000000E+00 0. -1.
         24    1    1    2    0    0 -0.41286612901E+02  0.22274138078E+02 -0.17292658456E+02  0.94694105534E+02  0.80419002446E+02 0.  1.
        -24    1    1    2    0    0  0.41286612901E+02 -0.22274138078E+02 -0.83719982410E+02  0.12520771957E+03  0.80419002446E+02 0. -1.
<mgrwt>
<rscale>  0 0.93101759E+02</rscale>
<asrwt>0</asrwt>
<pdfrwt beam="1">  1        1 0.24685728E-01 0.93101759E+02</pdfrwt>
<pdfrwt beam="2">  1       -1 0.91453221E-02 0.93101759E+02</pdfrwt>
<totfact> 0.12325831E+04</totfact>
</mgrwt>
</event>
<event>
 4    1  0.5097315E-001  0.1229549E+03  0.7546771E-02  0.1238301E+00
         -1   -1    0    0    0  501 -0.00000000000E+00  0.00000000000E+00  0.15005182820E+02  0.15005182820E+02  0.00000000000E+00 0.  1.
          1   -1    0    0  501    0  0.00000000000E+00 -0.00000000000E+00 -0.10082189259E+04  0.10082189259E+04  0.00000000000E+00 0. -1.
         24    1    1    2    0    0 -0.70633277383E+02  0.60511349023E+02 -0.48305801051E+03  0.49846057087E+03  0.80419002446E+02 0. -1.
        -24    1    1    2    0    0  0.70633277383E+02 -0.60511349023E+02 -0.51015573260E+03  0.52476353789E+03  0.80419002446E+02 0.  1.
<mgrwt>
<rscale>  0 0.12295487E+03</rscale>
<asrwt>0</asrwt>
<pdfrwt beam="1">  1        1 0.15511062E+00 0.12295487E+03</pdfrwt>
<pdfrwt beam="2">  1       -1 0.23084894E-02 0.12295487E+03</pdfrwt>
<totfact> 0.84249871E+03</totfact>
</mgrwt>
</event>
<event>
 4    1  0.5097315E-001  0.8662305E+02  0.7546771E-02  0.1311242E+00
          2   -1    0    0  501    0  0.00000000000E+00  0.00000000000E+00  0.15361648729E+03  0.15361648729E+03  0.00000000000E+00 0. -1.
         -2   -1    0    0    0  501 -0.00000000000E+00 -0.00000000000E+00 -0.74299434698E+02  0.74299434698E+02  0.00000000000E+00 0.  1.
         24    1    1    2    0    0  0.97986131432E+01 -0.30664695326E+02  0.10635840377E+03  0.13717019489E+03  0.80419002446E+02 0. -1.
        -24    1    1    2    0    0 -0.97986131432E+01  0.30664695326E+02 -0.27041351178E+02  0.90745727100E+02  0.80419002446E+02 0.  1.
<mgrwt>
<rscale>  0 0.86623047E+02</rscale>
<asrwt>0</asrwt>
<pdfrwt beam="1">  1        2 0.23633306E-01 0.86623047E+02</pdfrwt>
<pdfrwt beam="2">  1       -2 0.11430682E-01 0.86623047E+02</pdfrwt>
<totfact> 0.11064511E+04</totfact>
</mgrwt>
</event>
<event>
 4    1  0.5097315E-001  0.1004984E+03  0.7546771E-02  0.1279251E+00
          1   -1    0    0  501    0  0.00000000000E+00  0.00000000000E+00  0.86851684780E+03  0.86851684780E+03  0.00000000000E+00 0. -1.
         -1   -1    0    0    0  501 -0.00000000000E+00 -0.00000000000E+00 -0.51205677414E+02  0.51205677414E+02  0.00000000000E+00 0.  1.
         24    1    1    2    0    0  0.36702816777E+02 -0.47808050455E+02  0.43704121240E+01  0.10059335418E+03  0.80419002446E+02 0.  1.
        -24    1    1    2    0    0 -0.36702816777E+02  0.47808050455E+02  0.81294075826E+03  0.81912917104E+03  0.80419002446E+02 0. -1.
<mgrwt>
<rscale>  0 0.10049837E+03</rscale>
<asrwt>0</asrwt>
<pdfrwt beam="1">  1        1 0.13361797E+00 0.10049837E+03</pdfrwt>
<pdfrwt beam="2">  1       -1 0.78777972E-02 0.10049837E+03</pdfrwt>
<totfact> 0.17601122E+03</totfact>
</mgrwt>
</event>
<event>
 4    1  0.5097315E-001  0.1394076E+03  0.7546771E-02  0.1214128E+00
         -4   -1    0    0    0  501 -0.00000000000E+00  0.00000000000E+00  0.79835020620E+02  0.79835020620E+02  0.00000000000E+00 0.  1.
          4   -1    0    0  501    0  0.00000000000E+00 -0.00000000000E+00 -0.25743677403E+03  0.25743677403E+03  0.00000000000E+00 0. -1.
         24    1    1    2    0    0  0.11199960215E+03 -0.20575783382E+02 -0.12813188881E+03  0.18934695833E+03  0.80419002446E+02 0. -1.
        -24    1    1    2    0    0 -0.11199960215E+03  0.20575783382E+02 -0.49469864600E+02  0.14792483632E+03  0.80419002446E+02 0.  1.
<mgrwt>
<rscale>  0 0.13940764E+03</rscale>
<asrwt>0</asrwt>
<pdfrwt beam="1">  1        4 0.39605658E-01 0.13940764E+03</pdfrwt>
<pdfrwt beam="2">  1       -4 0.12282311E-01 0.13940764E+03</pdfrwt>
<totfact> 0.55189880E+02</totfact>
</mgrwt>
</event>
<event>
 4    1  0.5097315E-001  0.9385020E+02  0.7546771E-02  0.1293787E+00
         -1   -1    0    0    0  501 -0.00000000000E+00  0.00000000000E+00  0.94918377279E+02  0.94918377279E+02  0.00000000000E+00 0.  1.
          1   -1    0    0  501    0  0.00000000000E+00 -0.00000000000E+00 -0.96742882022E+02  0.96742882022E+02  0.00000000000E+00 0. -1.
         24    1    1    2    0    0 -0.14123121861E+01  0.48359591450E+02  0.18448808507E+02  0.95646323508E+02  0.80419002446E+02 0.  1.
        -24    1    1    2    0    0  0.14123121861E+01 -0.48359591450E+02 -0.20273313250E+02  0.96014935794E+02  0.80419002446E+02 0. -1.
<mgrwt>
<rscale>  0 0.93850203E+02</rscale>
<asrwt>0</asrwt>
<pdfrwt beam="1">  1        1 0.14883520E-01 0.93850203E+02</pdfrwt>
<pdfrwt beam="2">  1       -1 0.14602827E-01 0.93850203E+02</pdfrwt>
<totfact> 0.11434706E+04</totfact>
</mgrwt>
</event>
<event>
 4    1  0.5097315E-001  0.8342212E+02  0.7546771E-02  0.1319611E+00
          1   -1    0    0  501    0  0.00000000000E+00  0.00000000000E+00  0.74618990950E+03  0.74618990950E+03  0.00000000000E+00 0. -1.
         -1   -1    0    0    0  501 -0.00000000000E+00 -0.00000000000E+00 -0.14308201924E+02  0.14308201924E+02  0.00000000000E+00 0.  1.
         24    1    1    2    0    0 -0.52336808155E+01  0.21555591495E+02  0.14156831636E+03  0.16431932051E+03  0.80419002446E+02 0.  1.
        -24    1    1    2    0    0  0.52336808155E+01 -0.21555591495E+02  0.59031339121E+03  0.59617879092E+03  0.80419002446E+02 0.  0.
<mgrwt>
<rscale>  0 0.83422125E+02</rscale>
<asrwt>0</asrwt>
<pdfrwt beam="1">  1        1 0.11479842E+00 0.83422125E+02</pdfrwt>
<pdfrwt beam="2">  1       -1 0.22012624E-02 0.83422125E+02</pdfrwt>
<totfact> 0.13991310E+04</totfact>
</mgrwt>
</event>
<event>
 4    1  0.5097315E-001  0.8236891E+02  0.7546771E-02  0.1322460E+00
         -1   -1    0    0    0  501 -0.00000000000E+00  0.00000000000E+00  0.74094375362E+01  0.74094375362E+01  0.00000000000E+00 0.  1.
          1   -1    0    0  501    0  0.00000000000E+00 -0.00000000000E+00 -0.91845892927E+03  0.91845892927E+03  0.00000000000E+00 0. -1.
         24    1    1    2    0    0  0.17281161897E+02 -0.43339816070E+01 -0.43003849606E+03  0.43785585071E+03  0.80419002446E+02 0. -1.
        -24    1    1    2    0    0 -0.17281161897E+02  0.43339816070E+01 -0.48101099567E+03  0.48801251609E+03  0.80419002446E+02 0.  1.
<mgrwt>
<rscale>  0 0.82368913E+02</rscale>
<asrwt>0</asrwt>
<pdfrwt beam="1">  1        1 0.14130143E+00 0.82368913E+02</pdfrwt>
<pdfrwt beam="2">  1       -1 0.11399130E-02 0.82368913E+02</pdfrwt>
<totfact> 0.25997042E+04</totfact>
</mgrwt>
</event>
<event>
 4    1  0.5097315E-001  0.8909605E+02  0.7546771E-02  0.1305056E+00
          1   -1    0    0  501    0  0.00000000000E+00  0.00000000000E+00  0.13807931490E+04  0.13807931490E+04  0.00000000000E+00 0. -1.
         -1   -1    0    0    0  501 -0.00000000000E+00 -0.00000000000E+00 -0.69425776138E+01  0.69425776138E+01  0.00000000000E+00 0.  1.
         24    1    1    2    0    0  0.29910821704E+02  0.24004868746E+02  0.39921768424E+03  0.40903895455E+03  0.80419002446E+02 0.  1.
        -24    1    1    2    0    0 -0.29910821704E+02 -0.24004868746E+02  0.97463288715E+03  0.97869677207E+03  0.80419002446E+02 0. -1.
<mgrwt>
<rscale>  0 0.89096055E+02</rscale>
<asrwt>0</asrwt>
<pdfrwt beam="1">  1        1 0.21242950E+00 0.89096055E+02</pdfrwt>
<pdfrwt beam="2">  1       -1 0.10680900E-02 0.89096055E+02</pdfrwt>
<totfact> 0.13821868E+04</totfact>
</mgrwt>
</event>
<event>
 4    1  0.5097315E-001  0.8728608E+02  0.7546771E-02  0.1309560E+00
          2   -1    0    0  501    0  0.00000000000E+00  0.00000000000E+00  0.46752669567E+03  0.46752669567E+03  0.00000000000E+00 0. -1.
         -2   -1    0    0    0  501 -0.00000000000E+00 -0.00000000000E+00 -0.23310331619E+02  0.23310331619E+02  0.00000000000E+00 0.  1.
         24    1    1    2    0    0  0.18687568230E+02  0.28327001625E+02  0.35673241846E+03  0.36725587615E+03  0.80419002446E+02 0. -1.
        -24    1    1    2    0    0 -0.18687568230E+02 -0.28327001625E+02  0.87483945588E+02  0.12358115114E+03  0.80419002446E+02 0.  1.
<mgrwt>
<rscale>  0 0.87286082E+02</rscale>
<asrwt>0</asrwt>
<pdfrwt beam="1">  1        2 0.71927177E-01 0.87286082E+02</pdfrwt>
<pdfrwt beam="2">  1       -2 0.35862052E-02 0.87286082E+02</pdfrwt>
<totfact> 0.19607932E+04</totfact>
</mgrwt>
</event>
<event>
 4    1  0.5097315E-001  0.8043917E+02  0.7546771E-02  0.1327810E+00
          2   -1    0    0  501    0  0.00000000000E+00  0.00000000000E+00  0.99217162088E+03  0.99217162088E+03  0.00000000000E+00 0. -1.
         -2   -1    0    0    0  501 -0.00000000000E+00 -0.00000000000E+00 -0.65476856347E+01  0.65476856347E+01  0.00000000000E+00 0.  1.
         24    1    1    2    0    0  0.60763060246E+00 -0.16955540533E+01  0.52438335645E+03  0.53051707286E+03  0.80419002446E+02 0. -1.
        -24    1    1    2    0    0 -0.60763060246E+00  0.16955540533E+01  0.46124057879E+03  0.46820223365E+03  0.80419002446E+02 0.  0.
<mgrwt>
<rscale>  0 0.80439170E+02</rscale>
<asrwt>0</asrwt>
<pdfrwt beam="1">  1        2 0.15264167E+00 0.80439170E+02</pdfrwt>
<pdfrwt beam="2">  1       -2 0.10073370E-02 0.80439170E+02</pdfrwt>
<totfact> 0.49735886E+04</totfact>
</mgrwt>
</event>
<event>
 4    1  0.5097315E-001  0.8568243E+02  0.7546771E-02  0.1313657E+00
          1   -1    0    0  501    0  0.00000000000E+00  0.00000000000E+00  0.23072835549E+03  0.23072835549E+03  0.00000000000E+00 0. -1.
         -1   -1    0    0    0  501 -0.00000000000E+00 -0.00000000000E+00 -0.77870003557E+02  0.77870003557E+02  0.00000000000E+00 0.  1.
         24    1    1    2    0    0 -0.13620133584E+02  0.26244141159E+02 -0.42229481445E+02  0.95523861111E+02  0.80419002446E+02 0.  1.
        -24    1    1    2    0    0  0.13620133584E+02 -0.26244141159E+02  0.19508783338E+03  0.21307449794E+03  0.80419002446E+02 0. -1.
<mgrwt>
<rscale>  0 0.85682431E+02</rscale>
<asrwt>0</asrwt>
<pdfrwt beam="1">  1        1 0.35496670E-01 0.85682431E+02</pdfrwt>
<pdfrwt beam="2">  1       -1 0.11980001E-01 0.85682431E+02</pdfrwt>
<totfact> 0.52054526E+03</totfact>
</mgrwt>
</event>
<event>
 4    1  0.5097315E-001  0.8152642E+02  0.7546771E-02  0.1324775E+00
         -1   -1    0    0    0  501 -0.00000000000E+00  0.00000000000E+00  0.17844532115E+02  0.17844532115E+02  0.00000000000E+00 0.  1.
          1   -1    0    0  501    0  0.00000000000E+00 -0.00000000000E+00 -0.55959884225E+03  0.55959884225E+03  0.00000000000E+00 0. -1.
         24    1    1    2    0    0 -0.12483033266E+02  0.48492025707E+01 -0.10391766451E+03  0.13208117897E+03  0.80419002446E+02 0.  1.
        -24    1    1    2    0    0  0.12483033266E+02 -0.48492025707E+01 -0.43783664562E+03  0.44536219540E+03  0.80419002446E+02 0.  0.
<mgrwt>
<rscale>  0 0.81526418E+02</rscale>
<asrwt>0</asrwt>
<pdfrwt beam="1">  1        1 0.86092139E-01 0.81526418E+02</pdfrwt>
<pdfrwt beam="2">  1       -1 0.27453123E-02 0.81526418E+02</pdfrwt>
<totfact> 0.15089277E+04</totfact>
</mgrwt>
</event>
<event>
 4    1  0.5097315E-001  0.9811649E+02  0.7546771E-02  0.1284307E+00
          1   -1    0    0  501    0  0.00000000000E+00  0.00000000000E+00  0.50877718889E+02  0.50877718889E+02  0.00000000000E+00 0. -1.
         -1   -1    0    0    0  501 -0.00000000000E+00 -0.00000000000E+00 -0.20211779118E+03  0.20211779118E+03  0.00000000000E+00 0.  1.
         24    1    1    2    0    0 -0.16276330928E+02 -0.53802474484E+02 -0.43659218048E+02  0.10739165928E+03  0.80419002446E+02 0.  1.
        -24    1    1    2    0    0  0.16276330928E+02  0.53802474484E+02 -0.10758085425E+03  0.14560385079E+03  0.80419002446E+02 0.  0.
<mgrwt>
<rscale>  0 0.98116480E+02</rscale>
<asrwt>0</asrwt>
<pdfrwt beam="1">  1        1 0.78273415E-02 0.98116492E+02</pdfrwt>
<pdfrwt beam="2">  1       -1 0.31095044E-01 0.98116492E+02</pdfrwt>
<totfact> 0.79059462E+03</totfact>
</mgrwt>
</event>
<event>
 4    1  0.5097315E-001  0.2186477E+03  0.7546771E-02  0.1134895E+00
          4   -1    0    0  501    0  0.00000000000E+00  0.00000000000E+00  0.10956253799E+04  0.10956253799E+04  0.00000000000E+00 0. -1.
         -4   -1    0    0    0  501 -0.00000000000E+00 -0.00000000000E+00 -0.43880732866E+02  0.43880732866E+02  0.00000000000E+00 0.  1.
         24    1    1    2    0    0  0.20323660311E+03  0.58719676006E+01  0.56857215420E+03  0.60916426958E+03  0.80419002446E+02 0.  1.
        -24    1    1    2    0    0 -0.20323660311E+03 -0.58719676006E+01  0.48317249284E+03  0.53034184319E+03  0.80419002446E+02 0. -1.
<mgrwt>
<rscale>  0 0.21864769E+03</rscale>
<asrwt>0</asrwt>
<pdfrwt beam="1">  1        4 0.16855773E+00 0.21864769E+03</pdfrwt>
<pdfrwt beam="2">  1       -4 0.67508828E-02 0.21864769E+03</pdfrwt>
<totfact> 0.61396470E+01</totfact>
</mgrwt>
</event>
<event>
 4    1  0.5097315E-001  0.9052219E+02  0.7546771E-02  0.1301592E+00
         -1   -1    0    0    0  501 -0.00000000000E+00  0.00000000000E+00  0.22942772228E+03  0.22942772228E+03  0.00000000000E+00 0.  1.
          1   -1    0    0  501    0  0.00000000000E+00 -0.00000000000E+00 -0.44718451058E+02  0.44718451058E+02  0.00000000000E+00 0. -1.
         24    1    1    2    0    0  0.29826630960E+02  0.28938254809E+02  0.15385624415E+03  0.17851053281E+03  0.80419002446E+02 0.  1.
        -24    1    1    2    0    0 -0.29826630960E+02 -0.28938254809E+02  0.30853027075E+02  0.95635640532E+02  0.80419002446E+02 0. -1.
<mgrwt>
<rscale>  0 0.90522188E+02</rscale>
<asrwt>0</asrwt>
<pdfrwt beam="1">  1        1 0.68797618E-02 0.90522188E+02</pdfrwt>
<pdfrwt beam="2">  1       -1 0.35296572E-01 0.90522188E+02</pdfrwt>
<totfact> 0.75280551E+03</totfact>
</mgrwt>
</event>
<event>
 4    1  0.5097315E-001  0.8970737E+02  0.7546771E-02  0.1303562E+00
          1   -1    0    0  501    0  0.00000000000E+00  0.00000000000E+00  0.10311787144E+04  0.10311787144E+04  0.00000000000E+00 0. -1.
         -1   -1    0    0    0  501 -0.00000000000E+00 -0.00000000000E+00 -0.80094075533E+01  0.80094075533E+01  0.00000000000E+00 0.  1.
         24    1    1    2    0    0  0.33845945330E+02 -0.20848233539E+02  0.42839378266E+03  0.43768555589E+03  0.80419002446E+02 0.  1.
        -24    1    1    2    0    0 -0.33845945330E+02  0.20848233539E+02  0.59477552418E+03  0.60150256606E+03  0.80419002446E+02 0. -1.
<mgrwt>
<rscale>  0 0.89707373E+02</rscale>
<asrwt>0</asrwt>
<pdfrwt beam="1">  1        1 0.15864277E+00 0.89707373E+02</pdfrwt>
<pdfrwt beam="2">  1       -1 0.12322174E-02 0.89707373E+02</pdfrwt>
<totfact> 0.19442318E+04</totfact>
</mgrwt>
</event>
<event>
 4    1  0.5097315E-001  0.8229449E+02  0.7546771E-02  0.1322663E+00
         -1   -1    0    0    0  501 -0.00000000000E+00  0.00000000000E+00  0.67398886149E+01  0.67398886149E+01  0.00000000000E+00 0.  1.
          1   -1    0    0  501    0  0.00000000000E+00 -0.00000000000E+00 -0.10406042398E+04  0.10406042398E+04  0.00000000000E+00 0. -1.
         24    1    1    2    0    0 -0.60322564875E+00  0.17458637769E+02 -0.41982430873E+03  0.42781401809E+03  0.80419002446E+02 0.  0.
        -24    1    1    2    0    0  0.60322564875E+00 -0.17458637769E+02 -0.61404004242E+03  0.61953011030E+03  0.80419002446E+02 0.  1.
<mgrwt>
<rscale>  0 0.82294495E+02</rscale>
<asrwt>0</asrwt>
<pdfrwt beam="1">  1        1 0.16009296E+00 0.82294495E+02</pdfrwt>
<pdfrwt beam="2">  1       -1 0.10369060E-02 0.82294495E+02</pdfrwt>
<totfact> 0.24231230E+04</totfact>
</mgrwt>
</event>
<event>
 4    1  0.5097315E-001  0.1029422E+03  0.7546771E-02  0.1274228E+00
          2   -1    0    0  501    0  0.00000000000E+00  0.00000000000E+00  0.45047152598E+03  0.45047152598E+03  0.00000000000E+00 0. -1.
         -2   -1    0    0    0  501 -0.00000000000E+00 -0.00000000000E+00 -0.17368757529E+03  0.17368757529E+03  0.00000000000E+00 0.  1.
         24    1    1    2    0    0  0.14896063726E+02 -0.62513969996E+02  0.42856868521E+03  0.44075869028E+03  0.80419002446E+02 0. -1.
        -24    1    1    2    0    0 -0.14896063726E+02  0.62513969996E+02 -0.15178473452E+03  0.18340041098E+03  0.80419002446E+02 0.  1.
<mgrwt>
<rscale>  0 0.10294224E+03</rscale>
<asrwt>0</asrwt>
<pdfrwt beam="1">  1        2 0.69303311E-01 0.10294224E+03</pdfrwt>
<pdfrwt beam="2">  1       -2 0.26721166E-01 0.10294224E+03</pdfrwt>
<totfact> 0.87689650E+02</totfact>
</mgrwt>
</event>
<event>
 4    1  0.5097315E-001  0.9489667E+02  0.7546771E-02  0.1291409E+00
          2   -1    0    0  501    0  0.00000000000E+00  0.00000000000E+00  0.18355199758E+04  0.18355199758E+04  0.00000000000E+00 0. -1.
         -2   -1    0    0    0  501 -0.00000000000E+00 -0.00000000000E+00 -0.83936887738E+01  0.83936887738E+01  0.00000000000E+00 0.  1.
         24    1    1    2    0    0 -0.38229197669E+02  0.32812968422E+02  0.15078446985E+04  0.15108279231E+04  0.80419002446E+02 0. -1.
        -24    1    1    2    0    0  0.38229197669E+02 -0.32812968422E+02  0.31928158852E+03  0.33308574148E+03  0.80419002446E+02 0.  1.
<mgrwt>
<rscale>  0 0.94896672E+02</rscale>
<asrwt>0</asrwt>
<pdfrwt beam="1">  1        2 0.28238737E+00 0.94896672E+02</pdfrwt>
<pdfrwt beam="2">  1       -2 0.12913382E-02 0.94896672E+02</pdfrwt>
<totfact> 0.12789565E+04</totfact>
</mgrwt>
</event>
<event>
 4    1  0.5097315E-001  0.1165842E+03  0.7546771E-02  0.1248841E+00
          2   -1    0    0  501    0  0.00000000000E+00  0.00000000000E+00  0.35886075947E+03  0.35886075947E+03  0.00000000000E+00 0. -1.
         -2   -1    0    0    0  501 -0.00000000000E+00 -0.00000000000E+00 -0.44865978812E+02  0.44865978812E+02  0.00000000000E+00 0.  1.
         24    1    1    2    0    0  0.48823100727E+02  0.68854714744E+02  0.23668030328E+03  0.26383602639E+03  0.80419002446E+02 0. -1.
        -24    1    1    2    0    0 -0.48823100727E+02 -0.68854714744E+02  0.77314477380E+02  0.13989071189E+03  0.80419002446E+02 0.  1.
<mgrwt>
<rscale>  0 0.11658423E+03</rscale>
<asrwt>0</asrwt>
<pdfrwt beam="1">  1        2 0.55209346E-01 0.11658423E+03</pdfrwt>
<pdfrwt beam="2">  1       -2 0.69024585E-02 0.11658423E+03</pdfrwt>
<totfact> 0.10036207E+04</totfact>
</mgrwt>
</event>
<event>
 4    1  0.5097315E-001  0.8098427E+02  0.7546771E-02  0.1326281E+00
          2   -1    0    0  501    0  0.00000000000E+00  0.00000000000E+00  0.16745888704E+04  0.16745888704E+04  0.00000000000E+00 0. -1.
         -2   -1    0    0    0  501 -0.00000000000E+00 -0.00000000000E+00 -0.29063944556E+02  0.29063944556E+02  0.00000000000E+00 0.  1.
         24    1    1    2    0    0  0.38107996730E+01  0.87586832838E+01  0.16151198949E+04  0.16171489504E+04  0.80419002446E+02 0.  0.
        -24    1    1    2    0    0 -0.38107996730E+01 -0.87586832838E+01  0.30405030895E+02  0.86503864568E+02  0.80419002446E+02 0.  1.
<mgrwt>
<rscale>  0 0.80984274E+02</rscale>
<asrwt>0</asrwt>
<pdfrwt beam="1">  1        2 0.25762898E+00 0.80984274E+02</pdfrwt>
<pdfrwt beam="2">  1       -2 0.44713774E-02 0.80984274E+02</pdfrwt>
<totfact> 0.25487372E+03</totfact>
</mgrwt>
</event>
<event>
 4    1  0.5097315E-001  0.8820116E+02  0.7546771E-02  0.1307267E+00
         -1   -1    0    0    0  501 -0.00000000000E+00  0.00000000000E+00  0.37800493364E+01  0.37800493364E+01  0.00000000000E+00 0.  1.
          1   -1    0    0  501    0  0.00000000000E+00 -0.00000000000E+00 -0.20705250626E+04  0.20705250626E+04  0.00000000000E+00 0. -1.
         24    1    1    2    0    0 -0.35953625676E+02 -0.44232043518E+01 -0.95279341092E+03  0.95686714218E+03  0.80419002446E+02 0.  1.
        -24    1    1    2    0    0  0.35953625676E+02  0.44232043518E+01 -0.11139516023E+04  0.11174379698E+04  0.80419002446E+02 0. -1.
<mgrwt>
<rscale>  0 0.88201156E+02</rscale>
<asrwt>0</asrwt>
<pdfrwt beam="1">  1        1 0.31854216E+00 0.88201156E+02</pdfrwt>
<pdfrwt beam="2">  1       -1 0.58154634E-03 0.88201156E+02</pdfrwt>
<totfact> 0.11920054E+04</totfact>
</mgrwt>
</event>
<event>
 4    1  0.5097315E-001  0.8127567E+02  0.7546771E-02  0.1325470E+00
         -1   -1    0    0    0  501 -0.00000000000E+00  0.00000000000E+00  0.29144561860E+03  0.29144561860E+03  0.00000000000E+00 0.  1.
          1   -1    0    0  501    0  0.00000000000E+00 -0.00000000000E+00 -0.35622356851E+02  0.35622356851E+02  0.00000000000E+00 0. -1.
         24    1    1    2    0    0  0.16789797780E+01 -0.11649011584E+02  0.22653913501E+03  0.24067761443E+03  0.80419002446E+02 0.  1.
        -24    1    1    2    0    0 -0.16789797780E+01  0.11649011584E+02  0.29284126743E+02  0.86390361022E+02  0.80419002446E+02 0. -1.
<mgrwt>
<rscale>  0 0.81275669E+02</rscale>
<asrwt>0</asrwt>
<pdfrwt beam="1">  1        1 0.54803628E-02 0.81275669E+02</pdfrwt>
<pdfrwt beam="2">  1       -1 0.44837786E-01 0.81275669E+02</pdfrwt>
<totfact> 0.66785621E+03</totfact>
</mgrwt>
</event>
<event>
 4    1  0.5097315E-001  0.9058012E+02  0.7546771E-02  0.1301453E+00
          1   -1    0    0  501    0  0.00000000000E+00  0.00000000000E+00  0.24137201233E+03  0.24137201233E+03  0.00000000000E+00 0. -1.
         -1   -1    0    0    0  501 -0.00000000000E+00 -0.00000000000E+00 -0.34235955549E+02  0.34235955549E+02  0.00000000000E+00 0.  1.
         24    1    1    2    0    0  0.33509477512E+02  0.24792262728E+02  0.91939392805E+02  0.12906436099E+03  0.80419002446E+02 0. -1.
        -24    1    1    2    0    0 -0.33509477512E+02 -0.24792262728E+02  0.11519666398E+03  0.14654360689E+03  0.80419002446E+02 0.  1.
<mgrwt>
<rscale>  0 0.90580116E+02</rscale>
<asrwt>0</asrwt>
<pdfrwt beam="1">  1        1 0.37134155E-01 0.90580116E+02</pdfrwt>
<pdfrwt beam="2">  1       -1 0.52670703E-02 0.90580116E+02</pdfrwt>
<totfact> 0.16872202E+04</totfact>
</mgrwt>
</event>
<event>
 4    1  0.5097315E-001  0.1030828E+03  0.7546771E-02  0.1273944E+00
         -2   -1    0    0    0  501 -0.00000000000E+00  0.00000000000E+00  0.37101633741E+02  0.37101633741E+02  0.00000000000E+00 0.  1.
          2   -1    0    0  501    0  0.00000000000E+00 -0.00000000000E+00 -0.97932631256E+03  0.97932631256E+03  0.00000000000E+00 0. -1.
         24    1    1    2    0    0 -0.62940841135E+02  0.14046188328E+02 -0.89860151725E+03  0.90449474717E+03  0.80419002446E+02 0. -1.
        -24    1    1    2    0    0  0.62940841135E+02 -0.14046188328E+02 -0.43623161567E+02  0.11193319914E+03  0.80419002446E+02 0.  1.
<mgrwt>
<rscale>  0 0.10308279E+03</rscale>
<asrwt>0</asrwt>
<pdfrwt beam="1">  1        2 0.15066556E+00 0.10308279E+03</pdfrwt>
<pdfrwt beam="2">  1       -2 0.57079447E-02 0.10308279E+03</pdfrwt>
<totfact> 0.41876225E+03</totfact>
</mgrwt>
</event>
<event>
 4    1  0.5097315E-001  0.9616421E+02  0.7546771E-02  0.1288575E+00
         -2   -1    0    0    0  501 -0.00000000000E+00  0.00000000000E+00  0.92588933468E+01  0.92588933468E+01  0.00000000000E+00 0.  1.
          2   -1    0    0  501    0  0.00000000000E+00 -0.00000000000E+00 -0.99883076529E+03  0.99883076529E+03  0.00000000000E+00 0. -1.
         24    1    1    2    0    0 -0.52078950704E+02  0.82533754237E+01 -0.49101995443E+03  0.50034802580E+03  0.80419002446E+02 0. -1.
        -24    1    1    2    0    0  0.52078950704E+02 -0.82533754237E+01 -0.49855191751E+03  0.50774163284E+03  0.80419002446E+02 0.  1.
<mgrwt>
<rscale>  0 0.96164201E+02</rscale>
<asrwt>0</asrwt>
<pdfrwt beam="1">  1        2 0.15366617E+00 0.96164213E+02</pdfrwt>
<pdfrwt beam="2">  1       -2 0.14244461E-02 0.96164213E+02</pdfrwt>
<totfact> 0.30719865E+04</totfact>
</mgrwt>
</event>
<event>
 4    1  0.5097315E-001  0.8395983E+02  0.7546771E-02  0.1318175E+00
          2   -1    0    0  501    0  0.00000000000E+00  0.00000000000E+00  0.23777961312E+04  0.23777961312E+04  0.00000000000E+00 0. -1.
         -2   -1    0    0    0  501 -0.00000000000E+00 -0.00000000000E+00 -0.40002507456E+01  0.40002507456E+01  0.00000000000E+00 0.  1.
         24    1    1    2    0    0 -0.19149859667E+01  0.24049308527E+02  0.17928445254E+04  0.17948093894E+04  0.80419002446E+02 0. -1.
        -24    1    1    2    0    0  0.19149859667E+01 -0.24049308527E+02  0.58095135512E+03  0.58698699251E+03  0.80419002446E+02 0.  1.
<mgrwt>
<rscale>  0 0.83959826E+02</rscale>
<asrwt>0</asrwt>
<pdfrwt beam="1">  1        2 0.36581366E+00 0.83959826E+02</pdfrwt>
<pdfrwt beam="2">  1       -2 0.61542509E-03 0.83959826E+02</pdfrwt>
<totfact> 0.19240484E+04</totfact>
</mgrwt>
</event>
<event>
 4    1  0.5097315E-001  0.1141117E+03  0.7546771E-02  0.1253140E+00
         -1   -1    0    0    0  501 -0.00000000000E+00  0.00000000000E+00  0.14122543480E+04  0.14122543480E+04  0.00000000000E+00 0.  1.
          1   -1    0    0  501    0  0.00000000000E+00 -0.00000000000E+00 -0.90714476323E+02  0.90714476323E+02  0.00000000000E+00 0. -1.
         24    1    1    2    0    0 -0.30744453043E+02 -0.74893612679E+02  0.13730401948E+04  0.13777738810E+04  0.80419002446E+02 0.  1.
        -24    1    1    2    0    0  0.30744453043E+02  0.74893612679E+02 -0.51500323095E+02  0.12519494337E+03  0.80419002446E+02 0. -1.
<mgrwt>
<rscale>  0 0.11411175E+03</rscale>
<asrwt>0</asrwt>
<pdfrwt beam="1">  1        1 0.13956074E-01 0.11411175E+03</pdfrwt>
<pdfrwt beam="2">  1       -1 0.21726988E+00 0.11411175E+03</pdfrwt>
<totfact> 0.55150169E+01</totfact>
</mgrwt>
</event>
<event>
 4    1  0.5097315E-001  0.8461015E+02  0.7546771E-02  0.1316455E+00
         -2   -1    0    0    0  501 -0.00000000000E+00  0.00000000000E+00  0.54587835262E+02  0.54587835262E+02  0.00000000000E+00 0.  1.
          2   -1    0    0  501    0  0.00000000000E+00 -0.00000000000E+00 -0.16971327084E+03  0.16971327084E+03  0.00000000000E+00 0. -1.
         24    1    1    2    0    0 -0.15949724106E+02 -0.20910956107E+02 -0.11102692501E+03  0.13959174695E+03  0.80419002446E+02 0. -1.
        -24    1    1    2    0    0  0.15949724106E+02  0.20910956107E+02 -0.40985105629E+01  0.84709359150E+02  0.80419002446E+02 0.  1.
<mgrwt>
<rscale>  0 0.84610152E+02</rscale>
<asrwt>0</asrwt>
<pdfrwt beam="1">  1        2 0.26109733E-01 0.84610152E+02</pdfrwt>
<pdfrwt beam="2">  1       -2 0.83981287E-02 0.84610152E+02</pdfrwt>
<totfact> 0.15973114E+04</totfact>
</mgrwt>
</event>
<event>
 4    1  0.5097315E-001  0.8766078E+02  0.7546771E-02  0.1308617E+00
          1   -1    0    0  501    0  0.00000000000E+00  0.00000000000E+00  0.13507773295E+03  0.13507773295E+03  0.00000000000E+00 0. -1.
         -1   -1    0    0    0  501 -0.00000000000E+00 -0.00000000000E+00 -0.58706262140E+02  0.58706262140E+02  0.00000000000E+00 0.  1.
         24    1    1    2    0    0 -0.34852837370E+02  0.15737929593E+01  0.21137642597E+02  0.90173238746E+02  0.80419002446E+02 0.  1.
        -24    1    1    2    0    0  0.34852837370E+02 -0.15737929593E+01  0.55233828217E+02  0.10361075635E+03  0.80419002446E+02 0. -1.
<mgrwt>
<rscale>  0 0.87660784E+02</rscale>
<asrwt>0</asrwt>
<pdfrwt beam="1">  1        1 0.20781190E-01 0.87660784E+02</pdfrwt>
<pdfrwt beam="2">  1       -1 0.90317327E-02 0.87660784E+02</pdfrwt>
<totfact> 0.15469841E+04</totfact>
</mgrwt>
</event>
<event>
 4    1  0.5097315E-001  0.8873459E+02  0.7546771E-02  0.1305945E+00
          2   -1    0    0  501    0  0.00000000000E+00  0.00000000000E+00  0.17227552260E+03  0.17227552260E+03  0.00000000000E+00 0. -1.
         -2   -1    0    0    0  501 -0.00000000000E+00 -0.00000000000E+00 -0.13155128829E+03  0.13155128829E+03  0.00000000000E+00 0.  1.
         24    1    1    2    0    0 -0.23346509816E+02 -0.29352198186E+02  0.14308051761E+03  0.16836229249E+03  0.80419002446E+02 0. -1.
        -24    1    1    2    0    0  0.23346509816E+02  0.29352198186E+02 -0.10235628330E+03  0.13546451839E+03  0.80419002446E+02 0.  1.
<mgrwt>
<rscale>  0 0.88734587E+02</rscale>
<asrwt>0</asrwt>
<pdfrwt beam="1">  1        2 0.26503926E-01 0.88734587E+02</pdfrwt>
<pdfrwt beam="2">  1       -2 0.20238660E-01 0.88734587E+02</pdfrwt>
<totfact> 0.38773411E+03</totfact>
</mgrwt>
</event>
<event>
 4    1  0.5097315E-001  0.8841741E+02  0.7546771E-02  0.1306730E+00
          1   -1    0    0  501    0  0.00000000000E+00  0.00000000000E+00  0.83491304134E+03  0.83491304134E+03  0.00000000000E+00 0. -1.
         -1   -1    0    0    0  501 -0.00000000000E+00 -0.00000000000E+00 -0.39795815479E+02  0.39795815479E+02  0.00000000000E+00 0.  1.
         24    1    1    2    0    0 -0.20248742410E+02  0.30666131441E+02  0.15101349263E+02  0.89697769708E+02  0.80419002446E+02 0.  1.
        -24    1    1    2    0    0  0.20248742410E+02 -0.30666131441E+02  0.78001587660E+03  0.78501108711E+03  0.80419002446E+02 0. -1.
<mgrwt>
<rscale>  0 0.88417414E+02</rscale>
<asrwt>0</asrwt>
<pdfrwt beam="1">  1        1 0.12844815E+00 0.88417414E+02</pdfrwt>
<pdfrwt beam="2">  1       -1 0.61224338E-02 0.88417414E+02</pdfrwt>
<totfact> 0.27080131E+03</totfact>
</mgrwt>
</event>
<event>
 4    1  0.5097315E-001  0.1044495E+03  0.7546771E-02  0.1271208E+00
         -2   -1    0    0    0  501 -0.00000000000E+00  0.00000000000E+00  0.11372872384E+02  0.11372872384E+02  0.00000000000E+00 0.  1.
          2   -1    0    0  501    0  0.00000000000E+00 -0.00000000000E+00 -0.30923597093E+04  0.30923597093E+04  0.00000000000E+00 0. -1.
         24    1    1    2    0    0 -0.59682355366E+02 -0.29673174255E+02 -0.28293763890E+04  0.28313036657E+04  0.80419002446E+02 0. -1.
        -24    1    1    2    0    0  0.59682355366E+02  0.29673174255E+02 -0.25161044796E+03  0.27242891603E+03  0.80419002446E+02 0.  1.
<mgrwt>
<rscale>  0 0.10444949E+03</rscale>
<asrwt>0</asrwt>
<pdfrwt beam="1">  1        2 0.47574823E+00 0.10444949E+03</pdfrwt>
<pdfrwt beam="2">  1       -2 0.17496705E-02 0.10444949E+03</pdfrwt>
<totfact> 0.17855184E+03</totfact>
</mgrwt>
</event>
<event>
 4    1  0.5097315E-001  0.1101665E+03  0.7546771E-02  0.1260262E+00
          2   -1    0    0  501    0  0.00000000000E+00  0.00000000000E+00  0.17450217503E+04  0.17450217503E+04  0.00000000000E+00 0. -1.
         -2   -1    0    0    0  501 -0.00000000000E+00 -0.00000000000E+00 -0.84313600476E+01  0.84313600476E+01  0.00000000000E+00 0.  1.
         24    1    1    2    0    0  0.52759773622E+02  0.53720179860E+02  0.12351616640E+04  0.12400649191E+04  0.80419002446E+02 0.  0.
        -24    1    1    2    0    0 -0.52759773622E+02 -0.53720179860E+02  0.50142872624E+03  0.51338819122E+03  0.80419002446E+02 0.  1.
<mgrwt>
<rscale>  0 0.11016654E+03</rscale>
<asrwt>0</asrwt>
<pdfrwt beam="1">  1        2 0.26846460E+00 0.11016654E+03</pdfrwt>
<pdfrwt beam="2">  1       -2 0.12971337E-02 0.11016654E+03</pdfrwt>
<totfact> 0.14222502E+04</totfact>
</mgrwt>
</event>
<event>
 4    1  0.5097315E-001  0.1004796E+03  0.7546771E-02  0.1279291E+00
          1   -1    0    0  501    0  0.00000000000E+00  0.00000000000E+00  0.57432896909E+03  0.57432896909E+03  0.00000000000E+00 0. -1.
         -1   -1    0    0    0  501 -0.00000000000E+00 -0.00000000000E+00 -0.71518186271E+02  0.71518186271E+02  0.00000000000E+00 0.  1.
         24    1    1    2    0    0 -0.50082216176E+02 -0.33476950879E+02 -0.29036929734E+02  0.10459107926E+03  0.80419002446E+02 0.  1.
        -24    1    1    2    0    0  0.50082216176E+02  0.33476950879E+02  0.53184771256E+03  0.54125607611E+03  0.80419002446E+02 0. -1.
<mgrwt>
<rscale>  0 0.10047960E+03</rscale>
<asrwt>0</asrwt>
<pdfrwt beam="1">  1        1 0.88358300E-01 0.10047960E+03</pdfrwt>
<pdfrwt beam="2">  1       -1 0.11002798E-01 0.10047960E+03</pdfrwt>
<totfact> 0.19160734E+03</totfact>
</mgrwt>
</event>
<event>
 4    1  0.5097315E-001  0.9581122E+02  0.7546771E-02  0.1289359E+00
         -2   -1    0    0    0  501 -0.00000000000E+00  0.00000000000E+00  0.11345334862E+04  0.11345334862E+04  0.00000000000E+00 0.  1.
          2   -1    0    0  501    0  0.00000000000E+00 -0.00000000000E+00 -0.39435158223E+03  0.39435158223E+03  0.00000000000E+00 0. -1.
         24    1    1    2    0    0 -0.33469954543E+02  0.39904084043E+02 -0.38646857889E+03  0.39816799495E+03  0.80419002446E+02 0. -1.
        -24    1    1    2    0    0  0.33469954543E+02 -0.39904084043E+02  0.11266504829E+04  0.11307170735E+04  0.80419002446E+02 0.  1.
<mgrwt>
<rscale>  0 0.95811219E+02</rscale>
<asrwt>0</asrwt>
<pdfrwt beam="1">  1        2 0.60669475E-01 0.95811219E+02</pdfrwt>
<pdfrwt beam="2">  1       -2 0.17454361E+00 0.95811219E+02</pdfrwt>
<totfact> 0.18554808E+01</totfact>
</mgrwt>
</event>
<event>
 4    1  0.5097315E-001  0.8121692E+02  0.7546771E-02  0.1325633E+00
         -2   -1    0    0    0  501 -0.00000000000E+00  0.00000000000E+00  0.35892490992E+01  0.35892490992E+01  0.00000000000E+00 0.  1.
          2   -1    0    0  501    0  0.00000000000E+00 -0.00000000000E+00 -0.19430415805E+04  0.19430415805E+04  0.00000000000E+00 0. -1.
         24    1    1    2    0    0 -0.93996391301E+01  0.63732947332E+01 -0.11962861561E+04  0.11990399307E+04  0.80419002446E+02 0. -1.
        -24    1    1    2    0    0  0.93996391301E+01 -0.63732947332E+01 -0.74316617530E+03  0.74759089893E+03  0.80419002446E+02 0.  1.
<mgrwt>
<rscale>  0 0.81216920E+02</rscale>
<asrwt>0</asrwt>
<pdfrwt beam="1">  1        2 0.29893050E+00 0.81216920E+02</pdfrwt>
<pdfrwt beam="2">  1       -2 0.55219028E-03 0.81216920E+02</pdfrwt>
<totfact> 0.37070364E+04</totfact>
</mgrwt>
</event>
<event>
 4    1  0.5097315E-001  0.9496177E+02  0.7546771E-02  0.1291262E+00
         -2   -1    0    0    0  501 -0.00000000000E+00  0.00000000000E+00  0.14824017609E+02  0.14824017609E+02  0.00000000000E+00 0.  1.
          2   -1    0    0  501    0  0.00000000000E+00 -0.00000000000E+00 -0.14685583979E+04  0.14685583979E+04  0.00000000000E+00 0. -1.
         24    1    1    2    0    0 -0.50446103391E+02 -0.23898911900E+01 -0.12945256234E+04  0.12980039778E+04  0.80419002446E+02 0. -1.
        -24    1    1    2    0    0  0.50446103391E+02  0.23898911900E+01 -0.15920875697E+03  0.18537843774E+03  0.80419002446E+02 0.  1.
<mgrwt>
<rscale>  0 0.94961765E+02</rscale>
<asrwt>0</asrwt>
<pdfrwt beam="1">  1        2 0.22593216E+00 0.94961765E+02</pdfrwt>
<pdfrwt beam="2">  1       -2 0.22806171E-02 0.94961765E+02</pdfrwt>
<totfact> 0.86826320E+03</totfact>
</mgrwt>
</event>
<event>
 4    1  0.5097315E-001  0.9122466E+02  0.7546771E-02  0.1299913E+00
          2   -1    0    0  501    0  0.00000000000E+00  0.00000000000E+00  0.42509827885E+03  0.42509827885E+03  0.00000000000E+00 0. -1.
         -2   -1    0    0    0  501 -0.00000000000E+00 -0.00000000000E+00 -0.32011815751E+02  0.32011815751E+02  0.00000000000E+00 0.  1.
         24    1    1    2    0    0 -0.33486107896E+02 -0.27081416984E+02  0.33899373415E+03  0.35105368580E+03  0.80419002446E+02 0. -1.
        -24    1    1    2    0    0  0.33486107896E+02  0.27081416984E+02  0.54092728949E+02  0.10605640880E+03  0.80419002446E+02 0.  1.
<mgrwt>
<rscale>  0 0.91224660E+02</rscale>
<asrwt>0</asrwt>
<pdfrwt beam="1">  1        2 0.65399731E-01 0.91224660E+02</pdfrwt>
<pdfrwt beam="2">  1       -2 0.49248950E-02 0.91224660E+02</pdfrwt>
<totfact> 0.13655849E+04</totfact>
</mgrwt>
</event>
<event>
 4    1  0.5097315E-001  0.8078741E+02  0.7546771E-02  0.1326832E+00
          2   -1    0    0  501    0  0.00000000000E+00  0.00000000000E+00  0.19822355639E+02  0.19822355639E+02  0.00000000000E+00 0. -1.
         -2   -1    0    0    0  501 -0.00000000000E+00 -0.00000000000E+00 -0.40838047014E+03  0.40838047014E+03  0.00000000000E+00 0.  1.
         24    1    1    2    0    0 -0.51232747893E+01  0.57569370428E+01 -0.10003679886E+03  0.12858447554E+03  0.80419002446E+02 0.  0.
        -24    1    1    2    0    0  0.51232747893E+01 -0.57569370428E+01 -0.28852131564E+03  0.29961835024E+03  0.80419002446E+02 0.  1.
<mgrwt>
<rscale>  0 0.80787414E+02</rscale>
<asrwt>0</asrwt>
<pdfrwt beam="1">  1        2 0.30495933E-02 0.80787414E+02</pdfrwt>
<pdfrwt beam="2">  1       -2 0.62827762E-01 0.80787414E+02</pdfrwt>
<totfact> 0.65799232E+03</totfact>
</mgrwt>
</event>
<event>
 4    1  0.5097315E-001  0.9952646E+02  0.7546771E-02  0.1281295E+00
         -2   -1    0    0    0  501 -0.00000000000E+00  0.00000000000E+00  0.37187681349E+03  0.37187681349E+03  0.00000000000E+00 0.  1.
          2   -1    0    0  501    0  0.00000000000E+00 -0.00000000000E+00 -0.60142925303E+02  0.60142925303E+02  0.00000000000E+00 0. -1.
         24    1    1    2    0    0 -0.22203099265E+02  0.54270834472E+02 -0.53627443948E+01  0.99670838629E+02  0.80419002446E+02 0.  1.
        -24    1    1    2    0    0  0.22203099265E+02 -0.54270834472E+02  0.31709663259E+03  0.33234890017E+03  0.80419002446E+02 0. -1.
<mgrwt>
<rscale>  0 0.99526464E+02</rscale>
<asrwt>0</asrwt>
<pdfrwt beam="1">  1        2 0.92527580E-02 0.99526464E+02</pdfrwt>
<pdfrwt beam="2">  1       -2 0.57211816E-01 0.99526464E+02</pdfrwt>
<totfact> 0.19570324E+03</totfact>
</mgrwt>
</event>
<event>
 4    1  0.5097315E-001  0.8597354E+02  0.7546771E-02  0.1312906E+00
         -1   -1    0    0    0  501 -0.00000000000E+00  0.00000000000E+00  0.85473178247E+01  0.85473178247E+01  0.00000000000E+00 0.  1.
          1   -1    0    0  501    0  0.00000000000E+00 -0.00000000000E+00 -0.18503979348E+04  0.18503979348E+04  0.00000000000E+00 0. -1.
         24    1    1    2    0    0  0.20411187598E+02 -0.22530348313E+02 -0.24256422900E+03  0.25734967325E+03  0.80419002446E+02 0.  1.
        -24    1    1    2    0    0 -0.20411187598E+02  0.22530348313E+02 -0.15992863880E+04  0.16015955794E+04  0.80419002446E+02 0. -1.
<mgrwt>
<rscale>  0 0.85973537E+02</rscale>
<asrwt>0</asrwt>
<pdfrwt beam="1">  1        1 0.28467685E+00 0.85973537E+02</pdfrwt>
<pdfrwt beam="2">  1       -1 0.13149708E-02 0.85973537E+02</pdfrwt>
<totfact> 0.51892792E+03</totfact>
</mgrwt>
</event>
<event>
 4    1  0.5097315E-001  0.9248319E+02  0.7546771E-02  0.1296947E+00
         -1   -1    0    0    0  501 -0.00000000000E+00  0.00000000000E+00  0.12647714582E+03  0.12647714582E+03  0.00000000000E+00 0.  1.
          1   -1    0    0  501    0  0.00000000000E+00 -0.00000000000E+00 -0.81216024932E+02  0.81216024932E+02  0.00000000000E+00 0. -1.
         24    1    1    2    0    0  0.43146382668E+02 -0.14977126899E+02  0.65110299648E+02  0.11310389800E+03  0.80419002446E+02 0.  1.
        -24    1    1    2    0    0 -0.43146382668E+02  0.14977126899E+02 -0.19849178764E+02  0.94589272750E+02  0.80419002446E+02 0. -1.
<mgrwt>
<rscale>  0 0.92483191E+02</rscale>
<asrwt>0</asrwt>
<pdfrwt beam="1">  1        1 0.12494773E-01 0.92483191E+02</pdfrwt>
<pdfrwt beam="2">  1       -1 0.19458022E-01 0.92483191E+02</pdfrwt>
<totfact> 0.91244661E+03</totfact>
</mgrwt>
</event>
<event>
 4    1  0.5097315E-001  0.8863321E+02  0.7546771E-02  0.1306196E+00
         -2   -1    0    0    0  501 -0.00000000000E+00  0.00000000000E+00  0.25641957474E+02  0.25641957474E+02  0.00000000000E+00 0.  1.
          2   -1    0    0  501    0  0.00000000000E+00 -0.00000000000E+00 -0.35565930195E+03  0.35565930195E+03  0.00000000000E+00 0. -1.
         24    1    1    2    0    0  0.37037386811E+02  0.41063388878E+01 -0.23598464036E+03  0.25208053571E+03  0.80419002446E+02 0. -1.
        -24    1    1    2    0    0 -0.37037386811E+02 -0.41063388878E+01 -0.94032704113E+02  0.12922072372E+03  0.80419002446E+02 0.  1.
<mgrwt>
<rscale>  0 0.88633210E+02</rscale>
<asrwt>0</asrwt>
<pdfrwt beam="1">  1        2 0.54716821E-01 0.88633210E+02</pdfrwt>
<pdfrwt beam="2">  1       -2 0.39449161E-02 0.88633210E+02</pdfrwt>
<totfact> 0.22789819E+04</totfact>
</mgrwt>
</event>
<event>
 4    1  0.5097315E-001  0.8952589E+02  0.7546771E-02  0.1304004E+00
          2   -1    0    0  501    0  0.00000000000E+00  0.00000000000E+00  0.22412868924E+02  0.22412868924E+02  0.00000000000E+00 0. -1.
         -2   -1    0    0    0  501 -0.00000000000E+00 -0.00000000000E+00 -0.48032620150E+03  0.48032620150E+03  0.00000000000E+00 0.  1.
         24    1    1    2    0    0  0.42513479270E+01 -0.39110031766E+02 -0.10189639193E+03  0.13563833966E+03  0.80419002446E+02 0. -1.
        -24    1    1    2    0    0 -0.42513479270E+01  0.39110031766E+02 -0.35601694064E+03  0.36710073076E+03  0.80419002446E+02 0.  1.
<mgrwt>
<rscale>  0 0.89525887E+02</rscale>
<asrwt>0</asrwt>
<pdfrwt beam="1">  1        2 0.34481336E-02 0.89525887E+02</pdfrwt>
<pdfrwt beam="2">  1       -2 0.73896340E-01 0.89525887E+02</pdfrwt>
<totfact> 0.40254214E+03</totfact>
</mgrwt>
</event>
<event>
 4    1  0.5097315E-001  0.8736407E+02  0.7546771E-02  0.1309364E+00
          2   -1    0    0  501    0  0.00000000000E+00  0.00000000000E+00  0.11341323367E+04  0.11341323367E+04  0.00000000000E+00 0. -1.
         -2   -1    0    0    0  501 -0.00000000000E+00 -0.00000000000E+00 -0.15888089164E+02  0.15888089164E+02  0.00000000000E+00 0.  1.
         24    1    1    2    0    0 -0.27881960322E+02 -0.19694168200E+02  0.99568517992E+03  0.99951060896E+03  0.80419002446E+02 0. -1.
        -24    1    1    2    0    0  0.27881960322E+02  0.19694168200E+02  0.12255906761E+03  0.15050981689E+03  0.80419002446E+02 0.  1.
<mgrwt>
<rscale>  0 0.87364065E+02</rscale>
<asrwt>0</asrwt>
<pdfrwt beam="1">  1        2 0.17448183E+00 0.87364065E+02</pdfrwt>
<pdfrwt beam="2">  1       -2 0.24443223E-02 0.87364065E+02</pdfrwt>
<totfact> 0.11763480E+04</totfact>
</mgrwt>
</event>
<event>
 4    1  0.5097315E-001  0.8406571E+02  0.7546771E-02  0.1317894E+00
          2   -1    0    0  501    0  0.00000000000E+00  0.00000000000E+00  0.19652362402E+03  0.19652362402E+03  0.00000000000E+00 0. -1.
         -2   -1    0    0    0  501 -0.00000000000E+00 -0.00000000000E+00 -0.36127345120E+02  0.36127345120E+02  0.00000000000E+00 0.  1.
         24    1    1    2    0    0 -0.10936376883E+02 -0.21914013456E+02  0.88108595193E+02  0.12177918059E+03  0.80419002446E+02 0. -1.
        -24    1    1    2    0    0  0.10936376883E+02  0.21914013456E+02  0.72287683706E+02  0.11087178854E+03  0.80419002446E+02 0.  0.
<mgrwt>
<rscale>  0 0.84065714E+02</rscale>
<asrwt>0</asrwt>
<pdfrwt beam="1">  1        2 0.30234403E-01 0.84065714E+02</pdfrwt>
<pdfrwt beam="2">  1       -2 0.55580532E-02 0.84065714E+02</pdfrwt>
<totfact> 0.25428508E+04</totfact>
</mgrwt>
</event>
<event>
 4    1  0.5097315E-001  0.8887053E+02  0.7546771E-02  0.1305610E+00
         -2   -1    0    0    0  501 -0.00000000000E+00  0.00000000000E+00  0.25291201437E+02  0.25291201437E+02  0.00000000000E+00 0.  1.
          2   -1    0    0  501    0  0.00000000000E+00 -0.00000000000E+00 -0.94555094085E+03  0.94555094085E+03  0.00000000000E+00 0. -1.
         24    1    1    2    0    0  0.29200512189E+02 -0.24043401387E+02 -0.85738587313E+03  0.86197941185E+03  0.80419002446E+02 0. -1.
        -24    1    1    2    0    0 -0.29200512189E+02  0.24043401387E+02 -0.62873866290E+02  0.10886273044E+03  0.80419002446E+02 0.  1.
<mgrwt>
<rscale>  0 0.88870530E+02</rscale>
<asrwt>0</asrwt>
<pdfrwt beam="1">  1        2 0.14546938E+00 0.88870530E+02</pdfrwt>
<pdfrwt beam="2">  1       -2 0.38909540E-02 0.88870530E+02</pdfrwt>
<totfact> 0.76901959E+03</totfact>
</mgrwt>
</event>
<event>
 4    1  0.5097315E-001  0.1036569E+03  0.7546771E-02  0.1272789E+00
          1   -1    0    0  501    0  0.00000000000E+00  0.00000000000E+00  0.10073383066E+04  0.10073383066E+04  0.00000000000E+00 0. -1.
         -1   -1    0    0    0  501 -0.00000000000E+00 -0.00000000000E+00 -0.10905838527E+02  0.10905838527E+02  0.00000000000E+00 0.  1.
         24    1    1    2    0    0  0.27121628960E+01  0.65346618523E+02  0.42279072386E+03  0.43531224255E+03  0.80419002446E+02 0.  1.
        -24    1    1    2    0    0 -0.27121628960E+01 -0.65346618523E+02  0.57364174424E+03  0.58293190260E+03  0.80419002446E+02 0. -1.
<mgrwt>
<rscale>  0 0.10365690E+03</rscale>
<asrwt>0</asrwt>
<pdfrwt beam="1">  1        1 0.15497505E+00 0.10365690E+03</pdfrwt>
<pdfrwt beam="2">  1       -1 0.16778221E-02 0.10365690E+03</pdfrwt>
<totfact> 0.13193390E+04</totfact>
</mgrwt>
</event>
<event>
 4    1  0.5097315E-001  0.9519754E+02  0.7546771E-02  0.1290732E+00
          1   -1    0    0  501    0  0.00000000000E+00  0.00000000000E+00  0.10252196793E+04  0.10252196793E+04  0.00000000000E+00 0. -1.
         -1   -1    0    0    0  501 -0.00000000000E+00 -0.00000000000E+00 -0.31074792055E+02  0.31074792055E+02  0.00000000000E+00 0.  1.
         24    1    1    2    0    0  0.24742785857E+02  0.44532566248E+02  0.50315854447E+02  0.10767662732E+03  0.80419002446E+02 0.  1.
        -24    1    1    2    0    0 -0.24742785857E+02 -0.44532566248E+02  0.94382903277E+03  0.94861784401E+03  0.80419002446E+02 0. -1.
<mgrwt>
<rscale>  0 0.95197536E+02</rscale>
<asrwt>0</asrwt>
<pdfrwt beam="1">  1        1 0.15772608E+00 0.95197536E+02</pdfrwt>
<pdfrwt beam="2">  1       -1 0.47807380E-02 0.95197536E+02</pdfrwt>
<totfact> 0.28148827E+03</totfact>
</mgrwt>
</event>
<event>
 4    1  0.5097315E-001  0.8320515E+02  0.7546771E-02  0.1320194E+00
         -2   -1    0    0    0  501 -0.00000000000E+00  0.00000000000E+00  0.50187072823E+02  0.50187072823E+02  0.00000000000E+00 0.  1.
          2   -1    0    0  501    0  0.00000000000E+00 -0.00000000000E+00 -0.63788600059E+03  0.63788600059E+03  0.00000000000E+00 0. -1.
         24    1    1    2    0    0  0.34293570848E+01 -0.21074165818E+02 -0.59842292112E+03  0.60417968307E+03  0.80419002446E+02 0. -1.
        -24    1    1    2    0    0 -0.34293570848E+01  0.21074165818E+02  0.10723993357E+02  0.83893390341E+02  0.80419002446E+02 0.  1.
<mgrwt>
<rscale>  0 0.83205150E+02</rscale>
<asrwt>0</asrwt>
<pdfrwt beam="1">  1        2 0.98136304E-01 0.83205150E+02</pdfrwt>
<pdfrwt beam="2">  1       -2 0.77210884E-02 0.83205150E+02</pdfrwt>
<totfact> 0.44381131E+03</totfact>
</mgrwt>
</event>
<event>
 4    1  0.5097315E-001  0.9664993E+02  0.7546771E-02  0.1287503E+00
         -2   -1    0    0    0  501 -0.00000000000E+00  0.00000000000E+00  0.13572588879E+04  0.13572588879E+04  0.00000000000E+00 0.  1.
          2   -1    0    0  501    0  0.00000000000E+00 -0.00000000000E+00 -0.87075399056E+01  0.87075399056E+01  0.00000000000E+00 0. -1.
         24    1    1    2    0    0 -0.52455654283E+02  0.11063332092E+02  0.36158893391E+03  0.37428300264E+03  0.80419002446E+02 0. -1.
        -24    1    1    2    0    0  0.52455654283E+02 -0.11063332092E+02  0.98696241412E+03  0.99168342520E+03  0.80419002446E+02 0.  1.
<mgrwt>
<rscale>  0 0.96649930E+02</rscale>
<asrwt>0</asrwt>
<pdfrwt beam="1">  1        2 0.13396226E-02 0.96649930E+02</pdfrwt>
<pdfrwt beam="2">  1       -2 0.20880889E+00 0.96649930E+02</pdfrwt>
<totfact> 0.11477766E+03</totfact>
</mgrwt>
</event>
<event>
 4    1  0.5097315E-001  0.9345599E+02  0.7546771E-02  0.1294692E+00
          2   -1    0    0  501    0  0.00000000000E+00  0.00000000000E+00  0.20339290085E+03  0.20339290085E+03  0.00000000000E+00 0. -1.
         -2   -1    0    0    0  501 -0.00000000000E+00 -0.00000000000E+00 -0.48006576032E+02  0.48006576032E+02  0.00000000000E+00 0.  1.
         24    1    1    2    0    0 -0.47192149250E+02 -0.63013418633E+01  0.11852243139E+03  0.15093571001E+03  0.80419002446E+02 0. -1.
        -24    1    1    2    0    0  0.47192149250E+02  0.63013418633E+01  0.36863893425E+02  0.10046376687E+03  0.80419002446E+02 0.  1.
<mgrwt>
<rscale>  0 0.93455989E+02</rscale>
<asrwt>0</asrwt>
<pdfrwt beam="1">  1        2 0.31291215E-01 0.93455989E+02</pdfrwt>
<pdfrwt beam="2">  1       -2 0.73856272E-02 0.93455989E+02</pdfrwt>
<totfact> 0.16166513E+04</totfact>
</mgrwt>
</event>
<event>
 4    1  0.5097315E-001  0.8909456E+02  0.7546771E-02  0.1305059E+00
         -4   -1    0    0    0  501 -0.00000000000E+00  0.00000000000E+00  0.18060999836E+02  0.18060999836E+02  0.00000000000E+00 0.  1.
          4   -1    0    0  501    0  0.00000000000E+00 -0.00000000000E+00 -0.44227896639E+03  0.44227896639E+03  0.00000000000E+00 0. -1.
         24    1    1    2    0    0  0.38205084246E+02  0.33159728008E+01 -0.23034833853E+03  0.24697813093E+03  0.80419002446E+02 0. -1.
        -24    1    1    2    0    0 -0.38205084246E+02 -0.33159728008E+01 -0.19386962803E+03  0.21336183530E+03  0.80419002446E+02 0.  1.
<mgrwt>
<rscale>  0 0.89094557E+02</rscale>
<asrwt>0</asrwt>
<pdfrwt beam="1">  1        4 0.68042914E-01 0.89094557E+02</pdfrwt>
<pdfrwt beam="2">  1       -4 0.27786155E-02 0.89094557E+02</pdfrwt>
<totfact> 0.18347772E+03</totfact>
</mgrwt>
</event>
<event>
 4    1  0.5097315E-001  0.8076191E+02  0.7546771E-02  0.1326903E+00
          2   -1    0    0  501    0  0.00000000000E+00  0.00000000000E+00  0.57689750807E+03  0.57689750807E+03  0.00000000000E+00 0. -1.
         -2   -1    0    0    0  501 -0.00000000000E+00 -0.00000000000E+00 -0.13458242621E+02  0.13458242621E+02  0.00000000000E+00 0.  1.
         24    1    1    2    0    0  0.23061515371E+01 -0.70676929399E+01  0.39975731207E+03  0.40783378370E+03  0.80419002446E+02 0. -1.
        -24    1    1    2    0    0 -0.23061515371E+01  0.70676929399E+01  0.16368195338E+03  0.18252196699E+03  0.80419002446E+02 0.  0.
<mgrwt>
<rscale>  0 0.80761913E+02</rscale>
<asrwt>0</asrwt>
<pdfrwt beam="1">  1        2 0.88753443E-01 0.80761913E+02</pdfrwt>
<pdfrwt beam="2">  1       -2 0.20704993E-02 0.80761913E+02</pdfrwt>
<totfact> 0.34264587E+04</totfact>
</mgrwt>
</event>
<event>
 4    1  0.5097315E-001  0.8099424E+02  0.7546771E-02  0.1326253E+00
          1   -1    0    0  501    0  0.00000000000E+00  0.00000000000E+00  0.11289873455E+02  0.11289873455E+02  0.00000000000E+00 0. -1.
         -1   -1    0    0    0  501 -0.00000000000E+00 -0.00000000000E+00 -0.93632060446E+03  0.93632060446E+03  0.00000000000E+00 0.  1.
         24    1    1    2    0    0  0.83344475876E+01 -0.48361067663E+01 -0.75436728474E+03  0.75870288465E+03  0.80419002446E+02 0.  0.
        -24    1    1    2    0    0 -0.83344475876E+01  0.48361067663E+01 -0.17066344627E+03  0.18890759326E+03  0.80419002446E+02 0. -1.
<mgrwt>
<rscale>  0 0.80994240E+02</rscale>
<asrwt>0</asrwt>
<pdfrwt beam="1">  1        1 0.17369036E-02 0.80994240E+02</pdfrwt>
<pdfrwt beam="2">  1       -1 0.14404933E+00 0.80994240E+02</pdfrwt>
<totfact> 0.28849432E+03</totfact>
</mgrwt>
</event>
<event>
 4    1  0.5097315E-001  0.8126532E+02  0.7546771E-02  0.1325499E+00
          2   -1    0    0  501    0  0.00000000000E+00  0.00000000000E+00  0.11408328201E+03  0.11408328201E+03  0.00000000000E+00 0. -1.
         -2   -1    0    0    0  501 -0.00000000000E+00 -0.00000000000E+00 -0.85520942599E+02  0.85520942599E+02  0.00000000000E+00 0.  1.
         24    1    1    2    0    0 -0.10194919292E+02 -0.57358468696E+01  0.71011735279E+02  0.10791996488E+03  0.80419002446E+02 0.  0.
        -24    1    1    2    0    0  0.10194919292E+02  0.57358468696E+01 -0.42449395864E+02  0.91684259730E+02  0.80419002446E+02 0.  1.
<mgrwt>
<rscale>  0 0.81265320E+02</rscale>
<asrwt>0</asrwt>
<pdfrwt beam="1">  1        2 0.17551274E-01 0.81265320E+02</pdfrwt>
<pdfrwt beam="2">  1       -2 0.13157068E-01 0.81265320E+02</pdfrwt>
<totfact> 0.12253816E+04</totfact>
</mgrwt>
</event>
<event>
 4    1  0.5097315E-001  0.1548875E+03  0.7546771E-02  0.1194593E+00
         -1   -1    0    0    0  501 -0.00000000000E+00  0.00000000000E+00  0.50978732588E+03  0.50978732588E+03  0.00000000000E+00 0.  1.
          1   -1    0    0  501    0  0.00000000000E+00 -0.00000000000E+00 -0.92898107454E+02  0.92898107454E+02  0.00000000000E+00 0. -1.
         24    1    1    2    0    0 -0.75287670518E+02  0.10887925746E+03  0.42012215067E+03  0.44776418289E+03  0.80419002446E+02 0.  1.
        -24    1    1    2    0    0  0.75287670518E+02 -0.10887925746E+03 -0.32329322429E+01  0.15492125045E+03  0.80419002446E+02 0. -1.
<mgrwt>
<rscale>  0 0.15488751E+03</rscale>
<asrwt>0</asrwt>
<pdfrwt beam="1">  1        1 0.14292017E-01 0.15488751E+03</pdfrwt>
<pdfrwt beam="2">  1       -1 0.78428818E-01 0.15488751E+03</pdfrwt>
<totfact> 0.67292208E+02</totfact>
</mgrwt>
</event>
<event>
 4    1  0.5097315E-001  0.8122847E+02  0.7546771E-02  0.1325601E+00
         -2   -1    0    0    0  501 -0.00000000000E+00  0.00000000000E+00  0.13404919665E+04  0.13404919665E+04  0.00000000000E+00 0.  1.
          2   -1    0    0  501    0  0.00000000000E+00 -0.00000000000E+00 -0.31490447244E+03  0.31490447244E+03  0.00000000000E+00 0. -1.
         24    1    1    2    0    0  0.54448949095E+01  0.10059885736E+02 -0.30841031803E+03  0.31892787336E+03  0.80419002446E+02 0. -1.
        -24    1    1    2    0    0 -0.54448949095E+01 -0.10059885736E+02  0.13339978121E+04  0.13364685656E+04  0.80419002446E+02 0.  1.
<mgrwt>
<rscale>  0 0.81228469E+02</rscale>
<asrwt>0</asrwt>
<pdfrwt beam="1">  1        2 0.48446843E-01 0.81228469E+02</pdfrwt>
<pdfrwt beam="2">  1       -2 0.20622953E+00 0.81228469E+02</pdfrwt>
<totfact> 0.14963810E+01</totfact>
</mgrwt>
</event>
<event>
 4    1  0.5097315E-001  0.8385462E+02  0.7546771E-02  0.1318455E+00
         -2   -1    0    0    0  501 -0.00000000000E+00  0.00000000000E+00  0.13373980596E+03  0.13373980596E+03  0.00000000000E+00 0.  1.
          2   -1    0    0  501    0  0.00000000000E+00 -0.00000000000E+00 -0.98427563078E+02  0.98427563078E+02  0.00000000000E+00 0. -1.
         24    1    1    2    0    0  0.13588854681E+02  0.19486509922E+02 -0.61573320841E+02  0.10403302761E+03  0.80419002446E+02 0. -1.
        -24    1    1    2    0    0 -0.13588854681E+02 -0.19486509922E+02  0.96885563727E+02  0.12813434143E+03  0.80419002446E+02 0.  1.
<mgrwt>
<rscale>  0 0.83854618E+02</rscale>
<asrwt>0</asrwt>
<pdfrwt beam="1">  1        2 0.15142702E-01 0.83854618E+02</pdfrwt>
<pdfrwt beam="2">  1       -2 0.20575355E-01 0.83854618E+02</pdfrwt>
<totfact> 0.70108989E+03</totfact>
</mgrwt>
</event>
<event>
 4    1  0.5097315E-001  0.8575172E+02  0.7546771E-02  0.1313478E+00
          2   -1    0    0  501    0  0.00000000000E+00  0.00000000000E+00  0.56596882438E+02  0.56596882438E+02  0.00000000000E+00 0. -1.
         -2   -1    0    0    0  501 -0.00000000000E+00 -0.00000000000E+00 -0.13259330359E+03  0.13259330359E+03  0.00000000000E+00 0.  1.
         24    1    1    2    0    0  0.29354883330E+02 -0.49428954233E+01 -0.24579375939E+02  0.89204837685E+02  0.80419002446E+02 0. -1.
        -24    1    1    2    0    0 -0.29354883330E+02  0.49428954233E+01 -0.51417045212E+02  0.99985348342E+02  0.80419002446E+02 0.  1.
<mgrwt>
<rscale>  0 0.85751719E+02</rscale>
<asrwt>0</asrwt>
<pdfrwt beam="1">  1        2 0.87072127E-02 0.85751719E+02</pdfrwt>
<pdfrwt beam="2">  1       -2 0.20398970E-01 0.85751719E+02</pdfrwt>
<totfact> 0.13775041E+04</totfact>
</mgrwt>
</event>
<event>
 4    1  0.5097315E-001  0.8746912E+02  0.7546771E-02  0.1309099E+00
         -2   -1    0    0    0  501 -0.00000000000E+00  0.00000000000E+00  0.16522767854E+02  0.16522767854E+02  0.00000000000E+00 0.  1.
          2   -1    0    0  501    0  0.00000000000E+00 -0.00000000000E+00 -0.47723770497E+03  0.47723770497E+03  0.00000000000E+00 0. -1.
         24    1    1    2    0    0 -0.31477267338E+02 -0.13885669192E+02 -0.27292661770E+03  0.28660039213E+03  0.80419002446E+02 0.  1.
        -24    1    1    2    0    0  0.31477267338E+02  0.13885669192E+02 -0.18778831942E+03  0.20716008069E+03  0.80419002446E+02 0.  0.
<mgrwt>
<rscale>  0 0.87469115E+02</rscale>
<asrwt>0</asrwt>
<pdfrwt beam="1">  1        2 0.73421173E-01 0.87469115E+02</pdfrwt>
<pdfrwt beam="2">  1       -2 0.25419647E-02 0.87469115E+02</pdfrwt>
<totfact> 0.31633054E+04</totfact>
</mgrwt>
</event>
<event>
 4    1  0.5097315E-001  0.8224978E+02  0.7546771E-02  0.1322785E+00
         -2   -1    0    0    0  501 -0.00000000000E+00  0.00000000000E+00  0.21304412278E+02  0.21304412278E+02  0.00000000000E+00 0.  1.
          2   -1    0    0  501    0  0.00000000000E+00 -0.00000000000E+00 -0.36771143630E+03  0.36771143630E+03  0.00000000000E+00 0. -1.
         24    1    1    2    0    0 -0.14101907816E+02 -0.99471965156E+01 -0.24505028118E+03  0.25848533186E+03  0.80419002446E+02 0. -1.
        -24    1    1    2    0    0  0.14101907816E+02  0.99471965156E+01 -0.10135674284E+03  0.13053051673E+03  0.80419002446E+02 0. -1.
<mgrwt>
<rscale>  0 0.82249781E+02</rscale>
<asrwt>0</asrwt>
<pdfrwt beam="1">  1        2 0.56570987E-01 0.82249781E+02</pdfrwt>
<pdfrwt beam="2">  1       -2 0.32776021E-02 0.82249781E+02</pdfrwt>
<totfact> 0.28611387E+04</totfact>
</mgrwt>
</event>
<event>
 4    1  0.5097315E-001  0.9261731E+02  0.7546771E-02  0.1296634E+00
         -2   -1    0    0    0  501 -0.00000000000E+00  0.00000000000E+00  0.29026098877E+02  0.29026098877E+02  0.00000000000E+00 0.  1.
          2   -1    0    0  501    0  0.00000000000E+00 -0.00000000000E+00 -0.29847932601E+03  0.29847932601E+03  0.00000000000E+00 0. -1.
         24    1    1    2    0    0 -0.15853684047E+02 -0.43120882015E+02 -0.15101544975E+03  0.17715425984E+03  0.80419002446E+02 0.  1.
        -24    1    1    2    0    0  0.15853684047E+02  0.43120882015E+02 -0.11843777738E+03  0.15035116504E+03  0.80419002446E+02 0.  0.
<mgrwt>
<rscale>  0 0.92617308E+02</rscale>
<asrwt>0</asrwt>
<pdfrwt beam="1">  1        2 0.45919895E-01 0.92617308E+02</pdfrwt>
<pdfrwt beam="2">  1       -2 0.44655538E-02 0.92617308E+02</pdfrwt>
<totfact> 0.22912812E+04</totfact>
</mgrwt>
</event>
<event>
 4    1  0.5097315E-001  0.8541791E+02  0.7546771E-02  0.1314343E+00
          2   -1    0    0  501    0  0.00000000000E+00  0.00000000000E+00  0.11350218093E+04  0.11350218093E+04  0.00000000000E+00 0. -1.
         -2   -1    0    0    0  501 -0.00000000000E+00 -0.00000000000E+00 -0.18725949785E+02  0.18725949785E+02  0.00000000000E+00 0.  1.
         24    1    1    2    0    0 -0.90342108754E+01 -0.27338360293E+02  0.10256361359E+04  0.10291869131E+04  0.80419002446E+02 0. -1.
        -24    1    1    2    0    0  0.90342108754E+01  0.27338360293E+02  0.90659723637E+02  0.12456084599E+03  0.80419002446E+02 0.  1.
<mgrwt>
<rscale>  0 0.85417907E+02</rscale>
<asrwt>0</asrwt>
<pdfrwt beam="1">  1        2 0.17461869E+00 0.85417907E+02</pdfrwt>
<pdfrwt beam="2">  1       -2 0.28809162E-02 0.85417907E+02</pdfrwt>
<totfact> 0.92513323E+03</totfact>
</mgrwt>
</event>
<event>
 4    1  0.5097315E-001  0.8061254E+02  0.7546771E-02  0.1327322E+00
          2   -1    0    0  501    0  0.00000000000E+00  0.00000000000E+00  0.93273470481E+03  0.93273470481E+03  0.00000000000E+00 0. -1.
         -2   -1    0    0    0  501 -0.00000000000E+00 -0.00000000000E+00 -0.73692658890E+01  0.73692658890E+01  0.00000000000E+00 0.  1.
         24    1    1    2    0    0  0.49513669276E+01  0.25787438759E+01  0.57250216780E+03  0.57814973324E+03  0.80419002446E+02 0. -1.
        -24    1    1    2    0    0 -0.49513669276E+01 -0.25787438759E+01  0.35286327112E+03  0.36195423745E+03  0.80419002446E+02 0.  0.
<mgrwt>
<rscale>  0 0.80612542E+02</rscale>
<asrwt>0</asrwt>
<pdfrwt beam="1">  1        2 0.14349755E+00 0.80612542E+02</pdfrwt>
<pdfrwt beam="2">  1       -2 0.11337340E-02 0.80612542E+02</pdfrwt>
<totfact> 0.45665097E+04</totfact>
</mgrwt>
</event>
<event>
 4    1  0.5097315E-001  0.8758625E+02  0.7546771E-02  0.1308804E+00
         -1   -1    0    0    0  501 -0.00000000000E+00  0.00000000000E+00  0.43259366743E+02  0.43259366743E+02  0.00000000000E+00 0.  1.
          1   -1    0    0  501    0  0.00000000000E+00 -0.00000000000E+00 -0.30592678288E+03  0.30592678288E+03  0.00000000000E+00 0. -1.
         24    1    1    2    0    0  0.30341288264E+02 -0.16838709705E+02 -0.18138838479E+02  0.89444783715E+02  0.80419002446E+02 0.  1.
        -24    1    1    2    0    0 -0.30341288264E+02  0.16838709705E+02 -0.24452857766E+03  0.25974136591E+03  0.80419002446E+02 0. -1.
<mgrwt>
<rscale>  0 0.87586254E+02</rscale>
<asrwt>0</asrwt>
<pdfrwt beam="1">  1        1 0.47065657E-01 0.87586254E+02</pdfrwt>
<pdfrwt beam="2">  1       -1 0.66552874E-02 0.87586254E+02</pdfrwt>
<totfact> 0.89277282E+03</totfact>
</mgrwt>
</event>
<event>
 4    1  0.5097315E-001  0.8089154E+02  0.7546771E-02  0.1326540E+00
          2   -1    0    0  501    0  0.00000000000E+00  0.00000000000E+00  0.83939394857E+03  0.83939394857E+03  0.00000000000E+00 0. -1.
         -2   -1    0    0    0  501 -0.00000000000E+00 -0.00000000000E+00 -0.78045874108E+01  0.78045874108E+01  0.00000000000E+00 0.  1.
         24    1    1    2    0    0  0.79238543949E+01 -0.36652669677E+01  0.40128549788E+03  0.40935740913E+03  0.80419002446E+02 0.  1.
        -24    1    1    2    0    0 -0.79238543949E+01  0.36652669677E+01  0.43030386328E+03  0.43784112685E+03  0.80419002446E+02 0. -1.
<mgrwt>
<rscale>  0 0.80891528E+02</rscale>
<asrwt>0</asrwt>
<pdfrwt beam="1">  1        2 0.12913746E+00 0.80891538E+02</pdfrwt>
<pdfrwt beam="2">  1       -2 0.12007064E-02 0.80891538E+02</pdfrwt>
<totfact> 0.48137982E+04</totfact>
</mgrwt>
</event>
<event>
 4    1  0.5097315E-001  0.8489461E+02  0.7546771E-02  0.1315708E+00
          2   -1    0    0  501    0  0.00000000000E+00  0.00000000000E+00  0.48045567349E+02  0.48045567349E+02  0.00000000000E+00 0. -1.
         -2   -1    0    0    0  501 -0.00000000000E+00 -0.00000000000E+00 -0.15760417115E+03  0.15760417115E+03  0.00000000000E+00 0.  1.
         24    1    1    2    0    0 -0.24263013533E+02  0.12295586472E+02 -0.77357431961E+02  0.11485322593E+03  0.80419002446E+02 0. -1.
        -24    1    1    2    0    0  0.24263013533E+02 -0.12295586472E+02 -0.32201171839E+02  0.90796512568E+02  0.80419002446E+02 0.  1.
<mgrwt>
<rscale>  0 0.84894600E+02</rscale>
<asrwt>0</asrwt>
<pdfrwt beam="1">  1        2 0.73916257E-02 0.84894610E+02</pdfrwt>
<pdfrwt beam="2">  1       -2 0.24246796E-01 0.84894610E+02</pdfrwt>
<totfact> 0.12565012E+04</totfact>
</mgrwt>
</event>
<event>
 4    1  0.5097315E-001  0.1073391E+03  0.7546771E-02  0.1265578E+00
         -3   -1    0    0    0  501 -0.00000000000E+00  0.00000000000E+00  0.93721268043E+02  0.93721268043E+02  0.00000000000E+00 0.  1.
          3   -1    0    0  501    0  0.00000000000E+00 -0.00000000000E+00 -0.17562723778E+03  0.17562723778E+03  0.00000000000E+00 0. -1.
         24    1    1    2    0    0 -0.18056067730E+02 -0.68763745149E+02  0.32813494194E+02  0.11224266383E+03  0.80419002446E+02 0.  1.
        -24    1    1    2    0    0  0.18056067730E+02  0.68763745149E+02 -0.11471946393E+03  0.15710584199E+03  0.80419002446E+02 0. -1.
<mgrwt>
<rscale>  0 0.10733914E+03</rscale>
<asrwt>0</asrwt>
<pdfrwt beam="1">  1        3 0.27019575E-01 0.10733914E+03</pdfrwt>
<pdfrwt beam="2">  1       -3 0.14418657E-01 0.10733914E+03</pdfrwt>
<totfact> 0.11460402E+03</totfact>
</mgrwt>
</event>
<event>
 4    1  0.5097315E-001  0.1403435E+03  0.7546771E-02  0.1212868E+00
         -1   -1    0    0    0  501 -0.00000000000E+00  0.00000000000E+00  0.53187399613E+02  0.53187399613E+02  0.00000000000E+00 0.  1.
          1   -1    0    0  501    0  0.00000000000E+00 -0.00000000000E+00 -0.54468525100E+03  0.54468525100E+03  0.00000000000E+00 0. -1.
         24    1    1    2    0    0  0.96445945847E+02  0.62667840640E+02 -0.41488542287E+03  0.43797968992E+03  0.80419002446E+02 0.  1.
        -24    1    1    2    0    0 -0.96445945847E+02 -0.62667840640E+02 -0.76612428518E+02  0.15989296069E+03  0.80419002446E+02 0.  0.
<mgrwt>
<rscale>  0 0.14034351E+03</rscale>
<asrwt>0</asrwt>
<pdfrwt beam="1">  1        1 0.83797730E-01 0.14034352E+03</pdfrwt>
<pdfrwt beam="2">  1       -1 0.81826769E-02 0.14034352E+03</pdfrwt>
<totfact> 0.32595229E+03</totfact>
</mgrwt>
</event>
<event>
 4    1  0.5097315E-001  0.1137049E+03  0.7546771E-02  0.1253859E+00
         -2   -1    0    0    0  501 -0.00000000000E+00  0.00000000000E+00  0.13913730340E+02  0.13913730340E+02  0.00000000000E+00 0.  1.
          2   -1    0    0  501    0  0.00000000000E+00 -0.00000000000E+00 -0.10416821723E+04  0.10416821723E+04  0.00000000000E+00 0. -1.
         24    1    1    2    0    0  0.61094441123E+02 -0.52240441624E+02 -0.68731175078E+03  0.69665361062E+03  0.80419002446E+02 0. -1.
        -24    1    1    2    0    0 -0.61094441123E+02  0.52240441624E+02 -0.34045669123E+03  0.35894229206E+03  0.80419002446E+02 0.  1.
<mgrwt>
<rscale>  0 0.11370493E+03</rscale>
<asrwt>0</asrwt>
<pdfrwt beam="1">  1        2 0.16025881E+00 0.11370493E+03</pdfrwt>
<pdfrwt beam="2">  1       -2 0.21405737E-02 0.11370493E+03</pdfrwt>
<totfact> 0.16375911E+04</totfact>
</mgrwt>
</event>
<event>
 4    1  0.5097315E-001  0.1009032E+03  0.7546771E-02  0.1278408E+00
         -2   -1    0    0    0  501 -0.00000000000E+00  0.00000000000E+00  0.33408760571E+03  0.33408760571E+03  0.00000000000E+00 0.  1.
          2   -1    0    0  501    0  0.00000000000E+00 -0.00000000000E+00 -0.30957930665E+02  0.30957930665E+02  0.00000000000E+00 0. -1.
         24    1    1    2    0    0  0.50834722672E+02  0.33616429626E+02  0.12877721273E+03  0.16360018289E+03  0.80419002446E+02 0. -1.
        -24    1    1    2    0    0 -0.50834722672E+02 -0.33616429626E+02  0.17435246232E+03  0.20144535348E+03  0.80419002446E+02 0.  0.
<mgrwt>
<rscale>  0 0.10090317E+03</rscale>
<asrwt>0</asrwt>
<pdfrwt beam="1">  1        2 0.47627588E-02 0.10090317E+03</pdfrwt>
<pdfrwt beam="2">  1       -2 0.51398091E-01 0.10090317E+03</pdfrwt>
<totfact> 0.56190767E+03</totfact>
</mgrwt>
</event>
<event>
 4    1  0.5097315E-001  0.1629413E+03  0.7546771E-02  0.1185415E+00
          2   -1    0    0  501    0  0.00000000000E+00  0.00000000000E+00  0.61534717697E+03  0.61534717697E+03  0.00000000000E+00 0. -1.
         -2   -1    0    0    0  501 -0.00000000000E+00 -0.00000000000E+00 -0.37721563799E+03  0.37721563799E+03  0.00000000000E+00 0.  1.
         24    1    1    2    0    0 -0.11868995442E+03 -0.77429640051E+02  0.58610305915E+03  0.60833104995E+03  0.80419002446E+02 0. -1.
        -24    1    1    2    0    0  0.11868995442E+03  0.77429640051E+02 -0.34797152017E+03  0.38423176501E+03  0.80419002446E+02 0.  1.
<mgrwt>
<rscale>  0 0.16294131E+03</rscale>
<asrwt>0</asrwt>
<pdfrwt beam="1">  1        2 0.94668797E-01 0.16294131E+03</pdfrwt>
<pdfrwt beam="2">  1       -2 0.58033175E-01 0.16294131E+03</pdfrwt>
<totfact> 0.14275856E+02</totfact>
</mgrwt>
</event>
<event>
 4    1  0.5097315E-001  0.8902052E+02  0.7546771E-02  0.1305241E+00
          2   -1    0    0  501    0  0.00000000000E+00  0.00000000000E+00  0.24529434916E+03  0.24529434916E+03  0.00000000000E+00 0. -1.
         -2   -1    0    0    0  501 -0.00000000000E+00 -0.00000000000E+00 -0.42112493758E+02  0.42112493758E+02  0.00000000000E+00 0.  1.
         24    1    1    2    0    0  0.14048727556E+02  0.35497476299E+02  0.17093395115E+03  0.19272537244E+03  0.80419002446E+02 0. -1.
        -24    1    1    2    0    0 -0.14048727556E+02 -0.35497476299E+02  0.32247904248E+02  0.94681470480E+02  0.80419002446E+02 0.  1.
<mgrwt>
<rscale>  0 0.89020523E+02</rscale>
<asrwt>0</asrwt>
<pdfrwt beam="1">  1        2 0.37737591E-01 0.89020523E+02</pdfrwt>
<pdfrwt beam="2">  1       -2 0.64788453E-02 0.89020523E+02</pdfrwt>
<totfact> 0.16086404E+04</totfact>
</mgrwt>
</event>
<event>
 4    1  0.5097315E-001  0.8376894E+02  0.7546771E-02  0.1318684E+00
          2   -1    0    0  501    0  0.00000000000E+00  0.00000000000E+00  0.12712615028E+04  0.12712615028E+04  0.00000000000E+00 0. -1.
         -2   -1    0    0    0  501 -0.00000000000E+00 -0.00000000000E+00 -0.32640484869E+02  0.32640484869E+02  0.00000000000E+00 0.  1.
         24    1    1    2    0    0  0.20060358553E+02 -0.12149163585E+02  0.12135837539E+04  0.12164714398E+04  0.80419002446E+02 0. -1.
        -24    1    1    2    0    0 -0.20060358553E+02  0.12149163585E+02  0.25037264068E+02  0.87430547908E+02  0.80419002446E+02 0.  1.
<mgrwt>
<rscale>  0 0.83768945E+02</rscale>
<asrwt>0</asrwt>
<pdfrwt beam="1">  1        2 0.19557865E+00 0.83768945E+02</pdfrwt>
<pdfrwt beam="2">  1       -2 0.50216140E-02 0.83768945E+02</pdfrwt>
<totfact> 0.34565598E+03</totfact>
</mgrwt>
</event>
<event>
 4    1  0.5097315E-001  0.8192649E+02  0.7546771E-02  0.1323672E+00
         -1   -1    0    0    0  501 -0.00000000000E+00  0.00000000000E+00  0.90388054816E+01  0.90388054816E+01  0.00000000000E+00 0.  1.
          1   -1    0    0  501    0  0.00000000000E+00 -0.00000000000E+00 -0.21965341598E+04  0.21965341598E+04  0.00000000000E+00 0. -1.
         24    1    1    2    0    0  0.17905638952E+00  0.15642937378E+02 -0.19652706445E+03  0.21291978904E+03  0.80419002446E+02 0.  1.
        -24    1    1    2    0    0 -0.17905638952E+00 -0.15642937378E+02 -0.19909682899E+04  0.19926531762E+04  0.80419002446E+02 0. -1.
<mgrwt>
<rscale>  0 0.81926488E+02</rscale>
<asrwt>0</asrwt>
<pdfrwt beam="1">  1        1 0.33792853E+00 0.81926488E+02</pdfrwt>
<pdfrwt beam="2">  1       -1 0.13905846E-02 0.81926488E+02</pdfrwt>
<totfact> 0.29085268E+03</totfact>
</mgrwt>
</event>
<event>
 4    1  0.5097315E-001  0.1229166E+03  0.7546771E-02  0.1238362E+00
         -1   -1    0    0    0  501 -0.00000000000E+00  0.00000000000E+00  0.12633657689E+02  0.12633657689E+02  0.00000000000E+00 0.  1.
          1   -1    0    0  501    0  0.00000000000E+00 -0.00000000000E+00 -0.12552915721E+04  0.12552915721E+04  0.00000000000E+00 0. -1.
         24    1    1    2    0    0  0.17968732173E+02  0.91205290801E+02 -0.48342357824E+03  0.49880542535E+03  0.80419002446E+02 0.  1.
        -24    1    1    2    0    0 -0.17968732173E+02 -0.91205290801E+02 -0.75923433620E+03  0.76911980446E+03  0.80419002446E+02 0.  0.
<mgrwt>
<rscale>  0 0.12291662E+03</rscale>
<asrwt>0</asrwt>
<pdfrwt beam="1">  1        1 0.19312178E+00 0.12291662E+03</pdfrwt>
<pdfrwt beam="2">  1       -1 0.19436397E-02 0.12291662E+03</pdfrwt>
<totfact> 0.72639231E+03</totfact>
</mgrwt>
</event>
<event>
 4    1  0.5097315E-001  0.1422543E+03  0.7546771E-02  0.1210327E+00
         -2   -1    0    0    0  501 -0.00000000000E+00  0.00000000000E+00  0.96092660758E+03  0.96092660758E+03  0.00000000000E+00 0.  1.
          2   -1    0    0  501    0  0.00000000000E+00 -0.00000000000E+00 -0.12765532368E+03  0.12765532368E+03  0.00000000000E+00 0. -1.
         24    1    1    2    0    0 -0.10345132033E+02  0.11688478808E+03 -0.80737673415E+02  0.16356913921E+03  0.80419002446E+02 0. -1.
        -24    1    1    2    0    0  0.10345132033E+02 -0.11688478808E+03  0.91400895731E+03  0.92501279204E+03  0.80419002446E+02 0.  1.
<mgrwt>
<rscale>  0 0.14225432E+03</rscale>
<asrwt>0</asrwt>
<pdfrwt beam="1">  1        2 0.19639281E-01 0.14225432E+03</pdfrwt>
<pdfrwt beam="2">  1       -2 0.14783486E+00 0.14225432E+03</pdfrwt>
<totfact> 0.94854271E+01</totfact>
</mgrwt>
</event>
<event>
 4    1  0.5097315E-001  0.8249783E+02  0.7546771E-02  0.1322109E+00
          2   -1    0    0  501    0  0.00000000000E+00  0.00000000000E+00  0.36650750358E+03  0.36650750358E+03  0.00000000000E+00 0. -1.
         -2   -1    0    0    0  501 -0.00000000000E+00 -0.00000000000E+00 -0.20876685426E+02  0.20876685426E+02  0.00000000000E+00 0.  1.
         24    1    1    2    0    0 -0.18054381258E+02 -0.35659175880E+01  0.23720480182E+03  0.25114141517E+03  0.80419002446E+02 0. -1.
        -24    1    1    2    0    0  0.18054381258E+02  0.35659175880E+01  0.10842601633E+03  0.13624277384E+03  0.80419002446E+02 0.  1.
<mgrwt>
<rscale>  0 0.82497833E+02</rscale>
<asrwt>0</asrwt>
<pdfrwt beam="1">  1        2 0.56385765E-01 0.82497833E+02</pdfrwt>
<pdfrwt beam="2">  1       -2 0.32117980E-02 0.82497833E+02</pdfrwt>
<totfact> 0.29579376E+04</totfact>
</mgrwt>
</event>
<event>
 4    1  0.5097315E-001  0.8612585E+02  0.7546771E-02  0.1312514E+00
         -2   -1    0    0    0  501 -0.00000000000E+00  0.00000000000E+00  0.87117048287E+02  0.87117048287E+02  0.00000000000E+00 0.  1.
          2   -1    0    0  501    0  0.00000000000E+00 -0.00000000000E+00 -0.23299248003E+03  0.23299248003E+03  0.00000000000E+00 0. -1.
         24    1    1    2    0    0  0.23425909531E-01 -0.30829286073E+02 -0.20043568384E+03  0.21815619345E+03  0.80419002446E+02 0. -1.
        -24    1    1    2    0    0 -0.23425909531E-01  0.30829286073E+02  0.54560252095E+02  0.10195333487E+03  0.80419002446E+02 0.  1.
<mgrwt>
<rscale>  0 0.86125846E+02</rscale>
<asrwt>0</asrwt>
<pdfrwt beam="1">  1        2 0.35844996E-01 0.86125846E+02</pdfrwt>
<pdfrwt beam="2">  1       -2 0.13402623E-01 0.86125846E+02</pdfrwt>
<totfact> 0.55006032E+03</totfact>
</mgrwt>
</event>
<event>
 4    1  0.5097315E-001  0.8877158E+02  0.7546771E-02  0.1305854E+00
         -1   -1    0    0    0  501 -0.00000000000E+00  0.00000000000E+00  0.59251748744E+02  0.59251748744E+02  0.00000000000E+00 0.  1.
          1   -1    0    0  501    0  0.00000000000E+00 -0.00000000000E+00 -0.19980787181E+03  0.19980787181E+03  0.00000000000E+00 0. -1.
         24    1    1    2    0    0  0.37549647109E+02  0.17890239187E+01  0.46220025669E+01  0.88891818896E+02  0.80419002446E+02 0.  1.
        -24    1    1    2    0    0 -0.37549647109E+02 -0.17890239187E+01 -0.14517812564E+03  0.17016780166E+03  0.80419002446E+02 0. -1.
<mgrwt>
<rscale>  0 0.88771575E+02</rscale>
<asrwt>0</asrwt>
<pdfrwt beam="1">  1        1 0.30739673E-01 0.88771575E+02</pdfrwt>
<pdfrwt beam="2">  1       -1 0.91156536E-02 0.88771575E+02</pdfrwt>
<totfact> 0.94090978E+03</totfact>
</mgrwt>
</event>
<event>
 4    1  0.5097315E-001  0.9615400E+02  0.7546771E-02  0.1288598E+00
          4   -1    0    0  501    0  0.00000000000E+00  0.00000000000E+00  0.39866290863E+02  0.39866290863E+02  0.00000000000E+00 0. -1.
         -4   -1    0    0    0  501 -0.00000000000E+00 -0.00000000000E+00 -0.29479904804E+03  0.29479904804E+03  0.00000000000E+00 0.  1.
         24    1    1    2    0    0  0.31565708619E+02  0.42213521034E+02 -0.50182677988E+02  0.10846147907E+03  0.80419002446E+02 0.  0.
        -24    1    1    2    0    0 -0.31565708619E+02 -0.42213521034E+02 -0.20475007919E+03  0.22620385983E+03  0.80419002446E+02 0.  0.
<mgrwt>
<rscale>  0 0.96153998E+02</rscale>
<asrwt>0</asrwt>
<pdfrwt beam="1">  1        4 0.61332754E-02 0.96153998E+02</pdfrwt>
<pdfrwt beam="2">  1       -4 0.45353701E-01 0.96153998E+02</pdfrwt>
<totfact> 0.12339982E+03</totfact>
</mgrwt>
</event>
<event>
 4    1  0.5097315E-001  0.9269067E+02  0.7546771E-02  0.1296464E+00
         -2   -1    0    0    0  501 -0.00000000000E+00  0.00000000000E+00  0.18563789024E+02  0.18563789024E+02  0.00000000000E+00 0.  1.
          2   -1    0    0  501    0  0.00000000000E+00 -0.00000000000E+00 -0.18951463947E+04  0.18951463947E+04  0.00000000000E+00 0. -1.
         24    1    1    2    0    0 -0.41910881958E+02 -0.19178684994E+02 -0.17701448510E+04  0.17725699855E+04  0.80419002446E+02 0. -1.
        -24    1    1    2    0    0  0.41910881958E+02  0.19178684994E+02 -0.10643775470E+03  0.14114019826E+03  0.80419002446E+02 0.  1.
<mgrwt>
<rscale>  0 0.92690668E+02</rscale>
<asrwt>0</asrwt>
<pdfrwt beam="1">  1        2 0.29156073E+00 0.92690668E+02</pdfrwt>
<pdfrwt beam="2">  1       -2 0.28559700E-02 0.92690668E+02</pdfrwt>
<totfact> 0.38134804E+03</totfact>
</mgrwt>
</event>
<event>
 4    1  0.5097315E-001  0.9053967E+02  0.7546771E-02  0.1301550E+00
          2   -1    0    0  501    0  0.00000000000E+00  0.00000000000E+00  0.75653509066E+02  0.75653509066E+02  0.00000000000E+00 0. -1.
         -2   -1    0    0    0  501 -0.00000000000E+00 -0.00000000000E+00 -0.43317720011E+03  0.43317720011E+03  0.00000000000E+00 0.  1.
         24    1    1    2    0    0  0.40245040512E+02  0.10514407799E+02  0.41547748614E+02  0.99617505622E+02  0.80419002446E+02 0. -1.
        -24    1    1    2    0    0 -0.40245040512E+02 -0.10514407799E+02 -0.39907143966E+03  0.40921320356E+03  0.80419002446E+02 0.  1.
<mgrwt>
<rscale>  0 0.90539671E+02</rscale>
<asrwt>0</asrwt>
<pdfrwt beam="1">  1        2 0.11639001E-01 0.90539671E+02</pdfrwt>
<pdfrwt beam="2">  1       -2 0.66642647E-01 0.90539671E+02</pdfrwt>
<totfact> 0.10788555E+03</totfact>
</mgrwt>
</event>
<event>
 4    1  0.5097315E-001  0.9150206E+02  0.7546771E-02  0.1299255E+00
          2   -1    0    0  501    0  0.00000000000E+00  0.00000000000E+00  0.72887267390E+03  0.72887267390E+03  0.00000000000E+00 0. -1.
         -2   -1    0    0    0  501 -0.00000000000E+00 -0.00000000000E+00 -0.11578446052E+02  0.11578446052E+02  0.00000000000E+00 0.  1.
         24    1    1    2    0    0 -0.93159076241E+01 -0.42645290932E+02  0.32576044004E+03  0.33836738499E+03  0.80419002446E+02 0. -1.
        -24    1    1    2    0    0  0.93159076241E+01  0.42645290932E+02  0.39153378781E+03  0.40208373496E+03  0.80419002446E+02 0.  0.
<mgrwt>
<rscale>  0 0.91502049E+02</rscale>
<asrwt>0</asrwt>
<pdfrwt beam="1">  1        2 0.11213422E+00 0.91502061E+02</pdfrwt>
<pdfrwt beam="2">  1       -2 0.17813000E-02 0.91502061E+02</pdfrwt>
<totfact> 0.33019496E+04</totfact>
</mgrwt>
</event>
<event>
 4    1  0.5097315E-001  0.9228518E+02  0.7546771E-02  0.1297410E+00
          1   -1    0    0  501    0  0.00000000000E+00  0.00000000000E+00  0.71774000072E+02  0.71774000072E+02  0.00000000000E+00 0. -1.
         -1   -1    0    0    0  501 -0.00000000000E+00 -0.00000000000E+00 -0.36680918438E+03  0.36680918438E+03  0.00000000000E+00 0.  1.
         24    1    1    2    0    0 -0.45448485602E+01 -0.45040905378E+02 -0.32788585053E+03  0.34062543319E+03  0.80419002446E+02 0.  1.
        -24    1    1    2    0    0  0.45448485602E+01  0.45040905378E+02  0.32850666223E+02  0.97957751257E+02  0.80419002446E+02 0. -1.
<mgrwt>
<rscale>  0 0.92285182E+02</rscale>
<asrwt>0</asrwt>
<pdfrwt beam="1">  1        1 0.11042154E-01 0.92285182E+02</pdfrwt>
<pdfrwt beam="2">  1       -1 0.56432182E-01 0.92285182E+02</pdfrwt>
<totfact> 0.17591464E+03</totfact>
</mgrwt>
</event>
<event>
 4    1  0.5097315E-001  0.8729525E+02  0.7546771E-02  0.1309537E+00
          2   -1    0    0  501    0  0.00000000000E+00  0.00000000000E+00  0.37021240549E+03  0.37021240549E+03  0.00000000000E+00 0. -1.
         -2   -1    0    0    0  501 -0.00000000000E+00 -0.00000000000E+00 -0.73396782223E+02  0.73396782223E+02  0.00000000000E+00 0.  1.
         24    1    1    2    0    0  0.31574488830E+02  0.12501863599E+02  0.33655661171E+03  0.34769356304E+03  0.80419002446E+02 0. -1.
        -24    1    1    2    0    0 -0.31574488830E+02 -0.12501863599E+02 -0.39740988448E+02  0.95915624668E+02  0.80419002446E+02 0.  1.
<mgrwt>
<rscale>  0 0.87295251E+02</rscale>
<asrwt>0</asrwt>
<pdfrwt beam="1">  1        2 0.56955753E-01 0.87295251E+02</pdfrwt>
<pdfrwt beam="2">  1       -2 0.11291813E-01 0.87295251E+02</pdfrwt>
<totfact> 0.44493263E+03</totfact>
</mgrwt>
</event>
<event>
 4    1  0.5097315E-001  0.8061250E+02  0.7546771E-02  0.1327322E+00
         -1   -1    0    0    0  501 -0.00000000000E+00  0.00000000000E+00  0.16440236873E+02  0.16440236873E+02  0.00000000000E+00 0.  1.
          1   -1    0    0  501    0  0.00000000000E+00 -0.00000000000E+00 -0.50695442419E+03  0.50695442419E+03  0.00000000000E+00 0. -1.
         24    1    1    2    0    0  0.27891929985E+01  0.48353034150E+01 -0.12242665021E+03  0.14658328824E+03  0.80419002446E+02 0.  0.
        -24    1    1    2    0    0 -0.27891929985E+01 -0.48353034150E+01 -0.36808753711E+03  0.37681137282E+03  0.80419002446E+02 0. -1.
<mgrwt>
<rscale>  0 0.80612503E+02</rscale>
<asrwt>0</asrwt>
<pdfrwt beam="1">  1        1 0.77992991E-01 0.80612503E+02</pdfrwt>
<pdfrwt beam="2">  1       -1 0.25292671E-02 0.80612503E+02</pdfrwt>
<totfact> 0.19262213E+04</totfact>
</mgrwt>
</event>
<event>
 4    1  0.5097315E-001  0.9420036E+02  0.7546771E-02  0.1292987E+00
          2   -1    0    0  501    0  0.00000000000E+00  0.00000000000E+00  0.86838850250E+03  0.86838850250E+03  0.00000000000E+00 0. -1.
         -2   -1    0    0    0  501 -0.00000000000E+00 -0.00000000000E+00 -0.10623929970E+02  0.10623929970E+02  0.00000000000E+00 0.  1.
         24    1    1    2    0    0 -0.44774173187E+02  0.20044064681E+02  0.51473055097E+03  0.52327932042E+03  0.80419002446E+02 0. -1.
        -24    1    1    2    0    0  0.44774173187E+02 -0.20044064681E+02  0.34303402156E+03  0.35573311206E+03  0.80419002446E+02 0.  1.
<mgrwt>
<rscale>  0 0.94200356E+02</rscale>
<asrwt>0</asrwt>
<pdfrwt beam="1">  1        2 0.13359818E+00 0.94200356E+02</pdfrwt>
<pdfrwt beam="2">  1       -2 0.16344514E-02 0.94200356E+02</pdfrwt>
<totfact> 0.30244613E+04</totfact>
</mgrwt>
</event>
<event>
 4    1  0.5097315E-001  0.9441073E+02  0.7546771E-02  0.1292509E+00
          1   -1    0    0  501    0  0.00000000000E+00  0.00000000000E+00  0.29889877184E+03  0.29889877184E+03  0.00000000000E+00 0. -1.
         -1   -1    0    0    0  501 -0.00000000000E+00 -0.00000000000E+00 -0.16708773596E+03  0.16708773596E+03  0.00000000000E+00 0.  1.
         24    1    1    2    0    0  0.48072824315E+02 -0.11626440799E+02 -0.14527512278E+03  0.17325774966E+03  0.80419002446E+02 0.  1.
        -24    1    1    2    0    0 -0.48072824315E+02  0.11626440799E+02  0.27708615867E+03  0.29272875814E+03  0.80419002446E+02 0. -1.
<mgrwt>
<rscale>  0 0.94410733E+02</rscale>
<asrwt>0</asrwt>
<pdfrwt beam="1">  1        1 0.45984427E-01 0.94410733E+02</pdfrwt>
<pdfrwt beam="2">  1       -1 0.25705805E-01 0.94410733E+02</pdfrwt>
<totfact> 0.11484260E+03</totfact>
</mgrwt>
</event>
<event>
 4    1  0.5097315E-001  0.8803844E+02  0.7546771E-02  0.1307673E+00
          4   -1    0    0  501    0  0.00000000000E+00  0.00000000000E+00  0.94317635221E+02  0.94317635221E+02  0.00000000000E+00 0. -1.
         -4   -1    0    0    0  501 -0.00000000000E+00 -0.00000000000E+00 -0.12259288559E+03  0.12259288559E+03  0.00000000000E+00 0.  1.
         24    1    1    2    0    0  0.33196493847E+02  0.13473815011E+02  0.48134333421E+02  0.10033783386E+03  0.80419002446E+02 0. -1.
        -24    1    1    2    0    0 -0.33196493847E+02 -0.13473815011E+02 -0.76409583790E+02  0.11657268696E+03  0.80419002446E+02 0.  1.
<mgrwt>
<rscale>  0 0.88038440E+02</rscale>
<asrwt>0</asrwt>
<pdfrwt beam="1">  1        4 0.14510406E-01 0.88038440E+02</pdfrwt>
<pdfrwt beam="2">  1       -4 0.18860444E-01 0.88038440E+02</pdfrwt>
<totfact> 0.14866696E+03</totfact>
</mgrwt>
</event>
<event>
 4    1  0.5097315E-001  0.9128029E+02  0.7546771E-02  0.1299781E+00
         -1   -1    0    0    0  501 -0.00000000000E+00  0.00000000000E+00  0.48119997244E+02  0.48119997244E+02  0.00000000000E+00 0.  1.
          1   -1    0    0  501    0  0.00000000000E+00 -0.00000000000E+00 -0.46420235326E+03  0.46420235326E+03  0.00000000000E+00 0. -1.
         24    1    1    2    0    0  0.18444085532E+02  0.39047288206E+02 -0.52059255594E+01  0.91428620369E+02  0.80419002446E+02 0.  1.
        -24    1    1    2    0    0 -0.18444085532E+02 -0.39047288206E+02 -0.41087643046E+03  0.42089373014E+03  0.80419002446E+02 0. -1.
<mgrwt>
<rscale>  0 0.91280288E+02</rscale>
<asrwt>0</asrwt>
<pdfrwt beam="1">  1        1 0.71415748E-01 0.91280288E+02</pdfrwt>
<pdfrwt beam="2">  1       -1 0.74030764E-02 0.91280288E+02</pdfrwt>
<totfact> 0.45629588E+03</totfact>
</mgrwt>
</event>
<event>
 4    1  0.5097315E-001  0.9659141E+02  0.7546771E-02  0.1287632E+00
          2   -1    0    0  501    0  0.00000000000E+00  0.00000000000E+00  0.13267991363E+04  0.13267991363E+04  0.00000000000E+00 0. -1.
         -2   -1    0    0    0  501 -0.00000000000E+00 -0.00000000000E+00 -0.74245055283E+01  0.74245055283E+01  0.00000000000E+00 0.  1.
         24    1    1    2    0    0  0.53503923420E+02  0.11966264384E+00  0.81309633362E+03  0.81881350003E+03  0.80419002446E+02 0.  0.
        -24    1    1    2    0    0 -0.53503923420E+02 -0.11966264384E+00  0.50627829711E+03  0.51541014175E+03  0.80419002446E+02 0. -1.
<mgrwt>
<rscale>  0 0.96591408E+02</rscale>
<asrwt>0</asrwt>
<pdfrwt beam="1">  1        2 0.20412276E+00 0.96591408E+02</pdfrwt>
<pdfrwt beam="2">  1       -2 0.11422327E-02 0.96591408E+02</pdfrwt>
<totfact> 0.27715661E+04</totfact>
</mgrwt>
</event>
<event>
 4    1  0.5097315E-001  0.8942850E+02  0.7546771E-02  0.1304242E+00
         -1   -1    0    0    0  501 -0.00000000000E+00  0.00000000000E+00  0.21620768612E+02  0.21620768612E+02  0.00000000000E+00 0.  1.
          1   -1    0    0  501    0  0.00000000000E+00 -0.00000000000E+00 -0.38723955876E+03  0.38723955876E+03  0.00000000000E+00 0. -1.
         24    1    1    2    0    0 -0.38210247155E+02  0.83796189649E+01 -0.13954685746E+03  0.16574312168E+03  0.80419002446E+02 0. -1.
        -24    1    1    2    0    0  0.38210247155E+02 -0.83796189649E+01 -0.22607193268E+03  0.24311720569E+03  0.80419002446E+02 0.  0.
<mgrwt>
<rscale>  0 0.89428502E+02</rscale>
<asrwt>0</asrwt>
<pdfrwt beam="1">  1        1 0.59575312E-01 0.89428502E+02</pdfrwt>
<pdfrwt beam="2">  1       -1 0.33262724E-02 0.89428502E+02</pdfrwt>
<totfact> 0.18431640E+04</totfact>
</mgrwt>
</event>
<event>
 4    1  0.5097315E-001  0.8330338E+02  0.7546771E-02  0.1319930E+00
          2   -1    0    0  501    0  0.00000000000E+00  0.00000000000E+00  0.78184508157E+03  0.78184508157E+03  0.00000000000E+00 0. -1.
         -2   -1    0    0    0  501 -0.00000000000E+00 -0.00000000000E+00 -0.19199973983E+02  0.19199973983E+02  0.00000000000E+00 0.  1.
         24    1    1    2    0    0  0.66391090114E+01  0.20692010242E+02  0.67502364846E+03  0.68014438099E+03  0.80419002446E+02 0. -1.
        -24    1    1    2    0    0 -0.66391090114E+01 -0.20692010242E+02  0.87621459129E+02  0.12090067457E+03  0.80419002446E+02 0.  0.
<mgrwt>
<rscale>  0 0.83303379E+02</rscale>
<asrwt>0</asrwt>
<pdfrwt beam="1">  1        2 0.12028383E+00 0.83303379E+02</pdfrwt>
<pdfrwt beam="2">  1       -2 0.29538428E-02 0.83303379E+02</pdfrwt>
<totfact> 0.14523928E+04</totfact>
</mgrwt>
</event>
<event>
 4    1  0.5097315E-001  0.8480734E+02  0.7546771E-02  0.1315937E+00
          2   -1    0    0  501    0  0.00000000000E+00  0.00000000000E+00  0.13395117586E+04  0.13395117586E+04  0.00000000000E+00 0. -1.
         -2   -1    0    0    0  501 -0.00000000000E+00 -0.00000000000E+00 -0.26977437458E+02  0.26977437458E+02  0.00000000000E+00 0.  1.
         24    1    1    2    0    0 -0.26590236183E+02 -0.42459998707E+01  0.12677498844E+04  0.12705833521E+04  0.80419002446E+02 0. -1.
        -24    1    1    2    0    0  0.26590236183E+02  0.42459998707E+01  0.44784436649E+02  0.95905843907E+02  0.80419002446E+02 0.  1.
<mgrwt>
<rscale>  0 0.84807341E+02</rscale>
<asrwt>0</asrwt>
<pdfrwt beam="1">  1        2 0.20607868E+00 0.84807341E+02</pdfrwt>
<pdfrwt beam="2">  1       -2 0.41503760E-02 0.84807341E+02</pdfrwt>
<totfact> 0.42173889E+03</totfact>
</mgrwt>
</event>
<event>
 4    1  0.5097315E-001  0.1081618E+03  0.7546771E-02  0.1264012E+00
          1   -1    0    0  501    0  0.00000000000E+00  0.00000000000E+00  0.20849262497E+04  0.20849262497E+04  0.00000000000E+00 0. -1.
         -1   -1    0    0    0  501 -0.00000000000E+00 -0.00000000000E+00 -0.75220501351E+01  0.75220501351E+01  0.00000000000E+00 0.  1.
         24    1    1    2    0    0 -0.69422155339E+02 -0.20305696623E+02  0.51138962170E+03  0.52270289659E+03  0.80419002446E+02 0.  1.
        -24    1    1    2    0    0  0.69422155339E+02  0.20305696623E+02  0.15660145778E+04  0.15697454032E+04  0.80419002446E+02 0.  0.
<mgrwt>
<rscale>  0 0.10816179E+03</rscale>
<asrwt>0</asrwt>
<pdfrwt beam="1">  1        1 0.32075742E+00 0.10816179E+03</pdfrwt>
<pdfrwt beam="2">  1       -1 0.11572401E-02 0.10816179E+03</pdfrwt>
<totfact> 0.44601610E+03</totfact>
</mgrwt>
</event>
<event>
 4    1  0.5097315E-001  0.8314140E+02  0.7546771E-02  0.1320366E+00
         -1   -1    0    0    0  501 -0.00000000000E+00  0.00000000000E+00  0.99836446536E+02  0.99836446536E+02  0.00000000000E+00 0.  1.
          1   -1    0    0  501    0  0.00000000000E+00 -0.00000000000E+00 -0.50877277669E+03  0.50877277669E+03  0.00000000000E+00 0. -1.
         24    1    1    2    0    0  0.31364116684E+01 -0.20867189810E+02  0.78373340209E+02  0.11425792357E+03  0.80419002446E+02 0.  1.
        -24    1    1    2    0    0 -0.31364116684E+01  0.20867189810E+02 -0.48730967037E+03  0.49435129966E+03  0.80419002446E+02 0. -1.
<mgrwt>
<rscale>  0 0.83141401E+02</rscale>
<asrwt>0</asrwt>
<pdfrwt beam="1">  1        1 0.78272734E-01 0.83141401E+02</pdfrwt>
<pdfrwt beam="2">  1       -1 0.15359453E-01 0.83141401E+02</pdfrwt>
<totfact> 0.13379348E+03</totfact>
</mgrwt>
</event>
<event>
 4    1  0.5097315E-001  0.8342266E+02  0.7546771E-02  0.1319610E+00
          2   -1    0    0  501    0  0.00000000000E+00  0.00000000000E+00  0.67150486151E+03  0.67150486151E+03  0.00000000000E+00 0. -1.
         -2   -1    0    0    0  501 -0.00000000000E+00 -0.00000000000E+00 -0.12106023304E+02  0.12106023304E+02  0.00000000000E+00 0.  1.
         24    1    1    2    0    0 -0.14989992374E+02 -0.16353135600E+02  0.45936668552E+03  0.46688016946E+03  0.80419002446E+02 0.  1.
        -24    1    1    2    0    0  0.14989992374E+02  0.16353135600E+02  0.20003215268E+03  0.21673071535E+03  0.80419002446E+02 0.  1.
<mgrwt>
<rscale>  0 0.83422664E+02</rscale>
<asrwt>0</asrwt>
<pdfrwt beam="1">  1        2 0.10330841E+00 0.83422664E+02</pdfrwt>
<pdfrwt beam="2">  1       -2 0.18624656E-02 0.83422664E+02</pdfrwt>
<totfact> 0.33738508E+04</totfact>
</mgrwt>
</event>
<event>
 4    1  0.5097315E-001  0.8264936E+02  0.7546771E-02  0.1321697E+00
          2   -1    0    0  501    0  0.00000000000E+00  0.00000000000E+00  0.18060327210E+03  0.18060327210E+03  0.00000000000E+00 0. -1.
         -2   -1    0    0    0  501 -0.00000000000E+00 -0.00000000000E+00 -0.39426843698E+02  0.39426843698E+02  0.00000000000E+00 0.  1.
         24    1    1    2    0    0  0.17749974905E+02 -0.69741880254E+01  0.92778743185E+02  0.12425301626E+03  0.80419002446E+02 0. -1.
        -24    1    1    2    0    0 -0.17749974905E+02  0.69741880254E+01  0.48397685217E+02  0.95777099541E+02  0.80419002446E+02 0.  1.
<mgrwt>
<rscale>  0 0.82649361E+02</rscale>
<asrwt>0</asrwt>
<pdfrwt beam="1">  1        2 0.27785118E-01 0.82649361E+02</pdfrwt>
<pdfrwt beam="2">  1       -2 0.60656683E-02 0.82649361E+02</pdfrwt>
<totfact> 0.24377095E+04</totfact>
</mgrwt>
</event>
<event>
 4    1  0.5097315E-001  0.8708569E+02  0.7546771E-02  0.1310067E+00
          2   -1    0    0  501    0  0.00000000000E+00  0.00000000000E+00  0.87093830465E+03  0.87093830465E+03  0.00000000000E+00 0. -1.
         -2   -1    0    0    0  501 -0.00000000000E+00 -0.00000000000E+00 -0.25667900300E+02  0.25667900300E+02  0.00000000000E+00 0.  1.
         24    1    1    2    0    0 -0.29844737443E+02 -0.15033060841E+02  0.78704610240E+03  0.79184940773E+03  0.80419002446E+02 0. -1.
        -24    1    1    2    0    0  0.29844737443E+02  0.15033060841E+02  0.58224301952E+02  0.10475679722E+03  0.80419002446E+02 0.  1.
<mgrwt>
<rscale>  0 0.87085689E+02</rscale>
<asrwt>0</asrwt>
<pdfrwt beam="1">  1        2 0.13399049E+00 0.87085689E+02</pdfrwt>
<pdfrwt beam="2">  1       -2 0.39489084E-02 0.87085689E+02</pdfrwt>
<totfact> 0.83533159E+03</totfact>
</mgrwt>
</event>
<event>
 4    1  0.5097315E-001  0.8824726E+02  0.7546771E-02  0.1307153E+00
          1   -1    0    0  501    0  0.00000000000E+00  0.00000000000E+00  0.54937452426E+02  0.54937452426E+02  0.00000000000E+00 0. -1.
         -1   -1    0    0    0  501 -0.00000000000E+00 -0.00000000000E+00 -0.53422357742E+03  0.53422357742E+03  0.00000000000E+00 0.  1.
         24    1    1    2    0    0 -0.49179978044E+01  0.36002457988E+02 -0.49213396336E+03  0.49998341725E+03  0.80419002446E+02 0.  1.
        -24    1    1    2    0    0  0.49179978044E+01 -0.36002457988E+02  0.12847838359E+02  0.89177612597E+02  0.80419002446E+02 0. -1.
<mgrwt>
<rscale>  0 0.88247264E+02</rscale>
<asrwt>0</asrwt>
<pdfrwt beam="1">  1        1 0.84519160E-02 0.88247264E+02</pdfrwt>
<pdfrwt beam="2">  1       -1 0.82188241E-01 0.88247264E+02</pdfrwt>
<totfact> 0.12015018E+03</totfact>
</mgrwt>
</event>
<event>
 4    1  0.5097315E-001  0.8712571E+02  0.7546771E-02  0.1309965E+00
         -1   -1    0    0    0  501 -0.00000000000E+00  0.00000000000E+00  0.50981483331E+01  0.50981483331E+01  0.00000000000E+00 0.  1.
          1   -1    0    0  501    0  0.00000000000E+00 -0.00000000000E+00 -0.15554237855E+04  0.15554237855E+04  0.00000000000E+00 0. -1.
         24    1    1    2    0    0  0.31641796730E+02  0.11066653277E+02 -0.61386096128E+03  0.62001304007E+03  0.80419002446E+02 0.  0.
        -24    1    1    2    0    0 -0.31641796730E+02 -0.11066653277E+02 -0.93646467588E+03  0.94050889376E+03  0.80419002446E+02 0.  0.
<mgrwt>
<rscale>  0 0.87125714E+02</rscale>
<asrwt>0</asrwt>
<pdfrwt beam="1">  1        1 0.23929633E+00 0.87125714E+02</pdfrwt>
<pdfrwt beam="2">  1       -1 0.78432932E-03 0.87125714E+02</pdfrwt>
<totfact> 0.16477164E+04</totfact>
</mgrwt>
</event>
<event>
 4    1  0.5097315E-001  0.8966674E+02  0.7546771E-02  0.1303661E+00
         -2   -1    0    0    0  501 -0.00000000000E+00  0.00000000000E+00  0.26185752253E+02  0.26185752253E+02  0.00000000000E+00 0.  1.
          2   -1    0    0  501    0  0.00000000000E+00 -0.00000000000E+00 -0.64177538317E+03  0.64177538317E+03  0.00000000000E+00 0. -1.
         24    1    1    2    0    0  0.38685114238E+02  0.87390523511E+01 -0.54899586979E+03  0.55627024916E+03  0.80419002446E+02 0. -1.
        -24    1    1    2    0    0 -0.38685114238E+02 -0.87390523511E+01 -0.66593761134E+02  0.11169088627E+03  0.80419002446E+02 0.  1.
<mgrwt>
<rscale>  0 0.89666744E+02</rscale>
<asrwt>0</asrwt>
<pdfrwt beam="1">  1        2 0.98734672E-01 0.89666744E+02</pdfrwt>
<pdfrwt beam="2">  1       -2 0.40285773E-02 0.89666744E+02</pdfrwt>
<totfact> 0.11703491E+04</totfact>
</mgrwt>
</event>
<event>
 4    1  0.5097315E-001  0.9618123E+02  0.7546771E-02  0.1288538E+00
         -3   -1    0    0    0  501 -0.00000000000E+00  0.00000000000E+00  0.19776185045E+03  0.19776185045E+03  0.00000000000E+00 0.  1.
          3   -1    0    0  501    0  0.00000000000E+00 -0.00000000000E+00 -0.31407151238E+03  0.31407151238E+03  0.00000000000E+00 0. -1.
         24    1    1    2    0    0 -0.91384703046E+01  0.51962500585E+02  0.17793584664E+03  0.20226713668E+03  0.80419002446E+02 0.  1.
        -24    1    1    2    0    0  0.91384703046E+01 -0.51962500585E+02 -0.29424550857E+03  0.30956622615E+03  0.80419002446E+02 0. -1.
<mgrwt>
<rscale>  0 0.96181230E+02</rscale>
<asrwt>0</asrwt>
<pdfrwt beam="1">  1        3 0.48318694E-01 0.96181230E+02</pdfrwt>
<pdfrwt beam="2">  1       -3 0.30424900E-01 0.96181230E+02</pdfrwt>
<totfact> 0.10106768E+02</totfact>
</mgrwt>
</event>
<event>
 4    1  0.5097315E-001  0.1081751E+03  0.7546771E-02  0.1263987E+00
         -1   -1    0    0    0  501 -0.00000000000E+00  0.00000000000E+00  0.21202704216E+02  0.21202704216E+02  0.00000000000E+00 0.  1.
          1   -1    0    0  501    0  0.00000000000E+00 -0.00000000000E+00 -0.73490037617E+03  0.73490037617E+03  0.00000000000E+00 0. -1.
         24    1    1    2    0    0 -0.67703729536E+02  0.25511802217E+02 -0.16819844880E+03  0.19998145208E+03  0.80419002446E+02 0. -1.
        -24    1    1    2    0    0  0.67703729536E+02 -0.25511802217E+02 -0.54549922316E+03  0.55612162830E+03  0.80419002446E+02 0.  0.
<mgrwt>
<rscale>  0 0.10817515E+03</rscale>
<asrwt>0</asrwt>
<pdfrwt beam="1">  1        1 0.11306158E+00 0.10817515E+03</pdfrwt>
<pdfrwt beam="2">  1       -1 0.32619550E-02 0.10817515E+03</pdfrwt>
<totfact> 0.82852308E+03</totfact>
</mgrwt>
</event>
<event>
 4    1  0.5097315E-001  0.1533329E+03  0.7546771E-02  0.1196436E+00
          2   -1    0    0  501    0  0.00000000000E+00  0.00000000000E+00  0.45372028967E+02  0.45372028967E+02  0.00000000000E+00 0. -1.
         -2   -1    0    0    0  501 -0.00000000000E+00 -0.00000000000E+00 -0.64380711975E+03  0.64380711975E+03  0.00000000000E+00 0.  1.
         24    1    1    2    0    0  0.95030876511E+02 -0.89514646083E+02 -0.45143449030E+03  0.47676414960E+03  0.80419002446E+02 0.  1.
        -24    1    1    2    0    0 -0.95030876511E+02  0.89514646083E+02 -0.14700060048E+03  0.21241499911E+03  0.80419002446E+02 0. -1.
<mgrwt>
<rscale>  0 0.15333284E+03</rscale>
<asrwt>0</asrwt>
<pdfrwt beam="1">  1        2 0.69803121E-02 0.15333286E+03</pdfrwt>
<pdfrwt beam="2">  1       -2 0.99047250E-01 0.15333286E+03</pdfrwt>
<totfact> 0.87120417E+02</totfact>
</mgrwt>
</event>
<event>
 4    1  0.5097315E-001  0.1021201E+03  0.7546771E-02  0.1275900E+00
         -2   -1    0    0    0  501 -0.00000000000E+00  0.00000000000E+00  0.33834112574E+03  0.33834112574E+03  0.00000000000E+00 0.  1.
          2   -1    0    0  501    0  0.00000000000E+00 -0.00000000000E+00 -0.35823984976E+02  0.35823984976E+02  0.00000000000E+00 0. -1.
         24    1    1    2    0    0  0.45303223238E+02  0.43691078275E+02  0.81355339848E+02  0.13056492497E+03  0.80419002446E+02 0.  1.
        -24    1    1    2    0    0 -0.45303223238E+02 -0.43691078275E+02  0.22116180092E+03  0.24360018575E+03  0.80419002446E+02 0. -1.
<mgrwt>
<rscale>  0 0.10212007E+03</rscale>
<asrwt>0</asrwt>
<pdfrwt beam="1">  1        2 0.55113825E-02 0.10212007E+03</pdfrwt>
<pdfrwt beam="2">  1       -2 0.52052479E-01 0.10212007E+03</pdfrwt>
<totfact> 0.45429648E+03</totfact>
</mgrwt>
</event>
<event>
 4    1  0.5097315E-001  0.9240821E+02  0.7546771E-02  0.1297122E+00
          2   -1    0    0  501    0  0.00000000000E+00  0.00000000000E+00  0.16654914333E+04  0.16654914333E+04  0.00000000000E+00 0. -1.
         -2   -1    0    0    0  501 -0.00000000000E+00 -0.00000000000E+00 -0.13047782640E+02  0.13047782640E+02  0.00000000000E+00 0.  1.
         24    1    1    2    0    0  0.21816126113E+02 -0.39951449534E+02  0.14801231230E+04  0.14830049686E+04  0.80419002446E+02 0. -1.
        -24    1    1    2    0    0 -0.21816126113E+02  0.39951449534E+02  0.17232052767E+03  0.19553424736E+03  0.80419002446E+02 0.  1.
<mgrwt>
<rscale>  0 0.92408212E+02</rscale>
<asrwt>0</asrwt>
<pdfrwt beam="1">  1        2 0.25622928E+00 0.92408212E+02</pdfrwt>
<pdfrwt beam="2">  1       -2 0.20073525E-02 0.92408212E+02</pdfrwt>
<totfact> 0.82759651E+03</totfact>
</mgrwt>
</event>
<event>
 4    1  0.5097315E-001  0.8084883E+02  0.7546771E-02  0.1326660E+00
          1   -1    0    0  501    0  0.00000000000E+00  0.00000000000E+00  0.42503840077E+04  0.42503840077E+04  0.00000000000E+00 0. -1.
         -1   -1    0    0    0  501 -0.00000000000E+00 -0.00000000000E+00 -0.29470262822E+01  0.29470262822E+01  0.00000000000E+00 0.  1.
         24    1    1    2    0    0 -0.99813474104E+00  0.82656495537E+01  0.65314429319E+03  0.65812916735E+03  0.80419002446E+02 0.  1.
        -24    1    1    2    0    0  0.99813474104E+00 -0.82656495537E+01  0.35942926883E+04  0.35952018667E+04  0.80419002446E+02 0. -1.
<mgrwt>
<rscale>  0 0.80848829E+02</rscale>
<asrwt>0</asrwt>
<pdfrwt beam="1">  1        1 0.65390033E+00 0.80848829E+02</pdfrwt>
<pdfrwt beam="2">  1       -1 0.45339206E-03 0.80848829E+02</pdfrwt>
<totfact> 0.47475045E+02</totfact>
</mgrwt>
</event>
<event>
 4    1  0.5097315E-001  0.9212888E+02  0.7546771E-02  0.1297777E+00
         -2   -1    0    0    0  501 -0.00000000000E+00  0.00000000000E+00  0.12511668134E+02  0.12511668134E+02  0.00000000000E+00 0.  1.
          2   -1    0    0  501    0  0.00000000000E+00 -0.00000000000E+00 -0.67975289175E+03  0.67975289175E+03  0.00000000000E+00 0. -1.
         24    1    1    2    0    0  0.23022282137E+02  0.38606861777E+02 -0.34914632640E+03  0.36109678543E+03  0.80419002446E+02 0.  0.
        -24    1    1    2    0    0 -0.23022282137E+02 -0.38606861777E+02 -0.31809489721E+03  0.33116777445E+03  0.80419002446E+02 0.  1.
<mgrwt>
<rscale>  0 0.92128884E+02</rscale>
<asrwt>0</asrwt>
<pdfrwt beam="1">  1        2 0.10457737E+00 0.92128884E+02</pdfrwt>
<pdfrwt beam="2">  1       -2 0.19248720E-02 0.92128884E+02</pdfrwt>
<totfact> 0.32080728E+04</totfact>
</mgrwt>
</event>
<event>
 4    1  0.5097315E-001  0.1290260E+03  0.7546771E-02  0.1228908E+00
          1   -1    0    0  501    0  0.00000000000E+00  0.00000000000E+00  0.58207844394E+03  0.58207844394E+03  0.00000000000E+00 0. -1.
         -1   -1    0    0    0  501 -0.00000000000E+00 -0.00000000000E+00 -0.43467027875E+02  0.43467027875E+02  0.00000000000E+00 0.  1.
         24    1    1    2    0    0 -0.10089727279E+03  0.48760760084E+00  0.86388643984E+02  0.15527624152E+03  0.80419002446E+02 0.  1.
        -24    1    1    2    0    0  0.10089727279E+03 -0.48760760084E+00  0.45222277209E+03  0.47026923030E+03  0.80419002446E+02 0. -1.
<mgrwt>
<rscale>  0 0.12902602E+03</rscale>
<asrwt>0</asrwt>
<pdfrwt beam="1">  1        1 0.89550524E-01 0.12902602E+03</pdfrwt>
<pdfrwt beam="2">  1       -1 0.66872355E-02 0.12902602E+03</pdfrwt>
<totfact> 0.40247541E+03</totfact>
</mgrwt>
</event>
<event>
 4    1  0.5097315E-001  0.8208549E+02  0.7546771E-02  0.1323235E+00
         -2   -1    0    0    0  501 -0.00000000000E+00  0.00000000000E+00  0.88086912840E+01  0.88086912840E+01  0.00000000000E+00 0.  1.
          2   -1    0    0  501    0  0.00000000000E+00 -0.00000000000E+00 -0.77027707036E+03  0.77027707036E+03  0.00000000000E+00 0. -1.
         24    1    1    2    0    0  0.34206612674E+01 -0.16096917778E+02 -0.41319137587E+03  0.42126611629E+03  0.80419002446E+02 0. -1.
        -24    1    1    2    0    0 -0.34206612674E+01  0.16096917778E+02 -0.34827700321E+03  0.35781964536E+03  0.80419002446E+02 0.  1.
<mgrwt>
<rscale>  0 0.82085490E+02</rscale>
<asrwt>0</asrwt>
<pdfrwt beam="1">  1        2 0.11850417E+00 0.82085490E+02</pdfrwt>
<pdfrwt beam="2">  1       -2 0.13551833E-02 0.82085490E+02</pdfrwt>
<totfact> 0.45101633E+04</totfact>
</mgrwt>
</event>
<event>
 4    1  0.5097315E-001  0.9889846E+02  0.7546771E-02  0.1282630E+00
         -2   -1    0    0    0  501 -0.00000000000E+00  0.00000000000E+00  0.11035960970E+02  0.11035960970E+02  0.00000000000E+00 0.  1.
          2   -1    0    0  501    0  0.00000000000E+00 -0.00000000000E+00 -0.35741988010E+04  0.35741988010E+04  0.00000000000E+00 0. -1.
         24    1    1    2    0    0 -0.50801483196E+02 -0.27072115701E+02 -0.33361384368E+04  0.33376040172E+04  0.80419002446E+02 0. -1.
        -24    1    1    2    0    0  0.50801483196E+02  0.27072115701E+02 -0.22702440326E+03  0.24763074481E+03  0.80419002446E+02 0.  1.
<mgrwt>
<rscale>  0 0.98898464E+02</rscale>
<asrwt>0</asrwt>
<pdfrwt beam="1">  1        2 0.54987628E+00 0.98898464E+02</pdfrwt>
<pdfrwt beam="2">  1       -2 0.16978416E-02 0.98898464E+02</pdfrwt>
<totfact> 0.94384111E+02</totfact>
</mgrwt>
</event>
<event>
 4    1  0.5097315E-001  0.1519826E+03  0.7546771E-02  0.1198058E+00
         -2   -1    0    0    0  501 -0.00000000000E+00  0.00000000000E+00  0.86511738119E+02  0.86511738119E+02  0.00000000000E+00 0.  1.
          2   -1    0    0  501    0  0.00000000000E+00 -0.00000000000E+00 -0.31604506456E+03  0.31604506456E+03  0.00000000000E+00 0. -1.
         24    1    1    2    0    0 -0.17917325619E+02  0.12771244829E+03 -0.19405624603E+03  0.24648842282E+03  0.80419002446E+02 0.  0.
        -24    1    1    2    0    0  0.17917325619E+02 -0.12771244829E+03 -0.35477080412E+02  0.15606837986E+03  0.80419002446E+02 0.  1.
<mgrwt>
<rscale>  0 0.15198262E+03</rscale>
<asrwt>0</asrwt>
<pdfrwt beam="1">  1        2 0.48622318E-01 0.15198262E+03</pdfrwt>
<pdfrwt beam="2">  1       -2 0.13309498E-01 0.15198262E+03</pdfrwt>
<totfact> 0.41748216E+03</totfact>
</mgrwt>
</event>
<event>
 4    1  0.5097315E-001  0.9736897E+02  0.7546771E-02  0.1285928E+00
         -1   -1    0    0    0  501 -0.00000000000E+00  0.00000000000E+00  0.14261586998E+03  0.14261586998E+03  0.00000000000E+00 0.  1.
          1   -1    0    0  501    0  0.00000000000E+00 -0.00000000000E+00 -0.66477268009E+02  0.66477268009E+02  0.00000000000E+00 0. -1.
         24    1    1    2    0    0 -0.42039822595E+02 -0.35300847598E+02  0.38036532918E+02  0.10453463692E+03  0.80419002446E+02 0. -1.
        -24    1    1    2    0    0  0.42039822595E+02  0.35300847598E+02  0.38102069050E+02  0.10455850107E+03  0.80419002446E+02 0.  1.
<mgrwt>
<rscale>  0 0.97368962E+02</rscale>
<asrwt>0</asrwt>
<pdfrwt beam="1">  1        1 0.10227272E-01 0.97368975E+02</pdfrwt>
<pdfrwt beam="2">  1       -1 0.21940903E-01 0.97368975E+02</pdfrwt>
<totfact> 0.98245580E+03</totfact>
</mgrwt>
</event>
<event>
 4    1  0.5097315E-001  0.9029189E+02  0.7546771E-02  0.1302146E+00
          2   -1    0    0  501    0  0.00000000000E+00  0.00000000000E+00  0.37916288751E+03  0.37916288751E+03  0.00000000000E+00 0. -1.
         -2   -1    0    0    0  501 -0.00000000000E+00 -0.00000000000E+00 -0.21584618034E+02  0.21584618034E+02  0.00000000000E+00 0.  1.
         24    1    1    2    0    0  0.17867048044E+02 -0.36961851040E+02  0.19121244169E+03  0.21145879894E+03  0.80419002446E+02 0. -1.
        -24    1    1    2    0    0 -0.17867048044E+02  0.36961851040E+02  0.16636582779E+03  0.18928870660E+03  0.80419002446E+02 0.  1.
<mgrwt>
<rscale>  0 0.90291892E+02</rscale>
<asrwt>0</asrwt>
<pdfrwt beam="1">  1        2 0.58332747E-01 0.90291892E+02</pdfrwt>
<pdfrwt beam="2">  1       -2 0.33207107E-02 0.90291892E+02</pdfrwt>
<totfact> 0.27478698E+04</totfact>
</mgrwt>
</event>
<event>
 4    1  0.5097315E-001  0.8315038E+02  0.7546771E-02  0.1320342E+00
         -4   -1    0    0    0  501 -0.00000000000E+00  0.00000000000E+00  0.40709585907E+03  0.40709585907E+03  0.00000000000E+00 0.  1.
          4   -1    0    0  501    0  0.00000000000E+00 -0.00000000000E+00 -0.84422704825E+02  0.84422704825E+02  0.00000000000E+00 0. -1.
         24    1    1    2    0    0 -0.17145610630E+02  0.12361125083E+02 -0.58315817774E+02  0.10156140967E+03  0.80419002446E+02 0. -1.
        -24    1    1    2    0    0  0.17145610630E+02 -0.12361125083E+02  0.38098897202E+03  0.38995715422E+03  0.80419002446E+02 0.  1.
<mgrwt>
<rscale>  0 0.83150378E+02</rscale>
<asrwt>0</asrwt>
<pdfrwt beam="1">  1        4 0.12988109E-01 0.83150378E+02</pdfrwt>
<pdfrwt beam="2">  1       -4 0.62630131E-01 0.83150378E+02</pdfrwt>
<totfact> 0.17825274E+02</totfact>
</mgrwt>
</event>
<event>
 4    1  0.5097315E-001  0.9656305E+02  0.7546771E-02  0.1287694E+00
          2   -1    0    0  501    0  0.00000000000E+00  0.00000000000E+00  0.62854687598E+03  0.62854687598E+03  0.00000000000E+00 0. -1.
         -2   -1    0    0    0  501 -0.00000000000E+00 -0.00000000000E+00 -0.19493982377E+02  0.19493982377E+02  0.00000000000E+00 0.  1.
         24    1    1    2    0    0 -0.11244405566E+02  0.52256778769E+02  0.46293286931E+03  0.47289667479E+03  0.80419002446E+02 0.  0.
        -24    1    1    2    0    0  0.11244405566E+02 -0.52256778769E+02  0.14612002429E+03  0.17514418356E+03  0.80419002446E+02 0.  0.
<mgrwt>
<rscale>  0 0.96563055E+02</rscale>
<asrwt>0</asrwt>
<pdfrwt beam="1">  1        2 0.96699504E-01 0.96563055E+02</pdfrwt>
<pdfrwt beam="2">  1       -2 0.29990747E-02 0.96563055E+02</pdfrwt>
<totfact> 0.18571527E+04</totfact>
</mgrwt>
</event>
<event>
 4    1  0.5097315E-001  0.1155655E+03  0.7546771E-02  0.1250597E+00
          2   -1    0    0  501    0  0.00000000000E+00  0.00000000000E+00  0.93701788235E+03  0.93701788235E+03  0.00000000000E+00 0. -1.
         -2   -1    0    0    0  501 -0.00000000000E+00 -0.00000000000E+00 -0.18050171071E+02  0.18050171071E+02  0.00000000000E+00 0.  1.
         24    1    1    2    0    0  0.11620212052E+02 -0.82177540715E+02  0.67850649444E+03  0.68827789190E+03  0.80419002446E+02 0. -1.
        -24    1    1    2    0    0 -0.11620212052E+02  0.82177540715E+02  0.24046121683E+03  0.26679016151E+03  0.80419002446E+02 0.  1.
<mgrwt>
<rscale>  0 0.11556554E+03</rscale>
<asrwt>0</asrwt>
<pdfrwt beam="1">  1        2 0.14415656E+00 0.11556554E+03</pdfrwt>
<pdfrwt beam="2">  1       -2 0.27769501E-02 0.11556554E+03</pdfrwt>
<totfact> 0.12965419E+04</totfact>
</mgrwt>
</event>
<event>
 4    1  0.5097315E-001  0.8830782E+02  0.7546771E-02  0.1307002E+00
         -2   -1    0    0    0  501 -0.00000000000E+00  0.00000000000E+00  0.95829172048E+01  0.95829172048E+01  0.00000000000E+00 0.  1.
          2   -1    0    0  501    0  0.00000000000E+00 -0.00000000000E+00 -0.18894753124E+04  0.18894753124E+04  0.00000000000E+00 0. -1.
         24    1    1    2    0    0  0.27042102104E+02 -0.24490385573E+02 -0.16563943372E+04  0.16587466566E+04  0.80419002446E+02 0. -1.
        -24    1    1    2    0    0 -0.27042102104E+02  0.24490385573E+02 -0.22349805793E+03  0.24031157301E+03  0.80419002446E+02 0.  1.
<mgrwt>
<rscale>  0 0.88307815E+02</rscale>
<asrwt>0</asrwt>
<pdfrwt beam="1">  1        2 0.29068831E+00 0.88307815E+02</pdfrwt>
<pdfrwt beam="2">  1       -2 0.14742960E-02 0.88307815E+02</pdfrwt>
<totfact> 0.99170985E+03</totfact>
</mgrwt>
</event>
<event>
 4    1  0.5097315E-001  0.1385284E+03  0.7546771E-02  0.1215323E+00
          2   -1    0    0  501    0  0.00000000000E+00  0.00000000000E+00  0.12237954111E+04  0.12237954111E+04  0.00000000000E+00 0. -1.
         -2   -1    0    0    0  501 -0.00000000000E+00 -0.00000000000E+00 -0.23279199908E+02  0.23279199908E+02  0.00000000000E+00 0.  1.
         24    1    1    2    0    0  0.10627466748E+03  0.37796799881E+02  0.95649495320E+03  0.96647437342E+03  0.80419002446E+02 0. -1.
        -24    1    1    2    0    0 -0.10627466748E+03 -0.37796799881E+02  0.24402125800E+03  0.28060023760E+03  0.80419002446E+02 0.  1.
<mgrwt>
<rscale>  0 0.13852840E+03</rscale>
<asrwt>0</asrwt>
<pdfrwt beam="1">  1        2 0.18827617E+00 0.13852840E+03</pdfrwt>
<pdfrwt beam="2">  1       -2 0.35814163E-02 0.13852840E+03</pdfrwt>
<totfact> 0.61517582E+03</totfact>
</mgrwt>
</event>
<event>
 4    1  0.5097315E-001  0.1272507E+03  0.7546771E-02  0.1231593E+00
          1   -1    0    0  501    0  0.00000000000E+00  0.00000000000E+00  0.20391156450E+04  0.20391156450E+04  0.00000000000E+00 0. -1.
         -1   -1    0    0    0  501 -0.00000000000E+00 -0.00000000000E+00 -0.92291735092E+02  0.92291735092E+02  0.00000000000E+00 0.  1.
         24    1    1    2    0    0 -0.92486137619E+02 -0.34232113065E+02 -0.45412465573E+02  0.13511118089E+03  0.80419002446E+02 0.  1.
        -24    1    1    2    0    0  0.92486137619E+02  0.34232113065E+02  0.19922363755E+04  0.19962961992E+04  0.80419002446E+02 0. -1.
<mgrwt>
<rscale>  0 0.12725069E+03</rscale>
<asrwt>0</asrwt>
<pdfrwt beam="1">  1        1 0.31371006E+00 0.12725069E+03</pdfrwt>
<pdfrwt beam="2">  1       -1 0.14198730E-01 0.12725069E+03</pdfrwt>
<totfact> 0.11867779E+02</totfact>
</mgrwt>
</event>
<event>
 4    1  0.5097315E-001  0.8403133E+02  0.7546771E-02  0.1317985E+00
         -2   -1    0    0    0  501 -0.00000000000E+00  0.00000000000E+00  0.58963741235E+02  0.58963741235E+02  0.00000000000E+00 0.  1.
          2   -1    0    0  501    0  0.00000000000E+00 -0.00000000000E+00 -0.46909829038E+03  0.46909829038E+03  0.00000000000E+00 0. -1.
         24    1    1    2    0    0  0.21291472938E+02 -0.11862647815E+02 -0.43291703032E+03  0.44099707519E+03  0.80419002446E+02 0. -1.
        -24    1    1    2    0    0 -0.21291472938E+02  0.11862647815E+02  0.22782481179E+02  0.87064956418E+02  0.80419002446E+02 0.  1.
<mgrwt>
<rscale>  0 0.84031335E+02</rscale>
<asrwt>0</asrwt>
<pdfrwt beam="1">  1        2 0.72168969E-01 0.84031335E+02</pdfrwt>
<pdfrwt beam="2">  1       -2 0.90713447E-02 0.84031335E+02</pdfrwt>
<totfact> 0.48595012E+03</totfact>
</mgrwt>
</event>
<event>
 4    1  0.5097315E-001  0.8087871E+02  0.7546771E-02  0.1326576E+00
          3   -1    0    0  501    0  0.00000000000E+00  0.00000000000E+00  0.15270935006E+03  0.15270935006E+03  0.00000000000E+00 0. -1.
         -3   -1    0    0    0  501 -0.00000000000E+00 -0.00000000000E+00 -0.84305457055E+02  0.84305457055E+02  0.00000000000E+00 0.  1.
         24    1    1    2    0    0  0.36896145495E+01 -0.77802652748E+01  0.11731803660E+03  0.14249520501E+03  0.80419002446E+02 0. -1.
        -24    1    1    2    0    0 -0.36896145495E+01  0.77802652748E+01 -0.48914143602E+02  0.94519602104E+02  0.80419002446E+02 0.  0.
<mgrwt>
<rscale>  0 0.80878695E+02</rscale>
<asrwt>0</asrwt>
<pdfrwt beam="1">  1        3 0.23493746E-01 0.80878706E+02</pdfrwt>
<pdfrwt beam="2">  1       -3 0.12970070E-01 0.80878706E+02</pdfrwt>
<totfact> 0.16663563E+03</totfact>
</mgrwt>
</event>
<event>
 4    1  0.5097315E-001  0.8248213E+02  0.7546771E-02  0.1322152E+00
         -1   -1    0    0    0  501 -0.00000000000E+00  0.00000000000E+00  0.22288329168E+04  0.22288329168E+04  0.00000000000E+00 0.  1.
          1   -1    0    0  501    0  0.00000000000E+00 -0.00000000000E+00 -0.47844524790E+01  0.47844524790E+01  0.00000000000E+00 0. -1.
         24    1    1    2    0    0 -0.15065918161E+02  0.10445313483E+02  0.17839827474E+04  0.17858885030E+04  0.80419002446E+02 0. -1.
        -24    1    1    2    0    0  0.15065918161E+02 -0.10445313483E+02  0.44006571698E+03  0.44772886626E+03  0.80419002446E+02 0. -1.
<mgrwt>
<rscale>  0 0.82482134E+02</rscale>
<asrwt>0</asrwt>
<pdfrwt beam="1">  1        1 0.73607139E-03 0.82482134E+02</pdfrwt>
<pdfrwt beam="2">  1       -1 0.34289654E+00 0.82482134E+02</pdfrwt>
<totfact> 0.51018717E+02</totfact>
</mgrwt>
</event>
<event>
 4    1  0.5097315E-001  0.8707544E+02  0.7546771E-02  0.1310093E+00
          4   -1    0    0  501    0  0.00000000000E+00  0.00000000000E+00  0.46184002648E+02  0.46184002648E+02  0.00000000000E+00 0. -1.
         -4   -1    0    0    0  501 -0.00000000000E+00 -0.00000000000E+00 -0.71840784367E+03  0.71840784367E+03  0.00000000000E+00 0.  1.
         24    1    1    2    0    0 -0.15267490735E+02 -0.29695468012E+02 -0.32689197309E+00  0.87076058170E+02  0.80419002446E+02 0. -1.
        -24    1    1    2    0    0  0.15267490735E+02  0.29695468012E+02 -0.67189694904E+03  0.67751578814E+03  0.80419002446E+02 0.  1.
<mgrwt>
<rscale>  0 0.87075445E+02</rscale>
<asrwt>0</asrwt>
<pdfrwt beam="1">  1        4 0.71052321E-02 0.87075445E+02</pdfrwt>
<pdfrwt beam="2">  1       -4 0.11052427E+00 0.87075445E+02</pdfrwt>
<totfact> 0.14022139E+02</totfact>
</mgrwt>
</event>
<event>
 4    1  0.5097315E-001  0.8054219E+02  0.7546771E-02  0.1327520E+00
         -1   -1    0    0    0  501 -0.00000000000E+00  0.00000000000E+00  0.37008952447E+02  0.37008952447E+02  0.00000000000E+00 0.  1.
          1   -1    0    0  501    0  0.00000000000E+00 -0.00000000000E+00 -0.33101939246E+03  0.33101939246E+03  0.00000000000E+00 0. -1.
         24    1    1    2    0    0 -0.22608415209E+01  0.38362384620E+01 -0.20787752058E+02  0.83181576806E+02  0.80419002446E+02 0.  1.
        -24    1    1    2    0    0  0.22608415209E+01 -0.38362384620E+01 -0.27322268795E+03  0.28484676810E+03  0.80419002446E+02 0.  0.
<mgrwt>
<rscale>  0 0.80542188E+02</rscale>
<asrwt>0</asrwt>
<pdfrwt beam="1">  1        1 0.50926063E-01 0.80542188E+02</pdfrwt>
<pdfrwt beam="2">  1       -1 0.56936847E-02 0.80542188E+02</pdfrwt>
<totfact> 0.10127556E+04</totfact>
</mgrwt>
</event>
<event>
 4    1  0.5097315E-001  0.8962455E+02  0.7546771E-02  0.1303763E+00
         -1   -1    0    0    0  501 -0.00000000000E+00  0.00000000000E+00  0.88951010660E+01  0.88951010660E+01  0.00000000000E+00 0.  1.
          1   -1    0    0  501    0  0.00000000000E+00 -0.00000000000E+00 -0.93201692919E+03  0.93201692919E+03  0.00000000000E+00 0. -1.
         24    1    1    2    0    0  0.53033725526E+01  0.39207365127E+02 -0.37859595792E+03  0.38905971077E+03  0.80419002446E+02 0.  1.
        -24    1    1    2    0    0 -0.53033725526E+01 -0.39207365127E+02 -0.54452587020E+03  0.55185231948E+03  0.80419002446E+02 0. -1.
<mgrwt>
<rscale>  0 0.89624546E+02</rscale>
<asrwt>0</asrwt>
<pdfrwt beam="1">  1        1 0.14338720E+00 0.89624546E+02</pdfrwt>
<pdfrwt beam="2">  1       -1 0.13684773E-02 0.89624546E+02</pdfrwt>
<totfact> 0.19779561E+04</totfact>
</mgrwt>
</event>
<event>
 4    1  0.5097315E-001  0.9351484E+02  0.7546771E-02  0.1294557E+00
          2   -1    0    0  501    0  0.00000000000E+00  0.00000000000E+00  0.29674464626E+03  0.29674464626E+03  0.00000000000E+00 0. -1.
         -2   -1    0    0    0  501 -0.00000000000E+00 -0.00000000000E+00 -0.43549844390E+02  0.43549844390E+02  0.00000000000E+00 0.  1.
         24    1    1    2    0    0 -0.46478247521E+02 -0.10843515683E+02  0.22334330695E+03  0.24213066315E+03  0.80419002446E+02 0. -1.
        -24    1    1    2    0    0  0.46478247521E+02  0.10843515683E+02  0.29851494916E+02  0.98163827493E+02  0.80419002446E+02 0.  1.
<mgrwt>
<rscale>  0 0.93514840E+02</rscale>
<asrwt>0</asrwt>
<pdfrwt beam="1">  1        2 0.45653021E-01 0.93514840E+02</pdfrwt>
<pdfrwt beam="2">  1       -2 0.66999763E-02 0.93514840E+02</pdfrwt>
<totfact> 0.12586256E+04</totfact>
</mgrwt>
</event>
<event>
 4    1  0.5097315E-001  0.9226108E+02  0.7546771E-02  0.1297467E+00
         -1   -1    0    0    0  501 -0.00000000000E+00  0.00000000000E+00  0.22372815702E+02  0.22372815702E+02  0.00000000000E+00 0.  1.
          1   -1    0    0  501    0  0.00000000000E+00 -0.00000000000E+00 -0.83846912490E+03  0.83846912490E+03  0.00000000000E+00 0. -1.
         24    1    1    2    0    0 -0.44270839226E+02  0.92186640915E+01 -0.89933360082E+02  0.12884143815E+03  0.80419002446E+02 0.  1.
        -24    1    1    2    0    0  0.44270839226E+02 -0.92186640915E+01 -0.72616294911E+03  0.73200050245E+03  0.80419002446E+02 0. -1.
<mgrwt>
<rscale>  0 0.92261080E+02</rscale>
<asrwt>0</asrwt>
<pdfrwt beam="1">  1        1 0.12899527E+00 0.92261080E+02</pdfrwt>
<pdfrwt beam="2">  1       -1 0.34419712E-02 0.92261080E+02</pdfrwt>
<totfact> 0.62470802E+03</totfact>
</mgrwt>
</event>
<event>
 4    1  0.5097315E-001  0.1148642E+03  0.7546771E-02  0.1251818E+00
         -1   -1    0    0    0  501 -0.00000000000E+00  0.00000000000E+00  0.27243112772E+02  0.27243112772E+02  0.00000000000E+00 0.  1.
          1   -1    0    0  501    0  0.00000000000E+00 -0.00000000000E+00 -0.48762005885E+03  0.48762005885E+03  0.00000000000E+00 0. -1.
         24    1    1    2    0    0 -0.75767601380E+02  0.31398099668E+02 -0.20894026568E+03  0.23843200427E+03  0.80419002446E+02 0.  1.
        -24    1    1    2    0    0  0.75767601380E+02 -0.31398099668E+02 -0.25143668040E+03  0.27643116735E+03  0.80419002446E+02 0. -1.
<mgrwt>
<rscale>  0 0.11486421E+03</rscale>
<asrwt>0</asrwt>
<pdfrwt beam="1">  1        1 0.75018462E-01 0.11486421E+03</pdfrwt>
<pdfrwt beam="2">  1       -1 0.41912486E-02 0.11486421E+03</pdfrwt>
<totfact> 0.10068613E+04</totfact>
</mgrwt>
</event>
<event>
 4    1  0.5097315E-001  0.8543494E+02  0.7546771E-02  0.1314299E+00
          1   -1    0    0  501    0  0.00000000000E+00  0.00000000000E+00  0.55987900305E+03  0.55987900305E+03  0.00000000000E+00 0. -1.
         -1   -1    0    0    0  501 -0.00000000000E+00 -0.00000000000E+00 -0.25330003797E+02  0.25330003797E+02  0.00000000000E+00 0.  1.
         24    1    1    2    0    0  0.15726071183E+02  0.24178586670E+02  0.63432906850E+02  0.10640894227E+03  0.80419002446E+02 0.  1.
        -24    1    1    2    0    0 -0.15726071183E+02 -0.24178586670E+02  0.47111609240E+03  0.47880006458E+03  0.80419002446E+02 0.  0.
<mgrwt>
<rscale>  0 0.85434942E+02</rscale>
<asrwt>0</asrwt>
<pdfrwt beam="1">  1        1 0.86135222E-01 0.85434942E+02</pdfrwt>
<pdfrwt beam="2">  1       -1 0.38969241E-02 0.85434942E+02</pdfrwt>
<totfact> 0.91420647E+03</totfact>
</mgrwt>
</event>
<event>
 4    1  0.5097315E-001  0.1208806E+03  0.7546771E-02  0.1241651E+00
         -2   -1    0    0    0  501 -0.00000000000E+00  0.00000000000E+00  0.79365889344E+02  0.79365889344E+02  0.00000000000E+00 0.  1.
          2   -1    0    0  501    0  0.00000000000E+00 -0.00000000000E+00 -0.45318937007E+03  0.45318937007E+03  0.00000000000E+00 0. -1.
         24    1    1    2    0    0 -0.27527692451E+02 -0.85948351361E+02 -0.39209147642E+03  0.41030212623E+03  0.80419002446E+02 0. -1.
        -24    1    1    2    0    0  0.27527692451E+02  0.85948351361E+02  0.18267995691E+02  0.12225313319E+03  0.80419002446E+02 0.  1.
<mgrwt>
<rscale>  0 0.12088056E+03</rscale>
<asrwt>0</asrwt>
<pdfrwt beam="1">  1        2 0.69721442E-01 0.12088056E+03</pdfrwt>
<pdfrwt beam="2">  1       -2 0.12210137E-01 0.12088056E+03</pdfrwt>
<totfact> 0.32283984E+03</totfact>
</mgrwt>
</event>
<event>
 4    1  0.5097315E-001  0.8098978E+02  0.7546771E-02  0.1326266E+00
          1   -1    0    0  501    0  0.00000000000E+00  0.00000000000E+00  0.38038883345E+02  0.38038883345E+02  0.00000000000E+00 0. -1.
         -1   -1    0    0    0  501 -0.00000000000E+00 -0.00000000000E+00 -0.17713638982E+03  0.17713638982E+03  0.00000000000E+00 0.  1.
         24    1    1    2    0    0 -0.81363888782E+01 -0.50918562995E+01 -0.87070980098E+02  0.11891467258E+03  0.80419002446E+02 0.  1.
        -24    1    1    2    0    0  0.81363888782E+01  0.50918562995E+01 -0.52026526380E+02  0.96260600591E+02  0.80419002446E+02 0.  0.
<mgrwt>
<rscale>  0 0.80989776E+02</rscale>
<asrwt>0</asrwt>
<pdfrwt beam="1">  1        1 0.58521359E-02 0.80989776E+02</pdfrwt>
<pdfrwt beam="2">  1       -1 0.27251752E-01 0.80989776E+02</pdfrwt>
<totfact> 0.14219344E+04</totfact>
</mgrwt>
</event>
<event>
 4    1  0.5097315E-001  0.9249442E+02  0.7546771E-02  0.1296921E+00
          1   -1    0    0  501    0  0.00000000000E+00  0.00000000000E+00  0.79930847048E+03  0.79930847048E+03  0.00000000000E+00 0. -1.
         -1   -1    0    0    0  501 -0.00000000000E+00 -0.00000000000E+00 -0.11713031380E+02  0.11713031380E+02  0.00000000000E+00 0.  1.
         24    1    1    2    0    0 -0.11903732546E+02  0.44116915903E+02  0.27473484283E+03  0.28988696234E+03  0.80419002446E+02 0.  1.
        -24    1    1    2    0    0  0.11903732546E+02 -0.44116915903E+02  0.51286059627E+03  0.52113453952E+03  0.80419002446E+02 0.  1.
<mgrwt>
<rscale>  0 0.92494416E+02</rscale>
<asrwt>0</asrwt>
<pdfrwt beam="1">  1        1 0.12297049E+00 0.92494416E+02</pdfrwt>
<pdfrwt beam="2">  1       -1 0.18020055E-02 0.92494416E+02</pdfrwt>
<totfact> 0.16987266E+04</totfact>
</mgrwt>
</event>
<event>
 4    1  0.5097315E-001  0.8576668E+02  0.7546771E-02  0.1313440E+00
         -1   -1    0    0    0  501 -0.00000000000E+00  0.00000000000E+00  0.36759831637E+01  0.36759831637E+01  0.00000000000E+00 0.  1.
          1   -1    0    0  501    0  0.00000000000E+00 -0.00000000000E+00 -0.20226722918E+04  0.20226722918E+04  0.00000000000E+00 0. -1.
         24    1    1    2    0    0  0.17748208582E+02  0.23952228364E+02 -0.90480836994E+03  0.90886418701E+03  0.80419002446E+02 0. -1.
        -24    1    1    2    0    0 -0.17748208582E+02 -0.23952228364E+02 -0.11141879387E+04  0.11174840880E+04  0.80419002446E+02 0.  1.
<mgrwt>
<rscale>  0 0.85766684E+02</rscale>
<asrwt>0</asrwt>
<pdfrwt beam="1">  1        1 0.31118027E+00 0.85766684E+02</pdfrwt>
<pdfrwt beam="2">  1       -1 0.56553603E-03 0.85766684E+02</pdfrwt>
<totfact> 0.13259690E+04</totfact>
</mgrwt>
</event>
<event>
 4    1  0.5097315E-001  0.9928601E+02  0.7546771E-02  0.1281805E+00
         -2   -1    0    0    0  501 -0.00000000000E+00  0.00000000000E+00  0.27818534083E+03  0.27818534083E+03  0.00000000000E+00 0.  1.
          2   -1    0    0  501    0  0.00000000000E+00 -0.00000000000E+00 -0.36516371676E+02  0.36516371676E+02  0.00000000000E+00 0. -1.
         24    1    1    2    0    0 -0.53410127641E+02 -0.23191661035E+02  0.93766321318E+02  0.13656439450E+03  0.80419002446E+02 0.  1.
        -24    1    1    2    0    0  0.53410127641E+02  0.23191661035E+02  0.14790264784E+03  0.17813731801E+03  0.80419002446E+02 0.  0.
<mgrwt>
<rscale>  0 0.99286005E+02</rscale>
<asrwt>0</asrwt>
<pdfrwt beam="1">  1        2 0.56179035E-02 0.99286005E+02</pdfrwt>
<pdfrwt beam="2">  1       -2 0.42797743E-01 0.99286005E+02</pdfrwt>
<totfact> 0.64686074E+03</totfact>
</mgrwt>
</event>
<event>
 4    1  0.5097315E-001  0.1011167E+03  0.7546771E-02  0.1277965E+00
         -2   -1    0    0    0  501 -0.00000000000E+00  0.00000000000E+00  0.42622306030E+02  0.42622306030E+02  0.00000000000E+00 0.  1.
          2   -1    0    0  501    0  0.00000000000E+00 -0.00000000000E+00 -0.68869240014E+03  0.68869240014E+03  0.00000000000E+00 0. -1.
         24    1    1    2    0    0  0.54377331488E+02 -0.28292853501E+02 -0.61821716059E+03  0.62643200217E+03  0.80419002446E+02 0. -1.
        -24    1    1    2    0    0 -0.54377331488E+02  0.28292853501E+02 -0.27852933522E+02  0.10488270400E+03  0.80419002446E+02 0.  1.
<mgrwt>
<rscale>  0 0.10111674E+03</rscale>
<asrwt>0</asrwt>
<pdfrwt beam="1">  1        2 0.10595268E+00 0.10111674E+03</pdfrwt>
<pdfrwt beam="2">  1       -2 0.65572778E-02 0.10111674E+03</pdfrwt>
<totfact> 0.52629549E+03</totfact>
</mgrwt>
</event>
<event>
 4    1  0.5097315E-001  0.1140186E+03  0.7546771E-02  0.1253304E+00
         -4   -1    0    0    0  501 -0.00000000000E+00  0.00000000000E+00  0.82674326779E+01  0.82674326779E+01  0.00000000000E+00 0.  1.
          4   -1    0    0  501    0  0.00000000000E+00 -0.00000000000E+00 -0.16665373089E+04  0.16665373089E+04  0.00000000000E+00 0. -1.
         24    1    1    2    0    0  0.78186656020E+02 -0.20490513105E+02 -0.10280935156E+04  0.10343966875E+04  0.80419002446E+02 0. -1.
        -24    1    1    2    0    0 -0.78186656020E+02  0.20490513105E+02 -0.63017636068E+03  0.64040805415E+03  0.80419002446E+02 0.  1.
<mgrwt>
<rscale>  0 0.11401855E+03</rscale>
<asrwt>0</asrwt>
<pdfrwt beam="1">  1        4 0.25639064E+00 0.11401855E+03</pdfrwt>
<pdfrwt beam="2">  1       -4 0.12719113E-02 0.11401855E+03</pdfrwt>
<totfact> 0.22416878E+02</totfact>
</mgrwt>
</event>
<event>
 4    1  0.5097315E-001  0.8120395E+02  0.7546771E-02  0.1325669E+00
          2   -1    0    0  501    0  0.00000000000E+00  0.00000000000E+00  0.54856502126E+02  0.54856502126E+02  0.00000000000E+00 0. -1.
         -2   -1    0    0    0  501 -0.00000000000E+00 -0.00000000000E+00 -0.13590279199E+03  0.13590279199E+03  0.00000000000E+00 0.  1.
         24    1    1    2    0    0  0.11237642681E+02  0.76232206790E+00 -0.81080932041E+01  0.81607737855E+02  0.80419002446E+02 0. -1.
        -24    1    1    2    0    0 -0.11237642681E+02 -0.76232206790E+00 -0.72938196658E+02  0.10915155626E+03  0.80419002446E+02 0.  0.
<mgrwt>
<rscale>  0 0.81203951E+02</rscale>
<asrwt>0</asrwt>
<pdfrwt beam="1">  1        2 0.84394620E-02 0.81203951E+02</pdfrwt>
<pdfrwt beam="2">  1       -2 0.20908121E-01 0.81203951E+02</pdfrwt>
<totfact> 0.13650604E+04</totfact>
</mgrwt>
</event>
<event>
 4    1  0.5097315E-001  0.9278816E+02  0.7546771E-02  0.1296237E+00
          1   -1    0    0  501    0  0.00000000000E+00  0.00000000000E+00  0.24590378471E+02  0.24590378471E+02  0.00000000000E+00 0. -1.
         -1   -1    0    0    0  501 -0.00000000000E+00 -0.00000000000E+00 -0.36422793676E+03  0.36422793676E+03  0.00000000000E+00 0.  1.
         24    1    1    2    0    0 -0.12940662948E+02 -0.44440593704E+02 -0.20807696993E+03  0.22782815562E+03  0.80419002446E+02 0.  1.
        -24    1    1    2    0    0  0.12940662948E+02  0.44440593704E+02 -0.13156058836E+03  0.16099015961E+03  0.80419002446E+02 0. -1.
<mgrwt>
<rscale>  0 0.92788162E+02</rscale>
<asrwt>0</asrwt>
<pdfrwt beam="1">  1        1 0.37831353E-02 0.92788162E+02</pdfrwt>
<pdfrwt beam="2">  1       -1 0.56035065E-01 0.92788162E+02</pdfrwt>
<totfact> 0.74624149E+03</totfact>
</mgrwt>
</event>
<event>
 4    1  0.5097315E-001  0.8087348E+02  0.7546771E-02  0.1326591E+00
          1   -1    0    0  501    0  0.00000000000E+00  0.00000000000E+00  0.43254051435E+03  0.43254051435E+03  0.00000000000E+00 0. -1.
         -1   -1    0    0    0  501 -0.00000000000E+00 -0.00000000000E+00 -0.27847823160E+02  0.27847823160E+02  0.00000000000E+00 0.  1.
         24    1    1    2    0    0  0.52783299972E+01 -0.67411267598E+01  0.46729803085E+02  0.93403393987E+02  0.80419002446E+02 0.  1.
        -24    1    1    2    0    0 -0.52783299972E+01  0.67411267598E+01  0.35796288810E+03  0.36698494352E+03  0.80419002446E+02 0. -1.
<mgrwt>
<rscale>  0 0.80873478E+02</rscale>
<asrwt>0</asrwt>
<pdfrwt beam="1">  1        1 0.66544689E-01 0.80873478E+02</pdfrwt>
<pdfrwt beam="2">  1       -1 0.42842808E-02 0.80873478E+02</pdfrwt>
<totfact> 0.11029766E+04</totfact>
</mgrwt>
</event>
<event>
 4    1  0.5097315E-001  0.8566157E+02  0.7546771E-02  0.1313711E+00
          1   -1    0    0  501    0  0.00000000000E+00  0.00000000000E+00  0.35498024372E+03  0.35498024372E+03  0.00000000000E+00 0. -1.
         -1   -1    0    0    0  501 -0.00000000000E+00 -0.00000000000E+00 -0.40630754374E+02  0.40630754374E+02  0.00000000000E+00 0.  1.
         24    1    1    2    0    0  0.28035655306E+02 -0.92027247418E+01  0.18535807198E+02  0.87644054071E+02  0.80419002446E+02 0.  1.
        -24    1    1    2    0    0 -0.28035655306E+02  0.92027247418E+01  0.29581368215E+03  0.30796694403E+03  0.80419002446E+02 0. -1.
<mgrwt>
<rscale>  0 0.85661567E+02</rscale>
<asrwt>0</asrwt>
<pdfrwt beam="1">  1        1 0.54612343E-01 0.85661567E+02</pdfrwt>
<pdfrwt beam="2">  1       -1 0.62508855E-02 0.85661567E+02</pdfrwt>
<totfact> 0.81482338E+03</totfact>
</mgrwt>
</event>
<event>
 4    1  0.5097315E-001  0.8358564E+02  0.7546771E-02  0.1319173E+00
         -2   -1    0    0    0  501 -0.00000000000E+00  0.00000000000E+00  0.52857733347E+02  0.52857733347E+02  0.00000000000E+00 0.  1.
          2   -1    0    0  501    0  0.00000000000E+00 -0.00000000000E+00 -0.10583338213E+04  0.10583338213E+04  0.00000000000E+00 0. -1.
         24    1    1    2    0    0  0.21162398287E+02  0.84555554922E+01 -0.10224825887E+04  0.10258933686E+04  0.80419002446E+02 0. -1.
        -24    1    1    2    0    0 -0.21162398287E+02 -0.84555554922E+01  0.17006500780E+02  0.85298186048E+02  0.80419002446E+02 0.  1.
<mgrwt>
<rscale>  0 0.83585642E+02</rscale>
<asrwt>0</asrwt>
<pdfrwt beam="1">  1        2 0.16282058E+00 0.83585642E+02</pdfrwt>
<pdfrwt beam="2">  1       -2 0.81319593E-02 0.83585642E+02</pdfrwt>
<totfact> 0.21904561E+03</totfact>
</mgrwt>
</event>
<event>
 4    1  0.5097315E-001  0.1038628E+03  0.7546771E-02  0.1272377E+00
          1   -1    0    0  501    0  0.00000000000E+00  0.00000000000E+00  0.32697688488E+03  0.32697688488E+03  0.00000000000E+00 0. -1.
         -1   -1    0    0    0  501 -0.00000000000E+00 -0.00000000000E+00 -0.37650238877E+02  0.37650238877E+02  0.00000000000E+00 0.  1.
         24    1    1    2    0    0  0.14338261074E+02  0.64145722680E+02  0.80532502837E+02  0.13142663138E+03  0.80419002446E+02 0.  1.
        -24    1    1    2    0    0 -0.14338261074E+02 -0.64145722680E+02  0.20879414317E+03  0.23320049237E+03  0.80419002446E+02 0. -1.
<mgrwt>
<rscale>  0 0.10386277E+03</rscale>
<asrwt>0</asrwt>
<pdfrwt beam="1">  1        1 0.50304134E-01 0.10386277E+03</pdfrwt>
<pdfrwt beam="2">  1       -1 0.57923447E-02 0.10386277E+03</pdfrwt>
<totfact> 0.10247989E+04</totfact>
</mgrwt>
</event>
<event>
 4    1  0.5097315E-001  0.8816844E+02  0.7546771E-02  0.1307349E+00
          1   -1    0    0  501    0  0.00000000000E+00  0.00000000000E+00  0.36054762172E+03  0.36054762172E+03  0.00000000000E+00 0. -1.
         -1   -1    0    0    0  501 -0.00000000000E+00 -0.00000000000E+00 -0.12350293929E+03  0.12350293929E+03  0.00000000000E+00 0.  1.
         24    1    1    2    0    0  0.31070789816E+02 -0.18467902492E+02 -0.10136442165E+03  0.13434440566E+03  0.80419002446E+02 0.  1.
        -24    1    1    2    0    0 -0.31070789816E+02  0.18467902492E+02  0.33840910409E+03  0.34970615534E+03  0.80419002446E+02 0. -1.
<mgrwt>
<rscale>  0 0.88168437E+02</rscale>
<asrwt>0</asrwt>
<pdfrwt beam="1">  1        1 0.55468865E-01 0.88168437E+02</pdfrwt>
<pdfrwt beam="2">  1       -1 0.19000452E-01 0.88168437E+02</pdfrwt>
<totfact> 0.14792413E+03</totfact>
</mgrwt>
</event>
<event>
 4    1  0.5097315E-001  0.8481330E+02  0.7546771E-02  0.1315922E+00
         -2   -1    0    0    0  501 -0.00000000000E+00  0.00000000000E+00  0.29665751142E+03  0.29665751142E+03  0.00000000000E+00 0.  1.
          2   -1    0    0  501    0  0.00000000000E+00 -0.00000000000E+00 -0.24367986743E+02  0.24367986743E+02  0.00000000000E+00 0. -1.
         24    1    1    2    0    0  0.26522768465E+02 -0.47562770235E+01  0.12487259355E+03  0.15095184660E+03  0.80419002446E+02 0. -1.
        -24    1    1    2    0    0 -0.26522768465E+02  0.47562770235E+01  0.14741693114E+03  0.17007365157E+03  0.80419002446E+02 0.  0.
<mgrwt>
<rscale>  0 0.84813297E+02</rscale>
<asrwt>0</asrwt>
<pdfrwt beam="1">  1        2 0.37489213E-02 0.84813297E+02</pdfrwt>
<pdfrwt beam="2">  1       -2 0.45639615E-01 0.84813297E+02</pdfrwt>
<totfact> 0.95127740E+03</totfact>
</mgrwt>
</event>
<event>
 4    1  0.5097315E-001  0.8290897E+02  0.7546771E-02  0.1320993E+00
         -4   -1    0    0    0  501 -0.00000000000E+00  0.00000000000E+00  0.46523086244E+02  0.46523086244E+02  0.00000000000E+00 0.  1.
          4   -1    0    0  501    0  0.00000000000E+00 -0.00000000000E+00 -0.34196194176E+03  0.34196194176E+03  0.00000000000E+00 0. -1.
         24    1    1    2    0    0  0.10054846558E+02 -0.17480866186E+02 -0.29410245041E+03  0.30556529239E+03  0.80419002446E+02 0. -1.
        -24    1    1    2    0    0 -0.10054846558E+02  0.17480866186E+02 -0.13364051105E+01  0.82919735618E+02  0.80419002446E+02 0.  1.
<mgrwt>
<rscale>  0 0.82908966E+02</rscale>
<asrwt>0</asrwt>
<pdfrwt beam="1">  1        4 0.52609529E-01 0.82908966E+02</pdfrwt>
<pdfrwt beam="2">  1       -4 0.71573979E-02 0.82908966E+02</pdfrwt>
<totfact> 0.68725099E+02</totfact>
</mgrwt>
</event>
<event>
 4    1  0.5097315E-001  0.9210994E+02  0.7546771E-02  0.1297821E+00
          2   -1    0    0  501    0  0.00000000000E+00  0.00000000000E+00  0.19662436252E+03  0.19662436252E+03  0.00000000000E+00 0. -1.
         -2   -1    0    0    0  501 -0.00000000000E+00 -0.00000000000E+00 -0.74124940308E+02  0.74124940308E+02  0.00000000000E+00 0.  1.
         24    1    1    2    0    0  0.30991330376E+01 -0.44804244446E+02  0.14876098173E+03  0.17496877032E+03  0.80419002446E+02 0. -1.
        -24    1    1    2    0    0 -0.30991330376E+01  0.44804244446E+02 -0.26261559517E+02  0.95780532514E+02  0.80419002446E+02 0.  1.
<mgrwt>
<rscale>  0 0.92109939E+02</rscale>
<asrwt>0</asrwt>
<pdfrwt beam="1">  1        2 0.30249902E-01 0.92109939E+02</pdfrwt>
<pdfrwt beam="2">  1       -2 0.11403837E-01 0.92109939E+02</pdfrwt>
<totfact> 0.85523721E+03</totfact>
</mgrwt>
</event>
<event>
 4    1  0.5097315E-001  0.8752627E+02  0.7546771E-02  0.1308955E+00
         -3   -1    0    0    0  501 -0.00000000000E+00  0.00000000000E+00  0.61084619827E+03  0.61084619827E+03  0.00000000000E+00 0.  1.
          3   -1    0    0  501    0  0.00000000000E+00 -0.00000000000E+00 -0.15855681165E+02  0.15855681165E+02  0.00000000000E+00 0. -1.
         24    1    1    2    0    0 -0.25881821911E+02  0.22885873068E+02  0.44075864928E+03  0.44936514636E+03  0.80419002446E+02 0.  0.
        -24    1    1    2    0    0  0.25881821911E+02 -0.22885873068E+02  0.15423186782E+03  0.17733673308E+03  0.80419002446E+02 0.  0.
<mgrwt>
<rscale>  0 0.87526269E+02</rscale>
<asrwt>0</asrwt>
<pdfrwt beam="1">  1        3 0.24393360E-02 0.87526269E+02</pdfrwt>
<pdfrwt beam="2">  1       -3 0.93976320E-01 0.87526269E+02</pdfrwt>
<totfact> 0.15523781E+03</totfact>
</mgrwt>
</event>
<event>
 4    1  0.5097315E-001  0.9748698E+02  0.7546771E-02  0.1285671E+00
         -1   -1    0    0    0  501 -0.00000000000E+00  0.00000000000E+00  0.14606940919E+02  0.14606940919E+02  0.00000000000E+00 0.  1.
          1   -1    0    0  501    0  0.00000000000E+00 -0.00000000000E+00 -0.93980130830E+03  0.93980130830E+03  0.00000000000E+00 0. -1.
         24    1    1    2    0    0 -0.40987236024E+02  0.36831259659E+02 -0.19789110742E+03  0.22060054750E+03  0.80419002446E+02 0.  1.
        -24    1    1    2    0    0  0.40987236024E+02 -0.36831259659E+02 -0.72730325996E+03  0.73380770172E+03  0.80419002446E+02 0. -1.
<mgrwt>
<rscale>  0 0.97486979E+02</rscale>
<asrwt>0</asrwt>
<pdfrwt beam="1">  1        1 0.14458482E+00 0.97486979E+02</pdfrwt>
<pdfrwt beam="2">  1       -1 0.22472216E-02 0.97486979E+02</pdfrwt>
<totfact> 0.96925703E+03</totfact>
</mgrwt>
</event>
<event>
 4    1  0.5097315E-001  0.9183310E+02  0.7546771E-02  0.1298472E+00
          2   -1    0    0  501    0  0.00000000000E+00  0.00000000000E+00  0.13667200461E+03  0.13667200461E+03  0.00000000000E+00 0. -1.
         -2   -1    0    0    0  501 -0.00000000000E+00 -0.00000000000E+00 -0.14915738726E+03  0.14915738726E+03  0.00000000000E+00 0.  1.
         24    1    1    2    0    0  0.10815354601E+02  0.43001507733E+02  0.10318843239E+03  0.13813460861E+03  0.80419002446E+02 0. -1.
        -24    1    1    2    0    0 -0.10815354601E+02 -0.43001507733E+02 -0.11567381504E+03  0.14769478326E+03  0.80419002446E+02 0.  1.
<mgrwt>
<rscale>  0 0.91833096E+02</rscale>
<asrwt>0</asrwt>
<pdfrwt beam="1">  1        2 0.21026462E-01 0.91833096E+02</pdfrwt>
<pdfrwt beam="2">  1       -2 0.22947290E-01 0.91833096E+02</pdfrwt>
<totfact> 0.40494028E+03</totfact>
</mgrwt>
</event>
<event>
 4    1  0.5097315E-001  0.8083782E+02  0.7546771E-02  0.1326690E+00
          2   -1    0    0  501    0  0.00000000000E+00  0.00000000000E+00  0.54316818290E+03  0.54316818290E+03  0.00000000000E+00 0. -1.
         -2   -1    0    0    0  501 -0.00000000000E+00 -0.00000000000E+00 -0.12769800293E+02  0.12769800293E+02  0.00000000000E+00 0.  1.
         24    1    1    2    0    0 -0.38927928865E+01  0.72376419542E+01  0.33206800847E+03  0.34176587820E+03  0.80419002446E+02 0.  0.
        -24    1    1    2    0    0  0.38927928865E+01 -0.72376419542E+01  0.19833037413E+03  0.21417210499E+03  0.80419002446E+02 0.  0.
<mgrwt>
<rscale>  0 0.80837821E+02</rscale>
<asrwt>0</asrwt>
<pdfrwt beam="1">  1        2 0.83564318E-01 0.80837821E+02</pdfrwt>
<pdfrwt beam="2">  1       -2 0.19645851E-02 0.80837821E+02</pdfrwt>
<totfact> 0.39466764E+04</totfact>
</mgrwt>
</event>
<event>
 4    1  0.5097315E-001  0.2426763E+03  0.7546771E-02  0.1118023E+00
         -3   -1    0    0    0  501 -0.00000000000E+00  0.00000000000E+00  0.57392678089E+03  0.57392678089E+03  0.00000000000E+00 0.  1.
          3   -1    0    0  501    0  0.00000000000E+00 -0.00000000000E+00 -0.13639633718E+03  0.13639633718E+03  0.00000000000E+00 0. -1.
         24    1    1    2    0    0  0.20028532015E+03 -0.11095190188E+03  0.42005796932E+02  0.24628486947E+03  0.80419002446E+02 0. -1.
        -24    1    1    2    0    0 -0.20028532015E+03  0.11095190188E+03  0.39552464678E+03  0.46403824860E+03  0.80419002446E+02 0.  1.
<mgrwt>
<rscale>  0 0.24267625E+03</rscale>
<asrwt>0</asrwt>
<pdfrwt beam="1">  1        3 0.20984052E-01 0.24267629E+03</pdfrwt>
<pdfrwt beam="2">  1       -3 0.88296427E-01 0.24267629E+03</pdfrwt>
<totfact> 0.61203312E+01</totfact>
</mgrwt>
</event>
<event>
 4    1  0.5097315E-001  0.1420310E+03  0.7546771E-02  0.1210622E+00
          1   -1    0    0  501    0  0.00000000000E+00  0.00000000000E+00  0.13833496499E+04  0.13833496499E+04  0.00000000000E+00 0. -1.
         -1   -1    0    0    0  501 -0.00000000000E+00 -0.00000000000E+00 -0.34316401270E+02  0.34316401270E+02  0.00000000000E+00 0.  1.
         24    1    1    2    0    0 -0.94874089797E+02  0.68589330735E+02  0.13699160384E+03  0.19733095217E+03  0.80419002446E+02 0.  1.
        -24    1    1    2    0    0  0.94874089797E+02 -0.68589330735E+02  0.12120416448E+04  0.12203350990E+04  0.80419002446E+02 0. -1.
<mgrwt>
<rscale>  0 0.14203100E+03</rscale>
<asrwt>0</asrwt>
<pdfrwt beam="1">  1        1 0.21282298E+00 0.14203100E+03</pdfrwt>
<pdfrwt beam="2">  1       -1 0.52794474E-02 0.14203100E+03</pdfrwt>
<totfact> 0.13940758E+03</totfact>
</mgrwt>
</event>
<event>
 4    1  0.5097315E-001  0.8942710E+02  0.7546771E-02  0.1304245E+00
         -2   -1    0    0    0  501 -0.00000000000E+00  0.00000000000E+00  0.10472727652E+04  0.10472727652E+04  0.00000000000E+00 0.  1.
          2   -1    0    0  501    0  0.00000000000E+00 -0.00000000000E+00 -0.17915994209E+02  0.17915994209E+02  0.00000000000E+00 0. -1.
         24    1    1    2    0    0 -0.94224750151E+01 -0.37963234358E+02  0.11124866273E+03  0.14273566867E+03  0.80419002446E+02 0. -1.
        -24    1    1    2    0    0  0.94224750151E+01  0.37963234358E+02  0.91810810826E+03  0.92245309073E+03  0.80419002446E+02 0.  1.
<mgrwt>
<rscale>  0 0.89427100E+02</rscale>
<asrwt>0</asrwt>
<pdfrwt beam="1">  1        2 0.27563076E-02 0.89427100E+02</pdfrwt>
<pdfrwt beam="2">  1       -2 0.16111884E+00 0.89427100E+02</pdfrwt>
<totfact> 0.87481742E+02</totfact>
</mgrwt>
</event>
<event>
 4    1  0.5097315E-001  0.8933985E+02  0.7546771E-02  0.1304458E+00
         -2   -1    0    0    0  501 -0.00000000000E+00  0.00000000000E+00  0.21252496494E+02  0.21252496494E+02  0.00000000000E+00 0.  1.
          2   -1    0    0  501    0  0.00000000000E+00 -0.00000000000E+00 -0.46725327659E+03  0.46725327659E+03  0.00000000000E+00 0. -1.
         24    1    1    2    0    0  0.34048414029E+02  0.18844046086E+02 -0.33120105745E+03  0.34303899047E+03  0.80419002446E+02 0. -1.
        -24    1    1    2    0    0 -0.34048414029E+02 -0.18844046086E+02 -0.11479972265E+03  0.14546678262E+03  0.80419002446E+02 0.  1.
<mgrwt>
<rscale>  0 0.89339848E+02</rscale>
<asrwt>0</asrwt>
<pdfrwt beam="1">  1        2 0.71885109E-01 0.89339848E+02</pdfrwt>
<pdfrwt beam="2">  1       -2 0.32696153E-02 0.89339848E+02</pdfrwt>
<totfact> 0.22508698E+04</totfact>
</mgrwt>
</event>
<event>
 4    1  0.5097315E-001  0.9810183E+02  0.7546771E-02  0.1284339E+00
         -2   -1    0    0    0  501 -0.00000000000E+00  0.00000000000E+00  0.71964984717E+02  0.71964984717E+02  0.00000000000E+00 0.  1.
          2   -1    0    0  501    0  0.00000000000E+00 -0.00000000000E+00 -0.24550696460E+03  0.24550696460E+03  0.00000000000E+00 0. -1.
         24    1    1    2    0    0  0.34950778030E+02 -0.43990860751E+02 -0.19387781525E+03  0.21728455056E+03  0.80419002446E+02 0.  1.
        -24    1    1    2    0    0 -0.34950778030E+02  0.43990860751E+02  0.20335835365E+02  0.10018739875E+03  0.80419002446E+02 0.  0.
<mgrwt>
<rscale>  0 0.98101828E+02</rscale>
<asrwt>0</asrwt>
<pdfrwt beam="1">  1        2 0.37770303E-01 0.98101828E+02</pdfrwt>
<pdfrwt beam="2">  1       -2 0.11071536E-01 0.98101828E+02</pdfrwt>
<totfact> 0.71139642E+03</totfact>
</mgrwt>
</event>
<event>
 4    1  0.5097315E-001  0.8734195E+02  0.7546771E-02  0.1309419E+00
          2   -1    0    0  501    0  0.00000000000E+00  0.00000000000E+00  0.17922715385E+04  0.17922715385E+04  0.00000000000E+00 0. -1.
         -2   -1    0    0    0  501 -0.00000000000E+00 -0.00000000000E+00 -0.43832886202E+01  0.43832886202E+01  0.00000000000E+00 0.  1.
         24    1    1    2    0    0  0.29082760462E+02  0.17764936880E+02  0.10467901847E+04  0.10504276780E+04  0.80419002446E+02 0. -1.
        -24    1    1    2    0    0 -0.29082760462E+02 -0.17764936880E+02  0.74109806515E+03  0.74622714911E+03  0.80419002446E+02 0.  0.
<mgrwt>
<rscale>  0 0.87341948E+02</rscale>
<asrwt>0</asrwt>
<pdfrwt beam="1">  1        2 0.27573350E+00 0.87341948E+02</pdfrwt>
<pdfrwt beam="2">  1       -2 0.67435353E-03 0.87341948E+02</pdfrwt>
<totfact> 0.33511850E+04</totfact>
</mgrwt>
</event>
<event>
 4    1  0.5097315E-001  0.8791994E+02  0.7546771E-02  0.1307969E+00
         -2   -1    0    0    0  501 -0.00000000000E+00  0.00000000000E+00  0.89642346675E+01  0.89642346675E+01  0.00000000000E+00 0.  1.
          2   -1    0    0  501    0  0.00000000000E+00 -0.00000000000E+00 -0.88190025950E+03  0.88190025950E+03  0.00000000000E+00 0. -1.
         24    1    1    2    0    0 -0.35532664473E+02 -0.35351444258E+00 -0.37007245412E+03  0.38037288609E+03  0.80419002446E+02 0. -1.
        -24    1    1    2    0    0  0.35532664473E+02  0.35351444258E+00 -0.50286357071E+03  0.51049160807E+03  0.80419002446E+02 0.  0.
<mgrwt>
<rscale>  0 0.87919924E+02</rscale>
<asrwt>0</asrwt>
<pdfrwt beam="1">  1        2 0.13567694E+00 0.87919935E+02</pdfrwt>
<pdfrwt beam="2">  1       -2 0.13791132E-02 0.87919935E+02</pdfrwt>
<totfact> 0.37524468E+04</totfact>
</mgrwt>
</event>
<event>
 4    1  0.5097315E-001  0.8747358E+02  0.7546771E-02  0.1309088E+00
          1   -1    0    0  501    0  0.00000000000E+00  0.00000000000E+00  0.85694802455E+03  0.85694802455E+03  0.00000000000E+00 0. -1.
         -1   -1    0    0    0  501 -0.00000000000E+00 -0.00000000000E+00 -0.34990684875E+02  0.34990684875E+02  0.00000000000E+00 0.  1.
         24    1    1    2    0    0 -0.10491094929E+02  0.32777239569E+02  0.26093970111E+02  0.91282647514E+02  0.80419002446E+02 0.  1.
        -24    1    1    2    0    0  0.10491094929E+02 -0.32777239569E+02  0.79586336957E+03  0.80065606192E+03  0.80419002446E+02 0. -1.
<mgrwt>
<rscale>  0 0.87473576E+02</rscale>
<asrwt>0</asrwt>
<pdfrwt beam="1">  1        1 0.13183814E+00 0.87473576E+02</pdfrwt>
<pdfrwt beam="2">  1       -1 0.53831829E-02 0.87473576E+02</pdfrwt>
<totfact> 0.31435671E+03</totfact>
</mgrwt>
</event>
<event>
 4    1  0.5097315E-001  0.9984740E+02  0.7546771E-02  0.1280617E+00
          2   -1    0    0  501    0  0.00000000000E+00  0.00000000000E+00  0.98501083682E+03  0.98501083682E+03  0.00000000000E+00 0. -1.
         -2   -1    0    0    0  501 -0.00000000000E+00 -0.00000000000E+00 -0.13593909513E+02  0.13593909513E+02  0.00000000000E+00 0.  1.
         24    1    1    2    0    0  0.48288488840E+02  0.34212716033E+02  0.73807100157E+03  0.74479413760E+03  0.80419002446E+02 0. -1.
        -24    1    1    2    0    0 -0.48288488840E+02 -0.34212716033E+02  0.23334592575E+03  0.25381060874E+03  0.80419002446E+02 0.  1.
<mgrwt>
<rscale>  0 0.99847404E+02</rscale>
<asrwt>0</asrwt>
<pdfrwt beam="1">  1        2 0.15154007E+00 0.99847404E+02</pdfrwt>
<pdfrwt beam="2">  1       -2 0.20913715E-02 0.99847404E+02</pdfrwt>
<totfact> 0.18105119E+04</totfact>
</mgrwt>
</event>
<event>
 4    1  0.5097315E-001  0.9322761E+02  0.7546771E-02  0.1295219E+00
          2   -1    0    0  501    0  0.00000000000E+00  0.00000000000E+00  0.71745355287E+03  0.71745355287E+03  0.00000000000E+00 0. -1.
         -2   -1    0    0    0  501 -0.00000000000E+00 -0.00000000000E+00 -0.25904867564E+02  0.25904867564E+02  0.00000000000E+00 0.  1.
         24    1    1    2    0    0  0.25816464641E+02 -0.39467420842E+02  0.74586593498E+02  0.11939239104E+03  0.80419002446E+02 0.  0.
        -24    1    1    2    0    0 -0.25816464641E+02  0.39467420842E+02  0.61696209181E+03  0.62396602939E+03  0.80419002446E+02 0. -1.
<mgrwt>
<rscale>  0 0.93227599E+02</rscale>
<asrwt>0</asrwt>
<pdfrwt beam="1">  1        2 0.11037745E+00 0.93227611E+02</pdfrwt>
<pdfrwt beam="2">  1       -2 0.39853648E-02 0.93227611E+02</pdfrwt>
<totfact> 0.10483811E+04</totfact>
</mgrwt>
</event>
<event>
 4    1  0.5097315E-001  0.1047038E+03  0.7546771E-02  0.1270704E+00
          3   -1    0    0  501    0  0.00000000000E+00  0.00000000000E+00  0.31524413053E+03  0.31524413053E+03  0.00000000000E+00 0. -1.
         -3   -1    0    0    0  501 -0.00000000000E+00 -0.00000000000E+00 -0.35550196800E+02  0.35550196800E+02  0.00000000000E+00 0.  1.
         24    1    1    2    0    0 -0.39722610186E+02 -0.54016503493E+02  0.16573313356E+03  0.19603661884E+03  0.80419002446E+02 0.  0.
        -24    1    1    2    0    0  0.39722610186E+02  0.54016503493E+02  0.11396080017E+03  0.15475770850E+03  0.80419002446E+02 0. -1.
<mgrwt>
<rscale>  0 0.10470381E+03</rscale>
<asrwt>0</asrwt>
<pdfrwt beam="1">  1        3 0.48499095E-01 0.10470382E+03</pdfrwt>
<pdfrwt beam="2">  1       -3 0.54692613E-02 0.10470382E+03</pdfrwt>
<totfact> 0.18372627E+03</totfact>
</mgrwt>
</event>
<event>
 4    1  0.5097315E-001  0.1045057E+03  0.7546771E-02  0.1271096E+00
          2   -1    0    0  501    0  0.00000000000E+00  0.00000000000E+00  0.33543731981E+03  0.33543731981E+03  0.00000000000E+00 0. -1.
         -2   -1    0    0    0  501 -0.00000000000E+00 -0.00000000000E+00 -0.39652178787E+02  0.39652178787E+02  0.00000000000E+00 0.  1.
         24    1    1    2    0    0 -0.55365732104E+02  0.37267546685E+02  0.22721512833E+03  0.25009631109E+03  0.80419002446E+02 0. -1.
        -24    1    1    2    0    0  0.55365732104E+02 -0.37267546685E+02  0.68570012699E+02  0.12499318751E+03  0.80419002446E+02 0.  1.
<mgrwt>
<rscale>  0 0.10450574E+03</rscale>
<asrwt>0</asrwt>
<pdfrwt beam="1">  1        2 0.51605740E-01 0.10450574E+03</pdfrwt>
<pdfrwt beam="2">  1       -2 0.61003354E-02 0.10450574E+03</pdfrwt>
<totfact> 0.12878847E+04</totfact>
</mgrwt>
</event>
<event>
 4    1  0.5097315E-001  0.9195581E+02  0.7546771E-02  0.1298183E+00
         -2   -1    0    0    0  501 -0.00000000000E+00  0.00000000000E+00  0.48566631520E+01  0.48566631520E+01  0.00000000000E+00 0.  1.
          2   -1    0    0  501    0  0.00000000000E+00 -0.00000000000E+00 -0.24630490288E+04  0.24630490288E+04  0.00000000000E+00 0. -1.
         24    1    1    2    0    0 -0.40984584072E+01 -0.44405608307E+02 -0.18971621063E+04  0.18993893569E+04  0.80419002446E+02 0. -1.
        -24    1    1    2    0    0  0.40984584072E+01  0.44405608307E+02 -0.56103025936E+03  0.56851633511E+03  0.80419002446E+02 0.  1.
<mgrwt>
<rscale>  0 0.91955812E+02</rscale>
<asrwt>0</asrwt>
<pdfrwt beam="1">  1        2 0.37893069E+00 0.91955812E+02</pdfrwt>
<pdfrwt beam="2">  1       -2 0.74717880E-03 0.91955812E+02</pdfrwt>
<totfact> 0.13282644E+04</totfact>
</mgrwt>
</event>
<event>
 4    1  0.5097315E-001  0.9843644E+02  0.7546771E-02  0.1283619E+00
         -2   -1    0    0    0  501 -0.00000000000E+00  0.00000000000E+00  0.87960813400E+01  0.87960813400E+01  0.00000000000E+00 0.  1.
          2   -1    0    0  501    0  0.00000000000E+00 -0.00000000000E+00 -0.11628192971E+04  0.11628192971E+04  0.00000000000E+00 0. -1.
         24    1    1    2    0    0 -0.31932264293E+02 -0.46934452313E+02 -0.44259367619E+03  0.45340808382E+03  0.80419002446E+02 0.  0.
        -24    1    1    2    0    0  0.31932264293E+02  0.46934452313E+02 -0.71142953961E+03  0.71820729466E+03  0.80419002446E+02 0.  0.
<mgrwt>
<rscale>  0 0.98436430E+02</rscale>
<asrwt>0</asrwt>
<pdfrwt beam="1">  1        2 0.17889522E+00 0.98436442E+02</pdfrwt>
<pdfrwt beam="2">  1       -2 0.13532437E-02 0.98436442E+02</pdfrwt>
<totfact> 0.26723771E+04</totfact>
</mgrwt>
</event>
<event>
 4    1  0.5097315E-001  0.1072637E+03  0.7546771E-02  0.1265723E+00
         -2   -1    0    0    0  501 -0.00000000000E+00  0.00000000000E+00  0.90997930722E+01  0.90997930722E+01  0.00000000000E+00 0.  1.
          2   -1    0    0  501    0  0.00000000000E+00 -0.00000000000E+00 -0.15847964040E+04  0.15847964040E+04  0.00000000000E+00 0. -1.
         24    1    1    2    0    0  0.70484038375E+02  0.83831794794E+01 -0.11461990784E+04  0.11512071145E+04  0.80419002446E+02 0. -1.
        -24    1    1    2    0    0 -0.70484038375E+02 -0.83831794794E+01 -0.42949753259E+03  0.44268908257E+03  0.80419002446E+02 0.  1.
<mgrwt>
<rscale>  0 0.10726366E+03</rscale>
<asrwt>0</asrwt>
<pdfrwt beam="1">  1        2 0.24381485E+00 0.10726366E+03</pdfrwt>
<pdfrwt beam="2">  1       -2 0.13999681E-02 0.10726366E+03</pdfrwt>
<totfact> 0.15359867E+04</totfact>
</mgrwt>
</event>
<event>
 4    1  0.5097315E-001  0.1250662E+03  0.7546771E-02  0.1234966E+00
         -2   -1    0    0    0  501 -0.00000000000E+00  0.00000000000E+00  0.10764266850E+02  0.10764266850E+02  0.00000000000E+00 0.  1.
          2   -1    0    0  501    0  0.00000000000E+00 -0.00000000000E+00 -0.17520027765E+04  0.17520027765E+04  0.00000000000E+00 0. -1.
         24    1    1    2    0    0  0.58661852888E+02  0.75717345727E+02 -0.12346710975E+04  0.12409892281E+04  0.80419002446E+02 0. -1.
        -24    1    1    2    0    0 -0.58661852888E+02 -0.75717345727E+02 -0.50656741214E+03  0.52177781519E+03  0.80419002446E+02 0.  1.
<mgrwt>
<rscale>  0 0.12506616E+03</rscale>
<asrwt>0</asrwt>
<pdfrwt beam="1">  1        2 0.26953856E+00 0.12506616E+03</pdfrwt>
<pdfrwt beam="2">  1       -2 0.16560431E-02 0.12506616E+03</pdfrwt>
<totfact> 0.99903183E+03</totfact>
</mgrwt>
</event>
<event>
 4    1  0.5097315E-001  0.8499352E+02  0.7546771E-02  0.1315449E+00
          2   -1    0    0  501    0  0.00000000000E+00  0.00000000000E+00  0.30919292463E+03  0.30919292463E+03  0.00000000000E+00 0. -1.
         -2   -1    0    0    0  501 -0.00000000000E+00 -0.00000000000E+00 -0.59446789306E+02  0.59446789306E+02  0.00000000000E+00 0.  1.
         24    1    1    2    0    0 -0.26949092032E+02 -0.55161858939E+01  0.26847478761E+03  0.28160718990E+03  0.80419002446E+02 0. -1.
        -24    1    1    2    0    0  0.26949092032E+02  0.55161858939E+01 -0.18728652289E+02  0.87032524030E+02  0.80419002446E+02 0.  1.
<mgrwt>
<rscale>  0 0.84993516E+02</rscale>
<asrwt>0</asrwt>
<pdfrwt beam="1">  1        2 0.47568141E-01 0.84993516E+02</pdfrwt>
<pdfrwt beam="2">  1       -2 0.91456600E-02 0.84993516E+02</pdfrwt>
<totfact> 0.74392522E+03</totfact>
</mgrwt>
</event>
<event>
 4    1  0.5097315E-001  0.8131302E+02  0.7546771E-02  0.1325366E+00
          1   -1    0    0  501    0  0.00000000000E+00  0.00000000000E+00  0.13834295579E+02  0.13834295579E+02  0.00000000000E+00 0. -1.
         -1   -1    0    0    0  501 -0.00000000000E+00 -0.00000000000E+00 -0.70942640662E+03  0.70942640662E+03  0.00000000000E+00 0.  1.
         24    1    1    2    0    0  0.53805280661E+01 -0.10753651398E+02 -0.55437427702E+03  0.56030585047E+03  0.80419002446E+02 0.  1.
        -24    1    1    2    0    0 -0.53805280661E+01  0.10753651398E+02 -0.14121783403E+03  0.16295485173E+03  0.80419002446E+02 0. -1.
<mgrwt>
<rscale>  0 0.81313019E+02</rscale>
<asrwt>0</asrwt>
<pdfrwt beam="1">  1        1 0.21283530E-02 0.81313019E+02</pdfrwt>
<pdfrwt beam="2">  1       -1 0.10914254E+00 0.81313019E+02</pdfrwt>
<totfact> 0.42075677E+03</totfact>
</mgrwt>
</event>
<event>
 4    1  0.5097315E-001  0.8874423E+02  0.7546771E-02  0.1305922E+00
         -2   -1    0    0    0  501 -0.00000000000E+00  0.00000000000E+00  0.30956398532E+02  0.30956398532E+02  0.00000000000E+00 0.  1.
          2   -1    0    0  501    0  0.00000000000E+00 -0.00000000000E+00 -0.12809295720E+04  0.12809295720E+04  0.00000000000E+00 0. -1.
         24    1    1    2    0    0  0.26740887778E+02  0.26329587325E+02 -0.12121887191E+04  0.12154328566E+04  0.80419002446E+02 0. -1.
        -24    1    1    2    0    0 -0.26740887778E+02 -0.26329587325E+02 -0.37784454436E+02  0.96453113995E+02  0.80419002446E+02 0.  1.
<mgrwt>
<rscale>  0 0.88744229E+02</rscale>
<asrwt>0</asrwt>
<pdfrwt beam="1">  1        2 0.19706611E+00 0.88744229E+02</pdfrwt>
<pdfrwt beam="2">  1       -2 0.47625223E-02 0.88744229E+02</pdfrwt>
<totfact> 0.37014768E+03</totfact>
</mgrwt>
</event>
<event>
 4    1  0.5097315E-001  0.8657373E+02  0.7546771E-02  0.1311368E+00
         -4   -1    0    0    0  501 -0.00000000000E+00  0.00000000000E+00  0.34164760098E+02  0.34164760098E+02  0.00000000000E+00 0.  1.
          4   -1    0    0  501    0  0.00000000000E+00 -0.00000000000E+00 -0.64042572156E+03  0.64042572156E+03  0.00000000000E+00 0. -1.
         24    1    1    2    0    0  0.25233599277E+02  0.19775257874E+02 -0.57662036731E+03  0.58308323532E+03  0.80419002446E+02 0. -1.
        -24    1    1    2    0    0 -0.25233599277E+02 -0.19775257874E+02 -0.29640594148E+02  0.91507246337E+02  0.80419002446E+02 0.  1.
<mgrwt>
<rscale>  0 0.86573733E+02</rscale>
<asrwt>0</asrwt>
<pdfrwt beam="1">  1        4 0.98527033E-01 0.86573733E+02</pdfrwt>
<pdfrwt beam="2">  1       -4 0.52561170E-02 0.86573733E+02</pdfrwt>
<totfact> 0.29673699E+02</totfact>
</mgrwt>
</event>
<event>
 4    1  0.5097315E-001  0.8355152E+02  0.7546771E-02  0.1319265E+00
         -1   -1    0    0    0  501 -0.00000000000E+00  0.00000000000E+00  0.17759558050E+02  0.17759558050E+02  0.00000000000E+00 0.  1.
          1   -1    0    0  501    0  0.00000000000E+00 -0.00000000000E+00 -0.57233990634E+03  0.57233990634E+03  0.00000000000E+00 0. -1.
         24    1    1    2    0    0 -0.19124749647E+02  0.12160762889E+02 -0.11216448974E+03  0.13986325077E+03  0.80419002446E+02 0.  1.
        -24    1    1    2    0    0  0.19124749647E+02 -0.12160762889E+02 -0.44241585856E+03  0.45023621363E+03  0.80419002446E+02 0. -1.
<mgrwt>
<rscale>  0 0.83551518E+02</rscale>
<asrwt>0</asrwt>
<pdfrwt beam="1">  1        1 0.88052286E-01 0.83551518E+02</pdfrwt>
<pdfrwt beam="2">  1       -1 0.27322399E-02 0.83551518E+02</pdfrwt>
<totfact> 0.14783936E+04</totfact>
</mgrwt>
</event>
<event>
 4    1  0.5097315E-001  0.9155115E+02  0.7546771E-02  0.1299138E+00
          1   -1    0    0  501    0  0.00000000000E+00  0.00000000000E+00  0.28516084284E+04  0.28516084284E+04  0.00000000000E+00 0. -1.
         -1   -1    0    0    0  501 -0.00000000000E+00 -0.00000000000E+00 -0.72427643871E+01  0.72427643871E+01  0.00000000000E+00 0.  1.
         24    1    1    2    0    0  0.21214897253E+02  0.38266499130E+02  0.32033758198E+03  0.33316329210E+03  0.80419002446E+02 0.  1.
        -24    1    1    2    0    0 -0.21214897253E+02 -0.38266499130E+02  0.25240280820E+04  0.25256879007E+04  0.80419002446E+02 0. -1.
<mgrwt>
<rscale>  0 0.91551148E+02</rscale>
<asrwt>0</asrwt>
<pdfrwt beam="1">  1        1 0.43870809E+00 0.91551148E+02</pdfrwt>
<pdfrwt beam="2">  1       -1 0.11142737E-02 0.91551148E+02</pdfrwt>
<totfact> 0.15028789E+03</totfact>
</mgrwt>
</event>
<event>
 4    1  0.5097315E-001  0.9731804E+02  0.7546771E-02  0.1286039E+00
          3   -1    0    0  501    0  0.00000000000E+00  0.00000000000E+00  0.38864927170E+02  0.38864927170E+02  0.00000000000E+00 0. -1.
         -3   -1    0    0    0  501 -0.00000000000E+00 -0.00000000000E+00 -0.25014712013E+03  0.25014712013E+03  0.00000000000E+00 0.  1.
         24    1    1    2    0    0  0.11392990304E+02  0.53607649854E+02 -0.82414866999E+02  0.12752649375E+03  0.80419002446E+02 0. -1.
        -24    1    1    2    0    0 -0.11392990304E+02 -0.53607649854E+02 -0.12886732596E+03  0.16148555355E+03  0.80419002446E+02 0.  1.
<mgrwt>
<rscale>  0 0.97318029E+02</rscale>
<asrwt>0</asrwt>
<pdfrwt beam="1">  1        3 0.59792194E-02 0.97318041E+02</pdfrwt>
<pdfrwt beam="2">  1       -3 0.38484173E-01 0.97318041E+02</pdfrwt>
<totfact> 0.24604618E+03</totfact>
</mgrwt>
</event>
<event>
 4    1  0.5097315E-001  0.8960668E+02  0.7546771E-02  0.1303807E+00
         -1   -1    0    0    0  501 -0.00000000000E+00  0.00000000000E+00  0.62398053066E+02  0.62398053066E+02  0.00000000000E+00 0.  1.
          1   -1    0    0  501    0  0.00000000000E+00 -0.00000000000E+00 -0.15063556011E+03  0.15063556011E+03  0.00000000000E+00 0. -1.
         24    1    1    2    0    0 -0.31306621325E+02  0.24125426069E+02 -0.34528361012E+01  0.89673177446E+02  0.80419002446E+02 0.  1.
        -24    1    1    2    0    0  0.31306621325E+02 -0.24125426069E+02 -0.84784670941E+02  0.12336043573E+03  0.80419002446E+02 0. -1.
<mgrwt>
<rscale>  0 0.89606678E+02</rscale>
<asrwt>0</asrwt>
<pdfrwt beam="1">  1        1 0.23174701E-01 0.89606678E+02</pdfrwt>
<pdfrwt beam="2">  1       -1 0.95997005E-02 0.89606678E+02</pdfrwt>
<totfact> 0.12348310E+04</totfact>
</mgrwt>
</event>
<event>
 4    1  0.5097315E-001  0.9424159E+02  0.7546771E-02  0.1292893E+00
         -2   -1    0    0    0  501 -0.00000000000E+00  0.00000000000E+00  0.12840535747E+02  0.12840535747E+02  0.00000000000E+00 0.  1.
          2   -1    0    0  501    0  0.00000000000E+00 -0.00000000000E+00 -0.28472121982E+04  0.28472121982E+04  0.00000000000E+00 0. -1.
         24    1    1    2    0    0  0.48138588767E+02 -0.98457366767E+01 -0.26614479608E+04  0.26631159806E+04  0.80419002446E+02 0. -1.
        -24    1    1    2    0    0 -0.48138588767E+02  0.98457366767E+01 -0.17292370162E+03  0.19693675329E+03  0.80419002446E+02 0.  1.
<mgrwt>
<rscale>  0 0.94241595E+02</rscale>
<asrwt>0</asrwt>
<pdfrwt beam="1">  1        2 0.43803227E+00 0.94241595E+02</pdfrwt>
<pdfrwt beam="2">  1       -2 0.19754687E-02 0.94241595E+02</pdfrwt>
<totfact> 0.20723540E+03</totfact>
</mgrwt>
</event>
<event>
 4    1  0.5097315E-001  0.8661557E+02  0.7546771E-02  0.1311261E+00
          1   -1    0    0  501    0  0.00000000000E+00  0.00000000000E+00  0.81206788612E+02  0.81206788612E+02  0.00000000000E+00 0. -1.
         -1   -1    0    0    0  501 -0.00000000000E+00 -0.00000000000E+00 -0.47884556065E+03  0.47884556065E+03  0.00000000000E+00 0.  1.
         24    1    1    2    0    0  0.28446730235E+02 -0.15027440327E+02 -0.45038640968E+03  0.45863948195E+03  0.80419002446E+02 0.  1.
        -24    1    1    2    0    0 -0.28446730235E+02  0.15027440327E+02  0.52747637647E+02  0.10141286731E+03  0.80419002446E+02 0. -1.
<mgrwt>
<rscale>  0 0.86615567E+02</rscale>
<asrwt>0</asrwt>
<pdfrwt beam="1">  1        1 0.12493352E-01 0.86615567E+02</pdfrwt>
<pdfrwt beam="2">  1       -1 0.73668548E-01 0.86615567E+02</pdfrwt>
<totfact> 0.89785785E+02</totfact>
</mgrwt>
</event>
<event>
 4    1  0.5097315E-001  0.8220383E+02  0.7546771E-02  0.1322911E+00
          2   -1    0    0  501    0  0.00000000000E+00  0.00000000000E+00  0.84524679251E+02  0.84524679251E+02  0.00000000000E+00 0. -1.
         -2   -1    0    0    0  501 -0.00000000000E+00 -0.00000000000E+00 -0.66144530778E+03  0.66144530778E+03  0.00000000000E+00 0.  1.
         24    1    1    2    0    0 -0.12071108864E+02 -0.12022568223E+02  0.61258281599E+02  0.10251851947E+03  0.80419002446E+02 0. -1.
        -24    1    1    2    0    0  0.12071108864E+02  0.12022568223E+02 -0.63817891013E+03  0.64345146756E+03  0.80419002446E+02 0.  1.
<mgrwt>
<rscale>  0 0.82203831E+02</rscale>
<asrwt>0</asrwt>
<pdfrwt beam="1">  1        2 0.13003796E-01 0.82203831E+02</pdfrwt>
<pdfrwt beam="2">  1       -2 0.10176082E+00 0.82203831E+02</pdfrwt>
<totfact> 0.37399569E+02</totfact>
</mgrwt>
</event>
<event>
 4    1  0.5097315E-001  0.1063925E+03  0.7546771E-02  0.1267400E+00
          1   -1    0    0  501    0  0.00000000000E+00  0.00000000000E+00  0.29191059286E+04  0.29191059286E+04  0.00000000000E+00 0. -1.
         -1   -1    0    0    0  501 -0.00000000000E+00 -0.00000000000E+00 -0.44859080816E+01  0.44859080816E+01  0.00000000000E+00 0.  1.
         24    1    1    2    0    0  0.68294720004E+02 -0.13710208283E+02  0.91904605456E+03  0.92518376821E+03  0.80419002446E+02 0.  1.
        -24    1    1    2    0    0 -0.68294720004E+02  0.13710208283E+02  0.19955739660E+04  0.19984080685E+04  0.80419002446E+02 0. -1.
<mgrwt>
<rscale>  0 0.10639246E+03</rscale>
<asrwt>0</asrwt>
<pdfrwt beam="1">  1        1 0.44909170E+00 0.10639246E+03</pdfrwt>
<pdfrwt beam="2">  1       -1 0.69014204E-03 0.10639246E+03</pdfrwt>
<totfact> 0.26610752E+03</totfact>
</mgrwt>
</event>
<event>
 4    1  0.5097315E-001  0.8399611E+02  0.7546771E-02  0.1318079E+00
          1   -1    0    0  501    0  0.00000000000E+00  0.00000000000E+00  0.35548180411E+03  0.35548180411E+03  0.00000000000E+00 0. -1.
         -1   -1    0    0    0  501 -0.00000000000E+00 -0.00000000000E+00 -0.20688866954E+02  0.20688866954E+02  0.00000000000E+00 0.  1.
         24    1    1    2    0    0  0.12401752757E+02 -0.20840509430E+02  0.12946177800E+03  0.15432335605E+03  0.80419002446E+02 0. -1.
        -24    1    1    2    0    0 -0.12401752757E+02  0.20840509430E+02  0.20533115915E+03  0.22184731501E+03  0.80419002446E+02 0.  1.
<mgrwt>
<rscale>  0 0.83996109E+02</rscale>
<asrwt>0</asrwt>
<pdfrwt beam="1">  1        1 0.54689504E-01 0.83996109E+02</pdfrwt>
<pdfrwt beam="2">  1       -1 0.31829029E-02 0.83996109E+02</pdfrwt>
<totfact> 0.21678726E+04</totfact>
</mgrwt>
</event>
<event>
 4    1  0.5097315E-001  0.9011902E+02  0.7546771E-02  0.1302564E+00
          1   -1    0    0  501    0  0.00000000000E+00  0.00000000000E+00  0.74810700553E+03  0.74810700553E+03  0.00000000000E+00 0. -1.
         -1   -1    0    0    0  501 -0.00000000000E+00 -0.00000000000E+00 -0.19440365433E+02  0.19440365433E+02  0.00000000000E+00 0.  1.
         24    1    1    2    0    0 -0.29548706978E+02 -0.27948081690E+02  0.10931140862E+03  0.14167011457E+03  0.80419002446E+02 0.  1.
        -24    1    1    2    0    0  0.29548706978E+02  0.27948081690E+02  0.61935523148E+03  0.62587725639E+03  0.80419002446E+02 0. -1.
<mgrwt>
<rscale>  0 0.90119017E+02</rscale>
<asrwt>0</asrwt>
<pdfrwt beam="1">  1        1 0.11509336E+00 0.90119017E+02</pdfrwt>
<pdfrwt beam="2">  1       -1 0.29908260E-02 0.90119017E+02</pdfrwt>
<totfact> 0.90407450E+03</totfact>
</mgrwt>
</event>
<event>
 4    1  0.5097315E-001  0.9187673E+02  0.7546771E-02  0.1298370E+00
          1   -1    0    0  501    0  0.00000000000E+00  0.00000000000E+00  0.53276571148E+03  0.53276571148E+03  0.00000000000E+00 0. -1.
         -1   -1    0    0    0  501 -0.00000000000E+00 -0.00000000000E+00 -0.17126676266E+02  0.17126676266E+02  0.00000000000E+00 0.  1.
         24    1    1    2    0    0  0.18168719299E+01 -0.44393838331E+02  0.33305268341E+03  0.34549300975E+03  0.80419002446E+02 0. -1.
        -24    1    1    2    0    0 -0.18168719299E+01  0.44393838331E+02  0.18258635180E+03  0.20439937799E+03  0.80419002446E+02 0.  1.
<mgrwt>
<rscale>  0 0.91876722E+02</rscale>
<asrwt>0</asrwt>
<pdfrwt beam="1">  1        1 0.81963943E-01 0.91876733E+02</pdfrwt>
<pdfrwt beam="2">  1       -1 0.26348737E-02 0.91876733E+02</pdfrwt>
<totfact> 0.17262114E+04</totfact>
</mgrwt>
</event>
<event>
 4    1  0.5097315E-001  0.8082260E+02  0.7546771E-02  0.1326733E+00
          2   -1    0    0  501    0  0.00000000000E+00  0.00000000000E+00  0.20721123738E+04  0.20721123738E+04  0.00000000000E+00 0. -1.
         -2   -1    0    0    0  501 -0.00000000000E+00 -0.00000000000E+00 -0.31812495072E+01  0.31812495072E+01  0.00000000000E+00 0.  1.
         24    1    1    2    0    0  0.50079335781E+01  0.63243762136E+01  0.11331425566E+04  0.11360212791E+04  0.80419002446E+02 0. -1.
        -24    1    1    2    0    0 -0.50079335781E+01 -0.63243762136E+01  0.93578856776E+03  0.93927234423E+03  0.80419002446E+02 0.  1.
<mgrwt>
<rscale>  0 0.80822603E+02</rscale>
<asrwt>0</asrwt>
<pdfrwt beam="1">  1        2 0.31878544E+00 0.80822603E+02</pdfrwt>
<pdfrwt beam="2">  1       -2 0.48942466E-03 0.80822603E+02</pdfrwt>
<totfact> 0.37804276E+04</totfact>
</mgrwt>
</event>
<event>
 4    1  0.5097315E-001  0.1658099E+03  0.7546771E-02  0.1182289E+00
          2   -1    0    0  501    0  0.00000000000E+00  0.00000000000E+00  0.10787617827E+04  0.10787617827E+04  0.00000000000E+00 0. -1.
         -2   -1    0    0    0  501 -0.00000000000E+00 -0.00000000000E+00 -0.32709982060E+02  0.32709982060E+02  0.00000000000E+00 0.  1.
         24    1    1    2    0    0 -0.12390540694E+03  0.75320462789E+02  0.78419833574E+03  0.80153600525E+03  0.80419002446E+02 0.  1.
        -24    1    1    2    0    0  0.12390540694E+03 -0.75320462789E+02  0.26185346486E+03  0.30993575947E+03  0.80419002446E+02 0. -1.
<mgrwt>
<rscale>  0 0.16580995E+03</rscale>
<asrwt>0</asrwt>
<pdfrwt beam="1">  1        2 0.16596332E+00 0.16580995E+03</pdfrwt>
<pdfrwt beam="2">  1       -2 0.50323058E-02 0.16580995E+03</pdfrwt>
<totfact> 0.44958164E+03</totfact>
</mgrwt>
</event>
<event>
 4    1  0.5097315E-001  0.8335602E+02  0.7546771E-02  0.1319789E+00
          1   -1    0    0  501    0  0.00000000000E+00  0.00000000000E+00  0.86613864591E+02  0.86613864591E+02  0.00000000000E+00 0. -1.
         -1   -1    0    0    0  501 -0.00000000000E+00 -0.00000000000E+00 -0.80951924838E+02  0.80951924838E+02  0.00000000000E+00 0.  1.
         24    1    1    2    0    0 -0.28870294006E+01  0.21741089711E+02 -0.51317917545E+01  0.83513838144E+02  0.80419002446E+02 0.  1.
        -24    1    1    2    0    0  0.28870294006E+01 -0.21741089711E+02  0.10793731507E+02  0.84051951285E+02  0.80419002446E+02 0. -1.
<mgrwt>
<rscale>  0 0.83356019E+02</rscale>
<asrwt>0</asrwt>
<pdfrwt beam="1">  1        1 0.13325210E-01 0.83356019E+02</pdfrwt>
<pdfrwt beam="2">  1       -1 0.12454142E-01 0.83356019E+02</pdfrwt>
<totfact> 0.16622157E+04</totfact>
</mgrwt>
</event>
<event>
 4    1  0.5097315E-001  0.1913375E+03  0.7546771E-02  0.1157260E+00
          1   -1    0    0  501    0  0.00000000000E+00  0.00000000000E+00  0.61222469470E+03  0.61222469470E+03  0.00000000000E+00 0. -1.
         -1   -1    0    0    0  501 -0.00000000000E+00 -0.00000000000E+00 -0.13678804156E+03  0.13678804156E+03  0.00000000000E+00 0.  1.
         24    1    1    2    0    0 -0.15133470098E+03  0.85091934779E+02 -0.43246106006E+02  0.19616388741E+03  0.80419002446E+02 0.  1.
        -24    1    1    2    0    0  0.15133470098E+03 -0.85091934779E+02  0.51868275915E+03  0.55284884885E+03  0.80419002446E+02 0. -1.
<mgrwt>
<rscale>  0 0.19133752E+03</rscale>
<asrwt>0</asrwt>
<pdfrwt beam="1">  1        1 0.94188413E-01 0.19133752E+03</pdfrwt>
<pdfrwt beam="2">  1       -1 0.21044315E-01 0.19133752E+03</pdfrwt>
<totfact> 0.63871035E+02</totfact>
</mgrwt>
</event>
<event>
 4    1  0.5097315E-001  0.1000438E+03  0.7546771E-02  0.1280204E+00
          2   -1    0    0  501    0  0.00000000000E+00  0.00000000000E+00  0.16585267979E+04  0.16585267979E+04  0.00000000000E+00 0. -1.
         -2   -1    0    0    0  501 -0.00000000000E+00 -0.00000000000E+00 -0.16152658355E+02  0.16152658355E+02  0.00000000000E+00 0.  1.
         24    1    1    2    0    0  0.57325544522E+02  0.15978742866E+02  0.14839002169E+04  0.14872688418E+04  0.80419002446E+02 0. -1.
        -24    1    1    2    0    0 -0.57325544522E+02 -0.15978742866E+02  0.15847392266E+03  0.18741061442E+03  0.80419002446E+02 0.  1.
<mgrwt>
<rscale>  0 0.10004376E+03</rscale>
<asrwt>0</asrwt>
<pdfrwt beam="1">  1        2 0.25515783E+00 0.10004376E+03</pdfrwt>
<pdfrwt beam="2">  1       -2 0.24850257E-02 0.10004376E+03</pdfrwt>
<totfact> 0.61497381E+03</totfact>
</mgrwt>
</event>
<event>
 4    1  0.5097315E-001  0.9287657E+02  0.7546771E-02  0.1296031E+00
         -2   -1    0    0    0  501 -0.00000000000E+00  0.00000000000E+00  0.16190736900E+02  0.16190736900E+02  0.00000000000E+00 0.  1.
          2   -1    0    0  501    0  0.00000000000E+00 -0.00000000000E+00 -0.91718099986E+03  0.91718099986E+03  0.00000000000E+00 0. -1.
         24    1    1    2    0    0 -0.44044247346E+02  0.14796838982E+02 -0.75262305729E+03  0.75833206742E+03  0.80419002446E+02 0.  0.
        -24    1    1    2    0    0  0.44044247346E+02 -0.14796838982E+02 -0.14836720568E+03  0.17503966934E+03  0.80419002446E+02 0.  0.
<mgrwt>
<rscale>  0 0.92876575E+02</rscale>
<asrwt>0</asrwt>
<pdfrwt beam="1">  1        2 0.14110478E+00 0.92876575E+02</pdfrwt>
<pdfrwt beam="2">  1       -2 0.24908823E-02 0.92876575E+02</pdfrwt>
<totfact> 0.15367085E+04</totfact>
</mgrwt>
</event>
<event>
 4    1  0.5097315E-001  0.8067138E+02  0.7546771E-02  0.1327157E+00
         -2   -1    0    0    0  501 -0.00000000000E+00  0.00000000000E+00  0.36220681959E+03  0.36220681959E+03  0.00000000000E+00 0.  1.
          2   -1    0    0  501    0  0.00000000000E+00 -0.00000000000E+00 -0.28448847199E+02  0.28448847199E+02  0.00000000000E+00 0. -1.
         24    1    1    2    0    0 -0.61807247086E+01  0.15665064619E+01  0.48317150958E+02  0.94034133864E+02  0.80419002446E+02 0. -1.
        -24    1    1    2    0    0  0.61807247086E+01 -0.15665064619E+01  0.28544082143E+03  0.29662153293E+03  0.80419002446E+02 0.  0.
<mgrwt>
<rscale>  0 0.80671378E+02</rscale>
<asrwt>0</asrwt>
<pdfrwt beam="1">  1        2 0.43767460E-02 0.80671378E+02</pdfrwt>
<pdfrwt beam="2">  1       -2 0.55724123E-01 0.80671378E+02</pdfrwt>
<totfact> 0.52277642E+03</totfact>
</mgrwt>
</event>
<event>
 4    1  0.5097315E-001  0.1930192E+03  0.7546771E-02  0.1155766E+00
          3   -1    0    0  501    0  0.00000000000E+00  0.00000000000E+00  0.40060266415E+03  0.40060266415E+03  0.00000000000E+00 0. -1.
         -3   -1    0    0    0  501 -0.00000000000E+00 -0.00000000000E+00 -0.31330983223E+03  0.31330983223E+03  0.00000000000E+00 0.  1.
         24    1    1    2    0    0 -0.16405480926E+03 -0.62251135194E+02 -0.25567931308E+03  0.32035653788E+03  0.80419002446E+02 0.  1.
        -24    1    1    2    0    0  0.16405480926E+03  0.62251135194E+02  0.34297214500E+03  0.39355595850E+03  0.80419002446E+02 0. -1.
<mgrwt>
<rscale>  0 0.19301917E+03</rscale>
<asrwt>0</asrwt>
<pdfrwt beam="1">  1        3 0.61631179E-01 0.19301917E+03</pdfrwt>
<pdfrwt beam="2">  1       -3 0.48201513E-01 0.19301917E+03</pdfrwt>
<totfact> 0.27307056E+01</totfact>
</mgrwt>
</event>
<event>
 4    1  0.5097315E-001  0.8169593E+02  0.7546771E-02  0.1324306E+00
          1   -1    0    0  501    0  0.00000000000E+00  0.00000000000E+00  0.18877052459E+04  0.18877052459E+04  0.00000000000E+00 0. -1.
         -1   -1    0    0    0  501 -0.00000000000E+00 -0.00000000000E+00 -0.14152843945E+03  0.14152843945E+03  0.00000000000E+00 0.  1.
         24    1    1    2    0    0 -0.12135193801E+02 -0.77296126211E+01 -0.12877482763E+03  0.15250305579E+03  0.80419002446E+02 0.  1.
        -24    1    1    2    0    0  0.12135193801E+02  0.77296126211E+01  0.18749516341E+04  0.18767306296E+04  0.80419002446E+02 0. -1.
<mgrwt>
<rscale>  0 0.81695935E+02</rscale>
<asrwt>0</asrwt>
<pdfrwt beam="1">  1        1 0.29041617E+00 0.81695935E+02</pdfrwt>
<pdfrwt beam="2">  1       -1 0.21773607E-01 0.81695935E+02</pdfrwt>
<totfact> 0.78049884E+01</totfact>
</mgrwt>
</event>
<event>
 4    1  0.5097315E-001  0.8855360E+02  0.7546771E-02  0.1306393E+00
         -3   -1    0    0    0  501 -0.00000000000E+00  0.00000000000E+00  0.69748852295E+02  0.69748852295E+02  0.00000000000E+00 0.  1.
          3   -1    0    0  501    0  0.00000000000E+00 -0.00000000000E+00 -0.11247506728E+03  0.11247506728E+03  0.00000000000E+00 0. -1.
         24    1    1    2    0    0  0.86726173786E+01 -0.36045894477E+02 -0.23223305721E+02  0.91548122230E+02  0.80419002446E+02 0.  1.
        -24    1    1    2    0    0 -0.86726173786E+01  0.36045894477E+02 -0.19502909268E+02  0.90675797350E+02  0.80419002446E+02 0. -1.
<mgrwt>
<rscale>  0 0.88553592E+02</rscale>
<asrwt>0</asrwt>
<pdfrwt beam="1">  1        3 0.17303856E-01 0.88553603E+02</pdfrwt>
<pdfrwt beam="2">  1       -3 0.10730593E-01 0.88553603E+02</pdfrwt>
<totfact> 0.39631070E+03</totfact>
</mgrwt>
</event>
<event>
 4    1  0.5097315E-001  0.8704265E+02  0.7546771E-02  0.1310176E+00
          1   -1    0    0  501    0  0.00000000000E+00  0.00000000000E+00  0.85447786552E+03  0.85447786552E+03  0.00000000000E+00 0. -1.
         -1   -1    0    0    0  501 -0.00000000000E+00 -0.00000000000E+00 -0.10866932930E+02  0.10866932930E+02  0.00000000000E+00 0.  1.
         24    1    1    2    0    0 -0.32619335838E+02 -0.67220316348E+01  0.23617769280E+03  0.25170682412E+03  0.80419002446E+02 0.  1.
        -24    1    1    2    0    0  0.32619335838E+02  0.67220316348E+01  0.60743323980E+03  0.61363797433E+03  0.80419002446E+02 0. -1.
<mgrwt>
<rscale>  0 0.87042649E+02</rscale>
<asrwt>0</asrwt>
<pdfrwt beam="1">  1        1 0.13145808E+00 0.87042649E+02</pdfrwt>
<pdfrwt beam="2">  1       -1 0.16718365E-02 0.87042649E+02</pdfrwt>
<totfact> 0.17003202E+04</totfact>
</mgrwt>
</event>
<event>
 4    1  0.5097315E-001  0.8716266E+02  0.7546771E-02  0.1309872E+00
         -2   -1    0    0    0  501 -0.00000000000E+00  0.00000000000E+00  0.17601780224E+03  0.17601780224E+03  0.00000000000E+00 0.  1.
          2   -1    0    0  501    0  0.00000000000E+00 -0.00000000000E+00 -0.43810760886E+02  0.43810760886E+02  0.00000000000E+00 0. -1.
         24    1    1    2    0    0  0.30889851431E+02 -0.13263729282E+02  0.79476262177E+02  0.11795677869E+03  0.80419002446E+02 0.  1.
        -24    1    1    2    0    0 -0.30889851431E+02  0.13263729282E+02  0.52730779174E+02  0.10187178443E+03  0.80419002446E+02 0. -1.
<mgrwt>
<rscale>  0 0.87162648E+02</rscale>
<asrwt>0</asrwt>
<pdfrwt beam="1">  1        2 0.67401171E-02 0.87162659E+02</pdfrwt>
<pdfrwt beam="2">  1       -2 0.27079662E-01 0.87162659E+02</pdfrwt>
<totfact> 0.11677741E+04</totfact>
</mgrwt>
</event>
<event>
 4    1  0.5097315E-001  0.8883453E+02  0.7546771E-02  0.1305699E+00
          1   -1    0    0  501    0  0.00000000000E+00  0.00000000000E+00  0.34931266650E+02  0.34931266650E+02  0.00000000000E+00 0. -1.
         -1   -1    0    0    0  501 -0.00000000000E+00 -0.00000000000E+00 -0.86179257867E+03  0.86179257867E+03  0.00000000000E+00 0.  1.
         24    1    1    2    0    0  0.37099992680E+02 -0.69244405338E+01 -0.79856598516E+03  0.80349188293E+03  0.80419002446E+02 0.  1.
        -24    1    1    2    0    0 -0.37099992680E+02  0.69244405338E+01 -0.28295326859E+02  0.93231962384E+02  0.80419002446E+02 0. -1.
<mgrwt>
<rscale>  0 0.88834528E+02</rscale>
<asrwt>0</asrwt>
<pdfrwt beam="1">  1        1 0.53740414E-02 0.88834528E+02</pdfrwt>
<pdfrwt beam="2">  1       -1 0.13258347E+00 0.88834528E+02</pdfrwt>
<totfact> 0.76207627E+02</totfact>
</mgrwt>
</event>
<event>
 4    1  0.5097315E-001  0.9644344E+02  0.7546771E-02  0.1287958E+00
         -1   -1    0    0    0  501 -0.00000000000E+00  0.00000000000E+00  0.22415363313E+02  0.22415363313E+02  0.00000000000E+00 0.  1.
          1   -1    0    0  501    0  0.00000000000E+00 -0.00000000000E+00 -0.11240346184E+04  0.11240346184E+04  0.00000000000E+00 0. -1.
         24    1    1    2    0    0 -0.17317479038E+01  0.53208291359E+02 -0.95524795051E+02  0.13574359522E+03  0.80419002446E+02 0.  1.
        -24    1    1    2    0    0  0.17317479038E+01 -0.53208291359E+02 -0.10060944600E+04  0.10107063865E+04  0.80419002446E+02 0. -1.
<mgrwt>
<rscale>  0 0.96443440E+02</rscale>
<asrwt>0</asrwt>
<pdfrwt beam="1">  1        1 0.17292838E+00 0.96443440E+02</pdfrwt>
<pdfrwt beam="2">  1       -1 0.34485179E-02 0.96443440E+02</pdfrwt>
<totfact> 0.38620959E+03</totfact>
</mgrwt>
</event>
<event>
 4    1  0.5097315E-001  0.8329195E+02  0.7546771E-02  0.1319961E+00
          2   -1    0    0  501    0  0.00000000000E+00  0.00000000000E+00  0.29258239017E+03  0.29258239017E+03  0.00000000000E+00 0. -1.
         -2   -1    0    0    0  501 -0.00000000000E+00 -0.00000000000E+00 -0.25910051241E+02  0.25910051241E+02  0.00000000000E+00 0.  1.
         24    1    1    2    0    0  0.21632301037E+02 -0.15414886588E+01  0.17972459425E+03  0.19808704745E+03  0.80419002446E+02 0. -1.
        -24    1    1    2    0    0 -0.21632301037E+02  0.15414886588E+01  0.86947744680E+02  0.12040539396E+03  0.80419002446E+02 0.  1.
<mgrwt>
<rscale>  0 0.83291948E+02</rscale>
<asrwt>0</asrwt>
<pdfrwt beam="1">  1        2 0.45012673E-01 0.83291948E+02</pdfrwt>
<pdfrwt beam="2">  1       -2 0.39861619E-02 0.83291948E+02</pdfrwt>
<totfact> 0.27321903E+04</totfact>
</mgrwt>
</event>
<event>
 4    1  0.5097315E-001  0.8539973E+02  0.7546771E-02  0.1314391E+00
          2   -1    0    0  501    0  0.00000000000E+00  0.00000000000E+00  0.28454915955E+03  0.28454915955E+03  0.00000000000E+00 0. -1.
         -2   -1    0    0    0  501 -0.00000000000E+00 -0.00000000000E+00 -0.25984730450E+02  0.25984730450E+02  0.00000000000E+00 0.  1.
         24    1    1    2    0    0 -0.69529956585E+01 -0.27884597137E+02  0.11115130236E+03  0.14017033522E+03  0.80419002446E+02 0.  1.
        -24    1    1    2    0    0  0.69529956585E+01  0.27884597137E+02  0.14741312674E+03  0.17036355478E+03  0.80419002446E+02 0. -1.
<mgrwt>
<rscale>  0 0.85399723E+02</rscale>
<asrwt>0</asrwt>
<pdfrwt beam="1">  1        2 0.43776792E-01 0.85399734E+02</pdfrwt>
<pdfrwt beam="2">  1       -2 0.39976510E-02 0.85399734E+02</pdfrwt>
<totfact> 0.28090273E+04</totfact>
</mgrwt>
</event>
<event>
 4    1  0.5097315E-001  0.8402246E+02  0.7546771E-02  0.1318009E+00
         -1   -1    0    0    0  501 -0.00000000000E+00  0.00000000000E+00  0.19761665055E+03  0.19761665055E+03  0.00000000000E+00 0.  1.
          1   -1    0    0  501    0  0.00000000000E+00 -0.00000000000E+00 -0.83810405580E+02  0.83810405580E+02  0.00000000000E+00 0. -1.
         24    1    1    2    0    0 -0.30509101942E+00 -0.24340605740E+02  0.16348794521E+03  0.18381534852E+03  0.80419002446E+02 0.  0.
        -24    1    1    2    0    0  0.30509101942E+00  0.24340605740E+02 -0.49681700244E+02  0.97611707607E+02  0.80419002446E+02 0.  0.
<mgrwt>
<rscale>  0 0.84022462E+02</rscale>
<asrwt>0</asrwt>
<pdfrwt beam="1">  1        1 0.12893909E-01 0.84022462E+02</pdfrwt>
<pdfrwt beam="2">  1       -1 0.30402561E-01 0.84022462E+02</pdfrwt>
<totfact> 0.42174702E+03</totfact>
</mgrwt>
</event>
<event>
 4    1  0.5097315E-001  0.8945676E+02  0.7546771E-02  0.1304173E+00
         -3   -1    0    0    0  501 -0.00000000000E+00  0.00000000000E+00  0.28178867623E+02  0.28178867623E+02  0.00000000000E+00 0.  1.
          3   -1    0    0  501    0  0.00000000000E+00 -0.00000000000E+00 -0.32444003564E+03  0.32444003564E+03  0.00000000000E+00 0. -1.
         24    1    1    2    0    0 -0.38934278727E+02  0.44066581073E+01 -0.85876394363E+02  0.12400511183E+03  0.80419002446E+02 0.  0.
        -24    1    1    2    0    0  0.38934278727E+02 -0.44066581073E+01 -0.21038477365E+03  0.22861379144E+03  0.80419002446E+02 0.  1.
<mgrwt>
<rscale>  0 0.89456764E+02</rscale>
<asrwt>0</asrwt>
<pdfrwt beam="1">  1        3 0.49913855E-01 0.89456764E+02</pdfrwt>
<pdfrwt beam="2">  1       -3 0.43352101E-02 0.89456764E+02</pdfrwt>
<totfact> 0.24218522E+03</totfact>
</mgrwt>
</event>
<event>
 4    1  0.5097315E-001  0.9849033E+02  0.7546771E-02  0.1283503E+00
          2   -1    0    0  501    0  0.00000000000E+00  0.00000000000E+00  0.73256444418E+03  0.73256444418E+03  0.00000000000E+00 0. -1.
         -2   -1    0    0    0  501 -0.00000000000E+00 -0.00000000000E+00 -0.26533937146E+02  0.26533937146E+02  0.00000000000E+00 0.  1.
         24    1    1    2    0    0 -0.48745922618E+02 -0.29273942280E+02  0.62165326609E+03  0.62940696522E+03  0.80419002446E+02 0. -1.
        -24    1    1    2    0    0  0.48745922618E+02  0.29273942280E+02  0.84377240942E+02  0.12969141611E+03  0.80419002446E+02 0.  1.
<mgrwt>
<rscale>  0 0.98490328E+02</rscale>
<asrwt>0</asrwt>
<pdfrwt beam="1">  1        2 0.11270221E+00 0.98490328E+02</pdfrwt>
<pdfrwt beam="2">  1       -2 0.40821447E-02 0.98490328E+02</pdfrwt>
<totfact> 0.99123639E+03</totfact>
</mgrwt>
</event>
<event>
 4    1  0.5097315E-001  0.8432971E+02  0.7546771E-02  0.1317195E+00
          2   -1    0    0  501    0  0.00000000000E+00  0.00000000000E+00  0.61883634485E+03  0.61883634485E+03  0.00000000000E+00 0. -1.
         -2   -1    0    0    0  501 -0.00000000000E+00 -0.00000000000E+00 -0.52792328571E+02  0.52792328571E+02  0.00000000000E+00 0.  1.
         24    1    1    2    0    0 -0.62349068811E+01  0.24605064939E+02  0.58004632461E+03  0.58614438318E+03  0.80419002446E+02 0. -1.
        -24    1    1    2    0    0  0.62349068811E+01 -0.24605064939E+02 -0.14002308335E+02  0.85484290238E+02  0.80419002446E+02 0.  1.
<mgrwt>
<rscale>  0 0.84329706E+02</rscale>
<asrwt>0</asrwt>
<pdfrwt beam="1">  1        2 0.95205586E-01 0.84329706E+02</pdfrwt>
<pdfrwt beam="2">  1       -2 0.81218971E-02 0.84329706E+02</pdfrwt>
<totfact> 0.42547976E+03</totfact>
</mgrwt>
</event>
<event>
 4    1  0.5097315E-001  0.8151256E+02  0.7546771E-02  0.1324813E+00
          2   -1    0    0  501    0  0.00000000000E+00  0.00000000000E+00  0.88534741730E+03  0.88534741730E+03  0.00000000000E+00 0. -1.
         -2   -1    0    0    0  501 -0.00000000000E+00 -0.00000000000E+00 -0.88945013817E+01  0.88945013817E+01  0.00000000000E+00 0.  1.
         24    1    1    2    0    0 -0.17860958107E+01  0.13186802621E+02  0.61496656236E+03  0.62034520283E+03  0.80419002446E+02 0. -1.
        -24    1    1    2    0    0  0.17860958107E+01 -0.13186802621E+02  0.26148635356E+03  0.27389671585E+03  0.80419002446E+02 0.  0.
<mgrwt>
<rscale>  0 0.81512563E+02</rscale>
<asrwt>0</asrwt>
<pdfrwt beam="1">  1        2 0.13620722E+00 0.81512563E+02</pdfrwt>
<pdfrwt beam="2">  1       -2 0.13683855E-02 0.81512563E+02</pdfrwt>
<totfact> 0.37446873E+04</totfact>
</mgrwt>
</event>
<event>
 4    1  0.5097315E-001  0.1140918E+03  0.7546771E-02  0.1253175E+00
          1   -1    0    0  501    0  0.00000000000E+00  0.00000000000E+00  0.11837927812E+04  0.11837927812E+04  0.00000000000E+00 0. -1.
         -1   -1    0    0    0  501 -0.00000000000E+00 -0.00000000000E+00 -0.19301818358E+02  0.19301818358E+02  0.00000000000E+00 0.  1.
         24    1    1    2    0    0 -0.10971244780E+02  0.80183247015E+02  0.18764015094E+03  0.21960365095E+03  0.80419002446E+02 0.  1.
        -24    1    1    2    0    0  0.10971244780E+02 -0.80183247015E+02  0.97685081189E+03  0.98349094859E+03  0.80419002446E+02 0. -1.
<mgrwt>
<rscale>  0 0.11409179E+03</rscale>
<asrwt>0</asrwt>
<pdfrwt beam="1">  1        1 0.18212191E+00 0.11409179E+03</pdfrwt>
<pdfrwt beam="2">  1       -1 0.29695114E-02 0.11409179E+03</pdfrwt>
<totfact> 0.43914222E+03</totfact>
</mgrwt>
</event>
<event>
 4    1  0.5097315E-001  0.8164211E+02  0.7546771E-02  0.1324455E+00
         -2   -1    0    0    0  501 -0.00000000000E+00  0.00000000000E+00  0.26520957647E+02  0.26520957647E+02  0.00000000000E+00 0.  1.
          2   -1    0    0  501    0  0.00000000000E+00 -0.00000000000E+00 -0.25571490757E+03  0.25571490757E+03  0.00000000000E+00 0. -1.
         24    1    1    2    0    0 -0.13342719530E+02  0.44934179774E+01 -0.13308237312E+03  0.15612928284E+03  0.80419002446E+02 0. -1.
        -24    1    1    2    0    0  0.13342719530E+02 -0.44934179774E+01 -0.96111576801E+02  0.12610658238E+03  0.80419002446E+02 0.  1.
<mgrwt>
<rscale>  0 0.81642115E+02</rscale>
<asrwt>0</asrwt>
<pdfrwt beam="1">  1        2 0.39340754E-01 0.81642115E+02</pdfrwt>
<pdfrwt beam="2">  1       -2 0.40801474E-02 0.81642115E+02</pdfrwt>
<totfact> 0.30312259E+04</totfact>
</mgrwt>
</event>
<event>
 4    1  0.5097315E-001  0.8270629E+02  0.7546771E-02  0.1321542E+00
          1   -1    0    0  501    0  0.00000000000E+00  0.00000000000E+00  0.20220855812E+03  0.20220855812E+03  0.00000000000E+00 0. -1.
         -1   -1    0    0    0  501 -0.00000000000E+00 -0.00000000000E+00 -0.38847882855E+02  0.38847882855E+02  0.00000000000E+00 0.  1.
         24    1    1    2    0    0  0.54460567724E+01  0.18532535052E+02  0.38354422759E+02  0.91166836566E+02  0.80419002446E+02 0.  1.
        -24    1    1    2    0    0 -0.54460567724E+01 -0.18532535052E+02  0.12500625250E+03  0.14988960441E+03  0.80419002446E+02 0. -1.
<mgrwt>
<rscale>  0 0.82706290E+02</rscale>
<asrwt>0</asrwt>
<pdfrwt beam="1">  1        1 0.31109009E-01 0.82706290E+02</pdfrwt>
<pdfrwt beam="2">  1       -1 0.59765974E-02 0.82706290E+02</pdfrwt>
<totfact> 0.17230486E+04</totfact>
</mgrwt>
</event>
<event>
 4    1  0.5097315E-001  0.8377454E+02  0.7546771E-02  0.1318669E+00
          2   -1    0    0  501    0  0.00000000000E+00  0.00000000000E+00  0.64448120545E+03  0.64448120545E+03  0.00000000000E+00 0. -1.
         -2   -1    0    0    0  501 -0.00000000000E+00 -0.00000000000E+00 -0.13292466904E+02  0.13292466904E+02  0.00000000000E+00 0.  1.
         24    1    1    2    0    0 -0.23373569273E+02  0.21527299362E+01  0.45542559068E+03  0.46306656388E+03  0.80419002446E+02 0. -1.
        -24    1    1    2    0    0  0.23373569273E+02 -0.21527299362E+01  0.17576314787E+03  0.19470710848E+03  0.80419002446E+02 0.  1.
<mgrwt>
<rscale>  0 0.83774542E+02</rscale>
<asrwt>0</asrwt>
<pdfrwt beam="1">  1        2 0.99150931E-01 0.83774542E+02</pdfrwt>
<pdfrwt beam="2">  1       -2 0.20449954E-02 0.83774542E+02</pdfrwt>
<totfact> 0.30941835E+04</totfact>
</mgrwt>
</event>
<event>
 4    1  0.5097315E-001  0.9039879E+02  0.7546771E-02  0.1301889E+00
         -1   -1    0    0    0  501 -0.00000000000E+00  0.00000000000E+00  0.16960320465E+03  0.16960320465E+03  0.00000000000E+00 0.  1.
          1   -1    0    0  501    0  0.00000000000E+00 -0.00000000000E+00 -0.49301148418E+02  0.49301148418E+02  0.00000000000E+00 0. -1.
         24    1    1    2    0    0  0.24462615439E+02 -0.33261170494E+02  0.76636566277E+02  0.11851204269E+03  0.80419002446E+02 0.  1.
        -24    1    1    2    0    0 -0.24462615439E+02  0.33261170494E+02  0.43665489960E+02  0.10039231039E+03  0.80419002446E+02 0. -1.
<mgrwt>
<rscale>  0 0.90398789E+02</rscale>
<asrwt>0</asrwt>
<pdfrwt beam="1">  1        1 0.75847922E-02 0.90398789E+02</pdfrwt>
<pdfrwt beam="2">  1       -1 0.26092800E-01 0.90398789E+02</pdfrwt>
<totfact> 0.10932010E+04</totfact>
</mgrwt>
</event>
<event>
 4    1  0.5097315E-001  0.1958302E+03  0.7546771E-02  0.1153305E+00
         -2   -1    0    0    0  501 -0.00000000000E+00  0.00000000000E+00  0.62878928907E+02  0.62878928907E+02  0.00000000000E+00 0.  1.
          2   -1    0    0  501    0  0.00000000000E+00 -0.00000000000E+00 -0.30303246232E+04  0.30303246232E+04  0.00000000000E+00 0. -1.
         24    1    1    2    0    0 -0.15505784866E+03 -0.88539971504E+02 -0.28659526422E+04  0.28726353800E+04  0.80419002446E+02 0. -1.
        -24    1    1    2    0    0  0.15505784866E+03  0.88539971504E+02 -0.10149305212E+03  0.22056817216E+03  0.80419002446E+02 0.  1.
<mgrwt>
<rscale>  0 0.19583023E+03</rscale>
<asrwt>0</asrwt>
<pdfrwt beam="1">  1        2 0.46620374E+00 0.19583023E+03</pdfrwt>
<pdfrwt beam="2">  1       -2 0.96736823E-02 0.19583023E+03</pdfrwt>
<totfact> 0.14451337E+02</totfact>
</mgrwt>
</event>
<event>
 4    1  0.5097315E-001  0.9582301E+02  0.7546771E-02  0.1289333E+00
          2   -1    0    0  501    0  0.00000000000E+00  0.00000000000E+00  0.21441275044E+04  0.21441275044E+04  0.00000000000E+00 0. -1.
         -2   -1    0    0    0  501 -0.00000000000E+00 -0.00000000000E+00 -0.14506003918E+02  0.14506003918E+02  0.00000000000E+00 0.  1.
         24    1    1    2    0    0 -0.41559093033E+02 -0.31427300656E+02  0.19709118492E+04  0.19732398655E+04  0.80419002446E+02 0. -1.
        -24    1    1    2    0    0  0.41559093033E+02  0.31427300656E+02  0.15870965127E+03  0.18539364283E+03  0.80419002446E+02 0.  1.
<mgrwt>
<rscale>  0 0.95823011E+02</rscale>
<asrwt>0</asrwt>
<pdfrwt beam="1">  1        2 0.32986552E+00 0.95823011E+02</pdfrwt>
<pdfrwt beam="2">  1       -2 0.22316946E-02 0.95823011E+02</pdfrwt>
<totfact> 0.40833520E+03</totfact>
</mgrwt>
</event>
<event>
 4    1  0.5097315E-001  0.8048892E+02  0.7546771E-02  0.1327670E+00
         -2   -1    0    0    0  501 -0.00000000000E+00  0.00000000000E+00  0.55177217849E+01  0.55177217849E+01  0.00000000000E+00 0.  1.
          2   -1    0    0  501    0  0.00000000000E+00 -0.00000000000E+00 -0.11794428733E+04  0.11794428733E+04  0.00000000000E+00 0. -1.
         24    1    1    2    0    0  0.11593455684E+01  0.31469585256E+01 -0.54715745343E+03  0.55304587715E+03  0.80419002446E+02 0.  1.
        -24    1    1    2    0    0 -0.11593455684E+01 -0.31469585256E+01 -0.62676769808E+03  0.63191471793E+03  0.80419002446E+02 0.  0.
<mgrwt>
<rscale>  0 0.80488912E+02</rscale>
<asrwt>0</asrwt>
<pdfrwt beam="1">  1        2 0.18145291E+00 0.80488922E+02</pdfrwt>
<pdfrwt beam="2">  1       -2 0.84887951E-03 0.80488922E+02</pdfrwt>
<totfact> 0.49673733E+04</totfact>
</mgrwt>
</event>
<event>
 4    1  0.5097315E-001  0.1005583E+03  0.7546771E-02  0.1279126E+00
          2   -1    0    0  501    0  0.00000000000E+00  0.00000000000E+00  0.37136729997E+03  0.37136729997E+03  0.00000000000E+00 0. -1.
         -2   -1    0    0    0  501 -0.00000000000E+00 -0.00000000000E+00 -0.18293605409E+03  0.18293605409E+03  0.00000000000E+00 0.  1.
         24    1    1    2    0    0  0.45665961317E+02  0.39489028182E+02  0.34991044269E+03  0.36407320312E+03  0.80419002446E+02 0. -1.
        -24    1    1    2    0    0 -0.45665961317E+02 -0.39489028182E+02 -0.16147919681E+03  0.19023015094E+03  0.80419002446E+02 0.  1.
<mgrwt>
<rscale>  0 0.10055834E+03</rscale>
<asrwt>0</asrwt>
<pdfrwt beam="1">  1        2 0.57133431E-01 0.10055834E+03</pdfrwt>
<pdfrwt beam="2">  1       -2 0.28144008E-01 0.10055834E+03</pdfrwt>
<totfact> 0.98170114E+02</totfact>
</mgrwt>
</event>
<event>
 4    1  0.5097315E-001  0.8076634E+02  0.7546771E-02  0.1326891E+00
         -2   -1    0    0    0  501 -0.00000000000E+00  0.00000000000E+00  0.91462796690E+02  0.91462796690E+02  0.00000000000E+00 0.  1.
          2   -1    0    0  501    0  0.00000000000E+00 -0.00000000000E+00 -0.13058811668E+03  0.13058811668E+03  0.00000000000E+00 0. -1.
         24    1    1    2    0    0 -0.56011696765E+01 -0.49611268817E+01 -0.94358645902E+02  0.12420449224E+03  0.80419002446E+02 0. -1.
        -24    1    1    2    0    0  0.56011696765E+01  0.49611268817E+01  0.55233325914E+02  0.97846421128E+02  0.80419002446E+02 0.  1.
<mgrwt>
<rscale>  0 0.80766341E+02</rscale>
<asrwt>0</asrwt>
<pdfrwt beam="1">  1        2 0.20090480E-01 0.80766341E+02</pdfrwt>
<pdfrwt beam="2">  1       -2 0.14071199E-01 0.80766341E+02</pdfrwt>
<totfact> 0.94548652E+03</totfact>
</mgrwt>
</event>
<event>
 4    1  0.5097315E-001  0.9411808E+02  0.7546771E-02  0.1293175E+00
          1   -1    0    0  501    0  0.00000000000E+00  0.00000000000E+00  0.96644862142E+01  0.96644862142E+01  0.00000000000E+00 0. -1.
         -1   -1    0    0    0  501 -0.00000000000E+00 -0.00000000000E+00 -0.10415999193E+04  0.10415999193E+04  0.00000000000E+00 0.  1.
         24    1    1    2    0    0 -0.36637135426E+02 -0.32383900392E+02 -0.69807707618E+03  0.70439322607E+03  0.80419002446E+02 0.  1.
        -24    1    1    2    0    0  0.36637135426E+02  0.32383900392E+02 -0.33385835695E+03  0.34687117948E+03  0.80419002446E+02 0. -1.
<mgrwt>
<rscale>  0 0.94118078E+02</rscale>
<asrwt>0</asrwt>
<pdfrwt beam="1">  1        1 0.14868441E-02 0.94118078E+02</pdfrwt>
<pdfrwt beam="2">  1       -1 0.16024613E+00 0.94118078E+02</pdfrwt>
<totfact> 0.27472128E+03</totfact>
</mgrwt>
</event>
<event>
 4    1  0.5097315E-001  0.1160349E+03  0.7546771E-02  0.1249785E+00
         -1   -1    0    0    0  501 -0.00000000000E+00  0.00000000000E+00  0.18964989124E+02  0.18964989124E+02  0.00000000000E+00 0.  1.
          1   -1    0    0  501    0  0.00000000000E+00 -0.00000000000E+00 -0.74003945195E+03  0.74003945195E+03  0.00000000000E+00 0. -1.
         24    1    1    2    0    0 -0.53568163968E+02 -0.64244367770E+02 -0.28400776514E+03  0.30679718642E+03  0.80419002446E+02 0. -1.
        -24    1    1    2    0    0  0.53568163968E+02  0.64244367770E+02 -0.43706669769E+03  0.45220725466E+03  0.80419002446E+02 0.  0.
<mgrwt>
<rscale>  0 0.11603492E+03</rscale>
<asrwt>0</asrwt>
<pdfrwt beam="1">  1        1 0.11385221E+00 0.11603492E+03</pdfrwt>
<pdfrwt beam="2">  1       -1 0.29176910E-02 0.11603492E+03</pdfrwt>
<totfact> 0.96863181E+03</totfact>
</mgrwt>
</event>
<event>
 4    1  0.5097315E-001  0.9318105E+02  0.7546771E-02  0.1295326E+00
         -1   -1    0    0    0  501 -0.00000000000E+00  0.00000000000E+00  0.49843518179E+01  0.49843518179E+01  0.00000000000E+00 0.  1.
          1   -1    0    0  501    0  0.00000000000E+00 -0.00000000000E+00 -0.21294468909E+04  0.21294468909E+04  0.00000000000E+00 0. -1.
         24    1    1    2    0    0 -0.45134798474E+02  0.13354457748E+02 -0.60700364789E+03  0.61411410673E+03  0.80419002446E+02 0.  1.
        -24    1    1    2    0    0  0.45134798474E+02 -0.13354457748E+02 -0.15174588912E+04  0.15203171360E+04  0.80419002446E+02 0. -1.
<mgrwt>
<rscale>  0 0.93181047E+02</rscale>
<asrwt>0</asrwt>
<pdfrwt beam="1">  1        1 0.32760738E+00 0.93181047E+02</pdfrwt>
<pdfrwt beam="2">  1       -1 0.76682296E-03 0.93181047E+02</pdfrwt>
<totfact> 0.74443489E+03</totfact>
</mgrwt>
</event>
<event>
 4    1  0.5097315E-001  0.8723504E+02  0.7546771E-02  0.1309689E+00
          1   -1    0    0  501    0  0.00000000000E+00  0.00000000000E+00  0.12903260462E+04  0.12903260462E+04  0.00000000000E+00 0. -1.
         -1   -1    0    0    0  501 -0.00000000000E+00 -0.00000000000E+00 -0.74547893396E+01  0.74547893396E+01  0.00000000000E+00 0.  1.
         24    1    1    2    0    0 -0.32611734287E+02  0.89000154866E+01  0.34487675514E+03  0.35573856648E+03  0.80419002446E+02 0.  0.
        -24    1    1    2    0    0  0.32611734287E+02 -0.89000154866E+01  0.93799450172E+03  0.94204226907E+03  0.80419002446E+02 0.  1.
<mgrwt>
<rscale>  0 0.87235036E+02</rscale>
<asrwt>0</asrwt>
<pdfrwt beam="1">  1        1 0.19851152E+00 0.87235036E+02</pdfrwt>
<pdfrwt beam="2">  1       -1 0.11468917E-02 0.87235036E+02</pdfrwt>
<totfact> 0.14299558E+04</totfact>
</mgrwt>
</event>
<event>
 4    1  0.5097315E-001  0.8946754E+02  0.7546771E-02  0.1304146E+00
          1   -1    0    0  501    0  0.00000000000E+00  0.00000000000E+00  0.43836588048E+03  0.43836588048E+03  0.00000000000E+00 0. -1.
         -1   -1    0    0    0  501 -0.00000000000E+00 -0.00000000000E+00 -0.30868219991E+02  0.30868219991E+02  0.00000000000E+00 0.  1.
         24    1    1    2    0    0  0.45620749881E+01  0.38941146699E+02  0.53802664751E+02  0.10439908105E+03  0.80419002446E+02 0.  1.
        -24    1    1    2    0    0 -0.45620749881E+01 -0.38941146699E+02  0.35369499573E+03  0.36483501942E+03  0.80419002446E+02 0. -1.
<mgrwt>
<rscale>  0 0.89467544E+02</rscale>
<asrwt>0</asrwt>
<pdfrwt beam="1">  1        1 0.67440900E-01 0.89467544E+02</pdfrwt>
<pdfrwt beam="2">  1       -1 0.47489572E-02 0.89467544E+02</pdfrwt>
<totfact> 0.94187589E+03</totfact>
</mgrwt>
</event>
<event>
 4    1  0.5097315E-001  0.1669214E+03  0.7546771E-02  0.1181097E+00
          2   -1    0    0  501    0  0.00000000000E+00  0.00000000000E+00  0.75918219094E+03  0.75918219094E+03  0.00000000000E+00 0. -1.
         -2   -1    0    0    0  501 -0.00000000000E+00 -0.00000000000E+00 -0.40587447021E+02  0.40587447021E+02  0.00000000000E+00 0.  1.
         24    1    1    2    0    0  0.13599455088E+03  0.53861210862E+02  0.48303850295E+03  0.51106649195E+03  0.80419002446E+02 0. -1.
        -24    1    1    2    0    0 -0.13599455088E+03 -0.53861210862E+02  0.23555624097E+03  0.28870314601E+03  0.80419002446E+02 0.  1.
<mgrwt>
<rscale>  0 0.16692143E+03</rscale>
<asrwt>0</asrwt>
<pdfrwt beam="1">  1        2 0.11679725E+00 0.16692143E+03</pdfrwt>
<pdfrwt beam="2">  1       -2 0.62442232E-02 0.16692143E+03</pdfrwt>
<totfact> 0.51656284E+03</totfact>
</mgrwt>
</event>
<event>
 4    1  0.5097315E-001  0.8338853E+02  0.7546771E-02  0.1319701E+00
          2   -1    0    0  501    0  0.00000000000E+00  0.00000000000E+00  0.21544441440E+03  0.21544441440E+03  0.00000000000E+00 0. -1.
         -2   -1    0    0    0  501 -0.00000000000E+00 -0.00000000000E+00 -0.58467279975E+02  0.58467279975E+02  0.00000000000E+00 0.  1.
         24    1    1    2    0    0  0.15426049622E+02  0.15762841814E+02  0.17015365295E+03  0.18948855310E+03  0.80419002446E+02 0. -1.
        -24    1    1    2    0    0 -0.15426049622E+02 -0.15762841814E+02 -0.13176518520E+02  0.84423141280E+02  0.80419002446E+02 0.  1.
<mgrwt>
<rscale>  0 0.83388525E+02</rscale>
<asrwt>0</asrwt>
<pdfrwt beam="1">  1        2 0.33145294E-01 0.83388525E+02</pdfrwt>
<pdfrwt beam="2">  1       -2 0.89949663E-02 0.83388525E+02</pdfrwt>
<totfact> 0.11124132E+04</totfact>
</mgrwt>
</event>
<event>
 4    1  0.5097315E-001  0.8683017E+02  0.7546771E-02  0.1310715E+00
         -3   -1    0    0    0  501 -0.00000000000E+00  0.00000000000E+00  0.52100727385E+03  0.52100727385E+03  0.00000000000E+00 0.  1.
          3   -1    0    0  501    0  0.00000000000E+00 -0.00000000000E+00 -0.29252163669E+02  0.29252163669E+02  0.00000000000E+00 0. -1.
         24    1    1    2    0    0  0.23980730375E+02  0.22297679323E+02  0.44145255463E+03  0.44991091993E+03  0.80419002446E+02 0.  1.
        -24    1    1    2    0    0 -0.23980730375E+02 -0.22297679323E+02  0.50302555554E+02  0.10034851759E+03  0.80419002446E+02 0. -1.
<mgrwt>
<rscale>  0 0.86830167E+02</rscale>
<asrwt>0</asrwt>
<pdfrwt beam="1">  1        3 0.45003333E-02 0.86830167E+02</pdfrwt>
<pdfrwt beam="2">  1       -3 0.80154958E-01 0.86830167E+02</pdfrwt>
<totfact> 0.85572331E+02</totfact>
</mgrwt>
</event>
<event>
 4    1  0.5097315E-001  0.1182993E+03  0.7546771E-02  0.1245929E+00
          2   -1    0    0  501    0  0.00000000000E+00  0.00000000000E+00  0.12606405228E+04  0.12606405228E+04  0.00000000000E+00 0. -1.
         -2   -1    0    0    0  501 -0.00000000000E+00 -0.00000000000E+00 -0.11688346947E+02  0.11688346947E+02  0.00000000000E+00 0.  1.
         24    1    1    2    0    0 -0.44163763717E+02 -0.74679856023E+02  0.76704777655E+03  0.77611663195E+03  0.80419002446E+02 0.  0.
        -24    1    1    2    0    0  0.44163763717E+02  0.74679856023E+02  0.48190439935E+03  0.49621223784E+03  0.80419002446E+02 0. -1.
<mgrwt>
<rscale>  0 0.11829934E+03</rscale>
<asrwt>0</asrwt>
<pdfrwt beam="1">  1        2 0.19394459E+00 0.11829934E+03</pdfrwt>
<pdfrwt beam="2">  1       -2 0.17982082E-02 0.11829934E+03</pdfrwt>
<totfact> 0.15935234E+04</totfact>
</mgrwt>
</event>
<event>
 4    1  0.5097315E-001  0.1136995E+03  0.7546771E-02  0.1253868E+00
          2   -1    0    0  501    0  0.00000000000E+00  0.00000000000E+00  0.22570433470E+04  0.22570433470E+04  0.00000000000E+00 0. -1.
         -2   -1    0    0    0  501 -0.00000000000E+00 -0.00000000000E+00 -0.61230563687E+01  0.61230563687E+01  0.00000000000E+00 0.  1.
         24    1    1    2    0    0  0.37140325688E+02  0.71280765904E+02  0.14130152144E+04  0.14175822951E+04  0.80419002446E+02 0.  1.
        -24    1    1    2    0    0 -0.37140325688E+02 -0.71280765904E+02  0.83790507618E+03  0.84558410819E+03  0.80419002446E+02 0. -1.
<mgrwt>
<rscale>  0 0.11369946E+03</rscale>
<asrwt>0</asrwt>
<pdfrwt beam="1">  1        2 0.34723677E+00 0.11369946E+03</pdfrwt>
<pdfrwt beam="2">  1       -2 0.94201047E-03 0.11369946E+03</pdfrwt>
<totfact> 0.12335499E+04</totfact>
</mgrwt>
</event>
<event>
 4    1  0.5097315E-001  0.1092765E+03  0.7546771E-02  0.1261916E+00
         -2   -1    0    0    0  501 -0.00000000000E+00  0.00000000000E+00  0.56364996691E+02  0.56364996691E+02  0.00000000000E+00 0.  1.
          2   -1    0    0  501    0  0.00000000000E+00 -0.00000000000E+00 -0.49987313523E+03  0.49987313523E+03  0.00000000000E+00 0. -1.
         24    1    1    2    0    0  0.14255111229E+02 -0.72601156956E+02 -0.43286408154E+03  0.44644447049E+03  0.80419002446E+02 0. -1.
        -24    1    1    2    0    0 -0.14255111229E+02  0.72601156956E+02 -0.10644057002E+02  0.10979366143E+03  0.80419002446E+02 0.  1.
<mgrwt>
<rscale>  0 0.10927649E+03</rscale>
<asrwt>0</asrwt>
<pdfrwt beam="1">  1        2 0.76903561E-01 0.10927649E+03</pdfrwt>
<pdfrwt beam="2">  1       -2 0.86715377E-02 0.10927649E+03</pdfrwt>
<totfact> 0.49416679E+03</totfact>
</mgrwt>
</event>
<event>
 4    1  0.5097315E-001  0.9238190E+02  0.7546771E-02  0.1297184E+00
          2   -1    0    0  501    0  0.00000000000E+00  0.00000000000E+00  0.14924842676E+04  0.14924842676E+04  0.00000000000E+00 0. -1.
         -2   -1    0    0    0  501 -0.00000000000E+00 -0.00000000000E+00 -0.68750485678E+01  0.68750485678E+01  0.00000000000E+00 0.  1.
         24    1    1    2    0    0  0.40893164457E+02 -0.19873333921E+02  0.10503182872E+04  0.10543732359E+04  0.80419002446E+02 0. -1.
        -24    1    1    2    0    0 -0.40893164457E+02  0.19873333921E+02  0.43529093184E+03  0.44498608023E+03  0.80419002446E+02 0.  1.
<mgrwt>
<rscale>  0 0.92381904E+02</rscale>
<asrwt>0</asrwt>
<pdfrwt beam="1">  1        2 0.22961271E+00 0.92381904E+02</pdfrwt>
<pdfrwt beam="2">  1       -2 0.10577010E-02 0.92381904E+02</pdfrwt>
<totfact> 0.25268232E+04</totfact>
</mgrwt>
</event>
<event>
 4    1  0.5097315E-001  0.1276172E+03  0.7546771E-02  0.1231035E+00
          1   -1    0    0  501    0  0.00000000000E+00  0.00000000000E+00  0.99110140246E+03  0.99110140246E+03  0.00000000000E+00 0. -1.
         -1   -1    0    0    0  501 -0.00000000000E+00 -0.00000000000E+00 -0.16900777175E+02  0.16900777175E+02  0.00000000000E+00 0.  1.
         24    1    1    2    0    0  0.10905929737E+02  0.98488542670E+02  0.40319521568E+03  0.42290960056E+03  0.80419002446E+02 0.  0.
        -24    1    1    2    0    0 -0.10905929737E+02 -0.98488542670E+02  0.57100540961E+03  0.58509257908E+03  0.80419002446E+02 0. -1.
<mgrwt>
<rscale>  0 0.12761719E+03</rscale>
<asrwt>0</asrwt>
<pdfrwt beam="1">  1        1 0.15247709E+00 0.12761719E+03</pdfrwt>
<pdfrwt beam="2">  1       -1 0.26001204E-02 0.12761719E+03</pdfrwt>
<totfact> 0.73151680E+03</totfact>
</mgrwt>
</event>
<event>
 4    1  0.5097315E-001  0.8098483E+02  0.7546771E-02  0.1326280E+00
          1   -1    0    0  501    0  0.00000000000E+00  0.00000000000E+00  0.27262382072E+04  0.27262382072E+04  0.00000000000E+00 0. -1.
         -1   -1    0    0    0  501 -0.00000000000E+00 -0.00000000000E+00 -0.12145819297E+02  0.12145819297E+02  0.00000000000E+00 0.  1.
         24    1    1    2    0    0 -0.89231100662E+01  0.34213413224E+01  0.13092662341E+03  0.15394909594E+03  0.80419002446E+02 0.  1.
        -24    1    1    2    0    0  0.89231100662E+01 -0.34213413224E+01  0.25831657645E+04  0.25844349306E+04  0.80419002446E+02 0. -1.
<mgrwt>
<rscale>  0 0.80984835E+02</rscale>
<asrwt>0</asrwt>
<pdfrwt beam="1">  1        1 0.41942078E+00 0.80984835E+02</pdfrwt>
<pdfrwt beam="2">  1       -1 0.18685898E-02 0.80984835E+02</pdfrwt>
<totfact> 0.87651973E+02</totfact>
</mgrwt>
</event>
<event>
 4    1  0.5097315E-001  0.8121139E+02  0.7546771E-02  0.1325648E+00
         -2   -1    0    0    0  501 -0.00000000000E+00  0.00000000000E+00  0.97214087786E+01  0.97214087786E+01  0.00000000000E+00 0.  1.
          2   -1    0    0  501    0  0.00000000000E+00 -0.00000000000E+00 -0.95497882881E+03  0.95497882881E+03  0.00000000000E+00 0. -1.
         24    1    1    2    0    0  0.11299722490E+02 -0.62454484852E+00 -0.73219714796E+03  0.73668714745E+03  0.80419002446E+02 0. -1.
        -24    1    1    2    0    0 -0.11299722490E+02  0.62454484852E+00 -0.21306027208E+03  0.22801309014E+03  0.80419002446E+02 0.  0.
<mgrwt>
<rscale>  0 0.81211389E+02</rscale>
<asrwt>0</asrwt>
<pdfrwt beam="1">  1        2 0.14691981E+00 0.81211389E+02</pdfrwt>
<pdfrwt beam="2">  1       -2 0.14956015E-02 0.81211389E+02</pdfrwt>
<totfact> 0.29924211E+04</totfact>
</mgrwt>
</event>
<event>
 4    1  0.5097315E-001  0.1297996E+03  0.7546771E-02  0.1227753E+00
         -2   -1    0    0    0  501 -0.00000000000E+00  0.00000000000E+00  0.42935673184E+02  0.42935673184E+02  0.00000000000E+00 0.  1.
          2   -1    0    0  501    0  0.00000000000E+00 -0.00000000000E+00 -0.39960165917E+03  0.39960165917E+03  0.00000000000E+00 0. -1.
         24    1    1    2    0    0 -0.76802299598E+02 -0.66948695410E+02 -0.20803853081E+03  0.24521004730E+03  0.80419002446E+02 0. -1.
        -24    1    1    2    0    0  0.76802299598E+02  0.66948695410E+02 -0.14862745518E+03  0.19732728505E+03  0.80419002446E+02 0.  0.
<mgrwt>
<rscale>  0 0.12979960E+03</rscale>
<asrwt>0</asrwt>
<pdfrwt beam="1">  1        2 0.61477181E-01 0.12979960E+03</pdfrwt>
<pdfrwt beam="2">  1       -2 0.66054879E-02 0.12979960E+03</pdfrwt>
<totfact> 0.96509231E+03</totfact>
</mgrwt>
</event>
<event>
 4    1  0.5097315E-001  0.8507609E+02  0.7546771E-02  0.1315234E+00
         -2   -1    0    0    0  501 -0.00000000000E+00  0.00000000000E+00  0.50128095189E+01  0.50128095189E+01  0.00000000000E+00 0.  1.
          2   -1    0    0  501    0  0.00000000000E+00 -0.00000000000E+00 -0.22666674511E+04  0.22666674511E+04  0.00000000000E+00 0. -1.
         24    1    1    2    0    0  0.11726704848E+02 -0.25163640029E+02 -0.18151560434E+04  0.18171487012E+04  0.80419002446E+02 0. -1.
        -24    1    1    2    0    0 -0.11726704848E+02  0.25163640029E+02 -0.44649859819E+03  0.45453155944E+03  0.80419002446E+02 0.  1.
<mgrwt>
<rscale>  0 0.85076086E+02</rscale>
<asrwt>0</asrwt>
<pdfrwt beam="1">  1        2 0.34871793E+00 0.85076086E+02</pdfrwt>
<pdfrwt beam="2">  1       -2 0.77120177E-03 0.85076086E+02</pdfrwt>
<totfact> 0.15989881E+04</totfact>
</mgrwt>
</event>
<event>
 4    1  0.5097315E-001  0.8170185E+02  0.7546771E-02  0.1324290E+00
          2   -1    0    0  501    0  0.00000000000E+00  0.00000000000E+00  0.29943100951E+03  0.29943100951E+03  0.00000000000E+00 0. -1.
         -2   -1    0    0    0  501 -0.00000000000E+00 -0.00000000000E+00 -0.28973081186E+02  0.28973081186E+02  0.00000000000E+00 0.  1.
         24    1    1    2    0    0 -0.13387681163E+02  0.53616131310E+01  0.21407403520E+03  0.22913508113E+03  0.80419002446E+02 0. -1.
        -24    1    1    2    0    0  0.13387681163E+02 -0.53616131310E+01  0.56383893120E+02  0.99269009565E+02  0.80419002446E+02 0.  0.
<mgrwt>
<rscale>  0 0.81701853E+02</rscale>
<asrwt>0</asrwt>
<pdfrwt beam="1">  1        2 0.46066307E-01 0.81701853E+02</pdfrwt>
<pdfrwt beam="2">  1       -2 0.44573973E-02 0.81701853E+02</pdfrwt>
<totfact> 0.22582533E+04</totfact>
</mgrwt>
</event>
<event>
 4    1  0.5097315E-001  0.8757914E+02  0.7546771E-02  0.1308822E+00
          4   -1    0    0  501    0  0.00000000000E+00  0.00000000000E+00  0.23381400041E+02  0.23381400041E+02  0.00000000000E+00 0. -1.
         -4   -1    0    0    0  501 -0.00000000000E+00 -0.00000000000E+00 -0.33150353965E+03  0.33150353965E+03  0.00000000000E+00 0.  1.
         24    1    1    2    0    0 -0.29992559621E+02 -0.17416525330E+02 -0.13593162417E+03  0.16170192142E+03  0.80419002446E+02 0.  0.
        -24    1    1    2    0    0  0.29992559621E+02  0.17416525330E+02 -0.17219051544E+03  0.19318301827E+03  0.80419002446E+02 0. -1.
<mgrwt>
<rscale>  0 0.87579135E+02</rscale>
<asrwt>0</asrwt>
<pdfrwt beam="1">  1        4 0.35971384E-02 0.87579135E+02</pdfrwt>
<pdfrwt beam="2">  1       -4 0.51000546E-01 0.87579135E+02</pdfrwt>
<totfact> 0.22222480E+03</totfact>
</mgrwt>
</event>
<event>
 4    1  0.5097315E-001  0.1121080E+03  0.7546771E-02  0.1256715E+00
          3   -1    0    0  501    0  0.00000000000E+00  0.00000000000E+00  0.28908993496E+02  0.28908993496E+02  0.00000000000E+00 0. -1.
         -3   -1    0    0    0  501 -0.00000000000E+00 -0.00000000000E+00 -0.43953887462E+03  0.43953887462E+03  0.00000000000E+00 0.  1.
         24    1    1    2    0    0  0.70309436710E+01 -0.77791691581E+02 -0.22976217758E+03  0.25565378082E+03  0.80419002446E+02 0.  1.
        -24    1    1    2    0    0 -0.70309436710E+01  0.77791691581E+02 -0.18086770355E+03  0.21279408730E+03  0.80419002446E+02 0. -1.
<mgrwt>
<rscale>  0 0.11210797E+03</rscale>
<asrwt>0</asrwt>
<pdfrwt beam="1">  1        3 0.44475372E-02 0.11210797E+03</pdfrwt>
<pdfrwt beam="2">  1       -3 0.67621369E-01 0.11210797E+03</pdfrwt>
<totfact> 0.13099425E+03</totfact>
</mgrwt>
</event>
<event>
 4    1  0.5097315E-001  0.9525423E+02  0.7546771E-02  0.1290605E+00
         -2   -1    0    0    0  501 -0.00000000000E+00  0.00000000000E+00  0.14700941305E+02  0.14700941305E+02  0.00000000000E+00 0.  1.
          2   -1    0    0  501    0  0.00000000000E+00 -0.00000000000E+00 -0.62880194481E+03  0.62880194481E+03  0.00000000000E+00 0. -1.
         24    1    1    2    0    0  0.16590925997E+01 -0.51023531245E+02 -0.35076190632E+03  0.36346565754E+03  0.80419002446E+02 0.  0.
        -24    1    1    2    0    0 -0.16590925997E+01  0.51023531245E+02 -0.26333909718E+03  0.28003722857E+03  0.80419002446E+02 0.  1.
<mgrwt>
<rscale>  0 0.95254235E+02</rscale>
<asrwt>0</asrwt>
<pdfrwt beam="1">  1        2 0.96738754E-01 0.95254235E+02</pdfrwt>
<pdfrwt beam="2">  1       -2 0.22616834E-02 0.95254235E+02</pdfrwt>
<totfact> 0.27907454E+04</totfact>
</mgrwt>
</event>
<event>
 4    1  0.5097315E-001  0.8196860E+02  0.7546771E-02  0.1323556E+00
          2   -1    0    0  501    0  0.00000000000E+00  0.00000000000E+00  0.61408094888E+03  0.61408094888E+03  0.00000000000E+00 0. -1.
         -2   -1    0    0    0  501 -0.00000000000E+00 -0.00000000000E+00 -0.70663357042E+02  0.70663357042E+02  0.00000000000E+00 0.  1.
         24    1    1    2    0    0 -0.95081730266E+01 -0.12697634013E+02  0.58646089601E+03  0.59216149298E+03  0.80419002446E+02 0. -1.
        -24    1    1    2    0    0  0.95081730266E+01  0.12697634013E+02 -0.43043304172E+02  0.92582812942E+02  0.80419002446E+02 0.  1.
<mgrwt>
<rscale>  0 0.81968599E+02</rscale>
<asrwt>0</asrwt>
<pdfrwt beam="1">  1        2 0.94473989E-01 0.81968599E+02</pdfrwt>
<pdfrwt beam="2">  1       -2 0.10871286E-01 0.81968599E+02</pdfrwt>
<totfact> 0.27324283E+03</totfact>
</mgrwt>
</event>
<event>
 4    1  0.5097315E-001  0.9125821E+02  0.7546771E-02  0.1299833E+00
          1   -1    0    0  501    0  0.00000000000E+00  0.00000000000E+00  0.66237693254E+02  0.66237693254E+02  0.00000000000E+00 0. -1.
         -1   -1    0    0    0  501 -0.00000000000E+00 -0.00000000000E+00 -0.15732743451E+03  0.15732743451E+03  0.00000000000E+00 0.  1.
         24    1    1    2    0    0  0.32118937481E+02  0.28796154029E+02 -0.95640313817E+02  0.13219353317E+03  0.80419002446E+02 0.  1.
        -24    1    1    2    0    0 -0.32118937481E+02 -0.28796154029E+02  0.45505725655E+01  0.91371594584E+02  0.80419002446E+02 0. -1.
<mgrwt>
<rscale>  0 0.91258208E+02</rscale>
<asrwt>0</asrwt>
<pdfrwt beam="1">  1        1 0.10190415E-01 0.91258208E+02</pdfrwt>
<pdfrwt beam="2">  1       -1 0.24204220E-01 0.91258208E+02</pdfrwt>
<totfact> 0.83764488E+03</totfact>
</mgrwt>
</event>
<event>
 4    1  0.5097315E-001  0.8142758E+02  0.7546771E-02  0.1325048E+00
         -2   -1    0    0    0  501 -0.00000000000E+00  0.00000000000E+00  0.62251617571E+01  0.62251617571E+01  0.00000000000E+00 0.  1.
          2   -1    0    0  501    0  0.00000000000E+00 -0.00000000000E+00 -0.19309327688E+04  0.19309327688E+04  0.00000000000E+00 0. -1.
         24    1    1    2    0    0 -0.38941332937E+01  0.12168418597E+02 -0.16109392853E+04  0.16129959180E+04  0.80419002446E+02 0. -1.
        -24    1    1    2    0    0  0.38941332937E+01 -0.12168418597E+02 -0.31376832172E+03  0.32416201251E+03  0.80419002446E+02 0.  0.
<mgrwt>
<rscale>  0 0.81427579E+02</rscale>
<asrwt>0</asrwt>
<pdfrwt beam="1">  1        2 0.29706677E+00 0.81427579E+02</pdfrwt>
<pdfrwt beam="2">  1       -2 0.95771657E-03 0.81427579E+02</pdfrwt>
<totfact> 0.17352195E+04</totfact>
</mgrwt>
</event>
<event>
 4    1  0.5097315E-001  0.1070640E+03  0.7546771E-02  0.1266105E+00
          2   -1    0    0  501    0  0.00000000000E+00  0.00000000000E+00  0.31765913793E+04  0.31765913793E+04  0.00000000000E+00 0. -1.
         -2   -1    0    0    0  501 -0.00000000000E+00 -0.00000000000E+00 -0.62320230516E+01  0.62320230516E+01  0.00000000000E+00 0.  1.
         24    1    1    2    0    0 -0.70218456747E+02 -0.80536158336E+01  0.26177295273E+04  0.26199180496E+04  0.80419002446E+02 0. -1.
        -24    1    1    2    0    0  0.70218456747E+02  0.80536158336E+01  0.55262982898E+03  0.56290535281E+03  0.80419002446E+02 0.  1.
<mgrwt>
<rscale>  0 0.10706404E+03</rscale>
<asrwt>0</asrwt>
<pdfrwt beam="1">  1        2 0.48870507E+00 0.10706404E+03</pdfrwt>
<pdfrwt beam="2">  1       -2 0.95877531E-03 0.10706404E+03</pdfrwt>
<totfact> 0.37591110E+03</totfact>
</mgrwt>
</event>
<event>
 4    1  0.5097315E-001  0.9796099E+02  0.7546771E-02  0.1284643E+00
         -1   -1    0    0    0  501 -0.00000000000E+00  0.00000000000E+00  0.31723985264E+02  0.31723985264E+02  0.00000000000E+00 0.  1.
          1   -1    0    0  501    0  0.00000000000E+00 -0.00000000000E+00 -0.47085572128E+03  0.47085572128E+03  0.00000000000E+00 0. -1.
         24    1    1    2    0    0 -0.51068124671E+02  0.22829508316E+02 -0.69303213651E+02  0.11999704656E+03  0.80419002446E+02 0.  1.
        -24    1    1    2    0    0  0.51068124671E+02 -0.22829508316E+02 -0.36982852237E+03  0.38258265998E+03  0.80419002446E+02 0. -1.
<mgrwt>
<rscale>  0 0.97960991E+02</rscale>
<asrwt>0</asrwt>
<pdfrwt beam="1">  1        1 0.72439341E-01 0.97960991E+02</pdfrwt>
<pdfrwt beam="2">  1       -1 0.48806132E-02 0.97960991E+02</pdfrwt>
<totfact> 0.83254803E+03</totfact>
</mgrwt>
</event>
<event>
 4    1  0.5097315E-001  0.2105451E+03  0.7546771E-02  0.1141135E+00
          2   -1    0    0  501    0  0.00000000000E+00  0.00000000000E+00  0.15021524226E+03  0.15021524226E+03  0.00000000000E+00 0. -1.
         -2   -1    0    0    0  501 -0.00000000000E+00 -0.00000000000E+00 -0.30821081663E+03  0.30821081663E+03  0.00000000000E+00 0.  1.
         24    1    1    2    0    0 -0.22787602341E+02 -0.19324263202E+03 -0.12626439188E+03  0.24550336507E+03  0.80419002446E+02 0.  0.
        -24    1    1    2    0    0  0.22787602341E+02  0.19324263202E+03 -0.31731182489E+02  0.21292269383E+03  0.80419002446E+02 0.  0.
<mgrwt>
<rscale>  0 0.21054505E+03</rscale>
<asrwt>0</asrwt>
<pdfrwt beam="1">  1        2 0.23110037E-01 0.21054507E+03</pdfrwt>
<pdfrwt beam="2">  1       -2 0.47417048E-01 0.21054507E+03</pdfrwt>
<totfact> 0.99966810E+02</totfact>
</mgrwt>
</event>
<event>
 4    1  0.5097315E-001  0.8534690E+02  0.7546771E-02  0.1314528E+00
         -2   -1    0    0    0  501 -0.00000000000E+00  0.00000000000E+00  0.30452573200E+01  0.30452573200E+01  0.00000000000E+00 0.  1.
          2   -1    0    0  501    0  0.00000000000E+00 -0.00000000000E+00 -0.24801338907E+04  0.24801338907E+04  0.00000000000E+00 0. -1.
         24    1    1    2    0    0  0.15983139163E+02  0.23694163339E+02 -0.10044204017E+04  0.10080398968E+04  0.80419002446E+02 0. -1.
        -24    1    1    2    0    0 -0.15983139163E+02 -0.23694163339E+02 -0.14726682316E+04  0.14751392512E+04  0.80419002446E+02 0.  0.
<mgrwt>
<rscale>  0 0.85346892E+02</rscale>
<asrwt>0</asrwt>
<pdfrwt beam="1">  1        2 0.38155801E+00 0.85346902E+02</pdfrwt>
<pdfrwt beam="2">  1       -2 0.46850241E-03 0.85346902E+02</pdfrwt>
<totfact> 0.24965639E+04</totfact>
</mgrwt>
</event>
<event>
 4    1  0.5097315E-001  0.8484223E+02  0.7546771E-02  0.1315846E+00
          1   -1    0    0  501    0  0.00000000000E+00  0.00000000000E+00  0.52354673403E+03  0.52354673403E+03  0.00000000000E+00 0. -1.
         -1   -1    0    0    0  501 -0.00000000000E+00 -0.00000000000E+00 -0.32737523294E+02  0.32737523294E+02  0.00000000000E+00 0.  1.
         24    1    1    2    0    0 -0.10332490530E+02  0.24984561893E+02  0.33573213296E+02  0.91243439758E+02  0.80419002446E+02 0.  1.
        -24    1    1    2    0    0  0.10332490530E+02 -0.24984561893E+02  0.45723599744E+03  0.46504081757E+03  0.80419002446E+02 0. -1.
<mgrwt>
<rscale>  0 0.84842234E+02</rscale>
<asrwt>0</asrwt>
<pdfrwt beam="1">  1        1 0.80545645E-01 0.84842234E+02</pdfrwt>
<pdfrwt beam="2">  1       -1 0.50365425E-02 0.84842234E+02</pdfrwt>
<totfact> 0.68663222E+03</totfact>
</mgrwt>
</event>
<event>
 4    1  0.5097315E-001  0.9061212E+02  0.7546771E-02  0.1301376E+00
          2   -1    0    0  501    0  0.00000000000E+00  0.00000000000E+00  0.11317883196E+04  0.11317883196E+04  0.00000000000E+00 0. -1.
         -2   -1    0    0    0  501 -0.00000000000E+00 -0.00000000000E+00 -0.46115485338E+02  0.46115485338E+02  0.00000000000E+00 0.  1.
         24    1    1    2    0    0 -0.40319688179E+02 -0.10847297205E+02  0.10834828571E+04  0.10872652201E+04  0.80419002446E+02 0. -1.
        -24    1    1    2    0    0  0.40319688179E+02  0.10847297205E+02  0.21899771197E+01  0.90638584861E+02  0.80419002446E+02 0.  1.
<mgrwt>
<rscale>  0 0.90612124E+02</rscale>
<asrwt>0</asrwt>
<pdfrwt beam="1">  1        2 0.17412126E+00 0.90612124E+02</pdfrwt>
<pdfrwt beam="2">  1       -2 0.70946909E-02 0.90612124E+02</pdfrwt>
<totfact> 0.24561268E+03</totfact>
</mgrwt>
</event>
<event>
 4    1  0.5097315E-001  0.8133223E+02  0.7546771E-02  0.1325313E+00
          2   -1    0    0  501    0  0.00000000000E+00  0.00000000000E+00  0.11750376195E+04  0.11750376195E+04  0.00000000000E+00 0. -1.
         -2   -1    0    0    0  501 -0.00000000000E+00 -0.00000000000E+00 -0.60193945996E+01  0.60193945996E+01  0.00000000000E+00 0.  1.
         24    1    1    2    0    0  0.11850267113E+02 -0.26994144360E+01  0.73479246976E+03  0.73927999110E+03  0.80419002446E+02 0. -1.
        -24    1    1    2    0    0 -0.11850267113E+02  0.26994144360E+01  0.43422575509E+03  0.44177702295E+03  0.80419002446E+02 0.  1.
<mgrwt>
<rscale>  0 0.81332230E+02</rscale>
<asrwt>0</asrwt>
<pdfrwt beam="1">  1        2 0.18077484E+00 0.81332230E+02</pdfrwt>
<pdfrwt beam="2">  1       -2 0.92606164E-03 0.81332230E+02</pdfrwt>
<totfact> 0.44238221E+04</totfact>
</mgrwt>
</event>
<event>
 4    1  0.5097315E-001  0.1004082E+03  0.7546771E-02  0.1279440E+00
          2   -1    0    0  501    0  0.00000000000E+00  0.00000000000E+00  0.10357735400E+04  0.10357735400E+04  0.00000000000E+00 0. -1.
         -2   -1    0    0    0  501 -0.00000000000E+00 -0.00000000000E+00 -0.23195083189E+02  0.23195083189E+02  0.00000000000E+00 0.  1.
         24    1    1    2    0    0  0.28938761442E+02  0.52698629643E+02  0.90965724513E+03  0.91518201308E+03  0.80419002446E+02 0. -1.
        -24    1    1    2    0    0 -0.28938761442E+02 -0.52698629643E+02  0.10292121168E+03  0.14378661011E+03  0.80419002446E+02 0.  1.
<mgrwt>
<rscale>  0 0.10040823E+03</rscale>
<asrwt>0</asrwt>
<pdfrwt beam="1">  1        2 0.15934974E+00 0.10040823E+03</pdfrwt>
<pdfrwt beam="2">  1       -2 0.35684751E-02 0.10040823E+03</pdfrwt>
<totfact> 0.77778116E+03</totfact>
</mgrwt>
</event>
<event>
 4    1  0.5097315E-001  0.1076907E+03  0.7546771E-02  0.1264907E+00
         -2   -1    0    0    0  501 -0.00000000000E+00  0.00000000000E+00  0.71942553569E+02  0.71942553569E+02  0.00000000000E+00 0.  1.
          2   -1    0    0  501    0  0.00000000000E+00 -0.00000000000E+00 -0.16238822137E+03  0.16238822137E+03  0.00000000000E+00 0. -1.
         24    1    1    2    0    0 -0.47964217060E+02 -0.53193093870E+02 -0.35209117106E+02  0.11330034967E+03  0.80419002446E+02 0.  1.
        -24    1    1    2    0    0  0.47964217060E+02  0.53193093870E+02 -0.55236550694E+02  0.12103042527E+03  0.80419002446E+02 0. -1.
<mgrwt>
<rscale>  0 0.10769072E+03</rscale>
<asrwt>0</asrwt>
<pdfrwt beam="1">  1        2 0.24982803E-01 0.10769073E+03</pdfrwt>
<pdfrwt beam="2">  1       -2 0.11068085E-01 0.10769073E+03</pdfrwt>
<totfact> 0.11175798E+04</totfact>
</mgrwt>
</event>
<event>
 4    1  0.5097315E-001  0.8166214E+02  0.7546771E-02  0.1324400E+00
          1   -1    0    0  501    0  0.00000000000E+00  0.00000000000E+00  0.46330578001E+03  0.46330578001E+03  0.00000000000E+00 0. -1.
         -1   -1    0    0    0  501 -0.00000000000E+00 -0.00000000000E+00 -0.15556432415E+02  0.15556432415E+02  0.00000000000E+00 0.  1.
         24    1    1    2    0    0  0.17881656270E+01 -0.14081603000E+02  0.15841751606E+03  0.17822686225E+03  0.80419002446E+02 0.  1.
        -24    1    1    2    0    0 -0.17881656270E+01  0.14081603000E+02  0.28933183153E+03  0.30063535017E+03  0.80419002446E+02 0. -1.
<mgrwt>
<rscale>  0 0.81662140E+02</rscale>
<asrwt>0</asrwt>
<pdfrwt beam="1">  1        1 0.71277802E-01 0.81662140E+02</pdfrwt>
<pdfrwt beam="2">  1       -1 0.23932976E-02 0.81662140E+02</pdfrwt>
<totfact> 0.23405194E+04</totfact>
</mgrwt>
</event>
<event>
 4    1  0.5097315E-001  0.8847581E+02  0.7546771E-02  0.1306585E+00
          1   -1    0    0  501    0  0.00000000000E+00  0.00000000000E+00  0.19380233850E+03  0.19380233850E+03  0.00000000000E+00 0. -1.
         -1   -1    0    0    0  501 -0.00000000000E+00 -0.00000000000E+00 -0.42960821770E+02  0.42960821770E+02  0.00000000000E+00 0.  1.
         24    1    1    2    0    0 -0.16282533243E+02  0.33100340113E+02  0.46470254284E+02  0.99937249772E+02  0.80419002446E+02 0.  1.
        -24    1    1    2    0    0  0.16282533243E+02 -0.33100340113E+02  0.10437126244E+03  0.13682591050E+03  0.80419002446E+02 0. -1.
<mgrwt>
<rscale>  0 0.88475812E+02</rscale>
<asrwt>0</asrwt>
<pdfrwt beam="1">  1        1 0.29815744E-01 0.88475812E+02</pdfrwt>
<pdfrwt beam="2">  1       -1 0.66093573E-02 0.88475812E+02</pdfrwt>
<totfact> 0.15762019E+04</totfact>
</mgrwt>
</event>
<event>
 4    1  0.5097315E-001  0.1295191E+03  0.7546771E-02  0.1228171E+00
          2   -1    0    0  501    0  0.00000000000E+00  0.00000000000E+00  0.91344425600E+03  0.91344425600E+03  0.00000000000E+00 0. -1.
         -2   -1    0    0    0  501 -0.00000000000E+00 -0.00000000000E+00 -0.26241677150E+02  0.26241677150E+02  0.00000000000E+00 0.  1.
         24    1    1    2    0    0  0.92486651835E+02 -0.41883198045E+02  0.70101675634E+03  0.71288126057E+03  0.80419002446E+02 0. -1.
        -24    1    1    2    0    0 -0.92486651835E+02  0.41883198045E+02  0.18618582251E+03  0.22680467258E+03  0.80419002446E+02 0.  1.
<mgrwt>
<rscale>  0 0.12951911E+03</rscale>
<asrwt>0</asrwt>
<pdfrwt beam="1">  1        2 0.14052986E+00 0.12951911E+03</pdfrwt>
<pdfrwt beam="2">  1       -2 0.40371818E-02 0.12951911E+03</pdfrwt>
<totfact> 0.77830100E+03</totfact>
</mgrwt>
</event>
<event>
 4    1  0.5097315E-001  0.9061021E+02  0.7546771E-02  0.1301381E+00
          2   -1    0    0  501    0  0.00000000000E+00  0.00000000000E+00  0.15785782931E+03  0.15785782931E+03  0.00000000000E+00 0. -1.
         -2   -1    0    0    0  501 -0.00000000000E+00 -0.00000000000E+00 -0.29260860941E+03  0.29260860941E+03  0.00000000000E+00 0.  1.
         24    1    1    2    0    0 -0.34840222380E+02 -0.23003320257E+02  0.13686202872E+03  0.16413843151E+03  0.80419002446E+02 0. -1.
        -24    1    1    2    0    0  0.34840222380E+02  0.23003320257E+02 -0.27161280883E+03  0.28632800721E+03  0.80419002446E+02 0.  1.
<mgrwt>
<rscale>  0 0.90610208E+02</rscale>
<asrwt>0</asrwt>
<pdfrwt beam="1">  1        2 0.24285820E-01 0.90610208E+02</pdfrwt>
<pdfrwt beam="2">  1       -2 0.45016709E-01 0.90610208E+02</pdfrwt>
<totfact> 0.10217723E+03</totfact>
</mgrwt>
</event>
<event>
 4    1  0.5097315E-001  0.8133982E+02  0.7546771E-02  0.1325292E+00
         -2   -1    0    0    0  501 -0.00000000000E+00  0.00000000000E+00  0.42776714514E+02  0.42776714514E+02  0.00000000000E+00 0.  1.
          2   -1    0    0  501    0  0.00000000000E+00 -0.00000000000E+00 -0.20099147470E+04  0.20099147470E+04  0.00000000000E+00 0. -1.
         24    1    1    2    0    0 -0.39250911892E+01 -0.11556127072E+02 -0.19696345130E+04  0.19713133392E+04  0.80419002446E+02 0. -1.
        -24    1    1    2    0    0  0.39250911892E+01  0.11556127072E+02  0.24964805972E+01  0.81378122266E+02  0.80419002446E+02 0.  1.
<mgrwt>
<rscale>  0 0.81339820E+02</rscale>
<asrwt>0</asrwt>
<pdfrwt beam="1">  1        2 0.30921763E+00 0.81339820E+02</pdfrwt>
<pdfrwt beam="2">  1       -2 0.65810335E-02 0.81339820E+02</pdfrwt>
<totfact> 0.97558780E+02</totfact>
</mgrwt>
</event>
<event>
 4    1  0.5097315E-001  0.8132262E+02  0.7546771E-02  0.1325339E+00
          1   -1    0    0  501    0  0.00000000000E+00  0.00000000000E+00  0.37878719963E+03  0.37878719963E+03  0.00000000000E+00 0. -1.
         -1   -1    0    0    0  501 -0.00000000000E+00 -0.00000000000E+00 -0.19774304340E+02  0.19774304340E+02  0.00000000000E+00 0.  1.
         24    1    1    2    0    0  0.96134021045E+01 -0.73303836700E+01  0.11132149938E+03  0.13786168504E+03  0.80419002446E+02 0.  0.
        -24    1    1    2    0    0 -0.96134021045E+01  0.73303836700E+01  0.24769139591E+03  0.26069981892E+03  0.80419002446E+02 0. -1.
<mgrwt>
<rscale>  0 0.81322617E+02</rscale>
<asrwt>0</asrwt>
<pdfrwt beam="1">  1        1 0.58274948E-01 0.81322617E+02</pdfrwt>
<pdfrwt beam="2">  1       -1 0.30422009E-02 0.81322617E+02</pdfrwt>
<totfact> 0.21320898E+04</totfact>
</mgrwt>
</event>
<event>
 4    1  0.5097315E-001  0.9291496E+02  0.7546771E-02  0.1295942E+00
          1   -1    0    0  501    0  0.00000000000E+00  0.00000000000E+00  0.52849666606E+03  0.52849666606E+03  0.00000000000E+00 0. -1.
         -1   -1    0    0    0  501 -0.00000000000E+00 -0.00000000000E+00 -0.17902103309E+02  0.17902103309E+02  0.00000000000E+00 0.  1.
         24    1    1    2    0    0  0.24593597701E+02  0.39511132282E+02  0.17447619141E+03  0.19767430776E+03  0.80419002446E+02 0.  1.
        -24    1    1    2    0    0 -0.24593597701E+02 -0.39511132282E+02  0.33611837134E+03  0.34872446162E+03  0.80419002446E+02 0. -1.
<mgrwt>
<rscale>  0 0.92914964E+02</rscale>
<asrwt>0</asrwt>
<pdfrwt beam="1">  1        1 0.81307167E-01 0.92914964E+02</pdfrwt>
<pdfrwt beam="2">  1       -1 0.27541701E-02 0.92914964E+02</pdfrwt>
<totfact> 0.16385600E+04</totfact>
</mgrwt>
</event>
<event>
 4    1  0.5097315E-001  0.1066528E+03  0.7546771E-02  0.1266897E+00
         -1   -1    0    0    0  501 -0.00000000000E+00  0.00000000000E+00  0.18949710655E+02  0.18949710655E+02  0.00000000000E+00 0.  1.
          1   -1    0    0  501    0  0.00000000000E+00 -0.00000000000E+00 -0.13596023927E+04  0.13596023927E+04  0.00000000000E+00 0. -1.
         24    1    1    2    0    0 -0.19196904034E+02  0.67372774624E+02 -0.15521047342E+03  0.18832184924E+03  0.80419002446E+02 0.  1.
        -24    1    1    2    0    0  0.19196904034E+02 -0.67372774624E+02 -0.11854422086E+04  0.11902302541E+04  0.80419002446E+02 0. -1.
<mgrwt>
<rscale>  0 0.10665284E+03</rscale>
<asrwt>0</asrwt>
<pdfrwt beam="1">  1        1 0.20916971E+00 0.10665284E+03</pdfrwt>
<pdfrwt beam="2">  1       -1 0.29153386E-02 0.10665284E+03</pdfrwt>
<totfact> 0.34349087E+03</totfact>
</mgrwt>
</event>
<event>
 4    1  0.5097315E-001  0.9567507E+02  0.7546771E-02  0.1289663E+00
          3   -1    0    0  501    0  0.00000000000E+00  0.00000000000E+00  0.13928852467E+03  0.13928852467E+03  0.00000000000E+00 0. -1.
         -3   -1    0    0    0  501 -0.00000000000E+00 -0.00000000000E+00 -0.11184418837E+03  0.11184418837E+03  0.00000000000E+00 0.  1.
         24    1    1    2    0    0 -0.51796902823E+02  0.18928728572E+01 -0.66916230245E+02  0.11675401464E+03  0.80419002446E+02 0.  1.
        -24    1    1    2    0    0  0.51796902823E+02 -0.18928728572E+01  0.94360566543E+02  0.13437869839E+03  0.80419002446E+02 0. -1.
<mgrwt>
<rscale>  0 0.95675065E+02</rscale>
<asrwt>0</asrwt>
<pdfrwt beam="1">  1        3 0.21429004E-01 0.95675065E+02</pdfrwt>
<pdfrwt beam="2">  1       -3 0.17206798E-01 0.95675065E+02</pdfrwt>
<totfact> 0.12557663E+03</totfact>
</mgrwt>
</event>
<event>
 4    1  0.5097315E-001  0.8058415E+02  0.7546771E-02  0.1327402E+00
          2   -1    0    0  501    0  0.00000000000E+00  0.00000000000E+00  0.75590429528E+02  0.75590429528E+02  0.00000000000E+00 0. -1.
         -2   -1    0    0    0  501 -0.00000000000E+00 -0.00000000000E+00 -0.90547347616E+02  0.90547347616E+02  0.00000000000E+00 0.  1.
         24    1    1    2    0    0 -0.32363944968E+01  0.40139418835E+01 -0.26282093476E+02  0.84761727039E+02  0.80419002446E+02 0.  0.
        -24    1    1    2    0    0  0.32363944968E+01 -0.40139418835E+01  0.11325175388E+02  0.81376050105E+02  0.80419002446E+02 0. -1.
<mgrwt>
<rscale>  0 0.80584140E+02</rscale>
<asrwt>0</asrwt>
<pdfrwt beam="1">  1        2 0.11629297E-01 0.80584150E+02</pdfrwt>
<pdfrwt beam="2">  1       -2 0.13930361E-01 0.80584150E+02</pdfrwt>
<totfact> 0.18007538E+04</totfact>
</mgrwt>
</event>
<event>
 4    1  0.5097315E-001  0.1093962E+03  0.7546771E-02  0.1261692E+00
         -2   -1    0    0    0  501 -0.00000000000E+00  0.00000000000E+00  0.16899135764E+02  0.16899135764E+02  0.00000000000E+00 0.  1.
          2   -1    0    0  501    0  0.00000000000E+00 -0.00000000000E+00 -0.85276385243E+03  0.85276385243E+03  0.00000000000E+00 0. -1.
         24    1    1    2    0    0  0.18280276155E+02  0.71875952351E+02 -0.59698253773E+03  0.60692313132E+03  0.80419002446E+02 0.  1.
        -24    1    1    2    0    0 -0.18280276155E+02 -0.71875952351E+02 -0.23888217893E+03  0.26273985687E+03  0.80419002446E+02 0. -1.
<mgrwt>
<rscale>  0 0.10939624E+03</rscale>
<asrwt>0</asrwt>
<pdfrwt beam="1">  1        2 0.13119444E+00 0.10939624E+03</pdfrwt>
<pdfrwt beam="2">  1       -2 0.25998669E-02 0.10939624E+03</pdfrwt>
<totfact> 0.16056190E+04</totfact>
</mgrwt>
</event>
<event>
 4    1  0.5097315E-001  0.9001701E+02  0.7546771E-02  0.1302811E+00
         -2   -1    0    0    0  501 -0.00000000000E+00  0.00000000000E+00  0.22620584721E+02  0.22620584721E+02  0.00000000000E+00 0.  1.
          2   -1    0    0  501    0  0.00000000000E+00 -0.00000000000E+00 -0.64842018888E+03  0.64842018888E+03  0.00000000000E+00 0. -1.
         24    1    1    2    0    0 -0.32258105070E+02 -0.24397975143E+02 -0.53736150466E+03  0.54484901503E+03  0.80419002446E+02 0. -1.
        -24    1    1    2    0    0  0.32258105070E+02  0.24397975143E+02 -0.88438099494E+02  0.12619175857E+03  0.80419002446E+02 0.  1.
<mgrwt>
<rscale>  0 0.90017012E+02</rscale>
<asrwt>0</asrwt>
<pdfrwt beam="1">  1        2 0.99756947E-01 0.90017012E+02</pdfrwt>
<pdfrwt beam="2">  1       -2 0.34800901E-02 0.90017012E+02</pdfrwt>
<totfact> 0.14339279E+04</totfact>
</mgrwt>
</event>
<event>
 4    1  0.5097315E-001  0.1040170E+03  0.7546771E-02  0.1272068E+00
         -1   -1    0    0    0  501 -0.00000000000E+00  0.00000000000E+00  0.53052282165E+02  0.53052282165E+02  0.00000000000E+00 0.  1.
          1   -1    0    0  501    0  0.00000000000E+00 -0.00000000000E+00 -0.27428662115E+03  0.27428662115E+03  0.00000000000E+00 0. -1.
         24    1    1    2    0    0  0.17463545770E+02  0.63618791380E+02 -0.27730732753E+02  0.10765006057E+03  0.80419002446E+02 0.  1.
        -24    1    1    2    0    0 -0.17463545770E+02 -0.63618791380E+02 -0.19350360623E+03  0.21968884275E+03  0.80419002446E+02 0. -1.
<mgrwt>
<rscale>  0 0.10401703E+03</rscale>
<asrwt>0</asrwt>
<pdfrwt beam="1">  1        1 0.42197942E-01 0.10401703E+03</pdfrwt>
<pdfrwt beam="2">  1       -1 0.81618896E-02 0.10401703E+03</pdfrwt>
<totfact> 0.76341836E+03</totfact>
</mgrwt>
</event>
<event>
 4    1  0.5097315E-001  0.1015258E+03  0.7546771E-02  0.1277120E+00
         -1   -1    0    0    0  501 -0.00000000000E+00  0.00000000000E+00  0.43362418299E+02  0.43362418299E+02  0.00000000000E+00 0.  1.
          1   -1    0    0  501    0  0.00000000000E+00 -0.00000000000E+00 -0.26265548088E+03  0.26265548088E+03  0.00000000000E+00 0. -1.
         24    1    1    2    0    0  0.50471150306E+02  0.35957283804E+02 -0.62488036792E+02  0.11921507442E+03  0.80419002446E+02 0.  1.
        -24    1    1    2    0    0 -0.50471150306E+02 -0.35957283804E+02 -0.15680502579E+03  0.18680282476E+03  0.80419002446E+02 0. -1.
<mgrwt>
<rscale>  0 0.10152576E+03</rscale>
<asrwt>0</asrwt>
<pdfrwt beam="1">  1        1 0.40408535E-01 0.10152576E+03</pdfrwt>
<pdfrwt beam="2">  1       -1 0.66711414E-02 0.10152576E+03</pdfrwt>
<totfact> 0.10854266E+04</totfact>
</mgrwt>
</event>
<event>
 4    1  0.5097315E-001  0.9564854E+02  0.7546771E-02  0.1289722E+00
         -2   -1    0    0    0  501 -0.00000000000E+00  0.00000000000E+00  0.21661487619E+02  0.21661487619E+02  0.00000000000E+00 0.  1.
          2   -1    0    0  501    0  0.00000000000E+00 -0.00000000000E+00 -0.45232843370E+03  0.45232843370E+03  0.00000000000E+00 0. -1.
         24    1    1    2    0    0  0.45853527031E+02  0.24059947594E+02 -0.27634972122E+03  0.29243428560E+03  0.80419002446E+02 0.  1.
        -24    1    1    2    0    0 -0.45853527031E+02 -0.24059947594E+02 -0.15431722485E+03  0.18155563571E+03  0.80419002446E+02 0. -1.
<mgrwt>
<rscale>  0 0.95648539E+02</rscale>
<asrwt>0</asrwt>
<pdfrwt beam="1">  1        2 0.69588981E-01 0.95648539E+02</pdfrwt>
<pdfrwt beam="2">  1       -2 0.33325370E-02 0.95648539E+02</pdfrwt>
<totfact> 0.22823282E+04</totfact>
</mgrwt>
</event>
<event>
 4    1  0.5097315E-001  0.9312295E+02  0.7546771E-02  0.1295461E+00
         -2   -1    0    0    0  501 -0.00000000000E+00  0.00000000000E+00  0.59531117304E+01  0.59531117304E+01  0.00000000000E+00 0.  1.
          2   -1    0    0  501    0  0.00000000000E+00 -0.00000000000E+00 -0.14626646992E+04  0.14626646992E+04  0.00000000000E+00 0. -1.
         24    1    1    2    0    0  0.45065410654E+02  0.13182414787E+02 -0.77525764479E+03  0.78083051878E+03  0.80419002446E+02 0. -1.
        -24    1    1    2    0    0 -0.45065410654E+02 -0.13182414787E+02 -0.68145394269E+03  0.68778729216E+03  0.80419002446E+02 0.  1.
<mgrwt>
<rscale>  0 0.93122947E+02</rscale>
<asrwt>0</asrwt>
<pdfrwt beam="1">  1        2 0.22502548E+00 0.93122947E+02</pdfrwt>
<pdfrwt beam="2">  1       -2 0.91586275E-03 0.93122947E+02</pdfrwt>
<totfact> 0.32113937E+04</totfact>
</mgrwt>
</event>
<event>
 4    1  0.5097315E-001  0.9383842E+02  0.7546771E-02  0.1293814E+00
         -2   -1    0    0    0  501 -0.00000000000E+00  0.00000000000E+00  0.26716971336E+03  0.26716971336E+03  0.00000000000E+00 0.  1.
          2   -1    0    0  501    0  0.00000000000E+00 -0.00000000000E+00 -0.59462040754E+02  0.59462040754E+02  0.00000000000E+00 0. -1.
         24    1    1    2    0    0 -0.46531096187E+02  0.13163982588E+02 -0.51787392735E+01  0.93981214318E+02  0.80419002446E+02 0. -1.
        -24    1    1    2    0    0  0.46531096187E+02 -0.13163982588E+02  0.21288641188E+03  0.23265053980E+03  0.80419002446E+02 0. -1.
<mgrwt>
<rscale>  0 0.93838421E+02</rscale>
<asrwt>0</asrwt>
<pdfrwt beam="1">  1        2 0.91480064E-02 0.93838421E+02</pdfrwt>
<pdfrwt beam="2">  1       -2 0.41103032E-01 0.93838421E+02</pdfrwt>
<totfact> 0.37705486E+03</totfact>
</mgrwt>
</event>
<event>
 4    1  0.5097315E-001  0.8528516E+02  0.7546771E-02  0.1314688E+00
         -2   -1    0    0    0  501 -0.00000000000E+00  0.00000000000E+00  0.55872695640E+01  0.55872695640E+01  0.00000000000E+00 0.  1.
          2   -1    0    0  501    0  0.00000000000E+00 -0.00000000000E+00 -0.13623875043E+04  0.13623875043E+04  0.00000000000E+00 0. -1.
         24    1    1    2    0    0 -0.12061364926E+02 -0.25707323059E+02 -0.82263035322E+03  0.82703945309E+03  0.80419002446E+02 0. -1.
        -24    1    1    2    0    0  0.12061364926E+02  0.25707323059E+02 -0.53416988156E+03  0.54093532082E+03  0.80419002446E+02 0.  1.
<mgrwt>
<rscale>  0 0.85285162E+02</rscale>
<asrwt>0</asrwt>
<pdfrwt beam="1">  1        2 0.20959813E+00 0.85285162E+02</pdfrwt>
<pdfrwt beam="2">  1       -2 0.85957972E-03 0.85285162E+02</pdfrwt>
<totfact> 0.39262091E+04</totfact>
</mgrwt>
</event>
<event>
 4    1  0.5097315E-001  0.9220318E+02  0.7546771E-02  0.1297602E+00
          2   -1    0    0  501    0  0.00000000000E+00  0.00000000000E+00  0.13030401916E+04  0.13030401916E+04  0.00000000000E+00 0. -1.
         -2   -1    0    0    0  501 -0.00000000000E+00 -0.00000000000E+00 -0.96854181533E+01  0.96854181533E+01  0.00000000000E+00 0.  1.
         24    1    1    2    0    0  0.19077790384E+02  0.40868671050E+02  0.10216547717E+04  0.10258069501E+04  0.80419002446E+02 0. -1.
        -24    1    1    2    0    0 -0.19077790384E+02 -0.40868671050E+02  0.27170000172E+03  0.28691865964E+03  0.80419002446E+02 0.  1.
<mgrwt>
<rscale>  0 0.92203180E+02</rscale>
<asrwt>0</asrwt>
<pdfrwt beam="1">  1        2 0.20046758E+00 0.92203180E+02</pdfrwt>
<pdfrwt beam="2">  1       -2 0.14900654E-02 0.92203180E+02</pdfrwt>
<totfact> 0.19466217E+04</totfact>
</mgrwt>
</event>
<event>
 4    1  0.5097315E-001  0.8155535E+02  0.7546771E-02  0.1324695E+00
         -1   -1    0    0    0  501 -0.00000000000E+00  0.00000000000E+00  0.60744634655E+03  0.60744634655E+03  0.00000000000E+00 0.  1.
          1   -1    0    0  501    0  0.00000000000E+00 -0.00000000000E+00 -0.10296767043E+03  0.10296767043E+03  0.00000000000E+00 0. -1.
         24    1    1    2    0    0 -0.10058120089E+02  0.91045618570E+01  0.58802930848E+03  0.59365793384E+03  0.80419002446E+02 0.  1.
        -24    1    1    2    0    0  0.10058120089E+02 -0.91045618570E+01 -0.83550632360E+02  0.11675608313E+03  0.80419002446E+02 0. -1.
<mgrwt>
<rscale>  0 0.81555348E+02</rscale>
<asrwt>0</asrwt>
<pdfrwt beam="1">  1        1 0.15841180E-01 0.81555348E+02</pdfrwt>
<pdfrwt beam="2">  1       -1 0.93453282E-01 0.81555348E+02</pdfrwt>
<totfact> 0.40679742E+02</totfact>
</mgrwt>
</event>
<event>
 4    1  0.5097315E-001  0.8789771E+02  0.7546771E-02  0.1308024E+00
         -2   -1    0    0    0  501 -0.00000000000E+00  0.00000000000E+00  0.17074740002E+02  0.17074740002E+02  0.00000000000E+00 0.  1.
          2   -1    0    0  501    0  0.00000000000E+00 -0.00000000000E+00 -0.14440819101E+04  0.14440819101E+04  0.00000000000E+00 0. -1.
         24    1    1    2    0    0  0.18871351135E+02 -0.30044346295E+02 -0.13188990798E+04  0.13218247953E+04  0.80419002446E+02 0. -1.
        -24    1    1    2    0    0 -0.18871351135E+02  0.30044346295E+02 -0.10810809028E+03  0.13933185485E+03  0.80419002446E+02 0.  1.
<mgrwt>
<rscale>  0 0.87897705E+02</rscale>
<asrwt>0</asrwt>
<pdfrwt beam="1">  1        2 0.22216644E+00 0.87897705E+02</pdfrwt>
<pdfrwt beam="2">  1       -2 0.26268832E-02 0.87897705E+02</pdfrwt>
<totfact> 0.72606785E+03</totfact>
</mgrwt>
</event>
<event>
 4    1  0.5097315E-001  0.8212509E+02  0.7546771E-02  0.1323127E+00
          1   -1    0    0  501    0  0.00000000000E+00  0.00000000000E+00  0.35591876683E+03  0.35591876683E+03  0.00000000000E+00 0. -1.
         -1   -1    0    0    0  501 -0.00000000000E+00 -0.00000000000E+00 -0.40328228678E+02  0.40328228678E+02  0.00000000000E+00 0.  1.
         24    1    1    2    0    0 -0.88335946905E+01  0.14116724639E+02  0.13543551580E+02  0.83234356208E+02  0.80419002446E+02 0.  1.
        -24    1    1    2    0    0  0.88335946905E+01 -0.14116724639E+02  0.30204698657E+03  0.31301263930E+03  0.80419002446E+02 0. -1.
<mgrwt>
<rscale>  0 0.82125089E+02</rscale>
<asrwt>0</asrwt>
<pdfrwt beam="1">  1        1 0.54756731E-01 0.82125089E+02</pdfrwt>
<pdfrwt beam="2">  1       -1 0.62043431E-02 0.82125089E+02</pdfrwt>
<totfact> 0.81832160E+03</totfact>
</mgrwt>
</event>
<event>
 4    1  0.5097315E-001  0.1322234E+03  0.7546771E-02  0.1224193E+00
         -3   -1    0    0    0  501 -0.00000000000E+00  0.00000000000E+00  0.13683086736E+03  0.13683086736E+03  0.00000000000E+00 0.  1.
          3   -1    0    0  501    0  0.00000000000E+00 -0.00000000000E+00 -0.12861079232E+03  0.12861079232E+03  0.00000000000E+00 0. -1.
         24    1    1    2    0    0  0.81522041823E+02  0.66105626721E+02 -0.66148601298E+01  0.13238870615E+03  0.80419002446E+02 0. -1.
        -24    1    1    2    0    0 -0.81522041823E+02 -0.66105626721E+02  0.14834935176E+02  0.13305295353E+03  0.80419002446E+02 0.  1.
<mgrwt>
<rscale>  0 0.13222336E+03</rscale>
<asrwt>0</asrwt>
<pdfrwt beam="1">  1        3 0.19786276E-01 0.13222338E+03</pdfrwt>
<pdfrwt beam="2">  1       -3 0.21050903E-01 0.13222338E+03</pdfrwt>
<totfact> 0.10753471E+03</totfact>
</mgrwt>
</event>
<event>
 4    1  0.5097315E-001  0.8766246E+02  0.7546771E-02  0.1308613E+00
         -1   -1    0    0    0  501 -0.00000000000E+00  0.00000000000E+00  0.83669771037E+01  0.83669771037E+01  0.00000000000E+00 0.  1.
          1   -1    0    0  501    0  0.00000000000E+00 -0.00000000000E+00 -0.12349825213E+04  0.12349825213E+04  0.00000000000E+00 0. -1.
         24    1    1    2    0    0  0.29854422977E+02 -0.18061129162E+02 -0.29857835719E+03  0.31118120492E+03  0.80419002446E+02 0.  1.
        -24    1    1    2    0    0 -0.29854422977E+02  0.18061129162E+02 -0.92803718700E+03  0.93216829348E+03  0.80419002446E+02 0. -1.
<mgrwt>
<rscale>  0 0.87662460E+02</rscale>
<asrwt>0</asrwt>
<pdfrwt beam="1">  1        1 0.18999717E+00 0.87662460E+02</pdfrwt>
<pdfrwt beam="2">  1       -1 0.12872282E-02 0.87662460E+02</pdfrwt>
<totfact> 0.13221371E+04</totfact>
</mgrwt>
</event>
<event>
 4    1  0.5097315E-001  0.8417876E+02  0.7546771E-02  0.1317594E+00
          1   -1    0    0  501    0  0.00000000000E+00  0.00000000000E+00  0.35067984059E+03  0.35067984059E+03  0.00000000000E+00 0. -1.
         -1   -1    0    0    0  501 -0.00000000000E+00 -0.00000000000E+00 -0.26968141076E+02  0.26968141076E+02  0.00000000000E+00 0.  1.
         24    1    1    2    0    0  0.10585229039E+02 -0.22512239527E+02  0.67307711088E+02  0.10777936690E+03  0.80419002446E+02 0.  1.
        -24    1    1    2    0    0 -0.10585229039E+02  0.22512239527E+02  0.25640398843E+03  0.26986861477E+03  0.80419002446E+02 0. -1.
<mgrwt>
<rscale>  0 0.84178762E+02</rscale>
<asrwt>0</asrwt>
<pdfrwt beam="1">  1        1 0.53950742E-01 0.84178762E+02</pdfrwt>
<pdfrwt beam="2">  1       -1 0.41489450E-02 0.84178762E+02</pdfrwt>
<totfact> 0.15033287E+04</totfact>
</mgrwt>
</event>
<event>
 4    1  0.5097315E-001  0.8204430E+02  0.7546771E-02  0.1323348E+00
          2   -1    0    0  501    0  0.00000000000E+00  0.00000000000E+00  0.25700864364E+03  0.25700864364E+03  0.00000000000E+00 0. -1.
         -2   -1    0    0    0  501 -0.00000000000E+00 -0.00000000000E+00 -0.30176196282E+03  0.30176196282E+03  0.00000000000E+00 0.  1.
         24    1    1    2    0    0  0.16651780356E+01 -0.16164101612E+02  0.24460914934E+03  0.25800174979E+03  0.80419002446E+02 0.  0.
        -24    1    1    2    0    0 -0.16651780356E+01  0.16164101612E+02 -0.28936246852E+03  0.30076885667E+03  0.80419002446E+02 0.  1.
<mgrwt>
<rscale>  0 0.82044299E+02</rscale>
<asrwt>0</asrwt>
<pdfrwt beam="1">  1        2 0.39539792E-01 0.82044299E+02</pdfrwt>
<pdfrwt beam="2">  1       -2 0.46424917E-01 0.82044299E+02</pdfrwt>
<totfact> 0.57103885E+02</totfact>
</mgrwt>
</event>
<event>
 4    1  0.5097315E-001  0.8564979E+02  0.7546771E-02  0.1313742E+00
          3   -1    0    0  501    0  0.00000000000E+00  0.00000000000E+00  0.42960934325E+03  0.42960934325E+03  0.00000000000E+00 0. -1.
         -3   -1    0    0    0  501 -0.00000000000E+00 -0.00000000000E+00 -0.26886611417E+02  0.26886611417E+02  0.00000000000E+00 0.  1.
         24    1    1    2    0    0  0.28206307926E+02  0.85483337881E+01  0.63483899054E+02  0.10661187181E+03  0.80419002446E+02 0.  1.
        -24    1    1    2    0    0 -0.28206307926E+02 -0.85483337881E+01  0.33923883277E+03  0.34988408285E+03  0.80419002446E+02 0. -1.
<mgrwt>
<rscale>  0 0.85649786E+02</rscale>
<asrwt>0</asrwt>
<pdfrwt beam="1">  1        3 0.66093740E-01 0.85649786E+02</pdfrwt>
<pdfrwt beam="2">  1       -3 0.41364021E-02 0.85649786E+02</pdfrwt>
<totfact> 0.14632515E+03</totfact>
</mgrwt>
</event>
<event>
 4    1  0.5097315E-001  0.1080896E+03  0.7546771E-02  0.1264149E+00
          2   -1    0    0  501    0  0.00000000000E+00  0.00000000000E+00  0.16551288068E+04  0.16551288068E+04  0.00000000000E+00 0. -1.
         -2   -1    0    0    0  501 -0.00000000000E+00 -0.00000000000E+00 -0.28473988011E+02  0.28473988011E+02  0.00000000000E+00 0.  1.
         24    1    1    2    0    0 -0.58103144139E+02  0.42897199829E+02  0.15433656247E+04  0.15471460218E+04  0.80419002446E+02 0. -1.
        -24    1    1    2    0    0  0.58103144139E+02 -0.42897199829E+02  0.83289194089E+02  0.13645677308E+03  0.80419002446E+02 0.  1.
<mgrwt>
<rscale>  0 0.10808960E+03</rscale>
<asrwt>0</asrwt>
<pdfrwt beam="1">  1        2 0.25463513E+00 0.10808960E+03</pdfrwt>
<pdfrwt beam="2">  1       -2 0.43806148E-02 0.10808960E+03</pdfrwt>
<totfact> 0.26952106E+03</totfact>
</mgrwt>
</event>
<event>
 4    1  0.5097315E-001  0.8543209E+02  0.7546771E-02  0.1314306E+00
          2   -1    0    0  501    0  0.00000000000E+00  0.00000000000E+00  0.13639655616E+04  0.13639655616E+04  0.00000000000E+00 0. -1.
         -2   -1    0    0    0  501 -0.00000000000E+00 -0.00000000000E+00 -0.12926385913E+02  0.12926385913E+02  0.00000000000E+00 0.  1.
         24    1    1    2    0    0 -0.24680783778E+00  0.28833401973E+02  0.12025459982E+04  0.12055768411E+04  0.80419002446E+02 0. -1.
        -24    1    1    2    0    0  0.24680783778E+00 -0.28833401973E+02  0.14849317754E+03  0.17131510649E+03  0.80419002446E+02 0.  1.
<mgrwt>
<rscale>  0 0.85432090E+02</rscale>
<asrwt>0</asrwt>
<pdfrwt beam="1">  1        2 0.20984074E+00 0.85432090E+02</pdfrwt>
<pdfrwt beam="2">  1       -2 0.19886758E-02 0.85432090E+02</pdfrwt>
<totfact> 0.11905956E+04</totfact>
</mgrwt>
</event>
<event>
 4    1  0.5097315E-001  0.9992248E+02  0.7546771E-02  0.1280459E+00
          1   -1    0    0  501    0  0.00000000000E+00  0.00000000000E+00  0.29424052268E+03  0.29424052268E+03  0.00000000000E+00 0. -1.
         -1   -1    0    0    0  501 -0.00000000000E+00 -0.00000000000E+00 -0.38945047032E+03  0.38945047032E+03  0.00000000000E+00 0.  1.
         24    1    1    2    0    0  0.52158905134E+02 -0.28226497574E+02 -0.37421847970E+03  0.38732928246E+03  0.80419002446E+02 0.  1.
        -24    1    1    2    0    0 -0.52158905134E+02  0.28226497574E+02  0.27900853206E+03  0.29636171053E+03  0.80419002446E+02 0. -1.
<mgrwt>
<rscale>  0 0.99922482E+02</rscale>
<asrwt>0</asrwt>
<pdfrwt beam="1">  1        1 0.45267773E-01 0.99922482E+02</pdfrwt>
<pdfrwt beam="2">  1       -1 0.59915456E-01 0.99922482E+02</pdfrwt>
<totfact> 0.26851619E+02</totfact>
</mgrwt>
</event>
<event>
 4    1  0.5097315E-001  0.1699098E+03  0.7546771E-02  0.1177942E+00
          1   -1    0    0  501    0  0.00000000000E+00  0.00000000000E+00  0.10446217241E+04  0.10446217241E+04  0.00000000000E+00 0. -1.
         -1   -1    0    0    0  501 -0.00000000000E+00 -0.00000000000E+00 -0.28215281618E+02  0.28215281618E+02  0.00000000000E+00 0.  1.
         24    1    1    2    0    0 -0.76101265550E+02  0.12888258273E+03  0.58505332077E+03  0.60922633466E+03  0.80419002446E+02 0. -1.
        -24    1    1    2    0    0  0.76101265550E+02 -0.12888258273E+03  0.43135312174E+03  0.46361067108E+03  0.80419002446E+02 0.  1.
<mgrwt>
<rscale>  0 0.16990982E+03</rscale>
<asrwt>0</asrwt>
<pdfrwt beam="1">  1        1 0.16071101E+00 0.16990984E+03</pdfrwt>
<pdfrwt beam="2">  1       -1 0.43408134E-02 0.16990984E+03</pdfrwt>
<totfact> 0.31912567E+03</totfact>
</mgrwt>
</event>
<event>
 4    1  0.5097315E-001  0.9872711E+02  0.7546771E-02  0.1282996E+00
          2   -1    0    0  501    0  0.00000000000E+00  0.00000000000E+00  0.29601177828E+04  0.29601177828E+04  0.00000000000E+00 0. -1.
         -2   -1    0    0    0  501 -0.00000000000E+00 -0.00000000000E+00 -0.34465748094E+01  0.34465748094E+01  0.00000000000E+00 0.  1.
         24    1    1    2    0    0 -0.54657994797E+02 -0.17097629554E+02  0.17913393912E+04  0.17940579298E+04  0.80419002446E+02 0. -1.
        -24    1    1    2    0    0  0.54657994797E+02  0.17097629554E+02  0.11653318169E+04  0.11695064278E+04  0.80419002446E+02 0.  1.
<mgrwt>
<rscale>  0 0.98727105E+02</rscale>
<asrwt>0</asrwt>
<pdfrwt beam="1">  1        2 0.45540070E+00 0.98727105E+02</pdfrwt>
<pdfrwt beam="2">  1       -2 0.53024465E-03 0.98727105E+02</pdfrwt>
<totfact> 0.11586804E+04</totfact>
</mgrwt>
</event>
<event>
 4    1  0.5097315E-001  0.1170038E+03  0.7546771E-02  0.1248123E+00
          2   -1    0    0  501    0  0.00000000000E+00  0.00000000000E+00  0.29474374858E+03  0.29474374858E+03  0.00000000000E+00 0. -1.
         -2   -1    0    0    0  501 -0.00000000000E+00 -0.00000000000E+00 -0.90361432454E+02  0.90361432454E+02  0.00000000000E+00 0.  1.
         24    1    1    2    0    0 -0.72612584907E+02  0.44159806640E+02  0.23642519132E+03  0.26379303071E+03  0.80419002446E+02 0. -1.
        -24    1    1    2    0    0  0.72612584907E+02 -0.44159806640E+02 -0.32042875194E+02  0.12131215032E+03  0.80419002446E+02 0.  1.
<mgrwt>
<rscale>  0 0.11700381E+03</rscale>
<asrwt>0</asrwt>
<pdfrwt beam="1">  1        2 0.45345192E-01 0.11700381E+03</pdfrwt>
<pdfrwt beam="2">  1       -2 0.13901759E-01 0.11700381E+03</pdfrwt>
<totfact> 0.41314316E+03</totfact>
</mgrwt>
</event>
<event>
 4    1  0.5097315E-001  0.1000852E+03  0.7546771E-02  0.1280117E+00
          3   -1    0    0  501    0  0.00000000000E+00  0.00000000000E+00  0.56542210256E+03  0.56542210256E+03  0.00000000000E+00 0. -1.
         -3   -1    0    0    0  501 -0.00000000000E+00 -0.00000000000E+00 -0.17951699822E+02  0.17951699822E+02  0.00000000000E+00 0.  1.
         24    1    1    2    0    0 -0.46586714115E+02 -0.37141673737E+02  0.24031531969E+03  0.26032382659E+03  0.80419002446E+02 0. -1.
        -24    1    1    2    0    0  0.46586714115E+02  0.37141673737E+02  0.30715508305E+03  0.32304997579E+03  0.80419002446E+02 0.  1.
<mgrwt>
<rscale>  0 0.10008517E+03</rscale>
<asrwt>0</asrwt>
<pdfrwt beam="1">  1        3 0.86988002E-01 0.10008517E+03</pdfrwt>
<pdfrwt beam="2">  1       -3 0.27618004E-02 0.10008517E+03</pdfrwt>
<totfact> 0.15657994E+03</totfact>
</mgrwt>
</event>
<event>
 4    1  0.5097315E-001  0.9137949E+02  0.7546771E-02  0.1299545E+00
         -2   -1    0    0    0  501 -0.00000000000E+00  0.00000000000E+00  0.11167627274E+02  0.11167627274E+02  0.00000000000E+00 0.  1.
          2   -1    0    0  501    0  0.00000000000E+00 -0.00000000000E+00 -0.13849504915E+04  0.13849504915E+04  0.00000000000E+00 0. -1.
         24    1    1    2    0    0  0.41580035896E+02 -0.12413553842E+02 -0.11603966180E+04  0.11639890561E+04  0.80419002446E+02 0. -1.
        -24    1    1    2    0    0 -0.41580035896E+02  0.12413553842E+02 -0.21338624622E+03  0.23212906267E+03  0.80419002446E+02 0.  1.
<mgrwt>
<rscale>  0 0.91379493E+02</rscale>
<asrwt>0</asrwt>
<pdfrwt beam="1">  1        2 0.21306931E+00 0.91379493E+02</pdfrwt>
<pdfrwt beam="2">  1       -2 0.17180965E-02 0.91379493E+02</pdfrwt>
<totfact> 0.14377702E+04</totfact>
</mgrwt>
</event>
<event>
 4    1  0.5097315E-001  0.1012521E+03  0.7546771E-02  0.1277685E+00
         -1   -1    0    0    0  501 -0.00000000000E+00  0.00000000000E+00  0.85627656194E+02  0.85627656194E+02  0.00000000000E+00 0.  1.
          1   -1    0    0  501    0  0.00000000000E+00 -0.00000000000E+00 -0.14040944512E+03  0.14040944512E+03  0.00000000000E+00 0. -1.
         24    1    1    2    0    0  0.42327546673E+02 -0.44644727881E+02  0.15984836974E+02  0.10250611641E+03  0.80419002446E+02 0.  1.
        -24    1    1    2    0    0 -0.42327546673E+02  0.44644727881E+02 -0.70766625904E+02  0.12353098490E+03  0.80419002446E+02 0. -1.
<mgrwt>
<rscale>  0 0.10125211E+03</rscale>
<asrwt>0</asrwt>
<pdfrwt beam="1">  1        1 0.21601453E-01 0.10125211E+03</pdfrwt>
<pdfrwt beam="2">  1       -1 0.13173486E-01 0.10125211E+03</pdfrwt>
<totfact> 0.84194243E+03</totfact>
</mgrwt>
</event>
<event>
 4    1  0.5097315E-001  0.8508586E+02  0.7546771E-02  0.1315208E+00
          2   -1    0    0  501    0  0.00000000000E+00  0.00000000000E+00  0.24881752046E+04  0.24881752046E+04  0.00000000000E+00 0. -1.
         -2   -1    0    0    0  501 -0.00000000000E+00 -0.00000000000E+00 -0.80232616251E+01  0.80232616251E+01  0.00000000000E+00 0.  1.
         24    1    1    2    0    0  0.26514532398E+02 -0.83287041818E+01  0.22364891828E+04  0.22381071173E+04  0.80419002446E+02 0. -1.
        -24    1    1    2    0    0 -0.26514532398E+02  0.83287041818E+01  0.24366276012E+03  0.25809134888E+03  0.80419002446E+02 0.  1.
<mgrwt>
<rscale>  0 0.85085861E+02</rscale>
<asrwt>0</asrwt>
<pdfrwt beam="1">  1        2 0.38279557E+00 0.85085861E+02</pdfrwt>
<pdfrwt beam="2">  1       -2 0.12343499E-02 0.85085861E+02</pdfrwt>
<totfact> 0.63248276E+03</totfact>
</mgrwt>
</event>
<event>
 4    1  0.5097315E-001  0.8051475E+02  0.7546771E-02  0.1327597E+00
          1   -1    0    0  501    0  0.00000000000E+00  0.00000000000E+00  0.34079072810E+03  0.34079072810E+03  0.00000000000E+00 0. -1.
         -1   -1    0    0    0  501 -0.00000000000E+00 -0.00000000000E+00 -0.19469783030E+02  0.19469783030E+02  0.00000000000E+00 0.  1.
         24    1    1    2    0    0  0.13475483351E+01 -0.36869599395E+01  0.13335237287E+03  0.15577381315E+03  0.80419002446E+02 0.  1.
        -24    1    1    2    0    0 -0.13475483351E+01  0.36869599395E+01  0.18796857220E+03  0.20448669798E+03  0.80419002446E+02 0.  0.
<mgrwt>
<rscale>  0 0.80514753E+02</rscale>
<asrwt>0</asrwt>
<pdfrwt beam="1">  1        1 0.52429338E-01 0.80514753E+02</pdfrwt>
<pdfrwt beam="2">  1       -1 0.29953515E-02 0.80514753E+02</pdfrwt>
<totfact> 0.24792568E+04</totfact>
</mgrwt>
</event>
<event>
 4    1  0.5097315E-001  0.9775140E+02  0.7546771E-02  0.1285097E+00
          2   -1    0    0  501    0  0.00000000000E+00  0.00000000000E+00  0.38889389744E+03  0.38889389744E+03  0.00000000000E+00 0. -1.
         -2   -1    0    0    0  501 -0.00000000000E+00 -0.00000000000E+00 -0.24702313199E+02  0.24702313199E+02  0.00000000000E+00 0.  1.
         24    1    1    2    0    0 -0.51367704015E+02  0.21200909842E+02  0.19719940188E+03  0.22009756848E+03  0.80419002446E+02 0.  0.
        -24    1    1    2    0    0  0.51367704015E+02 -0.21200909842E+02  0.16699218236E+03  0.19349864216E+03  0.80419002446E+02 0.  1.
<mgrwt>
<rscale>  0 0.97751397E+02</rscale>
<asrwt>0</asrwt>
<pdfrwt beam="1">  1        2 0.59829826E-01 0.97751397E+02</pdfrwt>
<pdfrwt beam="2">  1       -2 0.38003561E-02 0.97751397E+02</pdfrwt>
<totfact> 0.22145457E+04</totfact>
</mgrwt>
</event>
<event>
 4    1  0.5097315E-001  0.8492301E+02  0.7546771E-02  0.1315634E+00
          2   -1    0    0  501    0  0.00000000000E+00  0.00000000000E+00  0.28123189551E+02  0.28123189551E+02  0.00000000000E+00 0. -1.
         -2   -1    0    0    0  501 -0.00000000000E+00 -0.00000000000E+00 -0.34372540566E+03  0.34372540566E+03  0.00000000000E+00 0.  1.
         24    1    1    2    0    0 -0.62320015779E+01  0.26568098064E+02 -0.64109533114E+02  0.10640465154E+03  0.80419002446E+02 0. -1.
        -24    1    1    2    0    0  0.62320015779E+01 -0.26568098064E+02 -0.25149268299E+03  0.26544394367E+03  0.80419002446E+02 0.  1.
<mgrwt>
<rscale>  0 0.84923010E+02</rscale>
<asrwt>0</asrwt>
<pdfrwt beam="1">  1        2 0.43266443E-02 0.84923010E+02</pdfrwt>
<pdfrwt beam="2">  1       -2 0.52880834E-01 0.84923010E+02</pdfrwt>
<totfact> 0.59197869E+03</totfact>
</mgrwt>
</event>
<event>
 4    1  0.5097315E-001  0.9125973E+02  0.7546771E-02  0.1299829E+00
          1   -1    0    0  501    0  0.00000000000E+00  0.00000000000E+00  0.12414406429E+04  0.12414406429E+04  0.00000000000E+00 0. -1.
         -1   -1    0    0    0  501 -0.00000000000E+00 -0.00000000000E+00 -0.68956263474E+01  0.68956263474E+01  0.00000000000E+00 0.  1.
         24    1    1    2    0    0  0.39660534608E+02  0.16975392485E+02  0.51448093520E+03  0.52251217267E+03  0.80419002446E+02 0.  1.
        -24    1    1    2    0    0 -0.39660534608E+02 -0.16975392485E+02  0.72006408132E+03  0.72582409654E+03  0.80419002446E+02 0. -1.
<mgrwt>
<rscale>  0 0.91259728E+02</rscale>
<asrwt>0</asrwt>
<pdfrwt beam="1">  1        1 0.19099069E+00 0.91259728E+02</pdfrwt>
<pdfrwt beam="2">  1       -1 0.10608666E-02 0.91259728E+02</pdfrwt>
<totfact> 0.17257307E+04</totfact>
</mgrwt>
</event>
<event>
 4    1  0.5097315E-001  0.1305097E+03  0.7546771E-02  0.1226701E+00
          2   -1    0    0  501    0  0.00000000000E+00  0.00000000000E+00  0.28626938225E+02  0.28626938225E+02  0.00000000000E+00 0. -1.
         -2   -1    0    0    0  501 -0.00000000000E+00 -0.00000000000E+00 -0.60676956945E+03  0.60676956945E+03  0.00000000000E+00 0.  1.
         24    1    1    2    0    0  0.91167401216E+02  0.47476955339E+02 -0.24480757424E+03  0.27742299958E+03  0.80419002446E+02 0.  0.
        -24    1    1    2    0    0 -0.91167401216E+02 -0.47476955339E+02 -0.33333505699E+03  0.35797350810E+03  0.80419002446E+02 0.  1.
<mgrwt>
<rscale>  0 0.13050966E+03</rscale>
<asrwt>0</asrwt>
<pdfrwt beam="1">  1        2 0.44041439E-02 0.13050966E+03</pdfrwt>
<pdfrwt beam="2">  1       -2 0.93349174E-01 0.13050966E+03</pdfrwt>
<totfact> 0.17972151E+03</totfact>
</mgrwt>
</event>
<event>
 4    1  0.5097315E-001  0.1305025E+03  0.7546771E-02  0.1226712E+00
          1   -1    0    0  501    0  0.00000000000E+00  0.00000000000E+00  0.38191558691E+03  0.38191558691E+03  0.00000000000E+00 0. -1.
         -1   -1    0    0    0  501 -0.00000000000E+00 -0.00000000000E+00 -0.58897919361E+02  0.58897919361E+02  0.00000000000E+00 0.  1.
         24    1    1    2    0    0 -0.10133738388E+03 -0.17158599033E+02  0.52888238439E+02  0.14081216074E+03  0.80419002446E+02 0.  0.
        -24    1    1    2    0    0  0.10133738388E+03  0.17158599033E+02  0.27012942911E+03  0.30000134553E+03  0.80419002446E+02 0. -1.
<mgrwt>
<rscale>  0 0.13050249E+03</rscale>
<asrwt>0</asrwt>
<pdfrwt beam="1">  1        1 0.58756243E-01 0.13050249E+03</pdfrwt>
<pdfrwt beam="2">  1       -1 0.90612186E-02 0.13050249E+03</pdfrwt>
<totfact> 0.43943568E+03</totfact>
</mgrwt>
</event>
<event>
 4    1  0.5097315E-001  0.8749129E+02  0.7546771E-02  0.1309043E+00
          1   -1    0    0  501    0  0.00000000000E+00  0.00000000000E+00  0.12481991780E+04  0.12481991780E+04  0.00000000000E+00 0. -1.
         -1   -1    0    0    0  501 -0.00000000000E+00 -0.00000000000E+00 -0.64235776074E+01  0.64235776074E+01  0.00000000000E+00 0.  1.
         24    1    1    2    0    0 -0.13559719954E+02  0.31680284463E+02  0.75439811883E+03  0.75945457012E+03  0.80419002446E+02 0.  0.
        -24    1    1    2    0    0  0.13559719954E+02 -0.31680284463E+02  0.48737748153E+03  0.49516818546E+03  0.80419002446E+02 0.  0.
<mgrwt>
<rscale>  0 0.87491281E+02</rscale>
<asrwt>0</asrwt>
<pdfrwt beam="1">  1        1 0.19203045E+00 0.87491292E+02</pdfrwt>
<pdfrwt beam="2">  1       -1 0.98824370E-03 0.87491292E+02</pdfrwt>
<totfact> 0.18812427E+04</totfact>
</mgrwt>
</event>
<event>
 4    1  0.5097315E-001  0.8768592E+02  0.7546771E-02  0.1308554E+00
         -2   -1    0    0    0  501 -0.00000000000E+00  0.00000000000E+00  0.10981293109E+03  0.10981293109E+03  0.00000000000E+00 0.  1.
          2   -1    0    0  501    0  0.00000000000E+00 -0.00000000000E+00 -0.78027669009E+02  0.78027669009E+02  0.00000000000E+00 0. -1.
         24    1    1    2    0    0  0.33533390242E+02  0.98548033102E+01 -0.14199806097E+02  0.88828237948E+02  0.80419002446E+02 0. -1.
        -24    1    1    2    0    0 -0.33533390242E+02 -0.98548033102E+01  0.45985068181E+02  0.99012362154E+02  0.80419002446E+02 0.  1.
<mgrwt>
<rscale>  0 0.87685925E+02</rscale>
<asrwt>0</asrwt>
<pdfrwt beam="1">  1        2 0.12004257E-01 0.87685925E+02</pdfrwt>
<pdfrwt beam="2">  1       -2 0.16894297E-01 0.87685925E+02</pdfrwt>
<totfact> 0.12809563E+04</totfact>
</mgrwt>
</event>
<event>
 4    1  0.5097315E-001  0.9178034E+02  0.7546771E-02  0.1298597E+00
          2   -1    0    0  501    0  0.00000000000E+00  0.00000000000E+00  0.19493261707E+04  0.19493261707E+04  0.00000000000E+00 0. -1.
         -2   -1    0    0    0  501 -0.00000000000E+00 -0.00000000000E+00 -0.43631168974E+01  0.43631168974E+01  0.00000000000E+00 0.  1.
         24    1    1    2    0    0  0.38712568853E+02  0.21395017055E+02  0.87685105936E+03  0.88164131368E+03  0.80419002446E+02 0.  0.
        -24    1    1    2    0    0 -0.38712568853E+02 -0.21395017055E+02  0.10681119944E+04  0.10720479739E+04  0.80419002446E+02 0.  0.
<mgrwt>
<rscale>  0 0.91780324E+02</rscale>
<asrwt>0</asrwt>
<pdfrwt beam="1">  1        2 0.29989564E+00 0.91780335E+02</pdfrwt>
<pdfrwt beam="2">  1       -2 0.67125031E-03 0.91780335E+02</pdfrwt>
<totfact> 0.28244460E+04</totfact>
</mgrwt>
</event>
<event>
 4    1  0.5097315E-001  0.8215658E+02  0.7546771E-02  0.1323040E+00
          2   -1    0    0  501    0  0.00000000000E+00  0.00000000000E+00  0.10419767100E+04  0.10419767100E+04  0.00000000000E+00 0. -1.
         -2   -1    0    0    0  501 -0.00000000000E+00 -0.00000000000E+00 -0.85703592004E+01  0.85703592004E+01  0.00000000000E+00 0.  1.
         24    1    1    2    0    0 -0.13740525952E+02  0.96791068667E+01  0.77625628730E+03  0.78059177980E+03  0.80419002446E+02 0. -1.
        -24    1    1    2    0    0  0.13740525952E+02 -0.96791068667E+01  0.25715006349E+03  0.26995528939E+03  0.80419002446E+02 0.  1.
<mgrwt>
<rscale>  0 0.82156577E+02</rscale>
<asrwt>0</asrwt>
<pdfrwt beam="1">  1        2 0.16030401E+00 0.82156577E+02</pdfrwt>
<pdfrwt beam="2">  1       -2 0.13185176E-02 0.82156577E+02</pdfrwt>
<totfact> 0.31876052E+04</totfact>
</mgrwt>
</event>
<event>
 4    1  0.5097315E-001  0.9054906E+02  0.7546771E-02  0.1301528E+00
          3   -1    0    0  501    0  0.00000000000E+00  0.00000000000E+00  0.35599741550E+03  0.35599741550E+03  0.00000000000E+00 0. -1.
         -3   -1    0    0    0  501 -0.00000000000E+00 -0.00000000000E+00 -0.10114398219E+03  0.10114398219E+03  0.00000000000E+00 0.  1.
         24    1    1    2    0    0 -0.18452291901E+02 -0.37301854272E+02 -0.73441364882E+02  0.11658801585E+03  0.80419002446E+02 0.  1.
        -24    1    1    2    0    0  0.18452291901E+02  0.37301854272E+02  0.32829479820E+03  0.34055338184E+03  0.80419002446E+02 0. -1.
<mgrwt>
<rscale>  0 0.90549055E+02</rscale>
<asrwt>0</asrwt>
<pdfrwt beam="1">  1        3 0.54768833E-01 0.90549055E+02</pdfrwt>
<pdfrwt beam="2">  1       -3 0.15560613E-01 0.90549055E+02</pdfrwt>
<totfact> 0.25506414E+02</totfact>
</mgrwt>
</event>
<event>
 4    1  0.5097315E-001  0.9311654E+02  0.7546771E-02  0.1295475E+00
         -1   -1    0    0    0  501 -0.00000000000E+00  0.00000000000E+00  0.15417210166E+02  0.15417210166E+02  0.00000000000E+00 0.  1.
          1   -1    0    0  501    0  0.00000000000E+00 -0.00000000000E+00 -0.12072369951E+04  0.12072369951E+04  0.00000000000E+00 0. -1.
         24    1    1    2    0    0 -0.27906200570E+01  0.46858157684E+02 -0.14912216915E+03  0.17580702997E+03  0.80419002446E+02 0.  1.
        -24    1    1    2    0    0  0.27906200570E+01 -0.46858157684E+02 -0.10426976158E+04  0.10468471753E+04  0.80419002446E+02 0. -1.
<mgrwt>
<rscale>  0 0.93116542E+02</rscale>
<asrwt>0</asrwt>
<pdfrwt beam="1">  1        1 0.18572878E+00 0.93116542E+02</pdfrwt>
<pdfrwt beam="2">  1       -1 0.23718783E-02 0.93116542E+02</pdfrwt>
<totfact> 0.58031908E+03</totfact>
</mgrwt>
</event>
<event>
 4    1  0.5097315E-001  0.8269606E+02  0.7546771E-02  0.1321570E+00
         -1   -1    0    0    0  501 -0.00000000000E+00  0.00000000000E+00  0.18358516368E+03  0.18358516368E+03  0.00000000000E+00 0.  1.
          1   -1    0    0  501    0  0.00000000000E+00 -0.00000000000E+00 -0.37252804899E+02  0.37252804899E+02  0.00000000000E+00 0. -1.
         24    1    1    2    0    0  0.10981425544E+02 -0.15837500979E+02  0.72292480427E+02  0.10984005110E+03  0.80419002446E+02 0.  0.
        -24    1    1    2    0    0 -0.10981425544E+02  0.15837500979E+02  0.74039878353E+02  0.11099791748E+03  0.80419002446E+02 0. -1.
<mgrwt>
<rscale>  0 0.82696045E+02</rscale>
<asrwt>0</asrwt>
<pdfrwt beam="1">  1        1 0.57312009E-02 0.82696055E+02</pdfrwt>
<pdfrwt beam="2">  1       -1 0.28243871E-01 0.82696055E+02</pdfrwt>
<totfact> 0.13821422E+04</totfact>
</mgrwt>
</event>
<event>
 4    1  0.5097315E-001  0.9014975E+02  0.7546771E-02  0.1302489E+00
          1   -1    0    0  501    0  0.00000000000E+00  0.00000000000E+00  0.93212928619E+03  0.93212928619E+03  0.00000000000E+00 0. -1.
         -1   -1    0    0    0  501 -0.00000000000E+00 -0.00000000000E+00 -0.97464494851E+01  0.97464494851E+01  0.00000000000E+00 0.  1.
         24    1    1    2    0    0  0.67513986524E+00  0.40734574149E+02  0.30826619899E+03  0.32117756264E+03  0.80419002446E+02 0.  1.
        -24    1    1    2    0    0 -0.67513986524E+00 -0.40734574149E+02  0.61411663771E+03  0.62069817304E+03  0.80419002446E+02 0. -1.
<mgrwt>
<rscale>  0 0.90149749E+02</rscale>
<asrwt>0</asrwt>
<pdfrwt beam="1">  1        1 0.14340444E+00 0.90149749E+02</pdfrwt>
<pdfrwt beam="2">  1       -1 0.14994545E-02 0.90149749E+02</pdfrwt>
<totfact> 0.17381196E+04</totfact>
</mgrwt>
</event>
<event>
 4    1  0.5097315E-001  0.1464010E+03  0.7546771E-02  0.1204966E+00
         -1   -1    0    0    0  501 -0.00000000000E+00  0.00000000000E+00  0.11460412147E+02  0.11460412147E+02  0.00000000000E+00 0.  1.
          1   -1    0    0  501    0  0.00000000000E+00 -0.00000000000E+00 -0.24832198252E+04  0.24832198252E+04  0.00000000000E+00 0. -1.
         24    1    1    2    0    0 -0.10048800727E+03 -0.69772460008E+02 -0.18556273861E+04  0.18613936306E+04  0.80419002446E+02 0. -1.
        -24    1    1    2    0    0  0.10048800727E+03  0.69772460008E+02 -0.61613202695E+03  0.63328660681E+03  0.80419002446E+02 0.  1.
<mgrwt>
<rscale>  0 0.14640101E+03</rscale>
<asrwt>0</asrwt>
<pdfrwt beam="1">  1        1 0.38203354E+00 0.14640103E+03</pdfrwt>
<pdfrwt beam="2">  1       -1 0.17631416E-02 0.14640103E+03</pdfrwt>
<totfact> 0.13572346E+03</totfact>
</mgrwt>
</event>
<event>
 4    1  0.5097315E-001  0.8540165E+02  0.7546771E-02  0.1314386E+00
         -3   -1    0    0    0  501 -0.00000000000E+00  0.00000000000E+00  0.39500036974E+03  0.39500036974E+03  0.00000000000E+00 0.  1.
          3   -1    0    0  501    0  0.00000000000E+00 -0.00000000000E+00 -0.54827817312E+02  0.54827817312E+02  0.00000000000E+00 0. -1.
         24    1    1    2    0    0  0.82782182834E+00 -0.28732221757E+02  0.35325384545E+03  0.36343049010E+03  0.80419002446E+02 0.  1.
        -24    1    1    2    0    0 -0.82782182834E+00  0.28732221757E+02 -0.13081293025E+02  0.86397696946E+02  0.80419002446E+02 0. -1.
<mgrwt>
<rscale>  0 0.85401650E+02</rscale>
<asrwt>0</asrwt>
<pdfrwt beam="1">  1        3 0.84350491E-02 0.85401650E+02</pdfrwt>
<pdfrwt beam="2">  1       -3 0.60769286E-01 0.85401650E+02</pdfrwt>
<totfact> 0.56323867E+02</totfact>
</mgrwt>
</event>
<event>
 4    1  0.5097315E-001  0.1342520E+03  0.7546771E-02  0.1221280E+00
          2   -1    0    0  501    0  0.00000000000E+00  0.00000000000E+00  0.48300033079E+03  0.48300033079E+03  0.00000000000E+00 0. -1.
         -2   -1    0    0    0  501 -0.00000000000E+00 -0.00000000000E+00 -0.54431194664E+02  0.54431194664E+02  0.00000000000E+00 0.  1.
         24    1    1    2    0    0  0.10156222035E+03 -0.35234806967E+02  0.36496657509E+03  0.38887554964E+03  0.80419002446E+02 0. -1.
        -24    1    1    2    0    0 -0.10156222035E+03  0.35234806967E+02  0.63602561033E+02  0.14855597581E+03  0.80419002446E+02 0.  1.
<mgrwt>
<rscale>  0 0.13425197E+03</rscale>
<asrwt>0</asrwt>
<pdfrwt beam="1">  1        2 0.74307741E-01 0.13425197E+03</pdfrwt>
<pdfrwt beam="2">  1       -2 0.83740302E-02 0.13425197E+03</pdfrwt>
<totfact> 0.54767464E+03</totfact>
</mgrwt>
</event>
<event>
 4    1  0.5097315E-001  0.8210903E+02  0.7546771E-02  0.1323171E+00
          2   -1    0    0  501    0  0.00000000000E+00  0.00000000000E+00  0.62805937986E+03  0.62805937986E+03  0.00000000000E+00 0. -1.
         -2   -1    0    0    0  501 -0.00000000000E+00 -0.00000000000E+00 -0.11922406287E+02  0.11922406287E+02  0.00000000000E+00 0.  1.
         24    1    1    2    0    0  0.82836664219E+01 -0.14354581405E+02  0.20706161556E+03  0.22274739444E+03  0.80419002446E+02 0.  1.
        -24    1    1    2    0    0 -0.82836664219E+01  0.14354581405E+02  0.40907535801E+03  0.41723439170E+03  0.80419002446E+02 0.  0.
<mgrwt>
<rscale>  0 0.82109018E+02</rscale>
<asrwt>0</asrwt>
<pdfrwt beam="1">  1        2 0.96624495E-01 0.82109028E+02</pdfrwt>
<pdfrwt beam="2">  1       -2 0.18342168E-02 0.82109028E+02</pdfrwt>
<totfact> 0.37140967E+04</totfact>
</mgrwt>
</event>
<event>
 4    1  0.5097315E-001  0.8302268E+02  0.7546771E-02  0.1320686E+00
          2   -1    0    0  501    0  0.00000000000E+00  0.00000000000E+00  0.23439947424E+03  0.23439947424E+03  0.00000000000E+00 0. -1.
         -2   -1    0    0    0  501 -0.00000000000E+00 -0.00000000000E+00 -0.79543556013E+02  0.79543556013E+02  0.00000000000E+00 0.  1.
         24    1    1    2    0    0 -0.13939600054E+02  0.15206462958E+02  0.20205138071E+03  0.21844341456E+03  0.80419002446E+02 0. -1.
        -24    1    1    2    0    0  0.13939600054E+02 -0.15206462958E+02 -0.47195462476E+02  0.95499615696E+02  0.80419002446E+02 0.  1.
<mgrwt>
<rscale>  0 0.83022677E+02</rscale>
<asrwt>0</asrwt>
<pdfrwt beam="1">  1        2 0.36061457E-01 0.83022677E+02</pdfrwt>
<pdfrwt beam="2">  1       -2 0.12237470E-01 0.83022677E+02</pdfrwt>
<totfact> 0.62972443E+03</totfact>
</mgrwt>
</event>
<event>
 4    1  0.5097315E-001  0.8881216E+02  0.7546771E-02  0.1305754E+00
          1   -1    0    0  501    0  0.00000000000E+00  0.00000000000E+00  0.12294459155E+03  0.12294459155E+03  0.00000000000E+00 0. -1.
         -1   -1    0    0    0  501 -0.00000000000E+00 -0.00000000000E+00 -0.71473897812E+02  0.71473897812E+02  0.00000000000E+00 0.  1.
         24    1    1    2    0    0  0.14667179428E+02  0.34716765675E+02  0.56840762266E+02  0.10544414721E+03  0.80419002446E+02 0. -1.
        -24    1    1    2    0    0 -0.14667179428E+02 -0.34716765675E+02 -0.53700685267E+01  0.88974342153E+02  0.80419002446E+02 0.  1.
<mgrwt>
<rscale>  0 0.88812149E+02</rscale>
<asrwt>0</asrwt>
<pdfrwt beam="1">  1        1 0.18914553E-01 0.88812161E+02</pdfrwt>
<pdfrwt beam="2">  1       -1 0.10995984E-01 0.88812161E+02</pdfrwt>
<totfact> 0.12955730E+04</totfact>
</mgrwt>
</event>
<event>
 4    1  0.5097315E-001  0.8650780E+02  0.7546771E-02  0.1311536E+00
          1   -1    0    0  501    0  0.00000000000E+00  0.00000000000E+00  0.27937044334E+03  0.27937044334E+03  0.00000000000E+00 0. -1.
         -1   -1    0    0    0  501 -0.00000000000E+00 -0.00000000000E+00 -0.10974946173E+03  0.10974946173E+03  0.00000000000E+00 0.  1.
         24    1    1    2    0    0 -0.11604449608E+02  0.29693771181E+02 -0.84347337374E+02  0.12082248373E+03  0.80419002446E+02 0.  1.
        -24    1    1    2    0    0  0.11604449608E+02 -0.29693771181E+02  0.25396831898E+03  0.26829742134E+03  0.80419002446E+02 0. -1.
<mgrwt>
<rscale>  0 0.86507799E+02</rscale>
<asrwt>0</asrwt>
<pdfrwt beam="1">  1        1 0.42980068E-01 0.86507799E+02</pdfrwt>
<pdfrwt beam="2">  1       -1 0.16884533E-01 0.86507799E+02</pdfrwt>
<totfact> 0.24304535E+03</totfact>
</mgrwt>
</event>
<event>
 4    1  0.5097315E-001  0.8783395E+02  0.7546771E-02  0.1308184E+00
         -2   -1    0    0    0  501 -0.00000000000E+00  0.00000000000E+00  0.66831595089E+01  0.66831595089E+01  0.00000000000E+00 0.  1.
          2   -1    0    0  501    0  0.00000000000E+00 -0.00000000000E+00 -0.15600752441E+04  0.15600752441E+04  0.00000000000E+00 0. -1.
         24    1    1    2    0    0 -0.29415683542E+02  0.19552590485E+02 -0.11761875123E+04  0.11794625328E+04  0.80419002446E+02 0.  1.
        -24    1    1    2    0    0  0.29415683542E+02 -0.19552590485E+02 -0.37720457221E+03  0.38729587073E+03  0.80419002446E+02 0.  0.
<mgrwt>
<rscale>  0 0.87833947E+02</rscale>
<asrwt>0</asrwt>
<pdfrwt beam="1">  1        2 0.24001154E+00 0.87833947E+02</pdfrwt>
<pdfrwt beam="2">  1       -2 0.10281785E-02 0.87833947E+02</pdfrwt>
<totfact> 0.24203297E+04</totfact>
</mgrwt>
</event>
<event>
 4    1  0.5097315E-001  0.8362887E+02  0.7546771E-02  0.1319058E+00
         -1   -1    0    0    0  501 -0.00000000000E+00  0.00000000000E+00  0.91285064824E+01  0.91285064824E+01  0.00000000000E+00 0.  1.
          1   -1    0    0  501    0  0.00000000000E+00 -0.00000000000E+00 -0.76664449311E+03  0.76664449311E+03  0.00000000000E+00 0. -1.
         24    1    1    2    0    0 -0.20834662892E+02  0.96170880171E+01 -0.36888749931E+03  0.37824829764E+03  0.80419002446E+02 0.  1.
        -24    1    1    2    0    0  0.20834662892E+02 -0.96170880171E+01 -0.38862848731E+03  0.39752470195E+03  0.80419002446E+02 0. -1.
<mgrwt>
<rscale>  0 0.83628868E+02</rscale>
<asrwt>0</asrwt>
<pdfrwt beam="1">  1        1 0.11794530E+00 0.83628868E+02</pdfrwt>
<pdfrwt beam="2">  1       -1 0.14043857E-02 0.83628868E+02</pdfrwt>
<totfact> 0.25478863E+04</totfact>
</mgrwt>
</event>
<event>
 4    1  0.5097315E-001  0.1025983E+03  0.7546771E-02  0.1274925E+00
          2   -1    0    0  501    0  0.00000000000E+00  0.00000000000E+00  0.29323998430E+03  0.29323998430E+03  0.00000000000E+00 0. -1.
         -2   -1    0    0    0  501 -0.00000000000E+00 -0.00000000000E+00 -0.39499514810E+02  0.39499514810E+02  0.00000000000E+00 0.  1.
         24    1    1    2    0    0 -0.23390445634E+02  0.59262885074E+02  0.17711431714E+03  0.20468487923E+03  0.80419002446E+02 0. -1.
        -24    1    1    2    0    0  0.23390445634E+02 -0.59262885074E+02  0.76626152345E+02  0.12805461988E+03  0.80419002446E+02 0.  1.
<mgrwt>
<rscale>  0 0.10259834E+03</rscale>
<asrwt>0</asrwt>
<pdfrwt beam="1">  1        2 0.45113842E-01 0.10259834E+03</pdfrwt>
<pdfrwt beam="2">  1       -2 0.60768486E-02 0.10259834E+03</pdfrwt>
<totfact> 0.14892700E+04</totfact>
</mgrwt>
</event>
<event>
 4    1  0.5097315E-001  0.8305066E+02  0.7546771E-02  0.1320610E+00
          3   -1    0    0  501    0  0.00000000000E+00  0.00000000000E+00  0.12647933015E+03  0.12647933015E+03  0.00000000000E+00 0. -1.
         -3   -1    0    0    0  501 -0.00000000000E+00 -0.00000000000E+00 -0.10784093556E+03  0.10784093556E+03  0.00000000000E+00 0.  1.
         24    1    1    2    0    0  0.15346769010E+02  0.13952507451E+02 -0.73052929398E+02  0.11060805681E+03  0.80419002446E+02 0.  1.
        -24    1    1    2    0    0 -0.15346769010E+02 -0.13952507451E+02  0.91691323986E+02  0.12371220890E+03  0.80419002446E+02 0. -1.
<mgrwt>
<rscale>  0 0.83050658E+02</rscale>
<asrwt>0</asrwt>
<pdfrwt beam="1">  1        3 0.19458359E-01 0.83050658E+02</pdfrwt>
<pdfrwt beam="2">  1       -3 0.16590913E-01 0.83050658E+02</pdfrwt>
<totfact> 0.15390290E+03</totfact>
</mgrwt>
</event>
<event>
 4    1  0.5097315E-001  0.9570466E+02  0.7546771E-02  0.1289597E+00
          2   -1    0    0  501    0  0.00000000000E+00  0.00000000000E+00  0.16996955878E+04  0.16996955878E+04  0.00000000000E+00 0. -1.
         -2   -1    0    0    0  501 -0.00000000000E+00 -0.00000000000E+00 -0.60866906854E+01  0.60866906854E+01  0.00000000000E+00 0.  1.
         24    1    1    2    0    0 -0.33951096418E+02  0.39236312188E+02  0.11355966267E+04  0.11396223408E+04  0.80419002446E+02 0. -1.
        -24    1    1    2    0    0  0.33951096418E+02 -0.39236312188E+02  0.55801227035E+03  0.56615993761E+03  0.80419002446E+02 0.  1.
<mgrwt>
<rscale>  0 0.95704656E+02</rscale>
<asrwt>0</asrwt>
<pdfrwt beam="1">  1        2 0.26149125E+00 0.95704656E+02</pdfrwt>
<pdfrwt beam="2">  1       -2 0.93641531E-03 0.95704656E+02</pdfrwt>
<totfact> 0.23634073E+04</totfact>
</mgrwt>
</event>
<event>
 4    1  0.5097315E-001  0.8174056E+02  0.7546771E-02  0.1324183E+00
          2   -1    0    0  501    0  0.00000000000E+00  0.00000000000E+00  0.20024155155E+03  0.20024155155E+03  0.00000000000E+00 0. -1.
         -2   -1    0    0    0  501 -0.00000000000E+00 -0.00000000000E+00 -0.53060784515E+02  0.53060784515E+02  0.00000000000E+00 0.  1.
         24    1    1    2    0    0  0.14330376280E+02  0.29905557599E+01  0.15074886934E+03  0.17148393706E+03  0.80419002446E+02 0. -1.
        -24    1    1    2    0    0 -0.14330376280E+02 -0.29905557599E+01 -0.35681022999E+01  0.81818399010E+02  0.80419002446E+02 0. -1.
<mgrwt>
<rscale>  0 0.81740559E+02</rscale>
<asrwt>0</asrwt>
<pdfrwt beam="1">  1        2 0.30806392E-01 0.81740559E+02</pdfrwt>
<pdfrwt beam="2">  1       -2 0.81631977E-02 0.81740559E+02</pdfrwt>
<totfact> 0.13920936E+04</totfact>
</mgrwt>
</event>
<event>
 4    1  0.5097315E-001  0.9935857E+02  0.7546771E-02  0.1281651E+00
         -2   -1    0    0    0  501 -0.00000000000E+00  0.00000000000E+00  0.54885793703E+02  0.54885793703E+02  0.00000000000E+00 0.  1.
          2   -1    0    0  501    0  0.00000000000E+00 -0.00000000000E+00 -0.71960395633E+03  0.71960395633E+03  0.00000000000E+00 0. -1.
         24    1    1    2    0    0 -0.41302758830E+02  0.41218818999E+02 -0.66773364345E+03  0.67508543421E+03  0.80419002446E+02 0. -1.
        -24    1    1    2    0    0  0.41302758830E+02 -0.41218818999E+02  0.30154808202E+01  0.99404315830E+02  0.80419002446E+02 0.  1.
<mgrwt>
<rscale>  0 0.99358567E+02</rscale>
<asrwt>0</asrwt>
<pdfrwt beam="1">  1        2 0.11070829E+00 0.99358567E+02</pdfrwt>
<pdfrwt beam="2">  1       -2 0.84439687E-02 0.99358567E+02</pdfrwt>
<totfact> 0.33963462E+03</totfact>
</mgrwt>
</event>
<event>
 4    1  0.5097315E-001  0.2068374E+03  0.7546771E-02  0.1144095E+00
         -1   -1    0    0    0  501 -0.00000000000E+00  0.00000000000E+00  0.55597736460E+02  0.55597736460E+02  0.00000000000E+00 0.  1.
          1   -1    0    0  501    0  0.00000000000E+00 -0.00000000000E+00 -0.13333710783E+04  0.13333710783E+04  0.00000000000E+00 0. -1.
         24    1    1    2    0    0 -0.10491141895E+03 -0.15908522135E+03 -0.18725754553E+03  0.27901096356E+03  0.80419002446E+02 0.  1.
        -24    1    1    2    0    0  0.10491141895E+03  0.15908522135E+03 -0.10905157964E+04  0.11099578512E+04  0.80419002446E+02 0. -1.
<mgrwt>
<rscale>  0 0.20683745E+03</rscale>
<asrwt>0</asrwt>
<pdfrwt beam="1">  1        1 0.20513398E+00 0.20683745E+03</pdfrwt>
<pdfrwt beam="2">  1       -1 0.85534992E-02 0.20683745E+03</pdfrwt>
<totfact> 0.72475859E+02</totfact>
</mgrwt>
</event>
<event>
 4    1  0.5097315E-001  0.9080982E+02  0.7546771E-02  0.1300902E+00
         -2   -1    0    0    0  501 -0.00000000000E+00  0.00000000000E+00  0.30020903557E+02  0.30020903557E+02  0.00000000000E+00 0.  1.
          2   -1    0    0  501    0  0.00000000000E+00 -0.00000000000E+00 -0.42969295802E+03  0.42969295802E+03  0.00000000000E+00 0. -1.
         24    1    1    2    0    0 -0.39109977507E+02 -0.15799303853E+02 -0.33789012572E+03  0.34988021001E+03  0.80419002446E+02 0. -1.
        -24    1    1    2    0    0  0.39109977507E+02  0.15799303853E+02 -0.61781928740E+02  0.10983365156E+03  0.80419002446E+02 0.  1.
<mgrwt>
<rscale>  0 0.90809825E+02</rscale>
<asrwt>0</asrwt>
<pdfrwt beam="1">  1        2 0.66106607E-01 0.90809825E+02</pdfrwt>
<pdfrwt beam="2">  1       -2 0.46186007E-02 0.90809825E+02</pdfrwt>
<totfact> 0.14843159E+04</totfact>
</mgrwt>
</event>
<event>
 4    1  0.5097315E-001  0.8261427E+02  0.7546771E-02  0.1321792E+00
         -2   -1    0    0    0  501 -0.00000000000E+00  0.00000000000E+00  0.93426911400E+03  0.93426911400E+03  0.00000000000E+00 0.  1.
          2   -1    0    0  501    0  0.00000000000E+00 -0.00000000000E+00 -0.95979221925E+01  0.95979221925E+01  0.00000000000E+00 0. -1.
         24    1    1    2    0    0 -0.75677238612E+01  0.17338712737E+02  0.23168300613E+03  0.24597181279E+03  0.80419002446E+02 0. -1.
        -24    1    1    2    0    0  0.75677238612E+01 -0.17338712737E+02  0.69298818568E+03  0.69789522341E+03  0.80419002446E+02 0.  1.
<mgrwt>
<rscale>  0 0.82614268E+02</rscale>
<asrwt>0</asrwt>
<pdfrwt beam="1">  1        2 0.14766042E-02 0.82614268E+02</pdfrwt>
<pdfrwt beam="2">  1       -2 0.14373364E+00 0.82614268E+02</pdfrwt>
<totfact> 0.26888322E+03</totfact>
</mgrwt>
</event>
<event>
 4    1  0.5097315E-001  0.8300903E+02  0.7546771E-02  0.1320723E+00
         -2   -1    0    0    0  501 -0.00000000000E+00  0.00000000000E+00  0.34795246055E+01  0.34795246055E+01  0.00000000000E+00 0.  1.
          2   -1    0    0  501    0  0.00000000000E+00 -0.00000000000E+00 -0.28923556642E+04  0.28923556642E+04  0.00000000000E+00 0. -1.
         24    1    1    2    0    0 -0.31246429026E+01 -0.20335182878E+02 -0.22575098987E+04  0.22590355114E+04  0.80419002446E+02 0. -1.
        -24    1    1    2    0    0  0.31246429026E+01  0.20335182878E+02 -0.63136624090E+03  0.63679967742E+03  0.80419002446E+02 0.  1.
<mgrwt>
<rscale>  0 0.83009030E+02</rscale>
<asrwt>0</asrwt>
<pdfrwt beam="1">  1        2 0.44497790E+00 0.83009030E+02</pdfrwt>
<pdfrwt beam="2">  1       -2 0.53531136E-03 0.83009030E+02</pdfrwt>
<totfact> 0.12421478E+04</totfact>
</mgrwt>
</event>
<event>
 4    1  0.5097315E-001  0.8543530E+02  0.7546771E-02  0.1314298E+00
          2   -1    0    0  501    0  0.00000000000E+00  0.00000000000E+00  0.82051771320E+03  0.82051771320E+03  0.00000000000E+00 0. -1.
         -2   -1    0    0    0  501 -0.00000000000E+00 -0.00000000000E+00 -0.16244130790E+02  0.16244130790E+02  0.00000000000E+00 0.  1.
         24    1    1    2    0    0  0.22169864499E+02 -0.18451892330E+02  0.68353213903E+03  0.68885076487E+03  0.80419002446E+02 0. -1.
        -24    1    1    2    0    0 -0.22169864499E+02  0.18451892330E+02  0.12074144338E+03  0.14791107912E+03  0.80419002446E+02 0.  1.
<mgrwt>
<rscale>  0 0.85435304E+02</rscale>
<asrwt>0</asrwt>
<pdfrwt beam="1">  1        2 0.12623346E+00 0.85435304E+02</pdfrwt>
<pdfrwt beam="2">  1       -2 0.24990977E-02 0.85435304E+02</pdfrwt>
<totfact> 0.17478224E+04</totfact>
</mgrwt>
</event>
<event>
 4    1  0.5097315E-001  0.8899520E+02  0.7546771E-02  0.1305303E+00
         -2   -1    0    0    0  501 -0.00000000000E+00  0.00000000000E+00  0.90156611747E+01  0.90156611747E+01  0.00000000000E+00 0.  1.
          2   -1    0    0  501    0  0.00000000000E+00 -0.00000000000E+00 -0.97366763047E+03  0.97366763047E+03  0.00000000000E+00 0. -1.
         24    1    1    2    0    0  0.31173534597E+02  0.21934904583E+02 -0.63594729232E+03  0.64214414570E+03  0.80419002446E+02 0. -1.
        -24    1    1    2    0    0 -0.31173534597E+02 -0.21934904583E+02 -0.32870467698E+03  0.34053914594E+03  0.80419002446E+02 0.  1.
<mgrwt>
<rscale>  0 0.88995198E+02</rscale>
<asrwt>0</asrwt>
<pdfrwt beam="1">  1        2 0.14979510E+00 0.88995198E+02</pdfrwt>
<pdfrwt beam="2">  1       -2 0.13870241E-02 0.88995198E+02</pdfrwt>
<totfact> 0.32770851E+04</totfact>
</mgrwt>
</event>
<event>
 4    1  0.5097315E-001  0.9629317E+02  0.7546771E-02  0.1288290E+00
         -2   -1    0    0    0  501 -0.00000000000E+00  0.00000000000E+00  0.45106431589E+02  0.45106431589E+02  0.00000000000E+00 0.  1.
          2   -1    0    0  501    0  0.00000000000E+00 -0.00000000000E+00 -0.84911768189E+03  0.84911768189E+03  0.00000000000E+00 0. -1.
         24    1    1    2    0    0  0.12364462088E+02 -0.51500285037E+02 -0.79125144313E+03  0.79708921803E+03  0.80419002446E+02 0. -1.
        -24    1    1    2    0    0 -0.12364462088E+02  0.51500285037E+02 -0.12759807173E+02  0.97134895455E+02  0.80419002446E+02 0.  1.
<mgrwt>
<rscale>  0 0.96293173E+02</rscale>
<asrwt>0</asrwt>
<pdfrwt beam="1">  1        2 0.13063349E+00 0.96293173E+02</pdfrwt>
<pdfrwt beam="2">  1       -2 0.69394511E-02 0.96293173E+02</pdfrwt>
<totfact> 0.37424815E+03</totfact>
</mgrwt>
</event>
<event>
 4    1  0.5097315E-001  0.8454864E+02  0.7546771E-02  0.1316617E+00
          2   -1    0    0  501    0  0.00000000000E+00  0.00000000000E+00  0.64305917907E+03  0.64305917907E+03  0.00000000000E+00 0. -1.
         -2   -1    0    0    0  501 -0.00000000000E+00 -0.00000000000E+00 -0.13007883561E+02  0.13007883561E+02  0.00000000000E+00 0.  1.
         24    1    1    2    0    0 -0.25854854984E+02 -0.35752516905E+01  0.44011540967E+03  0.44816296783E+03  0.80419002446E+02 0. -1.
        -24    1    1    2    0    0  0.25854854984E+02  0.35752516905E+01  0.18993588583E+03  0.20790409480E+03  0.80419002446E+02 0.  1.
<mgrwt>
<rscale>  0 0.84548636E+02</rscale>
<asrwt>0</asrwt>
<pdfrwt beam="1">  1        2 0.98932156E-01 0.84548636E+02</pdfrwt>
<pdfrwt beam="2">  1       -2 0.20012134E-02 0.84548636E+02</pdfrwt>
<totfact> 0.32029705E+04</totfact>
</mgrwt>
</event>
<event>
 4    1  0.5097315E-001  0.8275340E+02  0.7546771E-02  0.1321414E+00
          2   -1    0    0  501    0  0.00000000000E+00  0.00000000000E+00  0.15927584701E+03  0.15927584701E+03  0.00000000000E+00 0. -1.
         -2   -1    0    0    0  501 -0.00000000000E+00 -0.00000000000E+00 -0.44655276068E+02  0.44655276068E+02  0.00000000000E+00 0.  1.
         24    1    1    2    0    0 -0.15658616772E+02  0.11649735198E+02  0.76969148567E+02  0.11301492996E+03  0.80419002446E+02 0.  0.
        -24    1    1    2    0    0  0.15658616772E+02 -0.11649735198E+02  0.37651422378E+02  0.90916193117E+02  0.80419002446E+02 0.  0.
<mgrwt>
<rscale>  0 0.82753396E+02</rscale>
<asrwt>0</asrwt>
<pdfrwt beam="1">  1        2 0.24503976E-01 0.82753396E+02</pdfrwt>
<pdfrwt beam="2">  1       -2 0.68700426E-02 0.82753396E+02</pdfrwt>
<totfact> 0.23160996E+04</totfact>
</mgrwt>
</event>
<event>
 4    1  0.5097315E-001  0.8074274E+02  0.7546771E-02  0.1326957E+00
          3   -1    0    0  501    0  0.00000000000E+00  0.00000000000E+00  0.70227944331E+02  0.70227944331E+02  0.00000000000E+00 0. -1.
         -3   -1    0    0    0  501 -0.00000000000E+00 -0.00000000000E+00 -0.15983195631E+03  0.15983195631E+03  0.00000000000E+00 0.  1.
         24    1    1    2    0    0  0.23121253782E+01  0.68431158279E+01 -0.11927809547E+03  0.14403698890E+03  0.80419002446E+02 0.  0.
        -24    1    1    2    0    0 -0.23121253782E+01 -0.68431158279E+01  0.29674083495E+02  0.86022911737E+02  0.80419002446E+02 0. -1.
<mgrwt>
<rscale>  0 0.80742740E+02</rscale>
<asrwt>0</asrwt>
<pdfrwt beam="1">  1        3 0.10804299E-01 0.80742740E+02</pdfrwt>
<pdfrwt beam="2">  1       -3 0.24589531E-01 0.80742740E+02</pdfrwt>
<totfact> 0.20781488E+03</totfact>
</mgrwt>
</event>
<event>
 4    1  0.5097315E-001  0.9273236E+02  0.7546771E-02  0.1296367E+00
          2   -1    0    0  501    0  0.00000000000E+00  0.00000000000E+00  0.31747517575E+03  0.31747517575E+03  0.00000000000E+00 0. -1.
         -2   -1    0    0    0  501 -0.00000000000E+00 -0.00000000000E+00 -0.10467941234E+03  0.10467941234E+03  0.00000000000E+00 0.  1.
         24    1    1    2    0    0  0.19738439849E+02  0.41742892324E+02  0.28812590779E+03  0.30268106938E+03  0.80419002446E+02 0. -1.
        -24    1    1    2    0    0 -0.19738439849E+02 -0.41742892324E+02 -0.75330144378E+02  0.11947351871E+03  0.80419002446E+02 0.  1.
<mgrwt>
<rscale>  0 0.92732362E+02</rscale>
<asrwt>0</asrwt>
<pdfrwt beam="1">  1        2 0.48842334E-01 0.92732362E+02</pdfrwt>
<pdfrwt beam="2">  1       -2 0.16104525E-01 0.92732362E+02</pdfrwt>
<totfact> 0.29719799E+03</totfact>
</mgrwt>
</event>
<event>
 4    1  0.5097315E-001  0.1122876E+03  0.7546771E-02  0.1256391E+00
          2   -1    0    0  501    0  0.00000000000E+00  0.00000000000E+00  0.12209729055E+04  0.12209729055E+04  0.00000000000E+00 0. -1.
         -2   -1    0    0    0  501 -0.00000000000E+00 -0.00000000000E+00 -0.12935759603E+02  0.12935759603E+02  0.00000000000E+00 0.  1.
         24    1    1    2    0    0  0.72803142011E+02 -0.28999893431E+02  0.88109960524E+03  0.88822577176E+03  0.80419002446E+02 0. -1.
        -24    1    1    2    0    0 -0.72803142011E+02  0.28999893431E+02  0.32693754065E+03  0.34568289334E+03  0.80419002446E+02 0.  1.
<mgrwt>
<rscale>  0 0.11228761E+03</rscale>
<asrwt>0</asrwt>
<pdfrwt beam="1">  1        2 0.18784189E+00 0.11228761E+03</pdfrwt>
<pdfrwt beam="2">  1       -2 0.19901178E-02 0.11228761E+03</pdfrwt>
<totfact> 0.14417345E+04</totfact>
</mgrwt>
</event>
<event>
 4    1  0.5097315E-001  0.9035546E+02  0.7546771E-02  0.1301993E+00
          1   -1    0    0  501    0  0.00000000000E+00  0.00000000000E+00  0.70028262159E+03  0.70028262159E+03  0.00000000000E+00 0. -1.
         -1   -1    0    0    0  501 -0.00000000000E+00 -0.00000000000E+00 -0.12005612663E+02  0.12005612663E+02  0.00000000000E+00 0.  1.
         24    1    1    2    0    0 -0.51599680236E+01  0.40868854549E+02  0.40471362245E+03  0.41467724883E+03  0.80419002446E+02 0. -1.
        -24    1    1    2    0    0  0.51599680236E+01 -0.40868854549E+02  0.28356338647E+03  0.29761098542E+03  0.80419002446E+02 0.  1.
<mgrwt>
<rscale>  0 0.90355446E+02</rscale>
<asrwt>0</asrwt>
<pdfrwt beam="1">  1        1 0.10773576E+00 0.90355457E+02</pdfrwt>
<pdfrwt beam="2">  1       -1 0.18470179E-02 0.90355457E+02</pdfrwt>
<totfact> 0.19806672E+04</totfact>
</mgrwt>
</event>
<event>
 4    1  0.5097315E-001  0.8901208E+02  0.7546771E-02  0.1305262E+00
          2   -1    0    0  501    0  0.00000000000E+00  0.00000000000E+00  0.13681888326E+04  0.13681888326E+04  0.00000000000E+00 0. -1.
         -2   -1    0    0    0  501 -0.00000000000E+00 -0.00000000000E+00 -0.65537077620E+01  0.65537077620E+01  0.00000000000E+00 0.  1.
         24    1    1    2    0    0 -0.31162918471E+02  0.22018332471E+02  0.91531246124E+03  0.91963038885E+03  0.80419002446E+02 0.  1.
        -24    1    1    2    0    0  0.31162918471E+02 -0.22018332471E+02  0.44632266359E+03  0.45511215150E+03  0.80419002446E+02 0. -1.
<mgrwt>
<rscale>  0 0.89012080E+02</rscale>
<asrwt>0</asrwt>
<pdfrwt beam="1">  1        2 0.21049036E+00 0.89012080E+02</pdfrwt>
<pdfrwt beam="2">  1       -2 0.10082638E-02 0.89012080E+02</pdfrwt>
<totfact> 0.31248049E+04</totfact>
</mgrwt>
</event>
<event>
 4    1  0.5097315E-001  0.8338392E+02  0.7546771E-02  0.1319714E+00
          4   -1    0    0  501    0  0.00000000000E+00  0.00000000000E+00  0.97425621881E+02  0.97425621881E+02  0.00000000000E+00 0. -1.
         -4   -1    0    0    0  501 -0.00000000000E+00 -0.00000000000E+00 -0.10115045742E+03  0.10115045742E+03  0.00000000000E+00 0.  1.
         24    1    1    2    0    0 -0.21862174098E+02  0.27761222947E+01  0.52015129552E+02  0.98277419421E+02  0.80419002446E+02 0. -1.
        -24    1    1    2    0    0  0.21862174098E+02 -0.27761222947E+01 -0.55739965094E+02  0.10029865988E+03  0.80419002446E+02 0.  1.
<mgrwt>
<rscale>  0 0.83383916E+02</rscale>
<asrwt>0</asrwt>
<pdfrwt beam="1">  1        4 0.14988557E-01 0.83383916E+02</pdfrwt>
<pdfrwt beam="2">  1       -4 0.15561609E-01 0.83383916E+02</pdfrwt>
<totfact> 0.19401706E+03</totfact>
</mgrwt>
</event>
<event>
 4    1  0.5097315E-001  0.1228449E+03  0.7546771E-02  0.1238476E+00
          2   -1    0    0  501    0  0.00000000000E+00  0.00000000000E+00  0.25066960251E+03  0.25066960251E+03  0.00000000000E+00 0. -1.
         -2   -1    0    0    0  501 -0.00000000000E+00 -0.00000000000E+00 -0.16156759152E+03  0.16156759152E+03  0.00000000000E+00 0.  1.
         24    1    1    2    0    0  0.82608498074E+02  0.42420267447E+02  0.20781293505E+03  0.24140645180E+03  0.80419002446E+02 0. -1.
        -24    1    1    2    0    0 -0.82608498074E+02 -0.42420267447E+02 -0.11871092406E+03  0.17083074222E+03  0.80419002446E+02 0.  1.
<mgrwt>
<rscale>  0 0.12284486E+03</rscale>
<asrwt>0</asrwt>
<pdfrwt beam="1">  1        2 0.38564554E-01 0.12284486E+03</pdfrwt>
<pdfrwt beam="2">  1       -2 0.24856553E-01 0.12284486E+03</pdfrwt>
<totfact> 0.18584278E+03</totfact>
</mgrwt>
</event>
<event>
 4    1  0.5097315E-001  0.8549316E+02  0.7546771E-02  0.1314148E+00
         -4   -1    0    0    0  501 -0.00000000000E+00  0.00000000000E+00  0.42123657187E+03  0.42123657187E+03  0.00000000000E+00 0.  1.
          4   -1    0    0  501    0  0.00000000000E+00 -0.00000000000E+00 -0.53879610737E+03  0.53879610737E+03  0.00000000000E+00 0. -1.
         24    1    1    2    0    0 -0.29956420836E+01  0.28859854899E+02 -0.53100358951E+03  0.53784188488E+03  0.80419002446E+02 0. -1.
        -24    1    1    2    0    0  0.29956420836E+01 -0.28859854899E+02  0.41344405401E+03  0.42219079437E+03  0.80419002446E+02 0.  1.
<mgrwt>
<rscale>  0 0.85493164E+02</rscale>
<asrwt>0</asrwt>
<pdfrwt beam="1">  1        4 0.82891709E-01 0.85493164E+02</pdfrwt>
<pdfrwt beam="2">  1       -4 0.64805627E-01 0.85493164E+02</pdfrwt>
<totfact> 0.48116544E+00</totfact>
</mgrwt>
</event>
<event>
 4    1  0.5097315E-001  0.1009589E+03  0.7546771E-02  0.1278292E+00
         -1   -1    0    0    0  501 -0.00000000000E+00  0.00000000000E+00  0.44178574373E+02  0.44178574373E+02  0.00000000000E+00 0.  1.
          1   -1    0    0  501    0  0.00000000000E+00 -0.00000000000E+00 -0.31681921009E+03  0.31681921009E+03  0.00000000000E+00 0. -1.
         24    1    1    2    0    0 -0.30636614787E+02 -0.52790859639E+02 -0.42222601009E+02  0.10943235818E+03  0.80419002446E+02 0.  1.
        -24    1    1    2    0    0  0.30636614787E+02  0.52790859639E+02 -0.23041803471E+03  0.25156542629E+03  0.80419002446E+02 0. -1.
<mgrwt>
<rscale>  0 0.10095887E+03</rscale>
<asrwt>0</asrwt>
<pdfrwt beam="1">  1        1 0.48741415E-01 0.10095887E+03</pdfrwt>
<pdfrwt beam="2">  1       -1 0.67967040E-02 0.10095887E+03</pdfrwt>
<totfact> 0.83875119E+03</totfact>
</mgrwt>
</event>
<event>
 4    1  0.5097315E-001  0.1380291E+03  0.7546771E-02  0.1216006E+00
          2   -1    0    0  501    0  0.00000000000E+00  0.00000000000E+00  0.37813571530E+02  0.37813571530E+02  0.00000000000E+00 0. -1.
         -2   -1    0    0    0  501 -0.00000000000E+00 -0.00000000000E+00 -0.52998308079E+03  0.52998308079E+03  0.00000000000E+00 0.  1.
         24    1    1    2    0    0 -0.58934830727E+02 -0.95454090859E+02 -0.30913764242E+03  0.33855294364E+03  0.80419002446E+02 0.  0.
        -24    1    1    2    0    0  0.58934830727E+02  0.95454090859E+02 -0.18303186684E+03  0.22924370868E+03  0.80419002446E+02 0.  1.
<mgrwt>
<rscale>  0 0.13802905E+03</rscale>
<asrwt>0</asrwt>
<pdfrwt beam="1">  1        2 0.58174728E-02 0.13802907E+03</pdfrwt>
<pdfrwt beam="2">  1       -2 0.81535855E-01 0.13802907E+03</pdfrwt>
<totfact> 0.16959366E+03</totfact>
</mgrwt>
</event>
<event>
 4    1  0.5097315E-001  0.8381813E+02  0.7546771E-02  0.1318553E+00
          1   -1    0    0  501    0  0.00000000000E+00  0.00000000000E+00  0.25302112774E+03  0.25302112774E+03  0.00000000000E+00 0. -1.
         -1   -1    0    0    0  501 -0.00000000000E+00 -0.00000000000E+00 -0.68069698573E+02  0.68069698573E+02  0.00000000000E+00 0.  1.
         24    1    1    2    0    0  0.17442466661E+02 -0.15938087708E+02 -0.31059691237E+02  0.89387821637E+02  0.80419002446E+02 0.  1.
        -24    1    1    2    0    0 -0.17442466661E+02  0.15938087708E+02  0.21601112041E+03  0.23170300468E+03  0.80419002446E+02 0. -1.
<mgrwt>
<rscale>  0 0.83818126E+02</rscale>
<asrwt>0</asrwt>
<pdfrwt beam="1">  1        1 0.38926327E-01 0.83818126E+02</pdfrwt>
<pdfrwt beam="2">  1       -1 0.10472261E-01 0.83818126E+02</pdfrwt>
<totfact> 0.56958429E+03</totfact>
</mgrwt>
</event>
<event>
 4    1  0.5097315E-001  0.1103785E+03  0.7546771E-02  0.1259871E+00
         -3   -1    0    0    0  501 -0.00000000000E+00  0.00000000000E+00  0.72032249119E+03  0.72032249119E+03  0.00000000000E+00 0.  1.
          3   -1    0    0  501    0  0.00000000000E+00 -0.00000000000E+00 -0.17447945987E+02  0.17447945987E+02  0.00000000000E+00 0. -1.
         24    1    1    2    0    0  0.24863218867E+02  0.71400459248E+02  0.41597769348E+03  0.43037293439E+03  0.80419002446E+02 0.  1.
        -24    1    1    2    0    0 -0.24863218867E+02 -0.71400459248E+02  0.28689685173E+03  0.30739750279E+03  0.80419002446E+02 0. -1.
<mgrwt>
<rscale>  0 0.11037854E+03</rscale>
<asrwt>0</asrwt>
<pdfrwt beam="1">  1        3 0.26842999E-02 0.11037854E+03</pdfrwt>
<pdfrwt beam="2">  1       -3 0.11081882E+00 0.11037854E+03</pdfrwt>
<totfact> 0.96445048E+02</totfact>
</mgrwt>
</event>
<event>
 4    1  0.5097315E-001  0.1049333E+03  0.7546771E-02  0.1270251E+00
         -2   -1    0    0    0  501 -0.00000000000E+00  0.00000000000E+00  0.66197568772E+01  0.66197568772E+01  0.00000000000E+00 0.  1.
          2   -1    0    0  501    0  0.00000000000E+00 -0.00000000000E+00 -0.31593138860E+04  0.31593138860E+04  0.00000000000E+00 0. -1.
         24    1    1    2    0    0  0.63316031194E+02 -0.23127133236E+02 -0.26656166485E+04  0.26676812247E+04  0.80419002446E+02 0. -1.
        -24    1    1    2    0    0 -0.63316031194E+02  0.23127133236E+02 -0.48707748059E+03  0.49825241811E+03  0.80419002446E+02 0.  1.
<mgrwt>
<rscale>  0 0.10493331E+03</rscale>
<asrwt>0</asrwt>
<pdfrwt beam="1">  1        2 0.48604957E+00 0.10493331E+03</pdfrwt>
<pdfrwt beam="2">  1       -2 0.10184215E-02 0.10493331E+03</pdfrwt>
<totfact> 0.35334381E+03</totfact>
</mgrwt>
</event>
<event>
 4    1  0.5097315E-001  0.8414013E+02  0.7546771E-02  0.1317697E+00
          2   -1    0    0  501    0  0.00000000000E+00  0.00000000000E+00  0.27315470334E+04  0.27315470334E+04  0.00000000000E+00 0. -1.
         -2   -1    0    0    0  501 -0.00000000000E+00 -0.00000000000E+00 -0.34107976629E+01  0.34107976629E+01  0.00000000000E+00 0.  1.
         24    1    1    2    0    0  0.24450311075E+02 -0.38116262105E+01  0.20341686386E+04  0.20359080560E+04  0.80419002446E+02 0. -1.
        -24    1    1    2    0    0 -0.24450311075E+02  0.38116262105E+01  0.69396759712E+03  0.69904977507E+03  0.80419002446E+02 0.  1.
<mgrwt>
<rscale>  0 0.84140134E+02</rscale>
<asrwt>0</asrwt>
<pdfrwt beam="1">  1        2 0.42023626E+00 0.84140134E+02</pdfrwt>
<pdfrwt beam="2">  1       -2 0.52474029E-03 0.84140134E+02</pdfrwt>
<totfact> 0.15655450E+04</totfact>
</mgrwt>
</event>
<event>
 4    1  0.5097315E-001  0.9082783E+02  0.7546771E-02  0.1300859E+00
         -1   -1    0    0    0  501 -0.00000000000E+00  0.00000000000E+00  0.96551999822E+02  0.96551999822E+02  0.00000000000E+00 0.  1.
          1   -1    0    0  501    0  0.00000000000E+00 -0.00000000000E+00 -0.85582325258E+02  0.85582325258E+02  0.00000000000E+00 0. -1.
         24    1    1    2    0    0  0.41853771579E+02  0.55444627855E+01  0.91588542685E+01  0.91288443019E+02  0.80419002446E+02 0.  0.
        -24    1    1    2    0    0 -0.41853771579E+02 -0.55444627855E+01  0.18108202952E+01  0.90845882061E+02  0.80419002446E+02 0. -1.
<mgrwt>
<rscale>  0 0.90827833E+02</rscale>
<asrwt>0</asrwt>
<pdfrwt beam="1">  1        1 0.13166512E-01 0.90827833E+02</pdfrwt>
<pdfrwt beam="2">  1       -1 0.14854154E-01 0.90827833E+02</pdfrwt>
<totfact> 0.12994219E+04</totfact>
</mgrwt>
</event>
<event>
 4    1  0.5097315E-001  0.9043831E+02  0.7546771E-02  0.1301794E+00
         -2   -1    0    0    0  501 -0.00000000000E+00  0.00000000000E+00  0.44026256228E+02  0.44026256228E+02  0.00000000000E+00 0.  1.
          2   -1    0    0  501    0  0.00000000000E+00 -0.00000000000E+00 -0.19350608557E+03  0.19350608557E+03  0.00000000000E+00 0. -1.
         24    1    1    2    0    0  0.20733810889E+02  0.35804700317E+02 -0.51004422143E+02  0.10382935284E+03  0.80419002446E+02 0.  0.
        -24    1    1    2    0    0 -0.20733810889E+02 -0.35804700317E+02 -0.98475407199E+02  0.13370298896E+03  0.80419002446E+02 0.  0.
<mgrwt>
<rscale>  0 0.90438297E+02</rscale>
<asrwt>0</asrwt>
<pdfrwt beam="1">  1        2 0.29770167E-01 0.90438308E+02</pdfrwt>
<pdfrwt beam="2">  1       -2 0.67732701E-02 0.90438308E+02</pdfrwt>
<totfact> 0.19375189E+04</totfact>
</mgrwt>
</event>
<event>
 4    1  0.5097315E-001  0.9520108E+02  0.7546771E-02  0.1290724E+00
         -2   -1    0    0    0  501 -0.00000000000E+00  0.00000000000E+00  0.21845186064E+02  0.21845186064E+02  0.00000000000E+00 0.  1.
          2   -1    0    0  501    0  0.00000000000E+00 -0.00000000000E+00 -0.50408797302E+03  0.50408797302E+03  0.00000000000E+00 0. -1.
         24    1    1    2    0    0  0.49105773226E+02  0.13588679181E+02 -0.35174211472E+03  0.36439780514E+03  0.80419002446E+02 0.  0.
        -24    1    1    2    0    0 -0.49105773226E+02 -0.13588679181E+02 -0.13050067223E+03  0.16153535394E+03  0.80419002446E+02 0.  0.
<mgrwt>
<rscale>  0 0.95201077E+02</rscale>
<asrwt>0</asrwt>
<pdfrwt beam="1">  1        2 0.77551992E-01 0.95201077E+02</pdfrwt>
<pdfrwt beam="2">  1       -2 0.33607980E-02 0.95201077E+02</pdfrwt>
<totfact> 0.20053944E+04</totfact>
</mgrwt>
</event>
<event>
 4    1  0.5097315E-001  0.8455773E+02  0.7546771E-02  0.1316593E+00
          2   -1    0    0  501    0  0.00000000000E+00  0.00000000000E+00  0.40400268986E+04  0.40400268986E+04  0.00000000000E+00 0. -1.
         -2   -1    0    0    0  501 -0.00000000000E+00 -0.00000000000E+00 -0.29447788741E+01  0.29447788741E+01  0.00000000000E+00 0.  1.
         24    1    1    2    0    0 -0.65983235088E+01  0.25283495401E+02  0.32954525339E+04  0.32965371850E+04  0.80419002446E+02 0. -1.
        -24    1    1    2    0    0  0.65983235088E+01 -0.25283495401E+02  0.74162958579E+03  0.74643449243E+03  0.80419002446E+02 0.  1.
<mgrwt>
<rscale>  0 0.84557726E+02</rscale>
<asrwt>0</asrwt>
<pdfrwt beam="1">  1        2 0.62153816E+00 0.84557726E+02</pdfrwt>
<pdfrwt beam="2">  1       -2 0.45304614E-03 0.84557726E+02</pdfrwt>
<totfact> 0.29111350E+03</totfact>
</mgrwt>
</event>
<event>
 4    1  0.5097315E-001  0.8524512E+02  0.7546771E-02  0.1314793E+00
         -2   -1    0    0    0  501 -0.00000000000E+00  0.00000000000E+00  0.89304706366E+02  0.89304706366E+02  0.00000000000E+00 0.  1.
          2   -1    0    0  501    0  0.00000000000E+00 -0.00000000000E+00 -0.10328464152E+03  0.10328464152E+03  0.00000000000E+00 0. -1.
         24    1    1    2    0    0  0.18468385375E+02  0.21411067805E+02 -0.51345806084E+02  0.99514435333E+02  0.80419002446E+02 0. -1.
        -24    1    1    2    0    0 -0.18468385375E+02 -0.21411067805E+02  0.37365870926E+02  0.93074912556E+02  0.80419002446E+02 0.  1.
<mgrwt>
<rscale>  0 0.85245123E+02</rscale>
<asrwt>0</asrwt>
<pdfrwt beam="1">  1        2 0.15889945E-01 0.85245123E+02</pdfrwt>
<pdfrwt beam="2">  1       -2 0.13739186E-01 0.85245123E+02</pdfrwt>
<totfact> 0.12869886E+04</totfact>
</mgrwt>
</event>
<event>
 4    1  0.5097315E-001  0.8298928E+02  0.7546771E-02  0.1320776E+00
          1   -1    0    0  501    0  0.00000000000E+00  0.00000000000E+00  0.23495082507E+03  0.23495082507E+03  0.00000000000E+00 0. -1.
         -1   -1    0    0    0  501 -0.00000000000E+00 -0.00000000000E+00 -0.39908439418E+02  0.39908439418E+02  0.00000000000E+00 0.  1.
         24    1    1    2    0    0  0.97739820988E+01  0.18013138887E+02  0.26710601060E+02  0.87181856266E+02  0.80419002446E+02 0.  1.
        -24    1    1    2    0    0 -0.97739820988E+01 -0.18013138887E+02  0.16833178459E+03  0.18767740822E+03  0.80419002446E+02 0.  0.
<mgrwt>
<rscale>  0 0.82989276E+02</rscale>
<asrwt>0</asrwt>
<pdfrwt beam="1">  1        1 0.36146280E-01 0.82989276E+02</pdfrwt>
<pdfrwt beam="2">  1       -1 0.61397601E-02 0.82989276E+02</pdfrwt>
<totfact> 0.13795809E+04</totfact>
</mgrwt>
</event>
<event>
 4    1  0.5097315E-001  0.8254228E+02  0.7546771E-02  0.1321988E+00
          1   -1    0    0  501    0  0.00000000000E+00  0.00000000000E+00  0.36257799817E+03  0.36257799817E+03  0.00000000000E+00 0. -1.
         -1   -1    0    0    0  501 -0.00000000000E+00 -0.00000000000E+00 -0.31842419695E+02  0.31842419695E+02  0.00000000000E+00 0.  1.
         24    1    1    2    0    0  0.72575638665E+01 -0.17127188131E+02  0.39111196406E+02  0.91339555753E+02  0.80419002446E+02 0.  1.
        -24    1    1    2    0    0 -0.72575638665E+01  0.17127188131E+02  0.29162438207E+03  0.30308086211E+03  0.80419002446E+02 0. -1.
<mgrwt>
<rscale>  0 0.82542285E+02</rscale>
<asrwt>0</asrwt>
<pdfrwt beam="1">  1        1 0.55781228E-01 0.82542285E+02</pdfrwt>
<pdfrwt beam="2">  1       -1 0.48988341E-02 0.82542285E+02</pdfrwt>
<totfact> 0.11310818E+04</totfact>
</mgrwt>
</event>
<event>
 4    1  0.5097315E-001  0.8094134E+02  0.7546771E-02  0.1326401E+00
         -2   -1    0    0    0  501 -0.00000000000E+00  0.00000000000E+00  0.87118801444E+01  0.87118801444E+01  0.00000000000E+00 0.  1.
          2   -1    0    0  501    0  0.00000000000E+00 -0.00000000000E+00 -0.16598215909E+04  0.16598215909E+04  0.00000000000E+00 0. -1.
         24    1    1    2    0    0 -0.27699814341E+01  0.87528284361E+01 -0.14425331620E+04  0.14448022094E+04  0.80419002446E+02 0.  0.
        -24    1    1    2    0    0  0.27699814341E+01 -0.87528284361E+01 -0.20857654881E+03  0.22373126172E+03  0.80419002446E+02 0.  1.
<mgrwt>
<rscale>  0 0.80941341E+02</rscale>
<asrwt>0</asrwt>
<pdfrwt beam="1">  1        2 0.25535712E+00 0.80941341E+02</pdfrwt>
<pdfrwt beam="2">  1       -2 0.13402895E-02 0.80941341E+02</pdfrwt>
<totfact> 0.14725804E+04</totfact>
</mgrwt>
</event>
<event>
 4    1  0.5097315E-001  0.8731767E+02  0.7546771E-02  0.1309480E+00
         -4   -1    0    0    0  501 -0.00000000000E+00  0.00000000000E+00  0.71402293149E+02  0.71402293149E+02  0.00000000000E+00 0.  1.
          4   -1    0    0  501    0  0.00000000000E+00 -0.00000000000E+00 -0.12059255203E+03  0.12059255203E+03  0.00000000000E+00 0. -1.
         24    1    1    2    0    0 -0.33661118022E+02 -0.49079724701E+01 -0.57083497232E+02  0.10432114201E+03  0.80419002446E+02 0. -1.
        -24    1    1    2    0    0  0.33661118022E+02  0.49079724701E+01  0.78932383542E+01  0.87673703163E+02  0.80419002446E+02 0.  1.
<mgrwt>
<rscale>  0 0.87317667E+02</rscale>
<asrwt>0</asrwt>
<pdfrwt beam="1">  1        4 0.18552700E-01 0.87317667E+02</pdfrwt>
<pdfrwt beam="2">  1       -4 0.10984968E-01 0.87317667E+02</pdfrwt>
<totfact> 0.24525406E+03</totfact>
</mgrwt>
</event>
<event>
 4    1  0.5097315E-001  0.9685080E+02  0.7546771E-02  0.1287061E+00
          2   -1    0    0  501    0  0.00000000000E+00  0.00000000000E+00  0.47854410257E+03  0.47854410257E+03  0.00000000000E+00 0. -1.
         -2   -1    0    0    0  501 -0.00000000000E+00 -0.00000000000E+00 -0.21313309740E+02  0.21313309740E+02  0.00000000000E+00 0.  1.
         24    1    1    2    0    0  0.35636227460E+02 -0.40532964232E+02  0.29945010397E+03  0.31472280282E+03  0.80419002446E+02 0. -1.
        -24    1    1    2    0    0 -0.35636227460E+02  0.40532964232E+02  0.15778068886E+03  0.18513460948E+03  0.80419002446E+02 0.  1.
<mgrwt>
<rscale>  0 0.96850802E+02</rscale>
<asrwt>0</asrwt>
<pdfrwt beam="1">  1        2 0.73622162E-01 0.96850802E+02</pdfrwt>
<pdfrwt beam="2">  1       -2 0.32789711E-02 0.96850802E+02</pdfrwt>
<totfact> 0.22028061E+04</totfact>
</mgrwt>
</event>
<event>
 4    1  0.5097315E-001  0.8140717E+02  0.7546771E-02  0.1325105E+00
         -2   -1    0    0    0  501 -0.00000000000E+00  0.00000000000E+00  0.16467887503E+02  0.16467887503E+02  0.00000000000E+00 0.  1.
          2   -1    0    0  501    0  0.00000000000E+00 -0.00000000000E+00 -0.14897799478E+04  0.14897799478E+04  0.00000000000E+00 0. -1.
         24    1    1    2    0    0  0.39760942510E+00  0.12639349827E+02 -0.13800701534E+04  0.13824690794E+04  0.80419002446E+02 0. -1.
        -24    1    1    2    0    0 -0.39760942510E+00 -0.12639349827E+02 -0.93241906932E+02  0.12377875593E+03  0.80419002446E+02 0.  1.
<mgrwt>
<rscale>  0 0.81407169E+02</rscale>
<asrwt>0</asrwt>
<pdfrwt beam="1">  1        2 0.22919699E+00 0.81407169E+02</pdfrwt>
<pdfrwt beam="2">  1       -2 0.25335203E-02 0.81407169E+02</pdfrwt>
<totfact> 0.72239057E+03</totfact>
</mgrwt>
</event>
<event>
 4    1  0.5097315E-001  0.9752989E+02  0.7546771E-02  0.1285578E+00
         -2   -1    0    0    0  501 -0.00000000000E+00  0.00000000000E+00  0.48881532782E+01  0.48881532782E+01  0.00000000000E+00 0.  1.
          2   -1    0    0  501    0  0.00000000000E+00 -0.00000000000E+00 -0.23262504588E+04  0.23262504588E+04  0.00000000000E+00 0. -1.
         24    1    1    2    0    0 -0.38929312547E+01  0.55042785797E+02 -0.16319578290E+04  0.16348695467E+04  0.80419002446E+02 0.  1.
        -24    1    1    2    0    0  0.38929312547E+01 -0.55042785797E+02 -0.68940447658E+03  0.69626906542E+03  0.80419002446E+02 0.  0.
<mgrwt>
<rscale>  0 0.97529888E+02</rscale>
<asrwt>0</asrwt>
<pdfrwt beam="1">  1        2 0.35788531E+00 0.97529888E+02</pdfrwt>
<pdfrwt beam="2">  1       -2 0.75202227E-03 0.97529888E+02</pdfrwt>
<totfact> 0.15539841E+04</totfact>
</mgrwt>
</event>
<event>
 4    1  0.5097315E-001  0.9689534E+02  0.7546771E-02  0.1286964E+00
          1   -1    0    0  501    0  0.00000000000E+00  0.00000000000E+00  0.16020630335E+02  0.16020630335E+02  0.00000000000E+00 0. -1.
         -1   -1    0    0    0  501 -0.00000000000E+00 -0.00000000000E+00 -0.58606869344E+03  0.58606869344E+03  0.00000000000E+00 0.  1.
         24    1    1    2    0    0 -0.48248573126E+02 -0.24363106155E+02 -0.28285328712E+03  0.29898943751E+03  0.80419002446E+02 0.  0.
        -24    1    1    2    0    0  0.48248573126E+02  0.24363106155E+02 -0.28719477598E+03  0.30309988627E+03  0.80419002446E+02 0. -1.
<mgrwt>
<rscale>  0 0.96895325E+02</rscale>
<asrwt>0</asrwt>
<pdfrwt beam="1">  1        1 0.24647125E-02 0.96895337E+02</pdfrwt>
<pdfrwt beam="2">  1       -1 0.90164409E-01 0.96895337E+02</pdfrwt>
<totfact> 0.52839279E+03</totfact>
</mgrwt>
</event>
<event>
 4    1  0.5097315E-001  0.8064297E+02  0.7546771E-02  0.1327237E+00
          2   -1    0    0  501    0  0.00000000000E+00  0.00000000000E+00  0.14552179250E+04  0.14552179250E+04  0.00000000000E+00 0. -1.
         -2   -1    0    0    0  501 -0.00000000000E+00 -0.00000000000E+00 -0.48660981177E+02  0.48660981177E+02  0.00000000000E+00 0.  1.
         24    1    1    2    0    0 -0.37661477937E+01  0.46785263305E+01  0.14198580864E+04  0.14221463617E+04  0.80419002446E+02 0. -1.
        -24    1    1    2    0    0  0.37661477937E+01 -0.46785263305E+01 -0.13301142625E+02  0.81732544481E+02  0.80419002446E+02 0.  1.
<mgrwt>
<rscale>  0 0.80642969E+02</rscale>
<asrwt>0</asrwt>
<pdfrwt beam="1">  1        2 0.22387965E+00 0.80642969E+02</pdfrwt>
<pdfrwt beam="2">  1       -2 0.74863059E-02 0.80642969E+02</pdfrwt>
<totfact> 0.15236312E+03</totfact>
</mgrwt>
</event>
<event>
 4    1  0.5097315E-001  0.8303490E+02  0.7546771E-02  0.1320653E+00
         -2   -1    0    0    0  501 -0.00000000000E+00  0.00000000000E+00  0.17386904223E+03  0.17386904223E+03  0.00000000000E+00 0.  1.
          2   -1    0    0  501    0  0.00000000000E+00 -0.00000000000E+00 -0.40047633216E+02  0.40047633216E+02  0.00000000000E+00 0. -1.
         24    1    1    2    0    0  0.17020842771E+02 -0.11741619665E+02  0.77500213348E+02  0.11358289371E+03  0.80419002446E+02 0.  1.
        -24    1    1    2    0    0 -0.17020842771E+02  0.11741619665E+02  0.56321195667E+02  0.10033378173E+03  0.80419002446E+02 0. -1.
<mgrwt>
<rscale>  0 0.83034887E+02</rscale>
<asrwt>0</asrwt>
<pdfrwt beam="1">  1        2 0.61611744E-02 0.83034897E+02</pdfrwt>
<pdfrwt beam="2">  1       -2 0.26749083E-01 0.83034897E+02</pdfrwt>
<totfact> 0.13291034E+04</totfact>
</mgrwt>
</event>
<event>
 4    1  0.5097315E-001  0.8692164E+02  0.7546771E-02  0.1310482E+00
          1   -1    0    0  501    0  0.00000000000E+00  0.00000000000E+00  0.73582777432E+02  0.73582777432E+02  0.00000000000E+00 0. -1.
         -1   -1    0    0    0  501 -0.00000000000E+00 -0.00000000000E+00 -0.15052631282E+03  0.15052631282E+03  0.00000000000E+00 0.  1.
         24    1    1    2    0    0  0.32985808768E+02 -0.30217352886E+00 -0.10164807096E+03  0.13374491083E+03  0.80419002446E+02 0.  1.
        -24    1    1    2    0    0 -0.32985808768E+02  0.30217352886E+00  0.24704535578E+02  0.90364179416E+02  0.80419002446E+02 0. -1.
<mgrwt>
<rscale>  0 0.86921636E+02</rscale>
<asrwt>0</asrwt>
<pdfrwt beam="1">  1        1 0.11320427E-01 0.86921636E+02</pdfrwt>
<pdfrwt beam="2">  1       -1 0.23157894E-01 0.86921636E+02</pdfrwt>
<totfact> 0.78083252E+03</totfact>
</mgrwt>
</event>
<event>
 4    1  0.5097315E-001  0.8249390E+02  0.7546771E-02  0.1322119E+00
          2   -1    0    0  501    0  0.00000000000E+00  0.00000000000E+00  0.42195874219E+04  0.42195874219E+04  0.00000000000E+00 0. -1.
         -2   -1    0    0    0  501 -0.00000000000E+00 -0.00000000000E+00 -0.16213310002E+01  0.16213310002E+01  0.00000000000E+00 0.  1.
         24    1    1    2    0    0  0.18385121228E+02  0.10522036908E+00  0.19556489136E+04  0.19573880334E+04  0.80419002446E+02 0.  0.
        -24    1    1    2    0    0 -0.18385121228E+02 -0.10522036908E+00  0.22623171773E+04  0.22638207196E+04  0.80419002446E+02 0.  1.
<mgrwt>
<rscale>  0 0.82493887E+02</rscale>
<asrwt>0</asrwt>
<pdfrwt beam="1">  1        2 0.64915850E+00 0.82493897E+02</pdfrwt>
<pdfrwt beam="2">  1       -2 0.24943892E-03 0.82493897E+02</pdfrwt>
<totfact> 0.48563966E+03</totfact>
</mgrwt>
</event>
<event>
 4    1  0.5097315E-001  0.8257860E+02  0.7546771E-02  0.1321889E+00
          1   -1    0    0  501    0  0.00000000000E+00  0.00000000000E+00  0.18013771397E+04  0.18013771397E+04  0.00000000000E+00 0. -1.
         -1   -1    0    0    0  501 -0.00000000000E+00 -0.00000000000E+00 -0.39445736160E+02  0.39445736160E+02  0.00000000000E+00 0.  1.
         24    1    1    2    0    0  0.98517945989E+01  0.15967188265E+02  0.58334207733E+01  0.82784380835E+02  0.80419002446E+02 0.  1.
        -24    1    1    2    0    0 -0.98517945989E+01 -0.15967188265E+02  0.17560979828E+04  0.17580384950E+04  0.80419002446E+02 0. -1.
<mgrwt>
<rscale>  0 0.82578598E+02</rscale>
<asrwt>0</asrwt>
<pdfrwt beam="1">  1        1 0.27713488E+00 0.82578598E+02</pdfrwt>
<pdfrwt beam="2">  1       -1 0.60685762E-02 0.82578598E+02</pdfrwt>
<totfact> 0.61803457E+02</totfact>
</mgrwt>
</event>
<event>
 4    1  0.5097315E-001  0.9358742E+02  0.7546771E-02  0.1294390E+00
          2   -1    0    0  501    0  0.00000000000E+00  0.00000000000E+00  0.32356422710E+04  0.32356422710E+04  0.00000000000E+00 0. -1.
         -2   -1    0    0    0  501 -0.00000000000E+00 -0.00000000000E+00 -0.24570779118E+02  0.24570779118E+02  0.00000000000E+00 0.  1.
         24    1    1    2    0    0 -0.37605899248E+02  0.29617311006E+02  0.31432300074E+04  0.31446229479E+04  0.80419002446E+02 0. -1.
        -24    1    1    2    0    0  0.37605899248E+02 -0.29617311006E+02  0.67841484461E+02  0.11559010225E+03  0.80419002446E+02 0.  1.
<mgrwt>
<rscale>  0 0.93587418E+02</rscale>
<asrwt>0</asrwt>
<pdfrwt beam="1">  1        2 0.49779078E+00 0.93587418E+02</pdfrwt>
<pdfrwt beam="2">  1       -2 0.37801224E-02 0.93587418E+02</pdfrwt>
<totfact> 0.48307844E+02</totfact>
</mgrwt>
</event>
<event>
 4    1  0.5097315E-001  0.8226763E+02  0.7546771E-02  0.1322737E+00
         -2   -1    0    0    0  501 -0.00000000000E+00  0.00000000000E+00  0.17407015243E+02  0.17407015243E+02  0.00000000000E+00 0.  1.
          2   -1    0    0  501    0  0.00000000000E+00 -0.00000000000E+00 -0.65810265586E+03  0.65810265586E+03  0.00000000000E+00 0. -1.
         24    1    1    2    0    0  0.17045295502E+02 -0.31945806679E+01 -0.53640549832E+03  0.54267745671E+03  0.80419002446E+02 0. -1.
        -24    1    1    2    0    0 -0.17045295502E+02  0.31945806679E+01 -0.10429014229E+03  0.13283221438E+03  0.80419002446E+02 0.  1.
<mgrwt>
<rscale>  0 0.82267633E+02</rscale>
<asrwt>0</asrwt>
<pdfrwt beam="1">  1        2 0.10124658E+00 0.82267633E+02</pdfrwt>
<pdfrwt beam="2">  1       -2 0.26780020E-02 0.82267633E+02</pdfrwt>
<totfact> 0.20457524E+04</totfact>
</mgrwt>
</event>
<event>
 4    1  0.5097315E-001  0.9798827E+02  0.7546771E-02  0.1284584E+00
          2   -1    0    0  501    0  0.00000000000E+00  0.00000000000E+00  0.84279703679E+03  0.84279703679E+03  0.00000000000E+00 0. -1.
         -2   -1    0    0    0  501 -0.00000000000E+00 -0.00000000000E+00 -0.13341637302E+02  0.13341637302E+02  0.00000000000E+00 0.  1.
         24    1    1    2    0    0  0.36669007939E+02  0.42306831970E+02  0.57833886604E+03  0.58658123402E+03  0.80419002446E+02 0. -1.
        -24    1    1    2    0    0 -0.36669007939E+02 -0.42306831970E+02  0.25111653345E+03  0.26955744008E+03  0.80419002446E+02 0.  1.
<mgrwt>
<rscale>  0 0.97988265E+02</rscale>
<asrwt>0</asrwt>
<pdfrwt beam="1">  1        2 0.12966104E+00 0.97988265E+02</pdfrwt>
<pdfrwt beam="2">  1       -2 0.20525602E-02 0.97988265E+02</pdfrwt>
<totfact> 0.22730732E+04</totfact>
</mgrwt>
</event>
<event>
 4    1  0.5097315E-001  0.8181748E+02  0.7546771E-02  0.1323971E+00
         -3   -1    0    0    0  501 -0.00000000000E+00  0.00000000000E+00  0.10017466978E+03  0.10017466978E+03  0.00000000000E+00 0.  1.
          3   -1    0    0  501    0  0.00000000000E+00 -0.00000000000E+00 -0.71887302145E+02  0.71887302145E+02  0.00000000000E+00 0. -1.
         24    1    1    2    0    0 -0.14705883765E+02  0.32589590024E+01  0.36975154687E+02  0.89784530124E+02  0.80419002446E+02 0.  0.
        -24    1    1    2    0    0  0.14705883765E+02 -0.32589590024E+01 -0.86877870512E+01  0.82277441801E+02  0.80419002446E+02 0.  0.
<mgrwt>
<rscale>  0 0.81817478E+02</rscale>
<asrwt>0</asrwt>
<pdfrwt beam="1">  1        3 0.11059585E-01 0.81817478E+02</pdfrwt>
<pdfrwt beam="2">  1       -3 0.15411488E-01 0.81817478E+02</pdfrwt>
<totfact> 0.45123798E+03</totfact>
</mgrwt>
</event>
<event>
 4    1  0.5097315E-001  0.8968376E+02  0.7546771E-02  0.1303619E+00
          2   -1    0    0  501    0  0.00000000000E+00  0.00000000000E+00  0.40998464452E+03  0.40998464452E+03  0.00000000000E+00 0. -1.
         -2   -1    0    0    0  501 -0.00000000000E+00 -0.00000000000E+00 -0.67899804880E+02  0.67899804880E+02  0.00000000000E+00 0.  1.
         24    1    1    2    0    0 -0.33548831664E+02  0.21223480726E+02  0.37253048161E+03  0.38317376727E+03  0.80419002446E+02 0. -1.
        -24    1    1    2    0    0  0.33548831664E+02 -0.21223480726E+02 -0.30445641971E+02  0.94710682130E+02  0.80419002446E+02 0.  1.
<mgrwt>
<rscale>  0 0.89683757E+02</rscale>
<asrwt>0</asrwt>
<pdfrwt beam="1">  1        2 0.63074559E-01 0.89683757E+02</pdfrwt>
<pdfrwt beam="2">  1       -2 0.10446124E-01 0.89683757E+02</pdfrwt>
<totfact> 0.45229744E+03</totfact>
</mgrwt>
</event>
<event>
 4    1  0.5097315E-001  0.1019107E+03  0.7546771E-02  0.1276328E+00
          1   -1    0    0  501    0  0.00000000000E+00  0.00000000000E+00  0.19089997455E+03  0.19089997455E+03  0.00000000000E+00 0. -1.
         -1   -1    0    0    0  501 -0.00000000000E+00 -0.00000000000E+00 -0.10269122966E+03  0.10269122966E+03  0.00000000000E+00 0.  1.
         24    1    1    2    0    0  0.22838244684E+02 -0.58283774960E+02 -0.56556498741E+02  0.11655229448E+03  0.80419002446E+02 0.  1.
        -24    1    1    2    0    0 -0.22838244684E+02  0.58283774960E+02  0.14476524363E+03  0.17703890974E+03  0.80419002446E+02 0. -1.
<mgrwt>
<rscale>  0 0.10191074E+03</rscale>
<asrwt>0</asrwt>
<pdfrwt beam="1">  1        1 0.29369227E-01 0.10191074E+03</pdfrwt>
<pdfrwt beam="2">  1       -1 0.15798651E-01 0.10191074E+03</pdfrwt>
<totfact> 0.43372469E+03</totfact>
</mgrwt>
</event>
<event>
 4    1  0.5097315E-001  0.9470200E+02  0.7546771E-02  0.1291849E+00
          2   -1    0    0  501    0  0.00000000000E+00  0.00000000000E+00  0.54506307506E+02  0.54506307506E+02  0.00000000000E+00 0. -1.
         -2   -1    0    0    0  501 -0.00000000000E+00 -0.00000000000E+00 -0.18402082001E+03  0.18402082001E+03  0.00000000000E+00 0.  1.
         24    1    1    2    0    0 -0.38485962796E+02 -0.31938753752E+02 -0.25953155464E+02  0.98193867204E+02  0.80419002446E+02 0. -1.
        -24    1    1    2    0    0  0.38485962796E+02  0.31938753752E+02 -0.10356135704E+03  0.14033326031E+03  0.80419002446E+02 0.  1.
<mgrwt>
<rscale>  0 0.94702003E+02</rscale>
<asrwt>0</asrwt>
<pdfrwt beam="1">  1        2 0.83855858E-02 0.94702003E+02</pdfrwt>
<pdfrwt beam="2">  1       -2 0.28310895E-01 0.94702003E+02</pdfrwt>
<totfact> 0.82928657E+03</totfact>
</mgrwt>
</event>
<event>
 4    1  0.5097315E-001  0.8173249E+02  0.7546771E-02  0.1324206E+00
          1   -1    0    0  501    0  0.00000000000E+00  0.00000000000E+00  0.25802658555E+03  0.25802658555E+03  0.00000000000E+00 0. -1.
         -1   -1    0    0    0  501 -0.00000000000E+00 -0.00000000000E+00 -0.69607945301E+02  0.69607945301E+02  0.00000000000E+00 0.  1.
         24    1    1    2    0    0 -0.48784607487E+01 -0.13754459105E+02 -0.35616839837E+02  0.89155817303E+02  0.80419002446E+02 0.  0.
        -24    1    1    2    0    0  0.48784607487E+01  0.13754459105E+02  0.22403548009E+03  0.23847871355E+03  0.80419002446E+02 0. -1.
<mgrwt>
<rscale>  0 0.81732493E+02</rscale>
<asrwt>0</asrwt>
<pdfrwt beam="1">  1        1 0.39696397E-01 0.81732493E+02</pdfrwt>
<pdfrwt beam="2">  1       -1 0.10708915E-01 0.81732493E+02</pdfrwt>
<totfact> 0.53670524E+03</totfact>
</mgrwt>
</event>
<event>
 4    1  0.5097315E-001  0.1225868E+03  0.7546771E-02  0.1238890E+00
         -1   -1    0    0    0  501 -0.00000000000E+00  0.00000000000E+00  0.23760345180E+02  0.23760345180E+02  0.00000000000E+00 0.  1.
          1   -1    0    0  501    0  0.00000000000E+00 -0.00000000000E+00 -0.64337573540E+03  0.64337573540E+03  0.00000000000E+00 0. -1.
         24    1    1    2    0    0 -0.84106145788E+02  0.38554725186E+02 -0.35325166431E+03  0.37391745732E+03  0.80419002446E+02 0. -1.
        -24    1    1    2    0    0  0.84106145788E+02 -0.38554725186E+02 -0.26636372591E+03  0.29321862326E+03  0.80419002446E+02 0.  1.
<mgrwt>
<rscale>  0 0.12258683E+03</rscale>
<asrwt>0</asrwt>
<pdfrwt beam="1">  1        1 0.98980882E-01 0.12258684E+03</pdfrwt>
<pdfrwt beam="2">  1       -1 0.36554377E-02 0.12258684E+03</pdfrwt>
<totfact> 0.85384467E+03</totfact>
</mgrwt>
</event>
<event>
 4    1  0.5097315E-001  0.1562241E+03  0.7546771E-02  0.1193027E+00
          2   -1    0    0  501    0  0.00000000000E+00  0.00000000000E+00  0.53269911073E+03  0.53269911073E+03  0.00000000000E+00 0. -1.
         -2   -1    0    0    0  501 -0.00000000000E+00 -0.00000000000E+00 -0.46320265155E+02  0.46320265155E+02  0.00000000000E+00 0.  1.
         24    1    1    2    0    0  0.12639617595E+03 -0.44303012413E+02  0.27340629665E+03  0.31489199610E+03  0.80419002446E+02 0.  0.
        -24    1    1    2    0    0 -0.12639617595E+03  0.44303012413E+02  0.21297254892E+03  0.26412737979E+03  0.80419002446E+02 0.  1.
<mgrwt>
<rscale>  0 0.15622409E+03</rscale>
<asrwt>0</asrwt>
<pdfrwt beam="1">  1        2 0.81953705E-01 0.15622409E+03</pdfrwt>
<pdfrwt beam="2">  1       -2 0.71261950E-02 0.15622409E+03</pdfrwt>
<totfact> 0.63571085E+03</totfact>
</mgrwt>
</event>
<event>
 4    1  0.5097315E-001  0.1410312E+03  0.7546771E-02  0.1211948E+00
          2   -1    0    0  501    0  0.00000000000E+00  0.00000000000E+00  0.42831466248E+03  0.42831466248E+03  0.00000000000E+00 0. -1.
         -2   -1    0    0    0  501 -0.00000000000E+00 -0.00000000000E+00 -0.54484370339E+02  0.54484370339E+02  0.00000000000E+00 0.  1.
         24    1    1    2    0    0  0.48263351091E+02 -0.10532446250E+03  0.27968721696E+03  0.31323273894E+03  0.80419002446E+02 0.  1.
        -24    1    1    2    0    0 -0.48263351091E+02  0.10532446250E+03  0.94143075183E+02  0.16956629388E+03  0.80419002446E+02 0. -1.
<mgrwt>
<rscale>  0 0.14103124E+03</rscale>
<asrwt>0</asrwt>
<pdfrwt beam="1">  1        2 0.65894561E-01 0.14103124E+03</pdfrwt>
<pdfrwt beam="2">  1       -2 0.83822111E-02 0.14103124E+03</pdfrwt>
<totfact> 0.62462184E+03</totfact>
</mgrwt>
</event>
<event>
 4    1  0.5097315E-001  0.9545085E+02  0.7546771E-02  0.1290164E+00
          1   -1    0    0  501    0  0.00000000000E+00  0.00000000000E+00  0.48507379932E+02  0.48507379932E+02  0.00000000000E+00 0. -1.
         -1   -1    0    0    0  501 -0.00000000000E+00 -0.00000000000E+00 -0.19428791093E+03  0.19428791093E+03  0.00000000000E+00 0.  1.
         24    1    1    2    0    0  0.21873752256E+02  0.46531532751E+02 -0.50747704463E+02  0.10810268286E+03  0.80419002446E+02 0.  1.
        -24    1    1    2    0    0 -0.21873752256E+02 -0.46531532751E+02 -0.95032826534E+02  0.13469260801E+03  0.80419002446E+02 0. -1.
<mgrwt>
<rscale>  0 0.95450840E+02</rscale>
<asrwt>0</asrwt>
<pdfrwt beam="1">  1        1 0.74626737E-02 0.95450852E+02</pdfrwt>
<pdfrwt beam="2">  1       -1 0.29890448E-01 0.95450852E+02</pdfrwt>
<totfact> 0.89757654E+03</totfact>
</mgrwt>
</event>
<event>
 4    1  0.5097315E-001  0.8372677E+02  0.7546771E-02  0.1318796E+00
          2   -1    0    0  501    0  0.00000000000E+00  0.00000000000E+00  0.15919321207E+04  0.15919321207E+04  0.00000000000E+00 0. -1.
         -2   -1    0    0    0  501 -0.00000000000E+00 -0.00000000000E+00 -0.48055952898E+01  0.48055952898E+01  0.00000000000E+00 0.  1.
         24    1    1    2    0    0  0.18618902207E+02 -0.14010441420E+02  0.10244829435E+04  0.10278985716E+04  0.80419002446E+02 0. -1.
        -24    1    1    2    0    0 -0.18618902207E+02  0.14010441420E+02  0.56264358184E+03  0.56883914433E+03  0.80419002446E+02 0.  1.
<mgrwt>
<rscale>  0 0.83726770E+02</rscale>
<asrwt>0</asrwt>
<pdfrwt beam="1">  1        2 0.24491221E+00 0.83726770E+02</pdfrwt>
<pdfrwt beam="2">  1       -2 0.73932362E-03 0.83726770E+02</pdfrwt>
<totfact> 0.36984484E+04</totfact>
</mgrwt>
</event>
<event>
 4    1  0.5097315E-001  0.1049269E+03  0.7546771E-02  0.1270264E+00
          1   -1    0    0  501    0  0.00000000000E+00  0.00000000000E+00  0.10881809597E+03  0.10881809597E+03  0.00000000000E+00 0. -1.
         -1   -1    0    0    0  501 -0.00000000000E+00 -0.00000000000E+00 -0.61388937201E+03  0.61388937201E+03  0.00000000000E+00 0.  1.
         24    1    1    2    0    0  0.54632336951E+02  0.39468364073E+02 -0.58277229375E+03  0.59214289350E+03  0.80419002446E+02 0.  1.
        -24    1    1    2    0    0 -0.54632336951E+02 -0.39468364073E+02  0.77701017706E+02  0.13056457448E+03  0.80419002446E+02 0. -1.
<mgrwt>
<rscale>  0 0.10492693E+03</rscale>
<asrwt>0</asrwt>
<pdfrwt beam="1">  1        1 0.16741246E-01 0.10492693E+03</pdfrwt>
<pdfrwt beam="2">  1       -1 0.94444517E-01 0.10492693E+03</pdfrwt>
<totfact> 0.37119134E+02</totfact>
</mgrwt>
</event>
<event>
 4    1  0.5097315E-001  0.1239369E+03  0.7546771E-02  0.1236740E+00
          2   -1    0    0  501    0  0.00000000000E+00  0.00000000000E+00  0.31271267341E+03  0.31271267341E+03  0.00000000000E+00 0. -1.
         -2   -1    0    0    0  501 -0.00000000000E+00 -0.00000000000E+00 -0.54499989716E+02  0.54499989716E+02  0.00000000000E+00 0.  1.
         24    1    1    2    0    0 -0.86893028285E+01 -0.93902273423E+02  0.18679517223E+03  0.22417134799E+03  0.80419002446E+02 0. -1.
        -24    1    1    2    0    0  0.86893028285E+01  0.93902273423E+02  0.71417511465E+02  0.14304131514E+03  0.80419002446E+02 0.  1.
<mgrwt>
<rscale>  0 0.12393691E+03</rscale>
<asrwt>0</asrwt>
<pdfrwt beam="1">  1        2 0.48109641E-01 0.12393691E+03</pdfrwt>
<pdfrwt beam="2">  1       -2 0.83846140E-02 0.12393691E+03</pdfrwt>
<totfact> 0.86518237E+03</totfact>
</mgrwt>
</event>
<event>
 4    1  0.5097315E-001  0.8210501E+02  0.7546771E-02  0.1323182E+00
          2   -1    0    0  501    0  0.00000000000E+00  0.00000000000E+00  0.17952854025E+04  0.17952854025E+04  0.00000000000E+00 0. -1.
         -2   -1    0    0    0  501 -0.00000000000E+00 -0.00000000000E+00 -0.47247535441E+01  0.47247535441E+01  0.00000000000E+00 0.  1.
         24    1    1    2    0    0 -0.16194668558E+02 -0.34277060785E+01  0.13030304320E+04  0.13056146212E+04  0.80419002446E+02 0. -1.
        -24    1    1    2    0    0  0.16194668558E+02  0.34277060785E+01  0.48753021692E+03  0.49439553479E+03  0.80419002446E+02 0.  1.
<mgrwt>
<rscale>  0 0.82105008E+02</rscale>
<asrwt>0</asrwt>
<pdfrwt beam="1">  1        2 0.27619721E+00 0.82105008E+02</pdfrwt>
<pdfrwt beam="2">  1       -2 0.72688659E-03 0.82105008E+02</pdfrwt>
<totfact> 0.29908466E+04</totfact>
</mgrwt>
</event>
<event>
 4    1  0.5097315E-001  0.1049658E+03  0.7546771E-02  0.1270187E+00
          1   -1    0    0  501    0  0.00000000000E+00  0.00000000000E+00  0.22326099277E+03  0.22326099277E+03  0.00000000000E+00 0. -1.
         -1   -1    0    0    0  501 -0.00000000000E+00 -0.00000000000E+00 -0.49449015005E+02  0.49449015005E+02  0.00000000000E+00 0.  1.
         24    1    1    2    0    0  0.60191252008E+02  0.30456785155E+02  0.80789039841E+02  0.13245636071E+03  0.80419002446E+02 0. -1.
        -24    1    1    2    0    0 -0.60191252008E+02 -0.30456785155E+02  0.93022937926E+02  0.14025364707E+03  0.80419002446E+02 0.  1.
<mgrwt>
<rscale>  0 0.10496580E+03</rscale>
<asrwt>0</asrwt>
<pdfrwt beam="1">  1        1 0.34347844E-01 0.10496580E+03</pdfrwt>
<pdfrwt beam="2">  1       -1 0.76075409E-02 0.10496580E+03</pdfrwt>
<totfact> 0.10925546E+04</totfact>
</mgrwt>
</event>
<event>
 4    1  0.5097315E-001  0.8945632E+02  0.7546771E-02  0.1304174E+00
          3   -1    0    0  501    0  0.00000000000E+00  0.00000000000E+00  0.23361936158E+03  0.23361936158E+03  0.00000000000E+00 0. -1.
         -3   -1    0    0    0  501 -0.00000000000E+00 -0.00000000000E+00 -0.65785621689E+02  0.65785621689E+02  0.00000000000E+00 0.  1.
         24    1    1    2    0    0 -0.38838796545E+02  0.51734950330E+01 -0.19725096396E+02  0.91605199362E+02  0.80419002446E+02 0.  1.
        -24    1    1    2    0    0  0.38838796545E+02 -0.51734950330E+01  0.18755883629E+03  0.20779978391E+03  0.80419002446E+02 0. -1.
<mgrwt>
<rscale>  0 0.89456320E+02</rscale>
<asrwt>0</asrwt>
<pdfrwt beam="1">  1        3 0.35941440E-01 0.89456320E+02</pdfrwt>
<pdfrwt beam="2">  1       -3 0.10120865E-01 0.89456320E+02</pdfrwt>
<totfact> 0.11804518E+03</totfact>
</mgrwt>
</event>
<event>
 4    1  0.5097315E-001  0.1043303E+03  0.7546771E-02  0.1271445E+00
          1   -1    0    0  501    0  0.00000000000E+00  0.00000000000E+00  0.15784152570E+04  0.15784152570E+04  0.00000000000E+00 0. -1.
         -1   -1    0    0    0  501 -0.00000000000E+00 -0.00000000000E+00 -0.70119732833E+01  0.70119732833E+01  0.00000000000E+00 0.  1.
         24    1    1    2    0    0  0.57730080543E+02 -0.32936885142E+02  0.68377255969E+03  0.69168614988E+03  0.80419002446E+02 0.  0.
        -24    1    1    2    0    0 -0.57730080543E+02  0.32936885142E+02  0.88763072404E+03  0.89374108042E+03  0.80419002446E+02 0. -1.
<mgrwt>
<rscale>  0 0.10433032E+03</rscale>
<asrwt>0</asrwt>
<pdfrwt beam="1">  1        1 0.24283283E+00 0.10433032E+03</pdfrwt>
<pdfrwt beam="2">  1       -1 0.10787664E-02 0.10433032E+03</pdfrwt>
<totfact> 0.10278033E+04</totfact>
</mgrwt>
</event>
<event>
 4    1  0.5097315E-001  0.8487463E+02  0.7546771E-02  0.1315761E+00
         -1   -1    0    0    0  501 -0.00000000000E+00  0.00000000000E+00  0.27883810861E+02  0.27883810861E+02  0.00000000000E+00 0.  1.
          1   -1    0    0  501    0  0.00000000000E+00 -0.00000000000E+00 -0.46347664311E+03  0.46347664311E+03  0.00000000000E+00 0. -1.
         24    1    1    2    0    0 -0.10934751020E+01  0.27116265649E+02 -0.54351914544E+02  0.10078608098E+03  0.80419002446E+02 0.  1.
        -24    1    1    2    0    0  0.10934751020E+01 -0.27116265649E+02 -0.38124091771E+03  0.39057437299E+03  0.80419002446E+02 0. -1.
<mgrwt>
<rscale>  0 0.84874634E+02</rscale>
<asrwt>0</asrwt>
<pdfrwt beam="1">  1        1 0.71304094E-01 0.84874634E+02</pdfrwt>
<pdfrwt beam="2">  1       -1 0.42898174E-02 0.84874634E+02</pdfrwt>
<totfact> 0.10136716E+04</totfact>
</mgrwt>
</event>
<event>
 4    1  0.5097315E-001  0.8545914E+02  0.7546771E-02  0.1314236E+00
          2   -1    0    0  501    0  0.00000000000E+00  0.00000000000E+00  0.31792245113E+04  0.31792245113E+04  0.00000000000E+00 0. -1.
         -2   -1    0    0    0  501 -0.00000000000E+00 -0.00000000000E+00 -0.23110460122E+01  0.23110460122E+01  0.00000000000E+00 0.  1.
         24    1    1    2    0    0  0.18697041671E+02  0.22055961052E+02  0.14652512273E+04  0.14677412646E+04  0.80419002446E+02 0. -1.
        -24    1    1    2    0    0 -0.18697041671E+02 -0.22055961052E+02  0.17116622379E+04  0.17137942927E+04  0.80419002446E+02 0.  1.
<mgrwt>
<rscale>  0 0.85459128E+02</rscale>
<asrwt>0</asrwt>
<pdfrwt beam="1">  1        2 0.48910796E+00 0.85459139E+02</pdfrwt>
<pdfrwt beam="2">  1       -2 0.35554808E-03 0.85459139E+02</pdfrwt>
<totfact> 0.15085733E+04</totfact>
</mgrwt>
</event>
<event>
 4    1  0.5097315E-001  0.8255391E+02  0.7546771E-02  0.1321956E+00
         -1   -1    0    0    0  501 -0.00000000000E+00  0.00000000000E+00  0.45201276450E+03  0.45201276450E+03  0.00000000000E+00 0.  1.
          1   -1    0    0  501    0  0.00000000000E+00 -0.00000000000E+00 -0.21697991970E+02  0.21697991970E+02  0.00000000000E+00 0. -1.
         24    1    1    2    0    0 -0.23078694777E+01 -0.18509615962E+02  0.34599240642E+03  0.35570478406E+03  0.80419002446E+02 0.  1.
        -24    1    1    2    0    0  0.23078694777E+01  0.18509615962E+02  0.84322366106E+02  0.11800597241E+03  0.80419002446E+02 0. -1.
<mgrwt>
<rscale>  0 0.82553910E+02</rscale>
<asrwt>0</asrwt>
<pdfrwt beam="1">  1        1 0.33381530E-02 0.82553910E+02</pdfrwt>
<pdfrwt beam="2">  1       -1 0.69540418E-01 0.82553910E+02</pdfrwt>
<totfact> 0.58130229E+03</totfact>
</mgrwt>
</event>
<event>
 4    1  0.5097315E-001  0.8606008E+02  0.7546771E-02  0.1312683E+00
         -2   -1    0    0    0  501 -0.00000000000E+00  0.00000000000E+00  0.19922815866E+01  0.19922815866E+01  0.00000000000E+00 0.  1.
          2   -1    0    0  501    0  0.00000000000E+00 -0.00000000000E+00 -0.38075976177E+04  0.38075976177E+04  0.00000000000E+00 0. -1.
         24    1    1    2    0    0 -0.13413132165E+02 -0.27553747730E+02 -0.21957858707E+04  0.21974717124E+04  0.80419002446E+02 0.  1.
        -24    1    1    2    0    0  0.13413132165E+02  0.27553747730E+02 -0.16098194654E+04  0.16121181869E+04  0.80419002446E+02 0. -1.
<mgrwt>
<rscale>  0 0.86060078E+02</rscale>
<asrwt>0</asrwt>
<pdfrwt beam="1">  1        2 0.58578298E+00 0.86060078E+02</pdfrwt>
<pdfrwt beam="2">  1       -2 0.30650552E-03 0.86060078E+02</pdfrwt>
<totfact> 0.73757711E+03</totfact>
</mgrwt>
</event>
<event>
 4    1  0.5097315E-001  0.8542529E+02  0.7546771E-02  0.1314324E+00
         -1   -1    0    0    0  501 -0.00000000000E+00  0.00000000000E+00  0.52038724503E+03  0.52038724503E+03  0.00000000000E+00 0.  1.
          1   -1    0    0  501    0  0.00000000000E+00 -0.00000000000E+00 -0.18883807971E+02  0.18883807971E+02  0.00000000000E+00 0. -1.
         24    1    1    2    0    0 -0.17158023981E+02 -0.23148805566E+02  0.38754941348E+03  0.39685265381E+03  0.80419002446E+02 0.  1.
        -24    1    1    2    0    0  0.17158023981E+02  0.23148805566E+02  0.11395402358E+03  0.14241839920E+03  0.80419002446E+02 0. -1.
<mgrwt>
<rscale>  0 0.85425295E+02</rscale>
<asrwt>0</asrwt>
<pdfrwt beam="1">  1        1 0.29052016E-02 0.85425295E+02</pdfrwt>
<pdfrwt beam="2">  1       -1 0.80059565E-01 0.85425295E+02</pdfrwt>
<totfact> 0.53305804E+03</totfact>
</mgrwt>
</event>
<event>
 4    1  0.5097315E-001  0.8080060E+02  0.7546771E-02  0.1326795E+00
         -1   -1    0    0    0  501 -0.00000000000E+00  0.00000000000E+00  0.10789698968E+04  0.10789698968E+04  0.00000000000E+00 0.  1.
          1   -1    0    0  501    0  0.00000000000E+00 -0.00000000000E+00 -0.35286831568E+03  0.35286831568E+03  0.00000000000E+00 0. -1.
         24    1    1    2    0    0  0.30913634069E+00  0.78374481671E+01  0.10728051530E+04  0.10758436845E+04  0.80419002446E+02 0.  1.
        -24    1    1    2    0    0 -0.30913634069E+00 -0.78374481671E+01 -0.34670357195E+03  0.35599452793E+03  0.80419002446E+02 0. -1.
<mgrwt>
<rscale>  0 0.80800601E+02</rscale>
<asrwt>0</asrwt>
<pdfrwt beam="1">  1        1 0.54287434E-01 0.80800601E+02</pdfrwt>
<pdfrwt beam="2">  1       -1 0.16599537E+00 0.80800601E+02</pdfrwt>
<totfact> 0.22844606E+01</totfact>
</mgrwt>
</event>
<event>
 4    1  0.5097315E-001  0.8567737E+02  0.7546771E-02  0.1313671E+00
          1   -1    0    0  501    0  0.00000000000E+00  0.00000000000E+00  0.10133377065E+04  0.10133377065E+04  0.00000000000E+00 0. -1.
         -1   -1    0    0    0  501 -0.00000000000E+00 -0.00000000000E+00 -0.72576808708E+01  0.72576808708E+01  0.00000000000E+00 0.  1.
         24    1    1    2    0    0  0.93715755262E+00  0.29538347984E+02  0.52520360153E+03  0.53214606198E+03  0.80419002446E+02 0.  0.
        -24    1    1    2    0    0 -0.93715755262E+00 -0.29538347984E+02  0.48087642407E+03  0.48844932536E+03  0.80419002446E+02 0. -1.
<mgrwt>
<rscale>  0 0.85677360E+02</rscale>
<asrwt>0</asrwt>
<pdfrwt beam="1">  1        1 0.15589800E+00 0.85677371E+02</pdfrwt>
<pdfrwt beam="2">  1       -1 0.11165671E-02 0.85677371E+02</pdfrwt>
<totfact> 0.22913859E+04</totfact>
</mgrwt>
</event>
<event>
 4    1  0.5097315E-001  0.1083063E+03  0.7546771E-02  0.1263739E+00
          1   -1    0    0  501    0  0.00000000000E+00  0.00000000000E+00  0.34545593523E+02  0.34545593523E+02  0.00000000000E+00 0. -1.
         -1   -1    0    0    0  501 -0.00000000000E+00 -0.00000000000E+00 -0.41459759518E+03  0.41459759518E+03  0.00000000000E+00 0.  1.
         24    1    1    2    0    0  0.72557463923E+00  0.72543198037E+02 -0.28556584988E+03  0.30541465684E+03  0.80419002446E+02 0.  1.
        -24    1    1    2    0    0 -0.72557463923E+00 -0.72543198037E+02 -0.94486151782E+02  0.14372853187E+03  0.80419002446E+02 0. -1.
<mgrwt>
<rscale>  0 0.10830632E+03</rscale>
<asrwt>0</asrwt>
<pdfrwt beam="1">  1        1 0.53147066E-02 0.10830632E+03</pdfrwt>
<pdfrwt beam="2">  1       -1 0.63784247E-01 0.10830632E+03</pdfrwt>
<totfact> 0.37293914E+03</totfact>
</mgrwt>
</event>
<event>
 4    1  0.5097315E-001  0.8495462E+02  0.7546771E-02  0.1315551E+00
          2   -1    0    0  501    0  0.00000000000E+00  0.00000000000E+00  0.87802206303E+02  0.87802206303E+02  0.00000000000E+00 0. -1.
         -2   -1    0    0    0  501 -0.00000000000E+00 -0.00000000000E+00 -0.89065810984E+02  0.89065810984E+02  0.00000000000E+00 0.  1.
         24    1    1    2    0    0 -0.24187567492E+02 -0.12846363588E+02 -0.25186273453E+02  0.88609434054E+02  0.80419002446E+02 0.  0.
        -24    1    1    2    0    0  0.24187567492E+02  0.12846363588E+02  0.23922668772E+02  0.88258583232E+02  0.80419002446E+02 0.  0.
<mgrwt>
<rscale>  0 0.84954607E+02</rscale>
<asrwt>0</asrwt>
<pdfrwt beam="1">  1        2 0.13508032E-01 0.84954618E+02</pdfrwt>
<pdfrwt beam="2">  1       -2 0.13702432E-01 0.84954618E+02</pdfrwt>
<totfact> 0.15591667E+04</totfact>
</mgrwt>
</event>
<event>
 4    1  0.5097315E-001  0.8915240E+02  0.7546771E-02  0.1304917E+00
         -2   -1    0    0    0  501 -0.00000000000E+00  0.00000000000E+00  0.29750657850E+03  0.29750657850E+03  0.00000000000E+00 0.  1.
          2   -1    0    0  501    0  0.00000000000E+00 -0.00000000000E+00 -0.27106687803E+02  0.27106687803E+02  0.00000000000E+00 0. -1.
         24    1    1    2    0    0  0.18379486228E+02 -0.33810186617E+02  0.11571140111E+03  0.14607285351E+03  0.80419002446E+02 0. -1.
        -24    1    1    2    0    0 -0.18379486228E+02  0.33810186617E+02  0.15468848959E+03  0.17854041279E+03  0.80419002446E+02 0.  1.
<mgrwt>
<rscale>  0 0.89152399E+02</rscale>
<asrwt>0</asrwt>
<pdfrwt beam="1">  1        2 0.41702599E-02 0.89152399E+02</pdfrwt>
<pdfrwt beam="2">  1       -2 0.45770241E-01 0.89152399E+02</pdfrwt>
<totfact> 0.82758833E+03</totfact>
</mgrwt>
</event>
<event>
 4    1  0.5097315E-001  0.9552159E+02  0.7546771E-02  0.1290006E+00
          1   -1    0    0  501    0  0.00000000000E+00  0.00000000000E+00  0.11959141139E+04  0.11959141139E+04  0.00000000000E+00 0. -1.
         -1   -1    0    0    0  501 -0.00000000000E+00 -0.00000000000E+00 -0.85672114601E+01  0.85672114601E+01  0.00000000000E+00 0.  1.
         24    1    1    2    0    0  0.36748741207E+02  0.36148073776E+02  0.79290465579E+03  0.79863769154E+03  0.80419002446E+02 0.  0.
        -24    1    1    2    0    0 -0.36748741207E+02 -0.36148073776E+02  0.39444224669E+03  0.40584363386E+03  0.80419002446E+02 0. -1.
<mgrwt>
<rscale>  0 0.95521576E+02</rscale>
<asrwt>0</asrwt>
<pdfrwt beam="1">  1        1 0.18398665E+00 0.95521588E+02</pdfrwt>
<pdfrwt beam="2">  1       -1 0.13180335E-02 0.95521588E+02</pdfrwt>
<totfact> 0.13664924E+04</totfact>
</mgrwt>
</event>
<event>
 4    1  0.5097315E-001  0.8759894E+02  0.7546771E-02  0.1308773E+00
         -2   -1    0    0    0  501 -0.00000000000E+00  0.00000000000E+00  0.94523517498E+01  0.94523517498E+01  0.00000000000E+00 0.  1.
          2   -1    0    0  501    0  0.00000000000E+00 -0.00000000000E+00 -0.11937267328E+04  0.11937267328E+04  0.00000000000E+00 0. -1.
         24    1    1    2    0    0 -0.23728230381E+01 -0.34651530998E+02 -0.93241096769E+03  0.93651683782E+03  0.80419002446E+02 0. -1.
        -24    1    1    2    0    0  0.23728230381E+01  0.34651530998E+02 -0.25186341337E+03  0.26666224674E+03  0.80419002446E+02 0.  1.
<mgrwt>
<rscale>  0 0.87598943E+02</rscale>
<asrwt>0</asrwt>
<pdfrwt beam="1">  1        2 0.18365037E+00 0.87598943E+02</pdfrwt>
<pdfrwt beam="2">  1       -2 0.14542071E-02 0.87598943E+02</pdfrwt>
<totfact> 0.22968076E+04</totfact>
</mgrwt>
</event>
<event>
 4    1  0.5097315E-001  0.8522668E+02  0.7546771E-02  0.1314841E+00
          2   -1    0    0  501    0  0.00000000000E+00  0.00000000000E+00  0.44572400388E+04  0.44572400388E+04  0.00000000000E+00 0. -1.
         -2   -1    0    0    0  501 -0.00000000000E+00 -0.00000000000E+00 -0.20575104557E+01  0.20575104557E+01  0.00000000000E+00 0.  1.
         24    1    1    2    0    0  0.76306338497E+01 -0.27168807833E+02  0.32443879129E+04  0.32455071277E+04  0.80419002446E+02 0. -1.
        -24    1    1    2    0    0 -0.76306338497E+01  0.27168807833E+02  0.12107946155E+04  0.12137904216E+04  0.80419002446E+02 0.  1.
<mgrwt>
<rscale>  0 0.85226678E+02</rscale>
<asrwt>0</asrwt>
<pdfrwt beam="1">  1        2 0.68572151E+00 0.85226678E+02</pdfrwt>
<pdfrwt beam="2">  1       -2 0.31654364E-03 0.85226678E+02</pdfrwt>
<totfact> 0.22055437E+03</totfact>
</mgrwt>
</event>
<event>
 4    1  0.5097315E-001  0.1189983E+03  0.7546771E-02  0.1244759E+00
          1   -1    0    0  501    0  0.00000000000E+00  0.00000000000E+00  0.11865164451E+03  0.11865164451E+03  0.00000000000E+00 0. -1.
         -1   -1    0    0    0  501 -0.00000000000E+00 -0.00000000000E+00 -0.15536119140E+03  0.15536119140E+03  0.00000000000E+00 0.  1.
         24    1    1    2    0    0  0.40120117370E+02 -0.77998491282E+02 -0.84319571486E+02  0.14584373332E+03  0.80419002446E+02 0.  1.
        -24    1    1    2    0    0 -0.40120117370E+02  0.77998491282E+02  0.47610024600E+02  0.12816910258E+03  0.80419002446E+02 0. -1.
<mgrwt>
<rscale>  0 0.11899834E+03</rscale>
<asrwt>0</asrwt>
<pdfrwt beam="1">  1        1 0.18254099E-01 0.11899834E+03</pdfrwt>
<pdfrwt beam="2">  1       -1 0.23901721E-01 0.11899834E+03</pdfrwt>
<totfact> 0.41081307E+03</totfact>
</mgrwt>
</event>
<event>
 4    1  0.5097315E-001  0.1077648E+03  0.7546771E-02  0.1264766E+00
          2   -1    0    0  501    0  0.00000000000E+00  0.00000000000E+00  0.21846673695E+04  0.21846673695E+04  0.00000000000E+00 0. -1.
         -2   -1    0    0    0  501 -0.00000000000E+00 -0.00000000000E+00 -0.82254455166E+01  0.82254455166E+01  0.00000000000E+00 0.  1.
         24    1    1    2    0    0 -0.61827279690E+02  0.36378877255E+02  0.17403414707E+04  0.17436747649E+04  0.80419002446E+02 0. -1.
        -24    1    1    2    0    0  0.61827279690E+02 -0.36378877255E+02  0.43610045326E+03  0.44921805008E+03  0.80419002446E+02 0.  1.
<mgrwt>
<rscale>  0 0.10776480E+03</rscale>
<asrwt>0</asrwt>
<pdfrwt beam="1">  1        2 0.33610221E+00 0.10776480E+03</pdfrwt>
<pdfrwt beam="2">  1       -2 0.12654549E-02 0.10776480E+03</pdfrwt>
<totfact> 0.88084548E+03</totfact>
</mgrwt>
</event>
<event>
 4    1  0.5097315E-001  0.8293567E+02  0.7546771E-02  0.1320921E+00
         -4   -1    0    0    0  501 -0.00000000000E+00  0.00000000000E+00  0.74999116124E+02  0.74999116124E+02  0.00000000000E+00 0.  1.
          4   -1    0    0  501    0  0.00000000000E+00 -0.00000000000E+00 -0.11040018406E+03  0.11040018406E+03  0.00000000000E+00 0. -1.
         24    1    1    2    0    0 -0.16962958383E+02  0.11107053813E+02 -0.55840111420E+02  0.99982211414E+02  0.80419002446E+02 0. -1.
        -24    1    1    2    0    0  0.16962958383E+02 -0.11107053813E+02  0.20439043481E+02  0.85417088772E+02  0.80419002446E+02 0. -1.
<mgrwt>
<rscale>  0 0.82935665E+02</rscale>
<asrwt>0</asrwt>
<pdfrwt beam="1">  1        4 0.16984644E-01 0.82935665E+02</pdfrwt>
<pdfrwt beam="2">  1       -4 0.11538326E-01 0.82935665E+02</pdfrwt>
<totfact> 0.25994412E+03</totfact>
</mgrwt>
</event>
<event>
 4    1  0.5097315E-001  0.1341346E+03  0.7546771E-02  0.1221447E+00
         -1   -1    0    0    0  501 -0.00000000000E+00  0.00000000000E+00  0.13227949666E+02  0.13227949666E+02  0.00000000000E+00 0.  1.
          1   -1    0    0  501    0  0.00000000000E+00 -0.00000000000E+00 -0.13837636495E+04  0.13837636495E+04  0.00000000000E+00 0. -1.
         24    1    1    2    0    0 -0.52930376624E+02 -0.93398305849E+02 -0.59403466218E+03  0.60899036456E+03  0.80419002446E+02 0.  1.
        -24    1    1    2    0    0  0.52930376624E+02  0.93398305849E+02 -0.77650103769E+03  0.78800123464E+03  0.80419002446E+02 0. -1.
<mgrwt>
<rscale>  0 0.13413458E+03</rscale>
<asrwt>0</asrwt>
<pdfrwt beam="1">  1        1 0.21288675E+00 0.13413458E+03</pdfrwt>
<pdfrwt beam="2">  1       -1 0.20350688E-02 0.13413458E+03</pdfrwt>
<totfact> 0.56050056E+03</totfact>
</mgrwt>
</event>
<event>
 4    1  0.5097315E-001  0.8193919E+02  0.7546771E-02  0.1323637E+00
          1   -1    0    0  501    0  0.00000000000E+00  0.00000000000E+00  0.26111246013E+04  0.26111246013E+04  0.00000000000E+00 0. -1.
         -1   -1    0    0    0  501 -0.00000000000E+00 -0.00000000000E+00 -0.27835557229E+01  0.27835557229E+01  0.00000000000E+00 0.  1.
         24    1    1    2    0    0  0.15672130060E+02 -0.10939068525E+01  0.16650589913E+04  0.16670739254E+04  0.80419002446E+02 0.  0.
        -24    1    1    2    0    0 -0.15672130060E+02  0.10939068525E+01  0.94328205429E+03  0.94683423163E+03  0.80419002446E+02 0.  1.
<mgrwt>
<rscale>  0 0.81939184E+02</rscale>
<asrwt>0</asrwt>
<pdfrwt beam="1">  1        1 0.40170952E+00 0.81939195E+02</pdfrwt>
<pdfrwt beam="2">  1       -1 0.42824143E-03 0.81939195E+02</pdfrwt>
<totfact> 0.82540472E+03</totfact>
</mgrwt>
</event>
<event>
 4    1  0.5097315E-001  0.1014544E+03  0.7546771E-02  0.1277267E+00
          2   -1    0    0  501    0  0.00000000000E+00  0.00000000000E+00  0.27256075116E+03  0.27256075116E+03  0.00000000000E+00 0. -1.
         -2   -1    0    0    0  501 -0.00000000000E+00 -0.00000000000E+00 -0.41807815364E+02  0.41807815364E+02  0.00000000000E+00 0.  1.
         24    1    1    2    0    0 -0.24857041130E+02 -0.56638411426E+02  0.16426120730E+03  0.19306667843E+03  0.80419002446E+02 0. -1.
        -24    1    1    2    0    0  0.24857041130E+02  0.56638411426E+02  0.66491728501E+02  0.12130188810E+03  0.80419002446E+02 0.  1.
<mgrwt>
<rscale>  0 0.10145441E+03</rscale>
<asrwt>0</asrwt>
<pdfrwt beam="1">  1        2 0.41932422E-01 0.10145441E+03</pdfrwt>
<pdfrwt beam="2">  1       -2 0.64319718E-02 0.10145441E+03</pdfrwt>
<totfact> 0.14744830E+04</totfact>
</mgrwt>
</event>
<event>
 4    1  0.5097315E-001  0.8975590E+02  0.7546771E-02  0.1303444E+00
          1   -1    0    0  501    0  0.00000000000E+00  0.00000000000E+00  0.15139695273E+04  0.15139695273E+04  0.00000000000E+00 0. -1.
         -1   -1    0    0    0  501 -0.00000000000E+00 -0.00000000000E+00 -0.53403980688E+01  0.53403980688E+01  0.00000000000E+00 0.  1.
         24    1    1    2    0    0 -0.28590540530E+02  0.27775633500E+02  0.70875684939E+03  0.71441751962E+03  0.80419002446E+02 0.  1.
        -24    1    1    2    0    0  0.28590540530E+02 -0.27775633500E+02  0.79987227983E+03  0.80489240574E+03  0.80419002446E+02 0.  0.
<mgrwt>
<rscale>  0 0.89755896E+02</rscale>
<asrwt>0</asrwt>
<pdfrwt beam="1">  1        1 0.23291805E+00 0.89755896E+02</pdfrwt>
<pdfrwt beam="2">  1       -1 0.82160091E-03 0.89755896E+02</pdfrwt>
<totfact> 0.16436521E+04</totfact>
</mgrwt>
</event>
<event>
 4    1  0.5097315E-001  0.1024649E+03  0.7546771E-02  0.1275196E+00
          2   -1    0    0  501    0  0.00000000000E+00  0.00000000000E+00  0.20259476609E+02  0.20259476609E+02  0.00000000000E+00 0. -1.
         -2   -1    0    0    0  501 -0.00000000000E+00 -0.00000000000E+00 -0.82623311034E+03  0.82623311034E+03  0.00000000000E+00 0.  1.
         24    1    1    2    0    0 -0.61163197847E+02  0.17055638136E+02 -0.14457037072E+03  0.17719943456E+03  0.80419002446E+02 0. -1.
        -24    1    1    2    0    0  0.61163197847E+02 -0.17055638136E+02 -0.66140326301E+03  0.66929315239E+03  0.80419002446E+02 0.  1.
<mgrwt>
<rscale>  0 0.10246486E+03</rscale>
<asrwt>0</asrwt>
<pdfrwt beam="1">  1        2 0.31168435E-02 0.10246486E+03</pdfrwt>
<pdfrwt beam="2">  1       -2 0.12711275E+00 0.10246486E+03</pdfrwt>
<totfact> 0.13561766E+03</totfact>
</mgrwt>
</event>
<event>
 4    1  0.5097315E-001  0.9571587E+02  0.7546771E-02  0.1289572E+00
          2   -1    0    0  501    0  0.00000000000E+00  0.00000000000E+00  0.36129512237E+03  0.36129512237E+03  0.00000000000E+00 0. -1.
         -2   -1    0    0    0  501 -0.00000000000E+00 -0.00000000000E+00 -0.36741633281E+02  0.36741633281E+02  0.00000000000E+00 0.  1.
         24    1    1    2    0    0  0.47093613445E+02  0.21828967562E+02  0.27305757531E+03  0.28934748598E+03  0.80419002446E+02 0. -1.
        -24    1    1    2    0    0 -0.47093613445E+02 -0.21828967562E+02  0.51495913777E+02  0.10868926967E+03  0.80419002446E+02 0.  1.
<mgrwt>
<rscale>  0 0.95715872E+02</rscale>
<asrwt>0</asrwt>
<pdfrwt beam="1">  1        2 0.55583863E-01 0.95715872E+02</pdfrwt>
<pdfrwt beam="2">  1       -2 0.56525592E-02 0.95715872E+02</pdfrwt>
<totfact> 0.13253621E+04</totfact>
</mgrwt>
</event>
<event>
 4    1  0.5097315E-001  0.8542092E+02  0.7546771E-02  0.1314335E+00
         -2   -1    0    0    0  501 -0.00000000000E+00  0.00000000000E+00  0.58767871019E+01  0.58767871019E+01  0.00000000000E+00 0.  1.
          2   -1    0    0  501    0  0.00000000000E+00 -0.00000000000E+00 -0.17485507229E+04  0.17485507229E+04  0.00000000000E+00 0. -1.
         24    1    1    2    0    0  0.60135771140E+01  0.28166561950E+02 -0.13436617976E+04  0.13463743018E+04  0.80419002446E+02 0. -1.
        -24    1    1    2    0    0 -0.60135771140E+01 -0.28166561950E+02 -0.39901213816E+03  0.40805320815E+03  0.80419002446E+02 0.  1.
<mgrwt>
<rscale>  0 0.85420924E+02</rscale>
<asrwt>0</asrwt>
<pdfrwt beam="1">  1        2 0.26900819E+00 0.85420924E+02</pdfrwt>
<pdfrwt beam="2">  1       -2 0.90411980E-03 0.85420924E+02</pdfrwt>
<totfact> 0.23284068E+04</totfact>
</mgrwt>
</event>
<event>
 4    1  0.5097315E-001  0.8393775E+02  0.7546771E-02  0.1318234E+00
          2   -1    0    0  501    0  0.00000000000E+00  0.00000000000E+00  0.15544582165E+03  0.15544582165E+03  0.00000000000E+00 0. -1.
         -2   -1    0    0    0  501 -0.00000000000E+00 -0.00000000000E+00 -0.80222692631E+02  0.80222692631E+02  0.00000000000E+00 0.  1.
         24    1    1    2    0    0 -0.12228937629E+02 -0.20707095128E+02  0.11532976152E+03  0.14264116008E+03  0.80419002446E+02 0.  0.
        -24    1    1    2    0    0  0.12228937629E+02  0.20707095128E+02 -0.40106632498E+02  0.93027354197E+02  0.80419002446E+02 0.  1.
<mgrwt>
<rscale>  0 0.83937755E+02</rscale>
<asrwt>0</asrwt>
<pdfrwt beam="1">  1        2 0.23914742E-01 0.83937755E+02</pdfrwt>
<pdfrwt beam="2">  1       -2 0.12341953E-01 0.83937755E+02</pdfrwt>
<totfact> 0.96494337E+03</totfact>
</mgrwt>
</event>
<event>
 4    1  0.5097315E-001  0.8134546E+02  0.7546771E-02  0.1325276E+00
         -2   -1    0    0    0  501 -0.00000000000E+00  0.00000000000E+00  0.44298270776E+02  0.44298270776E+02  0.00000000000E+00 0.  1.
          2   -1    0    0  501    0  0.00000000000E+00 -0.00000000000E+00 -0.51519539521E+03  0.51519539521E+03  0.00000000000E+00 0. -1.
         24    1    1    2    0    0 -0.11863478782E+02  0.30208564961E+01 -0.47117742160E+03  0.47814772433E+03  0.80419002446E+02 0. -1.
        -24    1    1    2    0    0  0.11863478782E+02 -0.30208564961E+01  0.28029716702E+00  0.81345941654E+02  0.80419002446E+02 0.  1.
<mgrwt>
<rscale>  0 0.81345459E+02</rscale>
<asrwt>0</asrwt>
<pdfrwt beam="1">  1        2 0.79260836E-01 0.81345459E+02</pdfrwt>
<pdfrwt beam="2">  1       -2 0.68151181E-02 0.81345459E+02</pdfrwt>
<totfact> 0.67771794E+03</totfact>
</mgrwt>
</event>
<event>
 4    1  0.5097315E-001  0.9358592E+02  0.7546771E-02  0.1294393E+00
         -3   -1    0    0    0  501 -0.00000000000E+00  0.00000000000E+00  0.25400003398E+02  0.25400003398E+02  0.00000000000E+00 0.  1.
          3   -1    0    0  501    0  0.00000000000E+00 -0.00000000000E+00 -0.34663195971E+03  0.34663195971E+03  0.00000000000E+00 0. -1.
         24    1    1    2    0    0 -0.43741794183E+02  0.19436160956E+02 -0.14715173950E+03  0.17439025002E+03  0.80419002446E+02 0. -1.
        -24    1    1    2    0    0  0.43741794183E+02 -0.19436160956E+02 -0.17408021681E+03  0.19764171308E+03  0.80419002446E+02 0.  0.
<mgrwt>
<rscale>  0 0.93585922E+02</rscale>
<asrwt>0</asrwt>
<pdfrwt beam="1">  1        3 0.53327992E-01 0.93585922E+02</pdfrwt>
<pdfrwt beam="2">  1       -3 0.39076930E-02 0.93585922E+02</pdfrwt>
<totfact> 0.25182819E+03</totfact>
</mgrwt>
</event>
<event>
 4    1  0.5097315E-001  0.8340276E+02  0.7546771E-02  0.1319663E+00
          1   -1    0    0  501    0  0.00000000000E+00  0.00000000000E+00  0.18434094496E+04  0.18434094496E+04  0.00000000000E+00 0. -1.
         -1   -1    0    0    0  501 -0.00000000000E+00 -0.00000000000E+00 -0.16943177471E+02  0.16943177471E+02  0.00000000000E+00 0.  1.
         24    1    1    2    0    0  0.22108914123E+02 -0.12873335307E-01  0.93153213892E+02  0.12503416118E+03  0.80419002446E+02 0.  1.
        -24    1    1    2    0    0 -0.22108914123E+02  0.12873335307E-01  0.17333130583E+04  0.17353184659E+04  0.80419002446E+02 0. -1.
<mgrwt>
<rscale>  0 0.83402759E+02</rscale>
<asrwt>0</asrwt>
<pdfrwt beam="1">  1        1 0.28360130E+00 0.83402759E+02</pdfrwt>
<pdfrwt beam="2">  1       -1 0.26066441E-02 0.83402759E+02</pdfrwt>
<totfact> 0.19796140E+03</totfact>
</mgrwt>
</event>
<event>
 4    1  0.5097315E-001  0.9527861E+02  0.7546771E-02  0.1290550E+00
         -2   -1    0    0    0  501 -0.00000000000E+00  0.00000000000E+00  0.36778479091E+02  0.36778479091E+02  0.00000000000E+00 0.  1.
          2   -1    0    0  501    0  0.00000000000E+00 -0.00000000000E+00 -0.62034867610E+03  0.62034867610E+03  0.00000000000E+00 0. -1.
         24    1    1    2    0    0 -0.50941484466E+01 -0.50841396180E+02 -0.54673681260E+03  0.55497671674E+03  0.80419002446E+02 0. -1.
        -24    1    1    2    0    0  0.50941484466E+01  0.50841396180E+02 -0.36833384403E+02  0.10215043845E+03  0.80419002446E+02 0.  1.
<mgrwt>
<rscale>  0 0.95278612E+02</rscale>
<asrwt>0</asrwt>
<pdfrwt beam="1">  1        2 0.95438259E-01 0.95278612E+02</pdfrwt>
<pdfrwt beam="2">  1       -2 0.56582275E-02 0.95278612E+02</pdfrwt>
<totfact> 0.73816236E+03</totfact>
</mgrwt>
</event>
<event>
 4    1  0.5097315E-001  0.1582044E+03  0.7546771E-02  0.1190739E+00
          2   -1    0    0  501    0  0.00000000000E+00  0.00000000000E+00  0.12763219522E+04  0.12763219522E+04  0.00000000000E+00 0. -1.
         -2   -1    0    0    0  501 -0.00000000000E+00 -0.00000000000E+00 -0.82761946933E+02  0.82761946933E+02  0.00000000000E+00 0.  1.
         24    1    1    2    0    0  0.11209820361E+03 -0.77430061466E+02  0.11903806845E+04  0.12008475389E+04  0.80419002446E+02 0. -1.
        -24    1    1    2    0    0 -0.11209820361E+03  0.77430061466E+02  0.31793207793E+01  0.15823636026E+03  0.80419002446E+02 0.  1.
<mgrwt>
<rscale>  0 0.15820442E+03</rscale>
<asrwt>0</asrwt>
<pdfrwt beam="1">  1        2 0.19635721E+00 0.15820442E+03</pdfrwt>
<pdfrwt beam="2">  1       -2 0.12732608E-01 0.15820442E+03</pdfrwt>
<totfact> 0.82217747E+02</totfact>
</mgrwt>
</event>
<event>
 4    1  0.5097315E-001  0.8445886E+02  0.7546771E-02  0.1316854E+00
         -2   -1    0    0    0  501 -0.00000000000E+00  0.00000000000E+00  0.78844507845E+02  0.78844507845E+02  0.00000000000E+00 0.  1.
          2   -1    0    0  501    0  0.00000000000E+00 -0.00000000000E+00 -0.12292173129E+03  0.12292173129E+03  0.00000000000E+00 0. -1.
         24    1    1    2    0    0 -0.14885484597E+02 -0.21083288393E+02 -0.73871221029E+02  0.11220630977E+03  0.80419002446E+02 0. -1.
        -24    1    1    2    0    0  0.14885484597E+02  0.21083288393E+02  0.29793997587E+02  0.89559929364E+02  0.80419002446E+02 0.  1.
<mgrwt>
<rscale>  0 0.84458858E+02</rscale>
<asrwt>0</asrwt>
<pdfrwt beam="1">  1        2 0.18911036E-01 0.84458858E+02</pdfrwt>
<pdfrwt beam="2">  1       -2 0.12129924E-01 0.84458858E+02</pdfrwt>
<totfact> 0.12865491E+04</totfact>
</mgrwt>
</event>
<event>
 4    1  0.5097315E-001  0.8373192E+02  0.7546771E-02  0.1318782E+00
         -2   -1    0    0    0  501 -0.00000000000E+00  0.00000000000E+00  0.18721092499E+02  0.18721092499E+02  0.00000000000E+00 0.  1.
          2   -1    0    0  501    0  0.00000000000E+00 -0.00000000000E+00 -0.38066578273E+03  0.38066578273E+03  0.00000000000E+00 0. -1.
         24    1    1    2    0    0 -0.67838991129E+01 -0.22311350844E+02 -0.20638881208E+03  0.22272713209E+03  0.80419002446E+02 0. -1.
        -24    1    1    2    0    0  0.67838991129E+01  0.22311350844E+02 -0.15555587815E+03  0.17665974314E+03  0.80419002446E+02 0.  1.
<mgrwt>
<rscale>  0 0.83731915E+02</rscale>
<asrwt>0</asrwt>
<pdfrwt beam="1">  1        2 0.58563966E-01 0.83731915E+02</pdfrwt>
<pdfrwt beam="2">  1       -2 0.28801681E-02 0.83731915E+02</pdfrwt>
<totfact> 0.33360445E+04</totfact>
</mgrwt>
</event>
<event>
 4    1  0.5097315E-001  0.8552663E+02  0.7546771E-02  0.1314061E+00
          2   -1    0    0  501    0  0.00000000000E+00  0.00000000000E+00  0.51172143212E+03  0.51172143212E+03  0.00000000000E+00 0. -1.
         -2   -1    0    0    0  501 -0.00000000000E+00 -0.00000000000E+00 -0.23514757905E+02  0.23514757905E+02  0.00000000000E+00 0.  1.
         24    1    1    2    0    0  0.18401245458E+02 -0.22560652400E+02  0.41168119091E+03  0.42047141137E+03  0.80419002446E+02 0. -1.
        -24    1    1    2    0    0 -0.18401245458E+02  0.22560652400E+02  0.76525483299E+02  0.11476477865E+03  0.80419002446E+02 0.  0.
<mgrwt>
<rscale>  0 0.85526632E+02</rscale>
<asrwt>0</asrwt>
<pdfrwt beam="1">  1        2 0.78726366E-01 0.85526632E+02</pdfrwt>
<pdfrwt beam="2">  1       -2 0.36176554E-02 0.85526632E+02</pdfrwt>
<totfact> 0.17532091E+04</totfact>
</mgrwt>
</event>
<event>
 4    1  0.5097315E-001  0.8904827E+02  0.7546771E-02  0.1305173E+00
         -2   -1    0    0    0  501 -0.00000000000E+00  0.00000000000E+00  0.10929028380E+03  0.10929028380E+03  0.00000000000E+00 0.  1.
          2   -1    0    0  501    0  0.00000000000E+00 -0.00000000000E+00 -0.41514001654E+03  0.41514001654E+03  0.00000000000E+00 0. -1.
         24    1    1    2    0    0 -0.27638186671E+01 -0.38141055488E+02 -0.39112633897E+03  0.40113514904E+03  0.80419002446E+02 0. -1.
        -24    1    1    2    0    0  0.27638186671E+01  0.38141055488E+02  0.85276606230E+02  0.12329515129E+03  0.80419002446E+02 0.  1.
<mgrwt>
<rscale>  0 0.89048272E+02</rscale>
<asrwt>0</asrwt>
<pdfrwt beam="1">  1        2 0.63867695E-01 0.89048272E+02</pdfrwt>
<pdfrwt beam="2">  1       -2 0.16813890E-01 0.89048272E+02</pdfrwt>
<totfact> 0.20865736E+03</totfact>
</mgrwt>
</event>
<event>
 4    1  0.5097315E-001  0.8116210E+02  0.7546771E-02  0.1325786E+00
         -2   -1    0    0    0  501 -0.00000000000E+00  0.00000000000E+00  0.71974797980E+01  0.71974797980E+01  0.00000000000E+00 0.  1.
          2   -1    0    0  501    0  0.00000000000E+00 -0.00000000000E+00 -0.12938640403E+04  0.12938640403E+04  0.00000000000E+00 0. -1.
         24    1    1    2    0    0  0.81429838301E+01 -0.73322917957E+01 -0.99524874050E+03  0.99855262360E+03  0.80419002446E+02 0. -1.
        -24    1    1    2    0    0 -0.81429838301E+01  0.73322917957E+01 -0.29141782004E+03  0.30250889653E+03  0.80419002446E+02 0.  1.
<mgrwt>
<rscale>  0 0.81162101E+02</rscale>
<asrwt>0</asrwt>
<pdfrwt beam="1">  1        2 0.19905603E+00 0.81162101E+02</pdfrwt>
<pdfrwt beam="2">  1       -2 0.11073044E-02 0.81162101E+02</pdfrwt>
<totfact> 0.29688364E+04</totfact>
</mgrwt>
</event>
<event>
 4    1  0.5097315E-001  0.9151209E+02  0.7546771E-02  0.1299231E+00
          4   -1    0    0  501    0  0.00000000000E+00  0.00000000000E+00  0.74424625824E+02  0.74424625824E+02  0.00000000000E+00 0. -1.
         -4   -1    0    0    0  501 -0.00000000000E+00 -0.00000000000E+00 -0.14276781187E+03  0.14276781187E+03  0.00000000000E+00 0.  1.
         24    1    1    2    0    0 -0.43659250708E+02  0.10562978231E+01  0.15811940230E+02  0.92868074954E+02  0.80419002446E+02 0. -1.
        -24    1    1    2    0    0  0.43659250708E+02 -0.10562978231E+01 -0.84155126271E+02  0.12432436274E+03  0.80419002446E+02 0.  1.
<mgrwt>
<rscale>  0 0.91512086E+02</rscale>
<asrwt>0</asrwt>
<pdfrwt beam="1">  1        4 0.11449942E-01 0.91512086E+02</pdfrwt>
<pdfrwt beam="2">  1       -4 0.21964279E-01 0.91512086E+02</pdfrwt>
<totfact> 0.17137120E+03</totfact>
</mgrwt>
</event>
<event>
 4    1  0.5097315E-001  0.1160073E+03  0.7546771E-02  0.1249833E+00
          2   -1    0    0  501    0  0.00000000000E+00  0.00000000000E+00  0.19435326700E+04  0.19435326700E+04  0.00000000000E+00 0. -1.
         -2   -1    0    0    0  501 -0.00000000000E+00 -0.00000000000E+00 -0.84744621664E+01  0.84744621664E+01  0.00000000000E+00 0.  1.
         24    1    1    2    0    0  0.60701963621E+02 -0.57495595082E+02  0.13849534793E+04  0.13898035212E+04  0.80419002446E+02 0. -1.
        -24    1    1    2    0    0 -0.60701963621E+02  0.57495595082E+02  0.55010472853E+03  0.56220361093E+03  0.80419002446E+02 0.  1.
<mgrwt>
<rscale>  0 0.11600727E+03</rscale>
<asrwt>0</asrwt>
<pdfrwt beam="1">  1        2 0.29900467E+00 0.11600727E+03</pdfrwt>
<pdfrwt beam="2">  1       -2 0.13037650E-02 0.11600727E+03</pdfrwt>
<totfact> 0.11227045E+04</totfact>
</mgrwt>
</event>
<event>
 4    1  0.5097315E-001  0.8904480E+02  0.7546771E-02  0.1305181E+00
         -1   -1    0    0    0  501 -0.00000000000E+00  0.00000000000E+00  0.94711016084E+01  0.94711016084E+01  0.00000000000E+00 0.  1.
          1   -1    0    0  501    0  0.00000000000E+00 -0.00000000000E+00 -0.84646228642E+03  0.84646228642E+03  0.00000000000E+00 0. -1.
         24    1    1    2    0    0 -0.28476211305E+02  0.25512064944E+02 -0.37366913115E+03  0.38413226315E+03  0.80419002446E+02 0. -1.
        -24    1    1    2    0    0  0.28476211305E+02 -0.25512064944E+02 -0.46332205367E+03  0.47180112488E+03  0.80419002446E+02 0.  0.
<mgrwt>
<rscale>  0 0.89044798E+02</rscale>
<asrwt>0</asrwt>
<pdfrwt beam="1">  1        1 0.13022503E+00 0.89044798E+02</pdfrwt>
<pdfrwt beam="2">  1       -1 0.14570918E-02 0.89044798E+02</pdfrwt>
<totfact> 0.21008073E+04</totfact>
</mgrwt>
</event>
<event>
 4    1  0.5097315E-001  0.8201512E+02  0.7546771E-02  0.1323428E+00
         -2   -1    0    0    0  501 -0.00000000000E+00  0.00000000000E+00  0.52457828078E+02  0.52457828078E+02  0.00000000000E+00 0.  1.
          2   -1    0    0  501    0  0.00000000000E+00 -0.00000000000E+00 -0.14874384482E+03  0.14874384482E+03  0.00000000000E+00 0. -1.
         24    1    1    2    0    0 -0.14622367958E+02  0.67416264285E+01 -0.85506167543E+02  0.11848115383E+03  0.80419002446E+02 0.  0.
        -24    1    1    2    0    0  0.14622367958E+02 -0.67416264285E+01 -0.10779849202E+02  0.82720519067E+02  0.80419002446E+02 0.  1.
<mgrwt>
<rscale>  0 0.82015115E+02</rscale>
<asrwt>0</asrwt>
<pdfrwt beam="1">  1        2 0.22883669E-01 0.82015115E+02</pdfrwt>
<pdfrwt beam="2">  1       -2 0.80704350E-02 0.82015115E+02</pdfrwt>
<totfact> 0.19529013E+04</totfact>
</mgrwt>
</event>
<event>
 4    1  0.5097315E-001  0.8515258E+02  0.7546771E-02  0.1315034E+00
         -3   -1    0    0    0  501 -0.00000000000E+00  0.00000000000E+00  0.13313364796E+03  0.13313364796E+03  0.00000000000E+00 0.  1.
          3   -1    0    0  501    0  0.00000000000E+00 -0.00000000000E+00 -0.56477607892E+02  0.56477607892E+02  0.00000000000E+00 0. -1.
         24    1    1    2    0    0  0.18033294069E+02  0.21413704300E+02  0.56230228377E+02  0.10204313286E+03  0.80419002446E+02 0.  1.
        -24    1    1    2    0    0 -0.18033294069E+02 -0.21413704300E+02  0.20425811695E+02  0.87568122994E+02  0.80419002446E+02 0. -1.
<mgrwt>
<rscale>  0 0.85152583E+02</rscale>
<asrwt>0</asrwt>
<pdfrwt beam="1">  1        3 0.86888628E-02 0.85152583E+02</pdfrwt>
<pdfrwt beam="2">  1       -3 0.20482100E-01 0.85152583E+02</pdfrwt>
<totfact> 0.41392926E+03</totfact>
</mgrwt>
</event>
<event>
 4    1  0.5097315E-001  0.2348748E+03  0.7546771E-02  0.1123255E+00
          2   -1    0    0  501    0  0.00000000000E+00  0.00000000000E+00  0.44118374600E+03  0.44118374600E+03  0.00000000000E+00 0. -1.
         -2   -1    0    0    0  501 -0.00000000000E+00 -0.00000000000E+00 -0.12919477968E+03  0.12919477968E+03  0.00000000000E+00 0.  1.
         24    1    1    2    0    0  0.16338715294E+03 -0.14833592289E+03  0.10485875025E+03  0.25721874197E+03  0.80419002446E+02 0. -1.
        -24    1    1    2    0    0 -0.16338715294E+03  0.14833592289E+03  0.20713021607E+03  0.31315978370E+03  0.80419002446E+02 0.  0.
<mgrwt>
<rscale>  0 0.23487473E+03</rscale>
<asrwt>0</asrwt>
<pdfrwt beam="1">  1        2 0.67874422E-01 0.23487476E+03</pdfrwt>
<pdfrwt beam="2">  1       -2 0.19876120E-01 0.23487476E+03</pdfrwt>
<totfact> 0.15176494E+03</totfact>
</mgrwt>
</event>
<event>
 4    1  0.5097315E-001  0.8809329E+02  0.7546771E-02  0.1307536E+00
          1   -1    0    0  501    0  0.00000000000E+00  0.00000000000E+00  0.18536821849E+03  0.18536821849E+03  0.00000000000E+00 0. -1.
         -1   -1    0    0    0  501 -0.00000000000E+00 -0.00000000000E+00 -0.30433312238E+03  0.30433312238E+03  0.00000000000E+00 0.  1.
         24    1    1    2    0    0 -0.19943461759E+02 -0.29924419515E+02 -0.28686913274E+03  0.30009053271E+03  0.80419002446E+02 0.  1.
        -24    1    1    2    0    0  0.19943461759E+02  0.29924419515E+02  0.16790422885E+03  0.18961080816E+03  0.80419002446E+02 0. -1.
<mgrwt>
<rscale>  0 0.88093294E+02</rscale>
<asrwt>0</asrwt>
<pdfrwt beam="1">  1        1 0.28518188E-01 0.88093294E+02</pdfrwt>
<pdfrwt beam="2">  1       -1 0.46820480E-01 0.88093294E+02</pdfrwt>
<totfact> 0.74222868E+02</totfact>
</mgrwt>
</event>
<event>
 4    1  0.5097315E-001  0.1021771E+03  0.7546771E-02  0.1275783E+00
         -2   -1    0    0    0  501 -0.00000000000E+00  0.00000000000E+00  0.97393958497E+02  0.97393958497E+02  0.00000000000E+00 0.  1.
          2   -1    0    0  501    0  0.00000000000E+00 -0.00000000000E+00 -0.48768734206E+03  0.48768734206E+03  0.00000000000E+00 0. -1.
         24    1    1    2    0    0  0.63000377237E+02 -0.19760065284E+01 -0.45354419193E+03  0.46491128414E+03  0.80419002446E+02 0. -1.
        -24    1    1    2    0    0 -0.63000377237E+02  0.19760065284E+01  0.63250808362E+02  0.12017001642E+03  0.80419002446E+02 0.  1.
<mgrwt>
<rscale>  0 0.10217714E+03</rscale>
<asrwt>0</asrwt>
<pdfrwt beam="1">  1        2 0.75028821E-01 0.10217714E+03</pdfrwt>
<pdfrwt beam="2">  1       -2 0.14983686E-01 0.10217714E+03</pdfrwt>
<totfact> 0.21313334E+03</totfact>
</mgrwt>
</event>
<event>
 4    1  0.5097315E-001  0.2047420E+03  0.7546771E-02  0.1145799E+00
          1   -1    0    0  501    0  0.00000000000E+00  0.00000000000E+00  0.32089028522E+03  0.32089028522E+03  0.00000000000E+00 0. -1.
         -1   -1    0    0    0  501 -0.00000000000E+00 -0.00000000000E+00 -0.19691593277E+03  0.19691593277E+03  0.00000000000E+00 0.  1.
         24    1    1    2    0    0 -0.12746385684E+03 -0.13858230554E+03 -0.88220852469E+02  0.22293995822E+03  0.80419002446E+02 0.  1.
        -24    1    1    2    0    0  0.12746385684E+03  0.13858230554E+03  0.21219520492E+03  0.29486625977E+03  0.80419002446E+02 0. -1.
<mgrwt>
<rscale>  0 0.20474205E+03</rscale>
<asrwt>0</asrwt>
<pdfrwt beam="1">  1        1 0.49367736E-01 0.20474205E+03</pdfrwt>
<pdfrwt beam="2">  1       -1 0.30294759E-01 0.20474205E+03</pdfrwt>
<totfact> 0.80925892E+02</totfact>
</mgrwt>
</event>
<event>
 4    1  0.5097315E-001  0.8141986E+02  0.7546771E-02  0.1325070E+00
         -1   -1    0    0    0  501 -0.00000000000E+00  0.00000000000E+00  0.11257754268E+02  0.11257754268E+02  0.00000000000E+00 0.  1.
          1   -1    0    0  501    0  0.00000000000E+00 -0.00000000000E+00 -0.67964863811E+03  0.67964863811E+03  0.00000000000E+00 0. -1.
         24    1    1    2    0    0  0.12706729215E+02  0.71906157895E+00 -0.20793341129E+03  0.22330583848E+03  0.80419002446E+02 0.  1.
        -24    1    1    2    0    0 -0.12706729215E+02 -0.71906157895E+00 -0.46045747256E+03  0.46760055390E+03  0.80419002446E+02 0. -1.
<mgrwt>
<rscale>  0 0.81419862E+02</rscale>
<asrwt>0</asrwt>
<pdfrwt beam="1">  1        1 0.10456133E+00 0.81419862E+02</pdfrwt>
<pdfrwt beam="2">  1       -1 0.17319621E-02 0.81419862E+02</pdfrwt>
<totfact> 0.22393873E+04</totfact>
</mgrwt>
</event>
<event>
 4    1  0.5097315E-001  0.8211548E+02  0.7546771E-02  0.1323153E+00
          1   -1    0    0  501    0  0.00000000000E+00  0.00000000000E+00  0.46117556916E+03  0.46117556916E+03  0.00000000000E+00 0. -1.
         -1   -1    0    0    0  501 -0.00000000000E+00 -0.00000000000E+00 -0.23183688011E+02  0.23183688011E+02  0.00000000000E+00 0.  1.
         24    1    1    2    0    0  0.13316581956E+02 -0.99199103658E+01  0.71816993445E+02  0.10909002007E+03  0.80419002446E+02 0.  1.
        -24    1    1    2    0    0 -0.13316581956E+02  0.99199103658E+01  0.36617488770E+03  0.37526923710E+03  0.80419002446E+02 0. -1.
<mgrwt>
<rscale>  0 0.82115479E+02</rscale>
<asrwt>0</asrwt>
<pdfrwt beam="1">  1        1 0.70950081E-01 0.82115479E+02</pdfrwt>
<pdfrwt beam="2">  1       -1 0.35667216E-02 0.82115479E+02</pdfrwt>
<totfact> 0.13286384E+04</totfact>
</mgrwt>
</event>
<event>
 4    1  0.5097315E-001  0.8796621E+02  0.7546771E-02  0.1307853E+00
         -1   -1    0    0    0  501 -0.00000000000E+00  0.00000000000E+00  0.15279585314E+02  0.15279585314E+02  0.00000000000E+00 0.  1.
          1   -1    0    0  501    0  0.00000000000E+00 -0.00000000000E+00 -0.50728280499E+03  0.50728280499E+03  0.00000000000E+00 0. -1.
         24    1    1    2    0    0  0.35578885000E+02 -0.22317604742E+01 -0.23529418781E+03  0.25119993747E+03  0.80419002446E+02 0.  0.
        -24    1    1    2    0    0 -0.35578885000E+02  0.22317604742E+01 -0.25670903186E+03  0.27136245283E+03  0.80419002446E+02 0. -1.
<mgrwt>
<rscale>  0 0.87966208E+02</rscale>
<asrwt>0</asrwt>
<pdfrwt beam="1">  1        1 0.78043499E-01 0.87966208E+02</pdfrwt>
<pdfrwt beam="2">  1       -1 0.23507057E-02 0.87966208E+02</pdfrwt>
<totfact> 0.21566098E+04</totfact>
</mgrwt>
</event>
<event>
 4    1  0.5097315E-001  0.1081950E+03  0.7546771E-02  0.1263949E+00
          1   -1    0    0  501    0  0.00000000000E+00  0.00000000000E+00  0.78152093004E+03  0.78152093004E+03  0.00000000000E+00 0. -1.
         -1   -1    0    0    0  501 -0.00000000000E+00 -0.00000000000E+00 -0.20065589796E+02  0.20065589796E+02  0.00000000000E+00 0.  1.
         24    1    1    2    0    0 -0.72351786732E+02 -0.20391620293E+01  0.17892761288E+03  0.20909625972E+03  0.80419002446E+02 0.  0.
        -24    1    1    2    0    0  0.72351786732E+02  0.20391620293E+01  0.58252772737E+03  0.59249026012E+03  0.80419002446E+02 0. -1.
<mgrwt>
<rscale>  0 0.10819499E+03</rscale>
<asrwt>0</asrwt>
<pdfrwt beam="1">  1        1 0.12023397E+00 0.10819499E+03</pdfrwt>
<pdfrwt beam="2">  1       -1 0.30870144E-02 0.10819499E+03</pdfrwt>
<totfact> 0.82039735E+03</totfact>
</mgrwt>
</event>
<event>
 4    1  0.5097315E-001  0.8188901E+02  0.7546771E-02  0.1323775E+00
         -1   -1    0    0    0  501 -0.00000000000E+00  0.00000000000E+00  0.33956396675E+03  0.33956396675E+03  0.00000000000E+00 0.  1.
          1   -1    0    0  501    0  0.00000000000E+00 -0.00000000000E+00 -0.13492339789E+03  0.13492339789E+03  0.00000000000E+00 0. -1.
         24    1    1    2    0    0  0.13268857892E+02  0.79076772356E+01  0.32151512268E+03  0.33177972213E+03  0.80419002446E+02 0.  1.
        -24    1    1    2    0    0 -0.13268857892E+02 -0.79076772356E+01 -0.11687455382E+03  0.14270764252E+03  0.80419002446E+02 0. -1.
<mgrwt>
<rscale>  0 0.81889010E+02</rscale>
<asrwt>0</asrwt>
<pdfrwt beam="1">  1        1 0.20757446E-01 0.81889010E+02</pdfrwt>
<pdfrwt beam="2">  1       -1 0.52240610E-01 0.81889010E+02</pdfrwt>
<totfact> 0.90170612E+02</totfact>
</mgrwt>
</event>
<event>
 4    1  0.5097315E-001  0.8167331E+02  0.7546771E-02  0.1324369E+00
         -2   -1    0    0    0  501 -0.00000000000E+00  0.00000000000E+00  0.10572081055E+02  0.10572081055E+02  0.00000000000E+00 0.  1.
          2   -1    0    0  501    0  0.00000000000E+00 -0.00000000000E+00 -0.63158342444E+03  0.63158342444E+03  0.00000000000E+00 0. -1.
         24    1    1    2    0    0 -0.65651794009E+01  0.12657330345E+02 -0.30039156483E+03  0.31129667163E+03  0.80419002446E+02 0. -1.
        -24    1    1    2    0    0  0.65651794009E+01 -0.12657330345E+02 -0.32061977855E+03  0.33085883386E+03  0.80419002446E+02 0.  1.
<mgrwt>
<rscale>  0 0.81673296E+02</rscale>
<asrwt>0</asrwt>
<pdfrwt beam="1">  1        2 0.97166717E-01 0.81673306E+02</pdfrwt>
<pdfrwt beam="2">  1       -2 0.16264734E-02 0.81673306E+02</pdfrwt>
<totfact> 0.43785158E+04</totfact>
</mgrwt>
</event>
<event>
 4    1  0.5097315E-001  0.1131464E+03  0.7546771E-02  0.1254852E+00
         -2   -1    0    0    0  501 -0.00000000000E+00  0.00000000000E+00  0.42724193628E+02  0.42724193628E+02  0.00000000000E+00 0.  1.
          2   -1    0    0  501    0  0.00000000000E+00 -0.00000000000E+00 -0.45295748844E+03  0.45295748844E+03  0.00000000000E+00 0. -1.
         24    1    1    2    0    0  0.72580865619E+02  0.32663581664E+02 -0.34930572682E+03  0.36717379859E+03  0.80419002446E+02 0. -1.
        -24    1    1    2    0    0 -0.72580865619E+02 -0.32663581664E+02 -0.60927567984E+02  0.12850788348E+03  0.80419002446E+02 0.  1.
<mgrwt>
<rscale>  0 0.11314640E+03</rscale>
<asrwt>0</asrwt>
<pdfrwt beam="1">  1        2 0.69685770E-01 0.11314640E+03</pdfrwt>
<pdfrwt beam="2">  1       -2 0.65729526E-02 0.11314640E+03</pdfrwt>
<totfact> 0.84198170E+03</totfact>
</mgrwt>
</event>
<event>
 4    1  0.5097315E-001  0.1091938E+03  0.7546771E-02  0.1262070E+00
          2   -1    0    0  501    0  0.00000000000E+00  0.00000000000E+00  0.23431004890E+04  0.23431004890E+04  0.00000000000E+00 0. -1.
         -2   -1    0    0    0  501 -0.00000000000E+00 -0.00000000000E+00 -0.22474972144E+02  0.22474972144E+02  0.00000000000E+00 0.  1.
         24    1    1    2    0    0  0.60858553641E+02  0.41860622074E+02  0.22006177981E+04  0.22033252108E+04  0.80419002446E+02 0. -1.
        -24    1    1    2    0    0 -0.60858553641E+02 -0.41860622074E+02  0.12000771884E+03  0.16225025044E+03  0.80419002446E+02 0.  1.
<mgrwt>
<rscale>  0 0.10919382E+03</rscale>
<asrwt>0</asrwt>
<pdfrwt beam="1">  1        2 0.36047681E+00 0.10919382E+03</pdfrwt>
<pdfrwt beam="2">  1       -2 0.34576899E-02 0.10919382E+03</pdfrwt>
<totfact> 0.17056968E+03</totfact>
</mgrwt>
</event>
<event>
 4    1  0.5097315E-001  0.1370808E+03  0.7546771E-02  0.1217312E+00
          2   -1    0    0  501    0  0.00000000000E+00  0.00000000000E+00  0.15049085117E+02  0.15049085117E+02  0.00000000000E+00 0. -1.
         -2   -1    0    0    0  501 -0.00000000000E+00 -0.00000000000E+00 -0.18261972911E+04  0.18261972911E+04  0.00000000000E+00 0.  1.
         24    1    1    2    0    0 -0.29526342887E+02 -0.10701462043E+03 -0.38784915115E+03  0.41136129365E+03  0.80419002446E+02 0. -1.
        -24    1    1    2    0    0  0.29526342887E+02  0.10701462043E+03 -0.14232990549E+04  0.14298850826E+04  0.80419002446E+02 0.  1.
<mgrwt>
<rscale>  0 0.13708082E+03</rscale>
<asrwt>0</asrwt>
<pdfrwt beam="1">  1        2 0.23152441E-02 0.13708082E+03</pdfrwt>
<pdfrwt beam="2">  1       -2 0.28095341E+00 0.13708082E+03</pdfrwt>
<totfact> 0.21088494E+02</totfact>
</mgrwt>
</event>
<event>
 4    1  0.5097315E-001  0.1308528E+03  0.7546771E-02  0.1226196E+00
         -2   -1    0    0    0  501 -0.00000000000E+00  0.00000000000E+00  0.37200369736E+02  0.37200369736E+02  0.00000000000E+00 0.  1.
          2   -1    0    0  501    0  0.00000000000E+00 -0.00000000000E+00 -0.84009036443E+03  0.84009036443E+03  0.00000000000E+00 0. -1.
         24    1    1    2    0    0  0.57608027375E+02 -0.85653745437E+02 -0.69638645016E+03  0.70857360440E+03  0.80419002446E+02 0. -1.
        -24    1    1    2    0    0 -0.57608027375E+02  0.85653745437E+02 -0.10650354454E+03  0.16871712977E+03  0.80419002446E+02 0.  1.
<mgrwt>
<rscale>  0 0.13085284E+03</rscale>
<asrwt>0</asrwt>
<pdfrwt beam="1">  1        2 0.12924467E+00 0.13085284E+03</pdfrwt>
<pdfrwt beam="2">  1       -2 0.57231339E-02 0.13085284E+03</pdfrwt>
<totfact> 0.51440778E+03</totfact>
</mgrwt>
</event>
<event>
 4    1  0.5097315E-001  0.8153474E+02  0.7546771E-02  0.1324752E+00
          1   -1    0    0  501    0  0.00000000000E+00  0.00000000000E+00  0.66754058716E+02  0.66754058716E+02  0.00000000000E+00 0. -1.
         -1   -1    0    0    0  501 -0.00000000000E+00 -0.00000000000E+00 -0.54427848919E+03  0.54427848919E+03  0.00000000000E+00 0.  1.
         24    1    1    2    0    0 -0.13433929357E+02  0.47771068911E+00 -0.51491701787E+03  0.52133237950E+03  0.80419002446E+02 0.  1.
        -24    1    1    2    0    0  0.13433929357E+02 -0.47771068911E+00  0.37392587398E+02  0.89700168407E+02  0.80419002446E+02 0. -1.
<mgrwt>
<rscale>  0 0.81534745E+02</rscale>
<asrwt>0</asrwt>
<pdfrwt beam="1">  1        1 0.10269855E-01 0.81534745E+02</pdfrwt>
<pdfrwt beam="2">  1       -1 0.83735153E-01 0.81534745E+02</pdfrwt>
<totfact> 0.89315346E+02</totfact>
</mgrwt>
</event>
<event>
 4    1  0.5097315E-001  0.8766143E+02  0.7546771E-02  0.1308616E+00
         -2   -1    0    0    0  501 -0.00000000000E+00  0.00000000000E+00  0.49563878079E+01  0.49563878079E+01  0.00000000000E+00 0.  1.
          2   -1    0    0  501    0  0.00000000000E+00 -0.00000000000E+00 -0.17113002338E+04  0.17113002338E+04  0.00000000000E+00 0. -1.
         24    1    1    2    0    0 -0.52637380382E+01  0.34490615353E+02 -0.11162767727E+04  0.11197135164E+04  0.80419002446E+02 0.  1.
        -24    1    1    2    0    0  0.52637380382E+01 -0.34490615353E+02 -0.59006707324E+03  0.59654310520E+03  0.80419002446E+02 0.  0.
<mgrwt>
<rscale>  0 0.87661425E+02</rscale>
<asrwt>0</asrwt>
<pdfrwt beam="1">  1        2 0.26327737E+00 0.87661425E+02</pdfrwt>
<pdfrwt beam="2">  1       -2 0.76252000E-03 0.87661425E+02</pdfrwt>
<totfact> 0.30961205E+04</totfact>
</mgrwt>
</event>
<event>
 4    1  0.5097315E-001  0.1047245E+03  0.7546771E-02  0.1270663E+00
          2   -1    0    0  501    0  0.00000000000E+00  0.00000000000E+00  0.30381098060E+03  0.30381098060E+03  0.00000000000E+00 0. -1.
         -2   -1    0    0    0  501 -0.00000000000E+00 -0.00000000000E+00 -0.19591455928E+03  0.19591455928E+03  0.00000000000E+00 0.  1.
         24    1    1    2    0    0 -0.67049310723E+02  0.20983992707E+01  0.27962033519E+03  0.29858794543E+03  0.80419002446E+02 0. -1.
        -24    1    1    2    0    0  0.67049310723E+02 -0.20983992707E+01 -0.17172391388E+03  0.20113759444E+03  0.80419002446E+02 0.  1.
<mgrwt>
<rscale>  0 0.10472454E+03</rscale>
<asrwt>0</asrwt>
<pdfrwt beam="1">  1        2 0.46740151E-01 0.10472454E+03</pdfrwt>
<pdfrwt beam="2">  1       -2 0.30140702E-01 0.10472454E+03</pdfrwt>
<totfact> 0.10743129E+03</totfact>
</mgrwt>
</event>
<event>
 4    1  0.5097315E-001  0.8558808E+02  0.7546771E-02  0.1313902E+00
         -2   -1    0    0    0  501 -0.00000000000E+00  0.00000000000E+00  0.84667550039E+01  0.84667550039E+01  0.00000000000E+00 0.  1.
          2   -1    0    0  501    0  0.00000000000E+00 -0.00000000000E+00 -0.88749430206E+03  0.88749430206E+03  0.00000000000E+00 0. -1.
         24    1    1    2    0    0 -0.13725741694E+02  0.25878718559E+02 -0.51053810804E+03  0.51766251533E+03  0.80419002446E+02 0. -1.
        -24    1    1    2    0    0  0.13725741694E+02 -0.25878718559E+02 -0.36848943901E+03  0.37829854173E+03  0.80419002446E+02 0.  1.
<mgrwt>
<rscale>  0 0.85588083E+02</rscale>
<asrwt>0</asrwt>
<pdfrwt beam="1">  1        2 0.13653762E+00 0.85588083E+02</pdfrwt>
<pdfrwt beam="2">  1       -2 0.13025773E-02 0.85588083E+02</pdfrwt>
<totfact> 0.40252822E+04</totfact>
</mgrwt>
</event>
<event>
 4    1  0.5097315E-001  0.9339269E+02  0.7546771E-02  0.1294838E+00
         -2   -1    0    0    0  501 -0.00000000000E+00  0.00000000000E+00  0.15069096250E+03  0.15069096250E+03  0.00000000000E+00 0.  1.
          2   -1    0    0  501    0  0.00000000000E+00 -0.00000000000E+00 -0.56114943591E+03  0.56114943591E+03  0.00000000000E+00 0. -1.
         24    1    1    2    0    0 -0.28301613444E+02  0.38131306128E+02 -0.54229378230E+03  0.55027696673E+03  0.80419002446E+02 0. -1.
        -24    1    1    2    0    0  0.28301613444E+02 -0.38131306128E+02  0.13183530890E+03  0.16156343168E+03  0.80419002446E+02 0.  1.
<mgrwt>
<rscale>  0 0.93392686E+02</rscale>
<asrwt>0</asrwt>
<pdfrwt beam="1">  1        2 0.86330682E-01 0.93392686E+02</pdfrwt>
<pdfrwt beam="2">  1       -2 0.23183225E-01 0.93392686E+02</pdfrwt>
<totfact> 0.88222135E+02</totfact>
</mgrwt>
</event>
<event>
 4    1  0.5097315E-001  0.1221138E+03  0.7546771E-02  0.1239650E+00
         -1   -1    0    0    0  501 -0.00000000000E+00  0.00000000000E+00  0.32615296880E+03  0.32615296880E+03  0.00000000000E+00 0.  1.
          1   -1    0    0  501    0  0.00000000000E+00 -0.00000000000E+00 -0.11228381978E+03  0.11228381978E+03  0.00000000000E+00 0. -1.
         24    1    1    2    0    0  0.54204200305E+02 -0.74205558434E+02  0.27572075926E+03  0.30155217338E+03  0.80419002446E+02 0.  1.
        -24    1    1    2    0    0 -0.54204200305E+02  0.74205558434E+02 -0.61851610236E+02  0.13688461519E+03  0.80419002446E+02 0. -1.
<mgrwt>
<rscale>  0 0.12211378E+03</rscale>
<asrwt>0</asrwt>
<pdfrwt beam="1">  1        1 0.17274434E-01 0.12211378E+03</pdfrwt>
<pdfrwt beam="2">  1       -1 0.50177379E-01 0.12211378E+03</pdfrwt>
<totfact> 0.12379237E+03</totfact>
</mgrwt>
</event>
<event>
 4    1  0.5097315E-001  0.8588386E+02  0.7546771E-02  0.1313137E+00
         -2   -1    0    0    0  501 -0.00000000000E+00  0.00000000000E+00  0.90662289104E+02  0.90662289104E+02  0.00000000000E+00 0.  1.
          2   -1    0    0  501    0  0.00000000000E+00 -0.00000000000E+00 -0.13107826021E+03  0.13107826021E+03  0.00000000000E+00 0. -1.
         24    1    1    2    0    0 -0.28104251694E+02  0.10907457675E+02 -0.88492089562E+02  0.12331620926E+03  0.80419002446E+02 0. -1.
        -24    1    1    2    0    0  0.28104251694E+02 -0.10907457675E+02  0.48076118453E+02  0.98424340059E+02  0.80419002446E+02 0.  1.
<mgrwt>
<rscale>  0 0.85883861E+02</rscale>
<asrwt>0</asrwt>
<pdfrwt beam="1">  1        2 0.20165886E-01 0.85883861E+02</pdfrwt>
<pdfrwt beam="2">  1       -2 0.13948045E-01 0.85883861E+02</pdfrwt>
<totfact> 0.96045484E+03</totfact>
</mgrwt>
</event>
<event>
 4    1  0.5097315E-001  0.8151863E+02  0.7546771E-02  0.1324796E+00
          1   -1    0    0  501    0  0.00000000000E+00  0.00000000000E+00  0.20340474245E+03  0.20340474245E+03  0.00000000000E+00 0. -1.
         -1   -1    0    0    0  501 -0.00000000000E+00 -0.00000000000E+00 -0.78351349607E+02  0.78351349607E+02  0.00000000000E+00 0.  1.
         24    1    1    2    0    0 -0.11852535760E+02 -0.61308818862E+01 -0.45042591868E+02  0.93134963109E+02  0.80419002446E+02 0.  1.
        -24    1    1    2    0    0  0.11852535760E+02  0.61308818862E+01  0.17009598471E+03  0.18862112895E+03  0.80419002446E+02 0. -1.
<mgrwt>
<rscale>  0 0.81518625E+02</rscale>
<asrwt>0</asrwt>
<pdfrwt beam="1">  1        1 0.31293037E-01 0.81518625E+02</pdfrwt>
<pdfrwt beam="2">  1       -1 0.12054054E-01 0.81518625E+02</pdfrwt>
<totfact> 0.59916658E+03</totfact>
</mgrwt>
</event>
<event>
 4    1  0.5097315E-001  0.8369116E+02  0.7546771E-02  0.1318891E+00
          4   -1    0    0  501    0  0.00000000000E+00  0.00000000000E+00  0.23373928130E+03  0.23373928130E+03  0.00000000000E+00 0. -1.
         -4   -1    0    0    0  501 -0.00000000000E+00 -0.00000000000E+00 -0.10362259381E+03  0.10362259381E+03  0.00000000000E+00 0.  1.
         24    1    1    2    0    0 -0.18925926466E+02 -0.13371753804E+02  0.20727316358E+03  0.22353159685E+03  0.80419002446E+02 0. -1.
        -24    1    1    2    0    0  0.18925926466E+02  0.13371753804E+02 -0.77156476098E+02  0.11383027827E+03  0.80419002446E+02 0.  1.
<mgrwt>
<rscale>  0 0.83691161E+02</rscale>
<asrwt>0</asrwt>
<pdfrwt beam="1">  1        4 0.35959889E-01 0.83691161E+02</pdfrwt>
<pdfrwt beam="2">  1       -4 0.15941938E-01 0.83691161E+02</pdfrwt>
<totfact> 0.38068860E+02</totfact>
</mgrwt>
</event>
<event>
 4    1  0.5097315E-001  0.8561888E+02  0.7546771E-02  0.1313822E+00
         -1   -1    0    0    0  501 -0.00000000000E+00  0.00000000000E+00  0.21948182591E+03  0.21948182591E+03  0.00000000000E+00 0.  1.
          1   -1    0    0  501    0  0.00000000000E+00 -0.00000000000E+00 -0.10974945013E+03  0.10974945013E+03  0.00000000000E+00 0. -1.
         24    1    1    2    0    0 -0.22885072918E+02  0.18429590173E+02  0.19216733778E+03  0.21037794091E+03  0.80419002446E+02 0.  0.
        -24    1    1    2    0    0  0.22885072918E+02 -0.18429590173E+02 -0.82434962004E+02  0.11885333513E+03  0.80419002446E+02 0. -1.
<mgrwt>
<rscale>  0 0.85618878E+02</rscale>
<asrwt>0</asrwt>
<pdfrwt beam="1">  1        1 0.16884531E-01 0.85618878E+02</pdfrwt>
<pdfrwt beam="2">  1       -1 0.33766435E-01 0.85618878E+02</pdfrwt>
<totfact> 0.25105473E+03</totfact>
</mgrwt>
</event>
<event>
 4    1  0.5097315E-001  0.1085719E+03  0.7546771E-02  0.1263238E+00
         -2   -1    0    0    0  501 -0.00000000000E+00  0.00000000000E+00  0.36427019176E+02  0.36427019176E+02  0.00000000000E+00 0.  1.
          2   -1    0    0  501    0  0.00000000000E+00 -0.00000000000E+00 -0.39321847572E+03  0.39321847572E+03  0.00000000000E+00 0. -1.
         24    1    1    2    0    0  0.11724766852E+02 -0.71994162359E+02 -0.88005757724E+02  0.13976000472E+03  0.80419002446E+02 0.  1.
        -24    1    1    2    0    0 -0.11724766852E+02  0.71994162359E+02 -0.26878569882E+03  0.28988549017E+03  0.80419002446E+02 0. -1.
<mgrwt>
<rscale>  0 0.10857186E+03</rscale>
<asrwt>0</asrwt>
<pdfrwt beam="1">  1        2 0.60495148E-01 0.10857187E+03</pdfrwt>
<pdfrwt beam="2">  1       -2 0.56041570E-02 0.10857187E+03</pdfrwt>
<totfact> 0.12415153E+04</totfact>
</mgrwt>
</event>
<event>
 4    1  0.5097315E-001  0.2540215E+03  0.7546771E-02  0.1110789E+00
         -1   -1    0    0    0  501 -0.00000000000E+00  0.00000000000E+00  0.34146481182E+02  0.34146481182E+02  0.00000000000E+00 0.  1.
          1   -1    0    0  501    0  0.00000000000E+00 -0.00000000000E+00 -0.19544913376E+04  0.19544913376E+04  0.00000000000E+00 0. -1.
         24    1    1    2    0    0 -0.28779354163E+02 -0.23923094736E+03 -0.77914804447E+03  0.81951118879E+03  0.80419002446E+02 0. -1.
        -24    1    1    2    0    0  0.28779354163E+02  0.23923094736E+03 -0.11411968120E+04  0.11691266300E+04  0.80419002446E+02 0.  1.
<mgrwt>
<rscale>  0 0.25402148E+03</rscale>
<asrwt>0</asrwt>
<pdfrwt beam="1">  1        1 0.30069103E+00 0.25402148E+03</pdfrwt>
<pdfrwt beam="2">  1       -1 0.52533039E-02 0.25402148E+03</pdfrwt>
<totfact> 0.59124560E+02</totfact>
</mgrwt>
</event>
<event>
 4    1  0.5097315E-001  0.8363391E+02  0.7546771E-02  0.1319044E+00
         -3   -1    0    0    0  501 -0.00000000000E+00  0.00000000000E+00  0.80556184207E+03  0.80556184207E+03  0.00000000000E+00 0.  1.
          3   -1    0    0  501    0  0.00000000000E+00 -0.00000000000E+00 -0.22543741376E+03  0.22543741376E+03  0.00000000000E+00 0. -1.
         24    1    1    2    0    0 -0.14678822410E+02 -0.17662031564E+02  0.79553690089E+03  0.79992099098E+03  0.80419002446E+02 0.  1.
        -24    1    1    2    0    0  0.14678822410E+02  0.17662031564E+02 -0.21541247258E+03  0.23107826484E+03  0.80419002446E+02 0. -1.
<mgrwt>
<rscale>  0 0.83633911E+02</rscale>
<asrwt>0</asrwt>
<pdfrwt beam="1">  1        3 0.34682679E-01 0.83633911E+02</pdfrwt>
<pdfrwt beam="2">  1       -3 0.12393259E+00 0.83633911E+02</pdfrwt>
<totfact> 0.10374907E+01</totfact>
</mgrwt>
</event>
<event>
 4    1  0.5097315E-001  0.8225362E+02  0.7546771E-02  0.1322775E+00
          2   -1    0    0  501    0  0.00000000000E+00  0.00000000000E+00  0.14243528959E+04  0.14243528959E+04  0.00000000000E+00 0. -1.
         -2   -1    0    0    0  501 -0.00000000000E+00 -0.00000000000E+00 -0.12717670121E+03  0.12717670121E+03  0.00000000000E+00 0.  1.
         24    1    1    2    0    0  0.63801334493E+01  0.16054163823E+02  0.14097278194E+04  0.14121254133E+04  0.80419002446E+02 0. -1.
        -24    1    1    2    0    0 -0.63801334493E+01 -0.16054163823E+02 -0.11255162470E+03  0.13940418378E+03  0.80419002446E+02 0.  1.
<mgrwt>
<rscale>  0 0.82253621E+02</rscale>
<asrwt>0</asrwt>
<pdfrwt beam="1">  1        2 0.21913120E+00 0.82253621E+02</pdfrwt>
<pdfrwt beam="2">  1       -2 0.19565647E-01 0.82253621E+02</pdfrwt>
<totfact> 0.34550726E+02</totfact>
</mgrwt>
</event>
<event>
 4    1  0.5097315E-001  0.9435482E+02  0.7546771E-02  0.1292636E+00
         -2   -1    0    0    0  501 -0.00000000000E+00  0.00000000000E+00  0.90144516558E+02  0.90144516558E+02  0.00000000000E+00 0.  1.
          2   -1    0    0  501    0  0.00000000000E+00 -0.00000000000E+00 -0.18677903425E+03  0.18677903425E+03  0.00000000000E+00 0. -1.
         24    1    1    2    0    0  0.46588814278E+02  0.16281849823E+02 -0.14336674225E+03  0.17162999442E+03  0.80419002446E+02 0. -1.
        -24    1    1    2    0    0 -0.46588814278E+02 -0.16281849823E+02  0.46732224554E+02  0.10529355638E+03  0.80419002446E+02 0.  1.
<mgrwt>
<rscale>  0 0.94354821E+02</rscale>
<asrwt>0</asrwt>
<pdfrwt beam="1">  1        2 0.28735235E-01 0.94354821E+02</pdfrwt>
<pdfrwt beam="2">  1       -2 0.13868387E-01 0.94354821E+02</pdfrwt>
<totfact> 0.66341977E+03</totfact>
</mgrwt>
</event>
<event>
 4    1  0.5097315E-001  0.9945116E+02  0.7546771E-02  0.1281454E+00
          2   -1    0    0  501    0  0.00000000000E+00  0.00000000000E+00  0.13405336311E+04  0.13405336311E+04  0.00000000000E+00 0. -1.
         -2   -1    0    0    0  501 -0.00000000000E+00 -0.00000000000E+00 -0.75289146138E+01  0.75289146138E+01  0.00000000000E+00 0.  1.
         24    1    1    2    0    0  0.56478893825E+02  0.15279117545E+02  0.76191331155E+03  0.76837648790E+03  0.80419002446E+02 0. -1.
        -24    1    1    2    0    0 -0.56478893825E+02 -0.15279117545E+02  0.57109140489E+03  0.57968605777E+03  0.80419002446E+02 0.  1.
<mgrwt>
<rscale>  0 0.99451158E+02</rscale>
<asrwt>0</asrwt>
<pdfrwt beam="1">  1        2 0.20623575E+00 0.99451158E+02</pdfrwt>
<pdfrwt beam="2">  1       -2 0.11582956E-02 0.99451158E+02</pdfrwt>
<totfact> 0.26785653E+04</totfact>
</mgrwt>
</event>
<event>
 4    1  0.5097315E-001  0.1119657E+03  0.7546771E-02  0.1256972E+00
         -1   -1    0    0    0  501 -0.00000000000E+00  0.00000000000E+00  0.83699752015E+02  0.83699752015E+02  0.00000000000E+00 0.  1.
          1   -1    0    0  501    0  0.00000000000E+00 -0.00000000000E+00 -0.14999316521E+03  0.14999316521E+03  0.00000000000E+00 0. -1.
         24    1    1    2    0    0 -0.71198939757E+02  0.31619763875E+02 -0.37580468410E+02  0.11810421690E+03  0.80419002446E+02 0.  0.
        -24    1    1    2    0    0  0.71198939757E+02 -0.31619763875E+02 -0.28712944789E+02  0.11558870032E+03  0.80419002446E+02 0. -1.
<mgrwt>
<rscale>  0 0.11196570E+03</rscale>
<asrwt>0</asrwt>
<pdfrwt beam="1">  1        1 0.23075871E-01 0.11196571E+03</pdfrwt>
<pdfrwt beam="2">  1       -1 0.12876885E-01 0.11196571E+03</pdfrwt>
<totfact> 0.80942991E+03</totfact>
</mgrwt>
</event>
<event>
 4    1  0.5097315E-001  0.1130946E+03  0.7546771E-02  0.1254944E+00
         -4   -1    0    0    0  501 -0.00000000000E+00  0.00000000000E+00  0.60689371477E+03  0.60689371477E+03  0.00000000000E+00 0.  1.
          4   -1    0    0  501    0  0.00000000000E+00 -0.00000000000E+00 -0.21395347135E+02  0.21395347135E+02  0.00000000000E+00 0. -1.
         24    1    1    2    0    0 -0.71054952326E+02 -0.35698192404E+02  0.25431916009E+03  0.27833184930E+03  0.80419002446E+02 0.  1.
        -24    1    1    2    0    0  0.71054952326E+02  0.35698192404E+02  0.33117920754E+03  0.34995721261E+03  0.80419002446E+02 0. -1.
<mgrwt>
<rscale>  0 0.11309458E+03</rscale>
<asrwt>0</asrwt>
<pdfrwt beam="1">  1        4 0.32915923E-02 0.11309458E+03</pdfrwt>
<pdfrwt beam="2">  1       -4 0.93368251E-01 0.11309458E+03</pdfrwt>
<totfact> 0.74528861E+02</totfact>
</mgrwt>
</event>
<event>
 4    1  0.5097315E-001  0.9703593E+02  0.7546771E-02  0.1286655E+00
         -1   -1    0    0    0  501 -0.00000000000E+00  0.00000000000E+00  0.48264299630E+01  0.48264299630E+01  0.00000000000E+00 0.  1.
          1   -1    0    0  501    0  0.00000000000E+00 -0.00000000000E+00 -0.20521570960E+04  0.20521570960E+04  0.00000000000E+00 0. -1.
         24    1    1    2    0    0 -0.54027927288E+02 -0.54534175590E+01 -0.79522748203E+03  0.80112590822E+03  0.80419002446E+02 0. -1.
        -24    1    1    2    0    0  0.54027927288E+02  0.54534175590E+01 -0.12521031840E+04  0.12558576178E+04  0.80419002446E+02 0.  1.
<mgrwt>
<rscale>  0 0.97035935E+02</rscale>
<asrwt>0</asrwt>
<pdfrwt beam="1">  1        1 0.31571712E+00 0.97035935E+02</pdfrwt>
<pdfrwt beam="2">  1       -1 0.74252618E-03 0.97035935E+02</pdfrwt>
<totfact> 0.87277259E+03</totfact>
</mgrwt>
</event>
<event>
 4    1  0.5097315E-001  0.8536424E+02  0.7546771E-02  0.1314483E+00
          1   -1    0    0  501    0  0.00000000000E+00  0.00000000000E+00  0.32609759327E+03  0.32609759327E+03  0.00000000000E+00 0. -1.
         -1   -1    0    0    0  501 -0.00000000000E+00 -0.00000000000E+00 -0.24771764323E+02  0.24771764323E+02  0.00000000000E+00 0.  1.
         24    1    1    2    0    0  0.26406225350E+02 -0.11070207658E+02  0.95766998164E+02  0.12829018718E+03  0.80419002446E+02 0.  1.
        -24    1    1    2    0    0 -0.26406225350E+02  0.11070207658E+02  0.20555883078E+03  0.22257917041E+03  0.80419002446E+02 0. -1.
<mgrwt>
<rscale>  0 0.85364244E+02</rscale>
<asrwt>0</asrwt>
<pdfrwt beam="1">  1        1 0.50168858E-01 0.85364244E+02</pdfrwt>
<pdfrwt beam="2">  1       -1 0.38110409E-02 0.85364244E+02</pdfrwt>
<totfact> 0.18611997E+04</totfact>
</mgrwt>
</event>
<event>
 4    1  0.5097315E-001  0.8758751E+02  0.7546771E-02  0.1308801E+00
         -3   -1    0    0    0  501 -0.00000000000E+00  0.00000000000E+00  0.11327098298E+03  0.11327098298E+03  0.00000000000E+00 0.  1.
          3   -1    0    0  501    0  0.00000000000E+00 -0.00000000000E+00 -0.26431767522E+03  0.26431767522E+03  0.00000000000E+00 0. -1.
         24    1    1    2    0    0  0.28951423072E+02  0.19135579947E+02  0.87296238311E+02  0.12366165329E+03  0.80419002446E+02 0.  1.
        -24    1    1    2    0    0 -0.28951423072E+02 -0.19135579947E+02 -0.23834293055E+03  0.25392700490E+03  0.80419002446E+02 0. -1.
<mgrwt>
<rscale>  0 0.87587506E+02</rscale>
<asrwt>0</asrwt>
<pdfrwt beam="1">  1        3 0.40664258E-01 0.87587506E+02</pdfrwt>
<pdfrwt beam="2">  1       -3 0.17426305E-01 0.87587506E+02</pdfrwt>
<totfact> 0.37449861E+02</totfact>
</mgrwt>
</event>
<event>
 4    1  0.5097315E-001  0.8094736E+02  0.7546771E-02  0.1326384E+00
          1   -1    0    0  501    0  0.00000000000E+00  0.00000000000E+00  0.47734597737E+02  0.47734597737E+02  0.00000000000E+00 0. -1.
         -1   -1    0    0    0  501 -0.00000000000E+00 -0.00000000000E+00 -0.30531659171E+03  0.30531659171E+03  0.00000000000E+00 0.  1.
         24    1    1    2    0    0  0.75474008072E+01  0.53194590680E+01 -0.25975403846E+03  0.27207468893E+03  0.80419002446E+02 0.  1.
        -24    1    1    2    0    0 -0.75474008072E+01 -0.53194590680E+01  0.21720444945E+01  0.80976500513E+02  0.80419002446E+02 0. -1.
<mgrwt>
<rscale>  0 0.80947365E+02</rscale>
<asrwt>0</asrwt>
<pdfrwt beam="1">  1        1 0.73437841E-02 0.80947365E+02</pdfrwt>
<pdfrwt beam="2">  1       -1 0.46971784E-01 0.80947365E+02</pdfrwt>
<totfact> 0.41615227E+03</totfact>
</mgrwt>
</event>
<event>
 4    1  0.5097315E-001  0.8680069E+02  0.7546771E-02  0.1310790E+00
          2   -1    0    0  501    0  0.00000000000E+00  0.00000000000E+00  0.61974364408E+03  0.61974364408E+03  0.00000000000E+00 0. -1.
         -2   -1    0    0    0  501 -0.00000000000E+00 -0.00000000000E+00 -0.14083407393E+02  0.14083407393E+02  0.00000000000E+00 0.  1.
         24    1    1    2    0    0 -0.11243605213E+02  0.30671231951E+02  0.42003246493E+03  0.42890748499E+03  0.80419002446E+02 0. -1.
        -24    1    1    2    0    0  0.11243605213E+02 -0.30671231951E+02  0.18562777176E+03  0.20491956649E+03  0.80419002446E+02 0.  1.
<mgrwt>
<rscale>  0 0.86800686E+02</rscale>
<asrwt>0</asrwt>
<pdfrwt beam="1">  1        2 0.95345155E-01 0.86800686E+02</pdfrwt>
<pdfrwt beam="2">  1       -2 0.21666785E-02 0.86800686E+02</pdfrwt>
<totfact> 0.29882121E+04</totfact>
</mgrwt>
</event>
<event>
 4    1  0.5097315E-001  0.8998729E+02  0.7546771E-02  0.1302882E+00
         -2   -1    0    0    0  501 -0.00000000000E+00  0.00000000000E+00  0.32444524474E+03  0.32444524474E+03  0.00000000000E+00 0.  1.
          2   -1    0    0  501    0  0.00000000000E+00 -0.00000000000E+00 -0.35396518600E+02  0.35396518600E+02  0.00000000000E+00 0. -1.
         24    1    1    2    0    0  0.17676504119E+02 -0.36304784905E+02  0.46821472991E+02  0.10143945235E+03  0.80419002446E+02 0. -1.
        -24    1    1    2    0    0 -0.17676504119E+02  0.36304784905E+02  0.24222725315E+03  0.25840231099E+03  0.80419002446E+02 0.  1.
<mgrwt>
<rscale>  0 0.89987289E+02</rscale>
<asrwt>0</asrwt>
<pdfrwt beam="1">  1        2 0.54456185E-02 0.89987289E+02</pdfrwt>
<pdfrwt beam="2">  1       -2 0.49914651E-01 0.89987289E+02</pdfrwt>
<totfact> 0.49569754E+03</totfact>
</mgrwt>
</event>
<event>
 4    1  0.5097315E-001  0.8127253E+02  0.7546771E-02  0.1325478E+00
          2   -1    0    0  501    0  0.00000000000E+00  0.00000000000E+00  0.31083976887E+03  0.31083976887E+03  0.00000000000E+00 0. -1.
         -2   -1    0    0    0  501 -0.00000000000E+00 -0.00000000000E+00 -0.21559042780E+02  0.21559042780E+02  0.00000000000E+00 0.  1.
         24    1    1    2    0    0 -0.83381431000E+01  0.82754811040E+01  0.16455155166E+03  0.18352775628E+03  0.80419002446E+02 0.  0.
        -24    1    1    2    0    0  0.83381431000E+01 -0.82754811040E+01  0.12472917443E+03  0.14887105537E+03  0.80419002446E+02 0. -1.
<mgrwt>
<rscale>  0 0.81272530E+02</rscale>
<asrwt>0</asrwt>
<pdfrwt beam="1">  1        2 0.47821500E-01 0.81272530E+02</pdfrwt>
<pdfrwt beam="2">  1       -2 0.33167760E-02 0.81272530E+02</pdfrwt>
<totfact> 0.33455340E+04</totfact>
</mgrwt>
</event>
<event>
 4    1  0.5097315E-001  0.1066694E+03  0.7546771E-02  0.1266865E+00
          3   -1    0    0  501    0  0.00000000000E+00  0.00000000000E+00  0.19627330204E+04  0.19627330204E+04  0.00000000000E+00 0. -1.
         -3   -1    0    0    0  501 -0.00000000000E+00 -0.00000000000E+00 -0.95401281834E+01  0.95401281834E+01  0.00000000000E+00 0.  1.
         24    1    1    2    0    0 -0.60618527594E+02  0.35164424536E+02  0.35891347582E+03  0.37442922125E+03  0.80419002446E+02 0.  1.
        -24    1    1    2    0    0  0.60618527594E+02 -0.35164424536E+02  0.15942794163E+04  0.15978439273E+04  0.80419002446E+02 0. -1.
<mgrwt>
<rscale>  0 0.10666939E+03</rscale>
<asrwt>0</asrwt>
<pdfrwt beam="1">  1        3 0.30195861E+00 0.10666939E+03</pdfrwt>
<pdfrwt beam="2">  1       -3 0.14677136E-02 0.10666939E+03</pdfrwt>
<totfact> 0.15658835E+02</totfact>
</mgrwt>
</event>
<event>
 4    1  0.5097315E-001  0.9396003E+02  0.7546771E-02  0.1293536E+00
          2   -1    0    0  501    0  0.00000000000E+00  0.00000000000E+00  0.25659367437E+04  0.25659367437E+04  0.00000000000E+00 0. -1.
         -2   -1    0    0    0  501 -0.00000000000E+00 -0.00000000000E+00 -0.38959507645E+01  0.38959507645E+01  0.00000000000E+00 0.  1.
         24    1    1    2    0    0  0.47566983076E+02  0.99324688481E+01  0.17202764713E+04  0.17228405688E+04  0.80419002446E+02 0. -1.
        -24    1    1    2    0    0 -0.47566983076E+02 -0.99324688481E+01  0.84176432159E+03  0.84699212563E+03  0.80419002446E+02 0.  1.
<mgrwt>
<rscale>  0 0.93960033E+02</rscale>
<asrwt>0</asrwt>
<pdfrwt beam="1">  1        2 0.39475815E+00 0.93960033E+02</pdfrwt>
<pdfrwt beam="2">  1       -2 0.59937909E-03 0.93960033E+02</pdfrwt>
<totfact> 0.16004605E+04</totfact>
</mgrwt>
</event>
<event>
 4    1  0.5097315E-001  0.1001162E+03  0.7546771E-02  0.1280052E+00
         -2   -1    0    0    0  501 -0.00000000000E+00  0.00000000000E+00  0.23426743412E+02  0.23426743412E+02  0.00000000000E+00 0.  1.
          2   -1    0    0  501    0  0.00000000000E+00 -0.00000000000E+00 -0.55790834696E+03  0.55790834696E+03  0.00000000000E+00 0. -1.
         24    1    1    2    0    0  0.47721689013E+02  0.35758473966E+02 -0.40757911643E+03  0.41969510381E+03  0.80419002446E+02 0. -1.
        -24    1    1    2    0    0 -0.47721689013E+02 -0.35758473966E+02 -0.12690248712E+03  0.16163998656E+03  0.80419002446E+02 0.  1.
<mgrwt>
<rscale>  0 0.10011615E+03</rscale>
<asrwt>0</asrwt>
<pdfrwt beam="1">  1        2 0.85832054E-01 0.10011615E+03</pdfrwt>
<pdfrwt beam="2">  1       -2 0.36041143E-02 0.10011615E+03</pdfrwt>
<totfact> 0.16275386E+04</totfact>
</mgrwt>
</event>
<event>
 4    1  0.5097315E-001  0.9411997E+02  0.7546771E-02  0.1293171E+00
          2   -1    0    0  501    0  0.00000000000E+00  0.00000000000E+00  0.83453394295E+03  0.83453394295E+03  0.00000000000E+00 0. -1.
         -2   -1    0    0    0  501 -0.00000000000E+00 -0.00000000000E+00 -0.11232219549E+02  0.11232219549E+02  0.00000000000E+00 0.  1.
         24    1    1    2    0    0 -0.13612035344E+02  0.46968727659E+02  0.31251910083E+03  0.32638436424E+03  0.80419002446E+02 0.  1.
        -24    1    1    2    0    0  0.13612035344E+02 -0.46968727659E+02  0.51078262257E+03  0.51938179826E+03  0.80419002446E+02 0. -1.
<mgrwt>
<rscale>  0 0.94119961E+02</rscale>
<asrwt>0</asrwt>
<pdfrwt beam="1">  1        2 0.12838979E+00 0.94119973E+02</pdfrwt>
<pdfrwt beam="2">  1       -2 0.17280344E-02 0.94119973E+02</pdfrwt>
<totfact> 0.29353420E+04</totfact>
</mgrwt>
</event>
<event>
 4    1  0.5097315E-001  0.1077412E+03  0.7546771E-02  0.1264811E+00
         -2   -1    0    0    0  501 -0.00000000000E+00  0.00000000000E+00  0.48125090097E+02  0.48125090097E+02  0.00000000000E+00 0.  1.
          2   -1    0    0  501    0  0.00000000000E+00 -0.00000000000E+00 -0.11938423062E+04  0.11938423062E+04  0.00000000000E+00 0. -1.
         24    1    1    2    0    0 -0.34295125378E+02  0.62966597618E+02 -0.11275734565E+04  0.11327091700E+04  0.80419002446E+02 0. -1.
        -24    1    1    2    0    0  0.34295125378E+02 -0.62966597618E+02 -0.18143759565E+02  0.10925822626E+03  0.80419002446E+02 0.  1.
<mgrwt>
<rscale>  0 0.10774119E+03</rscale>
<asrwt>0</asrwt>
<pdfrwt beam="1">  1        2 0.18366803E+00 0.10774119E+03</pdfrwt>
<pdfrwt beam="2">  1       -2 0.74038607E-02 0.10774119E+03</pdfrwt>
<totfact> 0.21342202E+03</totfact>
</mgrwt>
</event>
<event>
 4    1  0.5097315E-001  0.8664779E+02  0.7546771E-02  0.1311179E+00
         -2   -1    0    0    0  501 -0.00000000000E+00  0.00000000000E+00  0.12681592415E+03  0.12681592415E+03  0.00000000000E+00 0.  1.
          2   -1    0    0  501    0  0.00000000000E+00 -0.00000000000E+00 -0.19796250126E+03  0.19796250126E+03  0.00000000000E+00 0. -1.
         24    1    1    2    0    0  0.21330481196E+02  0.24199878770E+02 -0.17152904909E+03  0.19217193915E+03  0.80419002446E+02 0. -1.
        -24    1    1    2    0    0 -0.21330481196E+02 -0.24199878770E+02  0.10038247199E+03  0.13260648626E+03  0.80419002446E+02 0.  1.
<mgrwt>
<rscale>  0 0.86647790E+02</rscale>
<asrwt>0</asrwt>
<pdfrwt beam="1">  1        2 0.30455769E-01 0.86647790E+02</pdfrwt>
<pdfrwt beam="2">  1       -2 0.19510142E-01 0.86647790E+02</pdfrwt>
<totfact> 0.35456338E+03</totfact>
</mgrwt>
</event>
<event>
 4    1  0.5097315E-001  0.2076795E+03  0.7546771E-02  0.1143417E+00
         -2   -1    0    0    0  501 -0.00000000000E+00  0.00000000000E+00  0.14573248358E+03  0.14573248358E+03  0.00000000000E+00 0.  1.
          2   -1    0    0  501    0  0.00000000000E+00 -0.00000000000E+00 -0.95867873700E+03  0.95867873700E+03  0.00000000000E+00 0. -1.
         24    1    1    2    0    0 -0.49822270384E+01 -0.19141244113E+03 -0.86559649414E+03  0.89016181216E+03  0.80419002446E+02 0. -1.
        -24    1    1    2    0    0  0.49822270384E+01  0.19141244113E+03  0.52650240723E+02  0.21424940842E+03  0.80419002446E+02 0.  1.
<mgrwt>
<rscale>  0 0.20767947E+03</rscale>
<asrwt>0</asrwt>
<pdfrwt beam="1">  1        2 0.14748903E+00 0.20767947E+03</pdfrwt>
<pdfrwt beam="2">  1       -2 0.22420383E-01 0.20767947E+03</pdfrwt>
<totfact> 0.48558954E+02</totfact>
</mgrwt>
</event>
<event>
 4    1  0.5097315E-001  0.8675250E+02  0.7546771E-02  0.1310912E+00
          2   -1    0    0  501    0  0.00000000000E+00  0.00000000000E+00  0.10606944160E+04  0.10606944160E+04  0.00000000000E+00 0. -1.
         -2   -1    0    0    0  501 -0.00000000000E+00 -0.00000000000E+00 -0.41647071535E+02  0.41647071535E+02  0.00000000000E+00 0.  1.
         24    1    1    2    0    0  0.13057181197E+02 -0.29804200218E+02  0.10115526420E+04  0.10152658488E+04  0.80419002446E+02 0. -1.
        -24    1    1    2    0    0 -0.13057181197E+02  0.29804200218E+02  0.74947024453E+01  0.87075638674E+02  0.80419002446E+02 0.  1.
<mgrwt>
<rscale>  0 0.86752500E+02</rscale>
<asrwt>0</asrwt>
<pdfrwt beam="1">  1        2 0.16318374E+00 0.86752500E+02</pdfrwt>
<pdfrwt beam="2">  1       -2 0.64072426E-02 0.86752500E+02</pdfrwt>
<totfact> 0.31368755E+03</totfact>
</mgrwt>
</event>
<event>
 4    1  0.5097315E-001  0.9328017E+02  0.7546771E-02  0.1295097E+00
         -2   -1    0    0    0  501 -0.00000000000E+00  0.00000000000E+00  0.10895586835E+02  0.10895586835E+02  0.00000000000E+00 0.  1.
          2   -1    0    0  501    0  0.00000000000E+00 -0.00000000000E+00 -0.10077805838E+04  0.10077805838E+04  0.00000000000E+00 0. -1.
         24    1    1    2    0    0 -0.47254245325E+02  0.10054829096E+01 -0.73049498411E+03  0.73642658321E+03  0.80419002446E+02 0. -1.
        -24    1    1    2    0    0  0.47254245325E+02 -0.10054829096E+01 -0.26639001286E+03  0.28224958743E+03  0.80419002446E+02 0. -1.
<mgrwt>
<rscale>  0 0.93280173E+02</rscale>
<asrwt>0</asrwt>
<pdfrwt beam="1">  1        2 0.15504328E+00 0.93280173E+02</pdfrwt>
<pdfrwt beam="2">  1       -2 0.16762429E-02 0.93280173E+02</pdfrwt>
<totfact> 0.23984584E+04</totfact>
</mgrwt>
</event>
<event>
 4    1  0.5097315E-001  0.8079199E+02  0.7546771E-02  0.1326819E+00
         -1   -1    0    0    0  501 -0.00000000000E+00  0.00000000000E+00  0.10421441085E+02  0.10421441085E+02  0.00000000000E+00 0.  1.
          1   -1    0    0  501    0  0.00000000000E+00 -0.00000000000E+00 -0.70861418031E+03  0.70861418031E+03  0.00000000000E+00 0. -1.
         24    1    1    2    0    0 -0.77208385959E+01 -0.72009285818E+00 -0.22659181666E+03  0.24056433072E+03  0.80419002446E+02 0. -1.
        -24    1    1    2    0    0  0.77208385959E+01  0.72009285818E+00 -0.47160092257E+03  0.47847129068E+03  0.80419002446E+02 0. -1.
<mgrwt>
<rscale>  0 0.80791991E+02</rscale>
<asrwt>0</asrwt>
<pdfrwt beam="1">  1        1 0.10901757E+00 0.80791991E+02</pdfrwt>
<pdfrwt beam="2">  1       -1 0.16032985E-02 0.80791991E+02</pdfrwt>
<totfact> 0.23550244E+04</totfact>
</mgrwt>
</event>
<event>
 4    1  0.5097315E-001  0.8681058E+02  0.7546771E-02  0.1310764E+00
          1   -1    0    0  501    0  0.00000000000E+00  0.00000000000E+00  0.40829245838E+02  0.40829245838E+02  0.00000000000E+00 0. -1.
         -1   -1    0    0    0  501 -0.00000000000E+00 -0.00000000000E+00 -0.19983463869E+03  0.19983463869E+03  0.00000000000E+00 0.  1.
         24    1    1    2    0    0 -0.24488497316E+02 -0.21660348878E+02 -0.46251107871E+02  0.98362788431E+02  0.80419002446E+02 0.  0.
        -24    1    1    2    0    0  0.24488497316E+02  0.21660348878E+02 -0.11275428498E+03  0.14230109610E+03  0.80419002446E+02 0.  0.
<mgrwt>
<rscale>  0 0.86810570E+02</rscale>
<asrwt>0</asrwt>
<pdfrwt beam="1">  1        1 0.62814224E-02 0.86810581E+02</pdfrwt>
<pdfrwt beam="2">  1       -1 0.30743791E-01 0.86810581E+02</pdfrwt>
<totfact> 0.10679872E+04</totfact>
</mgrwt>
</event>
<event>
 4    1  0.5097315E-001  0.8524021E+02  0.7546771E-02  0.1314806E+00
         -1   -1    0    0    0  501 -0.00000000000E+00  0.00000000000E+00  0.50455486509E+01  0.50455486509E+01  0.00000000000E+00 0.  1.
          1   -1    0    0  501    0  0.00000000000E+00 -0.00000000000E+00 -0.24872323675E+04  0.24872323675E+04  0.00000000000E+00 0. -1.
         24    1    1    2    0    0  0.14494801151E+02 -0.24260638410E+02 -0.43252393994E+03  0.44084334226E+03  0.80419002446E+02 0.  1.
        -24    1    1    2    0    0 -0.14494801151E+02  0.24260638410E+02 -0.20496628790E+04  0.20514345739E+04  0.80419002446E+02 0.  1.
<mgrwt>
<rscale>  0 0.85240212E+02</rscale>
<asrwt>0</asrwt>
<pdfrwt beam="1">  1        1 0.38265181E+00 0.85240212E+02</pdfrwt>
<pdfrwt beam="2">  1       -1 0.77623687E-03 0.85240212E+02</pdfrwt>
<totfact> 0.43253638E+03</totfact>
</mgrwt>
</event>
<event>
 4    1  0.5097315E-001  0.8260267E+02  0.7546771E-02  0.1321824E+00
         -1   -1    0    0    0  501 -0.00000000000E+00  0.00000000000E+00  0.44319708267E+01  0.44319708267E+01  0.00000000000E+00 0.  1.
          1   -1    0    0  501    0  0.00000000000E+00 -0.00000000000E+00 -0.15516410806E+04  0.15516410806E+04  0.00000000000E+00 0. -1.
         24    1    1    2    0    0 -0.97042492178E+01  0.16180642077E+02 -0.70489845494E+03  0.70972179998E+03  0.80419002446E+02 0.  1.
        -24    1    1    2    0    0  0.97042492178E+01 -0.16180642077E+02 -0.84231065483E+03  0.84635125144E+03  0.80419002446E+02 0.  0.
<mgrwt>
<rscale>  0 0.82602673E+02</rscale>
<asrwt>0</asrwt>
<pdfrwt beam="1">  1        1 0.23871411E+00 0.82602673E+02</pdfrwt>
<pdfrwt beam="2">  1       -1 0.68184140E-03 0.82602673E+02</pdfrwt>
<totfact> 0.20081534E+04</totfact>
</mgrwt>
</event>
<event>
 4    1  0.5097315E-001  0.1143244E+03  0.7546771E-02  0.1252765E+00
         -1   -1    0    0    0  501 -0.00000000000E+00  0.00000000000E+00  0.85582276944E+02  0.85582276944E+02  0.00000000000E+00 0.  1.
          1   -1    0    0  501    0  0.00000000000E+00 -0.00000000000E+00 -0.15272594858E+03  0.15272594858E+03  0.00000000000E+00 0. -1.
         24    1    1    2    0    0 -0.18861498897E+02 -0.79038596812E+02 -0.34353535914E+02  0.11937435784E+03  0.80419002446E+02 0.  1.
        -24    1    1    2    0    0  0.18861498897E+02  0.79038596812E+02 -0.32790135724E+02  0.11893386768E+03  0.80419002446E+02 0. -1.
<mgrwt>
<rscale>  0 0.11432443E+03</rscale>
<asrwt>0</asrwt>
<pdfrwt beam="1">  1        1 0.23496300E-01 0.11432444E+03</pdfrwt>
<pdfrwt beam="2">  1       -1 0.13166504E-01 0.11432444E+03</pdfrwt>
<totfact> 0.76583808E+03</totfact>
</mgrwt>
</event>
<event>
 4    1  0.5097315E-001  0.8106643E+02  0.7546771E-02  0.1326052E+00
         -2   -1    0    0    0  501 -0.00000000000E+00  0.00000000000E+00  0.13079040978E+02  0.13079040978E+02  0.00000000000E+00 0.  1.
          2   -1    0    0  501    0  0.00000000000E+00 -0.00000000000E+00 -0.58413621343E+03  0.58413621343E+03  0.00000000000E+00 0. -1.
         24    1    1    2    0    0  0.14305791202E+01 -0.10124401691E+02 -0.39718332948E+03  0.40537188264E+03  0.80419002446E+02 0.  0.
        -24    1    1    2    0    0 -0.14305791202E+01  0.10124401691E+02 -0.17387384298E+03  0.19184337177E+03  0.80419002446E+02 0.  1.
<mgrwt>
<rscale>  0 0.81066430E+02</rscale>
<asrwt>0</asrwt>
<pdfrwt beam="1">  1        2 0.89867096E-01 0.81066430E+02</pdfrwt>
<pdfrwt beam="2">  1       -2 0.20121605E-02 0.81066430E+02</pdfrwt>
<totfact> 0.35223519E+04</totfact>
</mgrwt>
</event>
<event>
 4    1  0.5097315E-001  0.8082983E+02  0.7546771E-02  0.1326713E+00
          2   -1    0    0  501    0  0.00000000000E+00  0.00000000000E+00  0.26158886503E+02  0.26158886503E+02  0.00000000000E+00 0. -1.
         -2   -1    0    0    0  501 -0.00000000000E+00 -0.00000000000E+00 -0.33016984470E+03  0.33016984470E+03  0.00000000000E+00 0.  1.
         24    1    1    2    0    0 -0.65357180870E+01  0.48506944670E+01 -0.64081979110E+02  0.10315018589E+03  0.80419002446E+02 0. -1.
        -24    1    1    2    0    0  0.65357180870E+01 -0.48506944670E+01 -0.23992897909E+03  0.25317854532E+03  0.80419002446E+02 0.  0.
<mgrwt>
<rscale>  0 0.80829826E+02</rscale>
<asrwt>0</asrwt>
<pdfrwt beam="1">  1        2 0.40244443E-02 0.80829826E+02</pdfrwt>
<pdfrwt beam="2">  1       -2 0.50795358E-01 0.80829826E+02</pdfrwt>
<totfact> 0.70064786E+03</totfact>
</mgrwt>
</event>
<event>
 4    1  0.5097315E-001  0.1282373E+03  0.7546771E-02  0.1230095E+00
         -2   -1    0    0    0  501 -0.00000000000E+00  0.00000000000E+00  0.10509839606E+02  0.10509839606E+02  0.00000000000E+00 0.  1.
          2   -1    0    0  501    0  0.00000000000E+00 -0.00000000000E+00 -0.28905026380E+04  0.28905026380E+04  0.00000000000E+00 0. -1.
         24    1    1    2    0    0 -0.33448420179E+00  0.99887386170E+02 -0.24223576826E+04  0.24257496903E+04  0.80419002446E+02 0. -1.
        -24    1    1    2    0    0  0.33448420179E+00 -0.99887386170E+02 -0.45763511581E+03  0.47526278728E+03  0.80419002446E+02 0.  1.
<mgrwt>
<rscale>  0 0.12823735E+03</rscale>
<asrwt>0</asrwt>
<pdfrwt beam="1">  1        2 0.44469363E+00 0.12823735E+03</pdfrwt>
<pdfrwt beam="2">  1       -2 0.16168951E-02 0.12823735E+03</pdfrwt>
<totfact> 0.25988312E+03</totfact>
</mgrwt>
</event>
<event>
 4    1  0.5097315E-001  0.1001900E+03  0.7546771E-02  0.1279897E+00
         -1   -1    0    0    0  501 -0.00000000000E+00  0.00000000000E+00  0.11740410000E+03  0.11740410000E+03  0.00000000000E+00 0.  1.
          1   -1    0    0  501    0  0.00000000000E+00 -0.00000000000E+00 -0.18029754015E+03  0.18029754015E+03  0.00000000000E+00 0. -1.
         24    1    1    2    0    0  0.14603215428E+02  0.57944519632E+02  0.76486497838E+02  0.12604848893E+03  0.80419002446E+02 0.  1.
        -24    1    1    2    0    0 -0.14603215428E+02 -0.57944519632E+02 -0.13937993798E+03  0.17165315122E+03  0.80419002446E+02 0. -1.
<mgrwt>
<rscale>  0 0.10019001E+03</rscale>
<asrwt>0</asrwt>
<pdfrwt beam="1">  1        1 0.27738083E-01 0.10019001E+03</pdfrwt>
<pdfrwt beam="2">  1       -1 0.18062169E-01 0.10019001E+03</pdfrwt>
<totfact> 0.37681735E+03</totfact>
</mgrwt>
</event>
<event>
 4    1  0.5097315E-001  0.8256452E+02  0.7546771E-02  0.1321927E+00
          2   -1    0    0  501    0  0.00000000000E+00  0.00000000000E+00  0.38681436633E+03  0.38681436633E+03  0.00000000000E+00 0. -1.
         -2   -1    0    0    0  501 -0.00000000000E+00 -0.00000000000E+00 -0.43565178839E+02  0.43565178839E+02  0.00000000000E+00 0.  1.
         24    1    1    2    0    0 -0.18093910182E+02 -0.47217534041E+01  0.33768020892E+03  0.34762742123E+03  0.80419002446E+02 0. -1.
        -24    1    1    2    0    0  0.18093910182E+02  0.47217534041E+01  0.55689785789E+01  0.82752123946E+02  0.80419002446E+02 0.  1.
<mgrwt>
<rscale>  0 0.82564523E+02</rscale>
<asrwt>0</asrwt>
<pdfrwt beam="1">  1        2 0.59509900E-01 0.82564523E+02</pdfrwt>
<pdfrwt beam="2">  1       -2 0.67023354E-02 0.82564523E+02</pdfrwt>
<totfact> 0.94305671E+03</totfact>
</mgrwt>
</event>
<event>
 4    1  0.5097315E-001  0.8468394E+02  0.7546771E-02  0.1316261E+00
         -2   -1    0    0    0  501 -0.00000000000E+00  0.00000000000E+00  0.50334177039E+03  0.50334177039E+03  0.00000000000E+00 0.  1.
          2   -1    0    0  501    0  0.00000000000E+00 -0.00000000000E+00 -0.14777497503E+02  0.14777497503E+02  0.00000000000E+00 0. -1.
         24    1    1    2    0    0 -0.13382389082E+02  0.22914303456E+02  0.19522186725E+03  0.21279790188E+03  0.80419002446E+02 0. -1.
        -24    1    1    2    0    0  0.13382389082E+02 -0.22914303456E+02  0.29334240564E+03  0.30532136601E+03  0.80419002446E+02 0.  1.
<mgrwt>
<rscale>  0 0.84683939E+02</rscale>
<asrwt>0</asrwt>
<pdfrwt beam="1">  1        2 0.22734615E-02 0.84683939E+02</pdfrwt>
<pdfrwt beam="2">  1       -2 0.77437182E-01 0.84683939E+02</pdfrwt>
<totfact> 0.62994729E+03</totfact>
</mgrwt>
</event>
<event>
 4    1  0.5097315E-001  0.1153134E+03  0.7546771E-02  0.1251035E+00
          2   -1    0    0  501    0  0.00000000000E+00  0.00000000000E+00  0.13216621925E+04  0.13216621925E+04  0.00000000000E+00 0. -1.
         -2   -1    0    0    0  501 -0.00000000000E+00 -0.00000000000E+00 -0.12514177087E+02  0.12514177087E+02  0.00000000000E+00 0.  1.
         24    1    1    2    0    0 -0.86763215293E+01  0.82186836588E+02  0.35921418453E+03  0.37726913601E+03  0.80419002446E+02 0.  0.
        -24    1    1    2    0    0  0.86763215293E+01 -0.82186836588E+02  0.94993383086E+03  0.95690723356E+03  0.80419002446E+02 0.  0.
<mgrwt>
<rscale>  0 0.11531337E+03</rscale>
<asrwt>0</asrwt>
<pdfrwt beam="1">  1        2 0.20333253E+00 0.11531339E+03</pdfrwt>
<pdfrwt beam="2">  1       -2 0.19252591E-02 0.11531339E+03</pdfrwt>
<totfact> 0.13370404E+04</totfact>
</mgrwt>
</event>
<event>
 4    1  0.5097315E-001  0.1245917E+03  0.7546771E-02  0.1235709E+00
          1   -1    0    0  501    0  0.00000000000E+00  0.00000000000E+00  0.16690287917E+04  0.16690287917E+04  0.00000000000E+00 0. -1.
         -1   -1    0    0    0  501 -0.00000000000E+00 -0.00000000000E+00 -0.31218701298E+02  0.31218701298E+02  0.00000000000E+00 0.  1.
         24    1    1    2    0    0  0.76583577608E+02  0.56487479847E+02  0.10658454186E+03  0.16396145967E+03  0.80419002446E+02 0.  1.
        -24    1    1    2    0    0 -0.76583577608E+02 -0.56487479847E+02  0.15312255485E+04  0.15362860333E+04  0.80419002446E+02 0. -1.
<mgrwt>
<rscale>  0 0.12459172E+03</rscale>
<asrwt>0</asrwt>
<pdfrwt beam="1">  1        1 0.25677359E+00 0.12459172E+03</pdfrwt>
<pdfrwt beam="2">  1       -1 0.48028784E-02 0.12459172E+03</pdfrwt>
<totfact> 0.10488132E+03</totfact>
</mgrwt>
</event>
<event>
 4    1  0.5097315E-001  0.1533319E+03  0.7546771E-02  0.1196438E+00
          2   -1    0    0  501    0  0.00000000000E+00  0.00000000000E+00  0.45995494160E+04  0.45995494160E+04  0.00000000000E+00 0. -1.
         -2   -1    0    0    0  501 -0.00000000000E+00 -0.00000000000E+00 -0.51442390354E+01  0.51442390354E+01  0.00000000000E+00 0.  1.
         24    1    1    2    0    0  0.21628528815E+02 -0.12874647368E+03  0.21135712990E+04  0.21191258339E+04  0.80419002446E+02 0. -1.
        -24    1    1    2    0    0 -0.21628528815E+02  0.12874647368E+03  0.24808338779E+04  0.24855678211E+04  0.80419002446E+02 0.  1.
<mgrwt>
<rscale>  0 0.15333189E+03</rscale>
<asrwt>0</asrwt>
<pdfrwt beam="1">  1        2 0.70761970E+00 0.15333191E+03</pdfrwt>
<pdfrwt beam="2">  1       -2 0.79142507E-03 0.15333191E+03</pdfrwt>
<totfact> 0.43138907E+02</totfact>
</mgrwt>
</event>
<event>
 4    1  0.5097315E-001  0.9737771E+02  0.7546771E-02  0.1285909E+00
          2   -1    0    0  501    0  0.00000000000E+00  0.00000000000E+00  0.72459514517E+03  0.72459514517E+03  0.00000000000E+00 0. -1.
         -2   -1    0    0    0  501 -0.00000000000E+00 -0.00000000000E+00 -0.17152139946E+02  0.17152139946E+02  0.00000000000E+00 0.  1.
         24    1    1    2    0    0 -0.41690848228E+02  0.35736182242E+02  0.53428544996E+03  0.54308688028E+03  0.80419002446E+02 0. -1.
        -24    1    1    2    0    0  0.41690848228E+02 -0.35736182242E+02  0.17315755526E+03  0.19866040483E+03  0.80419002446E+02 0.  1.
<mgrwt>
<rscale>  0 0.97377705E+02</rscale>
<asrwt>0</asrwt>
<pdfrwt beam="1">  1        2 0.11147615E+00 0.97377705E+02</pdfrwt>
<pdfrwt beam="2">  1       -2 0.26387913E-02 0.97377705E+02</pdfrwt>
<totfact> 0.18986845E+04</totfact>
</mgrwt>
</event>
<event>
 4    1  0.5097315E-001  0.1352525E+03  0.7546771E-02  0.1219864E+00
         -2   -1    0    0    0  501 -0.00000000000E+00  0.00000000000E+00  0.10388450379E+02  0.10388450379E+02  0.00000000000E+00 0.  1.
          2   -1    0    0  501    0  0.00000000000E+00 -0.00000000000E+00 -0.19459044221E+04  0.19459044221E+04  0.00000000000E+00 0. -1.
         24    1    1    2    0    0  0.10256499276E+03 -0.36144881764E+02 -0.12693423909E+04  0.12765278499E+04  0.80419002446E+02 0. -1.
        -24    1    1    2    0    0 -0.10256499276E+03  0.36144881764E+02 -0.66617358084E+03  0.67976502263E+03  0.80419002446E+02 0.  1.
<mgrwt>
<rscale>  0 0.13525253E+03</rscale>
<asrwt>0</asrwt>
<pdfrwt beam="1">  1        2 0.29936996E+00 0.13525253E+03</pdfrwt>
<pdfrwt beam="2">  1       -2 0.15982229E-02 0.13525253E+03</pdfrwt>
<totfact> 0.83970378E+03</totfact>
</mgrwt>
</event>
<event>
 4    1  0.5097315E-001  0.8411023E+02  0.7546771E-02  0.1317776E+00
         -1   -1    0    0    0  501 -0.00000000000E+00  0.00000000000E+00  0.12583472119E+02  0.12583472119E+02  0.00000000000E+00 0.  1.
          1   -1    0    0  501    0  0.00000000000E+00 -0.00000000000E+00 -0.64857330756E+03  0.64857330756E+03  0.00000000000E+00 0. -1.
         24    1    1    2    0    0  0.26067810922E+01 -0.24505508944E+02 -0.19736248683E+03  0.21453783452E+03  0.80419002446E+02 0.  0.
        -24    1    1    2    0    0 -0.26067810922E+01  0.24505508944E+02 -0.43862734860E+03  0.44661894516E+03  0.80419002446E+02 0.  1.
<mgrwt>
<rscale>  0 0.84110233E+02</rscale>
<asrwt>0</asrwt>
<pdfrwt beam="1">  1        1 0.99780522E-01 0.84110233E+02</pdfrwt>
<pdfrwt beam="2">  1       -1 0.19359185E-02 0.84110233E+02</pdfrwt>
<totfact> 0.20458079E+04</totfact>
</mgrwt>
</event>
<event>
 4    1  0.5097315E-001  0.8171595E+02  0.7546771E-02  0.1324251E+00
         -2   -1    0    0    0  501 -0.00000000000E+00  0.00000000000E+00  0.86777097136E+01  0.86777097136E+01  0.00000000000E+00 0.  1.
          2   -1    0    0  501    0  0.00000000000E+00 -0.00000000000E+00 -0.17732925271E+04  0.17732925271E+04  0.00000000000E+00 0. -1.
         24    1    1    2    0    0  0.12345600590E+02 -0.76070540232E+01 -0.15526583925E+04  0.15548072488E+04  0.80419002446E+02 0. -1.
        -24    1    1    2    0    0 -0.12345600590E+02  0.76070540232E+01 -0.21195642491E+03  0.22716298805E+03  0.80419002446E+02 0.  1.
<mgrwt>
<rscale>  0 0.81715954E+02</rscale>
<asrwt>0</asrwt>
<pdfrwt beam="1">  1        2 0.27281428E+00 0.81715954E+02</pdfrwt>
<pdfrwt beam="2">  1       -2 0.13350321E-02 0.81715954E+02</pdfrwt>
<totfact> 0.13002833E+04</totfact>
</mgrwt>
</event>
<event>
 4    1  0.5097315E-001  0.8595975E+02  0.7546771E-02  0.1312942E+00
          2   -1    0    0  501    0  0.00000000000E+00  0.00000000000E+00  0.23360216572E+04  0.23360216572E+04  0.00000000000E+00 0. -1.
         -2   -1    0    0    0  501 -0.00000000000E+00 -0.00000000000E+00 -0.41022338279E+01  0.41022338279E+01  0.00000000000E+00 0.  1.
         24    1    1    2    0    0 -0.58137599727E+01 -0.29800313559E+02  0.60612224335E+03  0.61218726574E+03  0.80419002446E+02 0.  0.
        -24    1    1    2    0    0  0.58137599727E+01  0.29800313559E+02  0.17257971801E+04  0.17279366253E+04  0.80419002446E+02 0.  0.
<mgrwt>
<rscale>  0 0.85959736E+02</rscale>
<asrwt>0</asrwt>
<pdfrwt beam="1">  1        2 0.35938688E+00 0.85959747E+02</pdfrwt>
<pdfrwt beam="2">  1       -2 0.63111476E-03 0.85959747E+02</pdfrwt>
<totfact> 0.19539470E+04</totfact>
</mgrwt>
</event>
<event>
 4    1  0.5097315E-001  0.1163458E+03  0.7546771E-02  0.1249250E+00
          2   -1    0    0  501    0  0.00000000000E+00  0.00000000000E+00  0.13415395778E+04  0.13415395778E+04  0.00000000000E+00 0. -1.
         -2   -1    0    0    0  501 -0.00000000000E+00 -0.00000000000E+00 -0.10306856086E+02  0.10306856086E+02  0.00000000000E+00 0.  1.
         24    1    1    2    0    0  0.79160092018E+02 -0.28333751503E+02  0.76362588912E+03  0.77243824099E+03  0.80419002446E+02 0. -1.
        -24    1    1    2    0    0 -0.79160092018E+02  0.28333751503E+02  0.56760683258E+03  0.57940819289E+03  0.80419002446E+02 0.  1.
<mgrwt>
<rscale>  0 0.11634577E+03</rscale>
<asrwt>0</asrwt>
<pdfrwt beam="1">  1        2 0.20639057E+00 0.11634577E+03</pdfrwt>
<pdfrwt beam="2">  1       -2 0.15856712E-02 0.11634577E+03</pdfrwt>
<totfact> 0.17268567E+04</totfact>
</mgrwt>
</event>
<event>
 4    1  0.5097315E-001  0.8679425E+02  0.7546771E-02  0.1310806E+00
         -2   -1    0    0    0  501 -0.00000000000E+00  0.00000000000E+00  0.51481708404E+01  0.51481708404E+01  0.00000000000E+00 0.  1.
          2   -1    0    0  501    0  0.00000000000E+00 -0.00000000000E+00 -0.26621578629E+04  0.26621578629E+04  0.00000000000E+00 0. -1.
         24    1    1    2    0    0  0.32514482091E+02  0.29723246487E+01 -0.22234830883E+04  0.22251764618E+04  0.80419002446E+02 0. -1.
        -24    1    1    2    0    0 -0.32514482091E+02 -0.29723246487E+01 -0.43352660383E+03  0.44212957201E+03  0.80419002446E+02 0.  1.
<mgrwt>
<rscale>  0 0.86794252E+02</rscale>
<asrwt>0</asrwt>
<pdfrwt beam="1">  1        2 0.40956326E+00 0.86794252E+02</pdfrwt>
<pdfrwt beam="2">  1       -2 0.79202529E-03 0.86794252E+02</pdfrwt>
<totfact> 0.95827111E+03</totfact>
</mgrwt>
</event>
<event>
 4    1  0.5097315E-001  0.8843383E+02  0.7546771E-02  0.1306689E+00
          2   -1    0    0  501    0  0.00000000000E+00  0.00000000000E+00  0.20374331518E+04  0.20374331518E+04  0.00000000000E+00 0. -1.
         -2   -1    0    0    0  501 -0.00000000000E+00 -0.00000000000E+00 -0.38932106136E+01  0.38932106136E+01  0.00000000000E+00 0.  1.
         24    1    1    2    0    0 -0.36761198542E+02 -0.13918871284E+01  0.89569547568E+03  0.90005051201E+03  0.80419002446E+02 0. -1.
        -24    1    1    2    0    0  0.36761198542E+02  0.13918871284E+01  0.11378444655E+04  0.11412758504E+04  0.80419002446E+02 0.  1.
<mgrwt>
<rscale>  0 0.88433823E+02</rscale>
<asrwt>0</asrwt>
<pdfrwt beam="1">  1        2 0.31345040E+00 0.88433834E+02</pdfrwt>
<pdfrwt beam="2">  1       -2 0.59895711E-03 0.88433834E+02</pdfrwt>
<totfact> 0.29860131E+04</totfact>
</mgrwt>
</event>
<event>
 4    1  0.5097315E-001  0.8089633E+02  0.7546771E-02  0.1326527E+00
         -4   -1    0    0    0  501 -0.00000000000E+00  0.00000000000E+00  0.68859422005E+02  0.68859422005E+02  0.00000000000E+00 0.  1.
          4   -1    0    0  501    0  0.00000000000E+00 -0.00000000000E+00 -0.10384104140E+03  0.10384104140E+03  0.00000000000E+00 0. -1.
         24    1    1    2    0    0 -0.54652552477E+01 -0.68649888483E+01  0.76519421741E+01  0.81257401264E+02  0.80419002446E+02 0.  1.
        -24    1    1    2    0    0  0.54652552477E+01  0.68649888483E+01 -0.42633561566E+02  0.91443062137E+02  0.80419002446E+02 0.  0.
<mgrwt>
<rscale>  0 0.80896321E+02</rscale>
<asrwt>0</asrwt>
<pdfrwt beam="1">  1        4 0.15975545E-01 0.80896331E+02</pdfrwt>
<pdfrwt beam="2">  1       -4 0.10593757E-01 0.80896331E+02</pdfrwt>
<totfact> 0.33149283E+03</totfact>
</mgrwt>
</event>
<event>
 4    1  0.5097315E-001  0.9158297E+02  0.7546771E-02  0.1299063E+00
         -1   -1    0    0    0  501 -0.00000000000E+00  0.00000000000E+00  0.89892402671E+02  0.89892402671E+02  0.00000000000E+00 0.  1.
          1   -1    0    0  501    0  0.00000000000E+00 -0.00000000000E+00 -0.10549631485E+03  0.10549631485E+03  0.00000000000E+00 0. -1.
         24    1    1    2    0    0  0.30382023950E+02  0.31577804689E+02  0.25408136148E+02  0.95042172035E+02  0.80419002446E+02 0.  1.
        -24    1    1    2    0    0 -0.30382023950E+02 -0.31577804689E+02 -0.41012048324E+02  0.10034654548E+03  0.80419002446E+02 0. -1.
<mgrwt>
<rscale>  0 0.91582974E+02</rscale>
<asrwt>0</asrwt>
<pdfrwt beam="1">  1        1 0.16230202E-01 0.91582974E+02</pdfrwt>
<pdfrwt beam="2">  1       -1 0.13829600E-01 0.91582974E+02</pdfrwt>
<totfact> 0.11109713E+04</totfact>
</mgrwt>
</event>
<event>
 4    1  0.5097315E-001  0.9116305E+02  0.7546771E-02  0.1300059E+00
         -2   -1    0    0    0  501 -0.00000000000E+00  0.00000000000E+00  0.81055570839E+02  0.81055570839E+02  0.00000000000E+00 0.  1.
          2   -1    0    0  501    0  0.00000000000E+00 -0.00000000000E+00 -0.67417859591E+03  0.67417859591E+03  0.00000000000E+00 0. -1.
         24    1    1    2    0    0 -0.19718070211E+02 -0.38140301238E+02 -0.64428047986E+03  0.65069811553E+03  0.80419002446E+02 0. -1.
        -24    1    1    2    0    0  0.19718070211E+02  0.38140301238E+02  0.51157454783E+02  0.10453605122E+03  0.80419002446E+02 0.  1.
<mgrwt>
<rscale>  0 0.91163045E+02</rscale>
<asrwt>0</asrwt>
<pdfrwt beam="1">  1        2 0.10371978E+00 0.91163045E+02</pdfrwt>
<pdfrwt beam="2">  1       -2 0.12470088E-01 0.91163045E+02</pdfrwt>
<totfact> 0.19879896E+03</totfact>
</mgrwt>
</event>
<event>
 4    1  0.5097315E-001  0.8865661E+02  0.7546771E-02  0.1306138E+00
         -2   -1    0    0    0  501 -0.00000000000E+00  0.00000000000E+00  0.20669572114E+02  0.20669572114E+02  0.00000000000E+00 0.  1.
          2   -1    0    0  501    0  0.00000000000E+00 -0.00000000000E+00 -0.47137956595E+03  0.47137956595E+03  0.00000000000E+00 0. -1.
         24    1    1    2    0    0 -0.16301998970E+02  0.33571172808E+02 -0.33351776492E+03  0.34510012212E+03  0.80419002446E+02 0. -1.
        -24    1    1    2    0    0  0.16301998970E+02 -0.33571172808E+02 -0.11719222891E+03  0.14694901594E+03  0.80419002446E+02 0.  1.
<mgrwt>
<rscale>  0 0.88656612E+02</rscale>
<asrwt>0</asrwt>
<pdfrwt beam="1">  1        2 0.72519925E-01 0.88656612E+02</pdfrwt>
<pdfrwt beam="2">  1       -2 0.31799345E-02 0.88656612E+02</pdfrwt>
<totfact> 0.23201156E+04</totfact>
</mgrwt>
</event>
<event>
 4    1  0.5097315E-001  0.1090508E+03  0.7546771E-02  0.1262338E+00
          1   -1    0    0  501    0  0.00000000000E+00  0.00000000000E+00  0.33013663904E+03  0.33013663904E+03  0.00000000000E+00 0. -1.
         -1   -1    0    0    0  501 -0.00000000000E+00 -0.00000000000E+00 -0.62475408111E+02  0.62475408111E+02  0.00000000000E+00 0.  1.
         24    1    1    2    0    0  0.62281387999E+02  0.39317758197E+02  0.60918858263E+01  0.10922080584E+03  0.80419002446E+02 0.  1.
        -24    1    1    2    0    0 -0.62281387999E+02 -0.39317758197E+02  0.26156934510E+03  0.28339124131E+03  0.80419002446E+02 0. -1.
<mgrwt>
<rscale>  0 0.10905078E+03</rscale>
<asrwt>0</asrwt>
<pdfrwt beam="1">  1        1 0.50790251E-01 0.10905078E+03</pdfrwt>
<pdfrwt beam="2">  1       -1 0.96116014E-02 0.10905078E+03</pdfrwt>
<totfact> 0.47680932E+03</totfact>
</mgrwt>
</event>
<event>
 4    1  0.5097315E-001  0.2870153E+03  0.7546771E-02  0.1091918E+00
          2   -1    0    0  501    0  0.00000000000E+00  0.00000000000E+00  0.21873893870E+04  0.21873893870E+04  0.00000000000E+00 0. -1.
         -2   -1    0    0    0  501 -0.00000000000E+00 -0.00000000000E+00 -0.38007645500E+02  0.38007645500E+02  0.00000000000E+00 0.  1.
         24    1    1    2    0    0  0.11364770328E+03 -0.25098756490E+03  0.11810594247E+04  0.12154337246E+04  0.80419002446E+02 0.  0.
        -24    1    1    2    0    0 -0.11364770328E+03  0.25098756490E+03  0.96832231676E+03  0.10099633079E+04  0.80419002446E+02 0.  1.
<mgrwt>
<rscale>  0 0.28701529E+03</rscale>
<asrwt>0</asrwt>
<pdfrwt beam="1">  1        2 0.33652135E+00 0.28701529E+03</pdfrwt>
<pdfrwt beam="2">  1       -2 0.58473318E-02 0.28701529E+03</pdfrwt>
<totfact> 0.90879330E+02</totfact>
</mgrwt>
</event>
<event>
 4    1  0.5097315E-001  0.9489263E+02  0.7546771E-02  0.1291418E+00
         -1   -1    0    0    0  501 -0.00000000000E+00  0.00000000000E+00  0.14468944366E+02  0.14468944366E+02  0.00000000000E+00 0.  1.
          1   -1    0    0  501    0  0.00000000000E+00 -0.00000000000E+00 -0.62236660711E+03  0.62236660711E+03  0.00000000000E+00 0. -1.
         24    1    1    2    0    0  0.68695903310E+01  0.49901901188E+02 -0.30601959421E+03  0.32039444285E+03  0.80419002446E+02 0.  1.
        -24    1    1    2    0    0 -0.68695903310E+01 -0.49901901188E+02 -0.30187806853E+03  0.31644110862E+03  0.80419002446E+02 0. -1.
<mgrwt>
<rscale>  0 0.94892619E+02</rscale>
<asrwt>0</asrwt>
<pdfrwt beam="1">  1        1 0.95748674E-01 0.94892631E+02</pdfrwt>
<pdfrwt beam="2">  1       -1 0.22259923E-02 0.94892631E+02</pdfrwt>
<totfact> 0.17938403E+04</totfact>
</mgrwt>
</event>
<event>
 4    1  0.5097315E-001  0.8055653E+02  0.7546771E-02  0.1327479E+00
         -2   -1    0    0    0  501 -0.00000000000E+00  0.00000000000E+00  0.41429134083E+01  0.41429134083E+01  0.00000000000E+00 0.  1.
          2   -1    0    0  501    0  0.00000000000E+00 -0.00000000000E+00 -0.16002128499E+04  0.16002128499E+04  0.00000000000E+00 0. -1.
         24    1    1    2    0    0 -0.40649119719E+01 -0.23690828714E+01 -0.68138373368E+03  0.68612910195E+03  0.80419002446E+02 0.  1.
        -24    1    1    2    0    0  0.40649119719E+01  0.23690828714E+01 -0.91468620279E+03  0.91822666134E+03  0.80419002446E+02 0.  0.
<mgrwt>
<rscale>  0 0.80556525E+02</rscale>
<asrwt>0</asrwt>
<pdfrwt beam="1">  1        2 0.24618661E+00 0.80556535E+02</pdfrwt>
<pdfrwt beam="2">  1       -2 0.63737124E-03 0.80556535E+02</pdfrwt>
<totfact> 0.44949694E+04</totfact>
</mgrwt>
</event>
<event>
 4    1  0.5097315E-001  0.8989465E+02  0.7546771E-02  0.1303107E+00
         -2   -1    0    0    0  501 -0.00000000000E+00  0.00000000000E+00  0.31724576529E+03  0.31724576529E+03  0.00000000000E+00 0.  1.
          2   -1    0    0  501    0  0.00000000000E+00 -0.00000000000E+00 -0.28815935998E+02  0.28815935998E+02  0.00000000000E+00 0. -1.
         24    1    1    2    0    0 -0.39637137821E+02 -0.65367767427E+01  0.85275938045E+02  0.12390735938E+03  0.80419002446E+02 0. -1.
        -24    1    1    2    0    0  0.39637137821E+02  0.65367767427E+01  0.20315389125E+03  0.22215434191E+03  0.80419002446E+02 0.  1.
<mgrwt>
<rscale>  0 0.89894650E+02</rscale>
<asrwt>0</asrwt>
<pdfrwt beam="1">  1        2 0.44332211E-02 0.89894650E+02</pdfrwt>
<pdfrwt beam="2">  1       -2 0.48807038E-01 0.89894650E+02</pdfrwt>
<totfact> 0.67534301E+03</totfact>
</mgrwt>
</event>
<event>
 4    1  0.5097315E-001  0.9328160E+02  0.7546771E-02  0.1295094E+00
         -2   -1    0    0    0  501 -0.00000000000E+00  0.00000000000E+00  0.26835767224E+03  0.26835767224E+03  0.00000000000E+00 0.  1.
          2   -1    0    0  501    0  0.00000000000E+00 -0.00000000000E+00 -0.34257933454E+02  0.34257933454E+02  0.00000000000E+00 0. -1.
         24    1    1    2    0    0 -0.46857985802E+02  0.62104953143E+01  0.82049553507E+02  0.12423198570E+03  0.80419002446E+02 0.  1.
        -24    1    1    2    0    0  0.46857985802E+02 -0.62104953143E+01  0.15205018528E+03  0.17838362000E+03  0.80419002446E+02 0.  0.
<mgrwt>
<rscale>  0 0.93281601E+02</rscale>
<asrwt>0</asrwt>
<pdfrwt beam="1">  1        2 0.52704515E-02 0.93281601E+02</pdfrwt>
<pdfrwt beam="2">  1       -2 0.41285794E-01 0.93281601E+02</pdfrwt>
<totfact> 0.74732017E+03</totfact>
</mgrwt>
</event>
<event>
 4    1  0.5097315E-001  0.8869979E+02  0.7546771E-02  0.1306031E+00
          2   -1    0    0  501    0  0.00000000000E+00  0.00000000000E+00  0.78880424171E+02  0.78880424171E+02  0.00000000000E+00 0. -1.
         -2   -1    0    0    0  501 -0.00000000000E+00 -0.00000000000E+00 -0.10254210193E+03  0.10254210193E+03  0.00000000000E+00 0.  1.
         24    1    1    2    0    0  0.13590771236E+02  0.34867227704E+02 -0.26822128174E+02  0.92666472603E+02  0.80419002446E+02 0.  0.
        -24    1    1    2    0    0 -0.13590771236E+02 -0.34867227704E+02  0.31604504183E+01  0.88756053494E+02  0.80419002446E+02 0.  0.
<mgrwt>
<rscale>  0 0.88699778E+02</rscale>
<asrwt>0</asrwt>
<pdfrwt beam="1">  1        2 0.12135450E-01 0.88699789E+02</pdfrwt>
<pdfrwt beam="2">  1       -2 0.15775708E-01 0.88699789E+02</pdfrwt>
<totfact> 0.14158864E+04</totfact>
</mgrwt>
</event>
<event>
 4    1  0.5097315E-001  0.1240715E+03  0.7546771E-02  0.1236528E+00
         -2   -1    0    0    0  501 -0.00000000000E+00  0.00000000000E+00  0.10922481448E+04  0.10922481448E+04  0.00000000000E+00 0.  1.
          2   -1    0    0  501    0  0.00000000000E+00 -0.00000000000E+00 -0.19268718738E+02  0.19268718738E+02  0.00000000000E+00 0. -1.
         24    1    1    2    0    0 -0.53266351671E+02 -0.78033369224E+02  0.24847206947E+03  0.27772665734E+03  0.80419002446E+02 0.  0.
        -24    1    1    2    0    0  0.53266351671E+02  0.78033369224E+02  0.82450735661E+03  0.83379020622E+03  0.80419002446E+02 0.  1.
<mgrwt>
<rscale>  0 0.12407146E+03</rscale>
<asrwt>0</asrwt>
<pdfrwt beam="1">  1        2 0.29644191E-02 0.12407146E+03</pdfrwt>
<pdfrwt beam="2">  1       -2 0.16803813E+00 0.12407146E+03</pdfrwt>
<totfact> 0.72429204E+02</totfact>
</mgrwt>
</event>
<event>
 4    1  0.5097315E-001  0.8550560E+02  0.7546771E-02  0.1314116E+00
         -1   -1    0    0    0  501 -0.00000000000E+00  0.00000000000E+00  0.19866851978E+03  0.19866851978E+03  0.00000000000E+00 0.  1.
          1   -1    0    0  501    0  0.00000000000E+00 -0.00000000000E+00 -0.14756377184E+03  0.14756377184E+03  0.00000000000E+00 0. -1.
         24    1    1    2    0    0 -0.24411998918E+02  0.15749454330E+02  0.17553623926E+03  0.19525413761E+03  0.80419002446E+02 0.  1.
        -24    1    1    2    0    0  0.24411998918E+02 -0.15749454330E+02 -0.12443149133E+03  0.15097815402E+03  0.80419002446E+02 0. -1.
<mgrwt>
<rscale>  0 0.85505596E+02</rscale>
<asrwt>0</asrwt>
<pdfrwt beam="1">  1        1 0.22702119E-01 0.85505596E+02</pdfrwt>
<pdfrwt beam="2">  1       -1 0.30564388E-01 0.85505596E+02</pdfrwt>
<totfact> 0.20457229E+03</totfact>
</mgrwt>
</event>
<event>
 4    1  0.5097315E-001  0.9272912E+02  0.7546771E-02  0.1296374E+00
          2   -1    0    0  501    0  0.00000000000E+00  0.00000000000E+00  0.13256972136E+04  0.13256972136E+04  0.00000000000E+00 0. -1.
         -2   -1    0    0    0  501 -0.00000000000E+00 -0.00000000000E+00 -0.30545172406E+02  0.30545172406E+02  0.00000000000E+00 0.  1.
         24    1    1    2    0    0  0.23349395620E+02 -0.39828130578E+02  0.12494074781E+04  0.12528438596E+04  0.80419002446E+02 0. -1.
        -24    1    1    2    0    0 -0.23349395620E+02  0.39828130578E+02  0.45744563146E+02  0.10339852645E+03  0.80419002446E+02 0.  1.
<mgrwt>
<rscale>  0 0.92729123E+02</rscale>
<asrwt>0</asrwt>
<pdfrwt beam="1">  1        2 0.20395337E+00 0.92729123E+02</pdfrwt>
<pdfrwt beam="2">  1       -2 0.46992583E-02 0.92729123E+02</pdfrwt>
<totfact> 0.35799450E+03</totfact>
</mgrwt>
</event>
<event>
 4    1  0.5097315E-001  0.8335404E+02  0.7546771E-02  0.1319794E+00
         -1   -1    0    0    0  501 -0.00000000000E+00  0.00000000000E+00  0.76449700484E+03  0.76449700484E+03  0.00000000000E+00 0.  1.
          1   -1    0    0  501    0  0.00000000000E+00 -0.00000000000E+00 -0.11630508677E+02  0.11630508677E+02  0.00000000000E+00 0. -1.
         24    1    1    2    0    0 -0.20626794637E+02  0.74307281182E+01  0.55786716067E+03  0.56405998377E+03  0.80419002446E+02 0.  1.
        -24    1    1    2    0    0  0.20626794637E+02 -0.74307281182E+01  0.19499933549E+03  0.21206752975E+03  0.80419002446E+02 0. -1.
<mgrwt>
<rscale>  0 0.83354042E+02</rscale>
<asrwt>0</asrwt>
<pdfrwt beam="1">  1        1 0.17893096E-02 0.83354042E+02</pdfrwt>
<pdfrwt beam="2">  1       -1 0.11761488E+00 0.83354042E+02</pdfrwt>
<totfact> 0.45174589E+03</totfact>
</mgrwt>
</event>
<event>
 4    1  0.5097315E-001  0.9360374E+02  0.7546771E-02  0.1294352E+00
         -1   -1    0    0    0  501 -0.00000000000E+00  0.00000000000E+00  0.17428584459E+02  0.17428584459E+02  0.00000000000E+00 0.  1.
          1   -1    0    0  501    0  0.00000000000E+00 -0.00000000000E+00 -0.71097397314E+03  0.71097397314E+03  0.00000000000E+00 0. -1.
         24    1    1    2    0    0 -0.45381627152E+02  0.15328160026E+02 -0.14966049508E+03  0.17652173893E+03  0.80419002446E+02 0.  1.
        -24    1    1    2    0    0  0.45381627152E+02 -0.15328160026E+02 -0.54388489360E+03  0.55188081867E+03  0.80419002446E+02 0. -1.
<mgrwt>
<rscale>  0 0.93603742E+02</rscale>
<asrwt>0</asrwt>
<pdfrwt beam="1">  1        1 0.10938062E+00 0.93603742E+02</pdfrwt>
<pdfrwt beam="2">  1       -1 0.26813204E-02 0.93603742E+02</pdfrwt>
<totfact> 0.11409413E+04</totfact>
</mgrwt>
</event>
<event>
 4    1  0.5097315E-001  0.1055628E+03  0.7546771E-02  0.1269015E+00
         -2   -1    0    0    0  501 -0.00000000000E+00  0.00000000000E+00  0.55112771878E+02  0.55112771878E+02  0.00000000000E+00 0.  1.
          2   -1    0    0  501    0  0.00000000000E+00 -0.00000000000E+00 -0.94795091021E+03  0.94795091021E+03  0.00000000000E+00 0. -1.
         24    1    1    2    0    0 -0.65216685740E+02 -0.20568756432E+02 -0.89125929246E+03  0.89748907079E+03  0.80419002446E+02 0. -1.
        -24    1    1    2    0    0  0.65216685740E+02  0.20568756432E+02 -0.15788458646E+01  0.10557461129E+03  0.80419002446E+02 0.  1.
<mgrwt>
<rscale>  0 0.10556280E+03</rscale>
<asrwt>0</asrwt>
<pdfrwt beam="1">  1        2 0.14583861E+00 0.10556280E+03</pdfrwt>
<pdfrwt beam="2">  1       -2 0.84788876E-02 0.10556280E+03</pdfrwt>
<totfact> 0.23984275E+03</totfact>
</mgrwt>
</event>
<event>
 4    1  0.5097315E-001  0.9049044E+02  0.7546771E-02  0.1301668E+00
          2   -1    0    0  501    0  0.00000000000E+00  0.00000000000E+00  0.54712179749E+03  0.54712179749E+03  0.00000000000E+00 0. -1.
         -2   -1    0    0    0  501 -0.00000000000E+00 -0.00000000000E+00 -0.25612001504E+02  0.25612001504E+02  0.00000000000E+00 0.  1.
         24    1    1    2    0    0  0.40838469477E+02  0.73159564549E+01  0.44537684377E+03  0.45447668007E+03  0.80419002446E+02 0. -1.
        -24    1    1    2    0    0 -0.40838469477E+02 -0.73159564549E+01  0.76132952214E+02  0.11825711892E+03  0.80419002446E+02 0.  1.
<mgrwt>
<rscale>  0 0.90490440E+02</rscale>
<asrwt>0</asrwt>
<pdfrwt beam="1">  1        2 0.84172576E-01 0.90490440E+02</pdfrwt>
<pdfrwt beam="2">  1       -2 0.39403083E-02 0.90490440E+02</pdfrwt>
<totfact> 0.14458533E+04</totfact>
</mgrwt>
</event>
<event>
 4    1  0.5097315E-001  0.9236243E+02  0.7546771E-02  0.1297230E+00
         -3   -1    0    0    0  501 -0.00000000000E+00  0.00000000000E+00  0.10135086229E+03  0.10135086229E+03  0.00000000000E+00 0.  1.
          3   -1    0    0  501    0  0.00000000000E+00 -0.00000000000E+00 -0.10267910166E+03  0.10267910166E+03  0.00000000000E+00 0. -1.
         24    1    1    2    0    0  0.43626524417E+02  0.12662097517E+02  0.42647272485E+02  0.10173302390E+03  0.80419002446E+02 0.  1.
        -24    1    1    2    0    0 -0.43626524417E+02 -0.12662097517E+02 -0.43975511852E+02  0.10229694005E+03  0.80419002446E+02 0. -1.
<mgrwt>
<rscale>  0 0.92362429E+02</rscale>
<asrwt>0</asrwt>
<pdfrwt beam="1">  1        3 0.15796785E-01 0.92362429E+02</pdfrwt>
<pdfrwt beam="2">  1       -3 0.15592440E-01 0.92362429E+02</pdfrwt>
<totfact> 0.25020383E+03</totfact>
</mgrwt>
</event>
<event>
 4    1  0.5097315E-001  0.9321047E+02  0.7546771E-02  0.1295258E+00
         -2   -1    0    0    0  501 -0.00000000000E+00  0.00000000000E+00  0.17884875538E+02  0.17884875538E+02  0.00000000000E+00 0.  1.
          2   -1    0    0  501    0  0.00000000000E+00 -0.00000000000E+00 -0.72469080636E+03  0.72469080636E+03  0.00000000000E+00 0. -1.
         24    1    1    2    0    0  0.36853341349E+02  0.29373570549E+02 -0.56658389857E+03  0.57419988287E+03  0.80419002446E+02 0. -1.
        -24    1    1    2    0    0 -0.36853341349E+02 -0.29373570549E+02 -0.14022203226E+03  0.16837579903E+03  0.80419002446E+02 0.  1.
<mgrwt>
<rscale>  0 0.93210468E+02</rscale>
<asrwt>0</asrwt>
<pdfrwt beam="1">  1        2 0.11149089E+00 0.93210468E+02</pdfrwt>
<pdfrwt beam="2">  1       -2 0.27515195E-02 0.93210468E+02</pdfrwt>
<totfact> 0.17797424E+04</totfact>
</mgrwt>
</event>
<event>
 4    1  0.5097315E-001  0.8944004E+02  0.7546771E-02  0.1304213E+00
         -1   -1    0    0    0  501 -0.00000000000E+00  0.00000000000E+00  0.32235090194E+03  0.32235090194E+03  0.00000000000E+00 0.  1.
          1   -1    0    0  501    0  0.00000000000E+00 -0.00000000000E+00 -0.42954971582E+02  0.42954971582E+02  0.00000000000E+00 0. -1.
         24    1    1    2    0    0  0.38605711021E+02  0.64733398806E+01  0.25839066409E+03  0.27343236146E+03  0.80419002446E+02 0.  1.
        -24    1    1    2    0    0 -0.38605711021E+02 -0.64733398806E+01  0.21005266269E+02  0.91873512059E+02  0.80419002446E+02 0. -1.
<mgrwt>
<rscale>  0 0.89440041E+02</rscale>
<asrwt>0</asrwt>
<pdfrwt beam="1">  1        1 0.66084574E-02 0.89440041E+02</pdfrwt>
<pdfrwt beam="2">  1       -1 0.49592445E-01 0.89440041E+02</pdfrwt>
<totfact> 0.43786160E+03</totfact>
</mgrwt>
</event>
<event>
 4    1  0.5097315E-001  0.9674049E+02  0.7546771E-02  0.1287304E+00
          1   -1    0    0  501    0  0.00000000000E+00  0.00000000000E+00  0.15569709107E+03  0.15569709107E+03  0.00000000000E+00 0. -1.
         -1   -1    0    0    0  501 -0.00000000000E+00 -0.00000000000E+00 -0.61473150809E+02  0.61473150809E+02  0.00000000000E+00 0.  1.
         24    1    1    2    0    0  0.22828706332E+02 -0.48686269020E+02  0.63290474546E+02  0.11560451006E+03  0.80419002446E+02 0.  0.
        -24    1    1    2    0    0 -0.22828706332E+02  0.48686269020E+02  0.30933465714E+02  0.10156573182E+03  0.80419002446E+02 0. -1.
<mgrwt>
<rscale>  0 0.96740482E+02</rscale>
<asrwt>0</asrwt>
<pdfrwt beam="1">  1        1 0.23953398E-01 0.96740494E+02</pdfrwt>
<pdfrwt beam="2">  1       -1 0.94574079E-02 0.96740494E+02</pdfrwt>
<totfact> 0.12209680E+04</totfact>
</mgrwt>
</event>
<event>
 4    1  0.5097315E-001  0.8548574E+02  0.7546771E-02  0.1314167E+00
         -1   -1    0    0    0  501 -0.00000000000E+00  0.00000000000E+00  0.34691467611E+02  0.34691467611E+02  0.00000000000E+00 0.  1.
          1   -1    0    0  501    0  0.00000000000E+00 -0.00000000000E+00 -0.13740002489E+04  0.13740002489E+04  0.00000000000E+00 0. -1.
         24    1    1    2    0    0 -0.21478424488E+02  0.19474915695E+02 -0.21546191180E+02  0.88159227359E+02  0.80419002446E+02 0.  1.
        -24    1    1    2    0    0  0.21478424488E+02 -0.19474915695E+02 -0.13177625901E+04  0.13205324891E+04  0.80419002446E+02 0. -1.
<mgrwt>
<rscale>  0 0.85485736E+02</rscale>
<asrwt>0</asrwt>
<pdfrwt beam="1">  1        1 0.21138460E+00 0.85485736E+02</pdfrwt>
<pdfrwt beam="2">  1       -1 0.53371502E-02 0.85485736E+02</pdfrwt>
<totfact> 0.13901863E+03</totfact>
</mgrwt>
</event>
<event>
 4    1  0.5097315E-001  0.1067759E+03  0.7546771E-02  0.1266660E+00
          1   -1    0    0  501    0  0.00000000000E+00  0.00000000000E+00  0.10134298902E+04  0.10134298902E+04  0.00000000000E+00 0. -1.
         -1   -1    0    0    0  501 -0.00000000000E+00 -0.00000000000E+00 -0.32432765130E+02  0.32432765130E+02  0.00000000000E+00 0.  1.
         24    1    1    2    0    0  0.43631942203E+02  0.55046620839E+02  0.67884512757E+02  0.12652825721E+03  0.80419002446E+02 0.  1.
        -24    1    1    2    0    0 -0.43631942203E+02 -0.55046620839E+02  0.91311261234E+03  0.91933439815E+03  0.80419002446E+02 0. -1.
<mgrwt>
<rscale>  0 0.10677590E+03</rscale>
<asrwt>0</asrwt>
<pdfrwt beam="1">  1        1 0.15591227E+00 0.10677590E+03</pdfrwt>
<pdfrwt beam="2">  1       -1 0.49896569E-02 0.10677590E+03</pdfrwt>
<totfact> 0.27048306E+03</totfact>
</mgrwt>
</event>
<event>
 4    1  0.5097315E-001  0.9071419E+02  0.7546771E-02  0.1301131E+00
          1   -1    0    0  501    0  0.00000000000E+00  0.00000000000E+00  0.94527411466E+03  0.94527411466E+03  0.00000000000E+00 0. -1.
         -1   -1    0    0    0  501 -0.00000000000E+00 -0.00000000000E+00 -0.88644539922E+01  0.88644539922E+01  0.00000000000E+00 0.  1.
         24    1    1    2    0    0  0.26138271071E+02 -0.32842635868E+02  0.40431673428E+03  0.41436829695E+03  0.80419002446E+02 0. -1.
        -24    1    1    2    0    0 -0.26138271071E+02  0.32842635868E+02  0.53209292639E+03  0.53977027170E+03  0.80419002446E+02 0.  0.
<mgrwt>
<rscale>  0 0.90714188E+02</rscale>
<asrwt>0</asrwt>
<pdfrwt beam="1">  1        1 0.14542671E+00 0.90714188E+02</pdfrwt>
<pdfrwt beam="2">  1       -1 0.13637629E-02 0.90714188E+02</pdfrwt>
<totfact> 0.19453312E+04</totfact>
</mgrwt>
</event>
<event>
 4    1  0.5097315E-001  0.8424269E+02  0.7546771E-02  0.1317425E+00
          2   -1    0    0  501    0  0.00000000000E+00  0.00000000000E+00  0.41670365085E+03  0.41670365085E+03  0.00000000000E+00 0. -1.
         -2   -1    0    0    0  501 -0.00000000000E+00 -0.00000000000E+00 -0.32688129126E+02  0.32688129126E+02  0.00000000000E+00 0.  1.
         24    1    1    2    0    0 -0.45581702156E+01  0.24674640920E+02  0.34751757313E+03  0.35758257006E+03  0.80419002446E+02 0. -1.
        -24    1    1    2    0    0  0.45581702156E+01 -0.24674640920E+02  0.36497948598E+02  0.91809209922E+02  0.80419002446E+02 0.  1.
<mgrwt>
<rscale>  0 0.84242690E+02</rscale>
<asrwt>0</asrwt>
<pdfrwt beam="1">  1        2 0.64108250E-01 0.84242690E+02</pdfrwt>
<pdfrwt beam="2">  1       -2 0.50289432E-02 0.84242690E+02</pdfrwt>
<totfact> 0.13420840E+04</totfact>
</mgrwt>
</event>
<event>
 4    1  0.5097315E-001  0.8067480E+02  0.7546771E-02  0.1327147E+00
         -2   -1    0    0    0  501 -0.00000000000E+00  0.00000000000E+00  0.29192493787E+03  0.29192493787E+03  0.00000000000E+00 0.  1.
          2   -1    0    0  501    0  0.00000000000E+00 -0.00000000000E+00 -0.69105431328E+03  0.69105431328E+03  0.00000000000E+00 0. -1.
         24    1    1    2    0    0 -0.26038225708E+01  0.58675442290E+01 -0.68306107464E+03  0.68780873475E+03  0.80419002446E+02 0. -1.
        -24    1    1    2    0    0  0.26038225708E+01 -0.58675442290E+01  0.28393169923E+03  0.29517051639E+03  0.80419002446E+02 0.  1.
<mgrwt>
<rscale>  0 0.80674804E+02</rscale>
<asrwt>0</asrwt>
<pdfrwt beam="1">  1        2 0.10631605E+00 0.80674804E+02</pdfrwt>
<pdfrwt beam="2">  1       -2 0.44911529E-01 0.80674804E+02</pdfrwt>
<totfact> 0.21142982E+02</totfact>
</mgrwt>
</event>
<event>
 4    1  0.5097315E-001  0.8285181E+02  0.7546771E-02  0.1321148E+00
          3   -1    0    0  501    0  0.00000000000E+00  0.00000000000E+00  0.32213126914E+03  0.32213126914E+03  0.00000000000E+00 0. -1.
         -3   -1    0    0    0  501 -0.00000000000E+00 -0.00000000000E+00 -0.23142298127E+02  0.23142298127E+02  0.00000000000E+00 0.  1.
         24    1    1    2    0    0 -0.19636223632E+02  0.34096334558E+01  0.10090976470E+03  0.13056493957E+03  0.80419002446E+02 0.  1.
        -24    1    1    2    0    0  0.19636223632E+02 -0.34096334558E+01  0.19807920632E+03  0.21470862770E+03  0.80419002446E+02 0. -1.
<mgrwt>
<rscale>  0 0.82851812E+02</rscale>
<asrwt>0</asrwt>
<pdfrwt beam="1">  1        3 0.49558654E-01 0.82851812E+02</pdfrwt>
<pdfrwt beam="2">  1       -3 0.35603538E-02 0.82851812E+02</pdfrwt>
<totfact> 0.32757926E+03</totfact>
</mgrwt>
</event>
<event>
 4    1  0.5097315E-001  0.1871248E+03  0.7546771E-02  0.1161080E+00
          2   -1    0    0  501    0  0.00000000000E+00  0.00000000000E+00  0.26728448697E+03  0.26728448697E+03  0.00000000000E+00 0. -1.
         -2   -1    0    0    0  501 -0.00000000000E+00 -0.00000000000E+00 -0.22483137193E+03  0.22483137193E+03  0.00000000000E+00 0.  1.
         24    1    1    2    0    0 -0.98599773426E+02 -0.13720996478E+03  0.18018020306E+03  0.25977030485E+03  0.80419002446E+02 0. -1.
        -24    1    1    2    0    0  0.98599773426E+02  0.13720996478E+03 -0.13772708803E+03  0.23234555405E+03  0.80419002446E+02 0.  1.
<mgrwt>
<rscale>  0 0.18712484E+03</rscale>
<asrwt>0</asrwt>
<pdfrwt beam="1">  1        2 0.41120690E-01 0.18712484E+03</pdfrwt>
<pdfrwt beam="2">  1       -2 0.34589442E-01 0.18712484E+03</pdfrwt>
<totfact> 0.96973088E+02</totfact>
</mgrwt>
</event>
<event>
 4    1  0.5097315E-001  0.8598486E+02  0.7546771E-02  0.1312877E+00
          2   -1    0    0  501    0  0.00000000000E+00  0.00000000000E+00  0.13016838150E+03  0.13016838150E+03  0.00000000000E+00 0. -1.
         -2   -1    0    0    0  501 -0.00000000000E+00 -0.00000000000E+00 -0.64614978029E+02  0.64614978029E+02  0.00000000000E+00 0.  1.
         24    1    1    2    0    0 -0.68793730430E+01  0.29645479134E+02  0.66649804191E+02  0.10879150959E+03  0.80419002446E+02 0.  1.
        -24    1    1    2    0    0  0.68793730430E+01 -0.29645479134E+02 -0.10964007184E+01  0.85991849936E+02  0.80419002446E+02 0.  0.
<mgrwt>
<rscale>  0 0.85984860E+02</rscale>
<asrwt>0</asrwt>
<pdfrwt beam="1">  1        2 0.20025905E-01 0.85984860E+02</pdfrwt>
<pdfrwt beam="2">  1       -2 0.99407658E-02 0.85984860E+02</pdfrwt>
<totfact> 0.16509595E+04</totfact>
</mgrwt>
</event>
<event>
 4    1  0.5097315E-001  0.1141649E+03  0.7546771E-02  0.1253046E+00
         -3   -1    0    0    0  501 -0.00000000000E+00  0.00000000000E+00  0.11227481013E+02  0.11227481013E+02  0.00000000000E+00 0.  1.
          3   -1    0    0  501    0  0.00000000000E+00 -0.00000000000E+00 -0.16462596864E+04  0.16462596864E+04  0.00000000000E+00 0. -1.
         24    1    1    2    0    0 -0.10430421653E+02 -0.80359326607E+02 -0.36751158724E+03  0.38483554640E+03  0.80419002446E+02 0.  0.
        -24    1    1    2    0    0  0.10430421653E+02  0.80359326607E+02 -0.12675206182E+04  0.12726516210E+04  0.80419002446E+02 0.  1.
<mgrwt>
<rscale>  0 0.11416493E+03</rscale>
<asrwt>0</asrwt>
<pdfrwt beam="1">  1        3 0.25327095E+00 0.11416493E+03</pdfrwt>
<pdfrwt beam="2">  1       -3 0.17273032E-02 0.11416493E+03</pdfrwt>
<totfact> 0.22115953E+02</totfact>
</mgrwt>
</event>
<event>
 4    1  0.5097315E-001  0.8151650E+02  0.7546771E-02  0.1324802E+00
          2   -1    0    0  501    0  0.00000000000E+00  0.00000000000E+00  0.21061815147E+04  0.21061815147E+04  0.00000000000E+00 0. -1.
         -2   -1    0    0    0  501 -0.00000000000E+00 -0.00000000000E+00 -0.37633846561E+01  0.37633846561E+01  0.00000000000E+00 0.  1.
         24    1    1    2    0    0  0.37464302046E+01  0.12794060090E+02  0.14753904614E+04  0.14776406713E+04  0.80419002446E+02 0. -1.
        -24    1    1    2    0    0 -0.37464302046E+01 -0.12794060090E+02  0.62702766858E+03  0.63230422807E+03  0.80419002446E+02 0.  1.
<mgrwt>
<rscale>  0 0.81516499E+02</rscale>
<asrwt>0</asrwt>
<pdfrwt beam="1">  1        2 0.32402698E+00 0.81516499E+02</pdfrwt>
<pdfrwt beam="2">  1       -2 0.57898394E-03 0.81516499E+02</pdfrwt>
<totfact> 0.28753173E+04</totfact>
</mgrwt>
</event>
<event>
 4    1  0.5097315E-001  0.8554834E+02  0.7546771E-02  0.1314005E+00
         -1   -1    0    0    0  501 -0.00000000000E+00  0.00000000000E+00  0.61103316856E+02  0.61103316856E+02  0.00000000000E+00 0.  1.
          1   -1    0    0  501    0  0.00000000000E+00 -0.00000000000E+00 -0.17047559573E+03  0.17047559573E+03  0.00000000000E+00 0. -1.
         24    1    1    2    0    0 -0.16453201560E+02  0.24095547758E+02  0.84609864343E+01  0.85965734506E+02  0.80419002446E+02 0.  1.
        -24    1    1    2    0    0  0.16453201560E+02 -0.24095547758E+02 -0.11783326531E+03  0.14561317808E+03  0.80419002446E+02 0. -1.
<mgrwt>
<rscale>  0 0.85548344E+02</rscale>
<asrwt>0</asrwt>
<pdfrwt beam="1">  1        1 0.26227015E-01 0.85548344E+02</pdfrwt>
<pdfrwt beam="2">  1       -1 0.94005103E-02 0.85548344E+02</pdfrwt>
<totfact> 0.10882998E+04</totfact>
</mgrwt>
</event>
<event>
 4    1  0.5097315E-001  0.8455167E+02  0.7546771E-02  0.1316609E+00
          2   -1    0    0  501    0  0.00000000000E+00  0.00000000000E+00  0.47222515722E+02  0.47222515722E+02  0.00000000000E+00 0. -1.
         -2   -1    0    0    0  501 -0.00000000000E+00 -0.00000000000E+00 -0.26349318527E+03  0.26349318527E+03  0.00000000000E+00 0.  1.
         24    1    1    2    0    0  0.64945522056E+01 -0.25290120114E+02 -0.68004983094E+01  0.84824714060E+02  0.80419002446E+02 0. -1.
        -24    1    1    2    0    0 -0.64945522056E+01  0.25290120114E+02 -0.20947017123E+03  0.22589098693E+03  0.80419002446E+02 0.  1.
<mgrwt>
<rscale>  0 0.84551673E+02</rscale>
<asrwt>0</asrwt>
<pdfrwt beam="1">  1        2 0.72650024E-02 0.84551673E+02</pdfrwt>
<pdfrwt beam="2">  1       -2 0.40537413E-01 0.84551673E+02</pdfrwt>
<totfact> 0.51027008E+03</totfact>
</mgrwt>
</event>
<event>
 4    1  0.5097315E-001  0.8700159E+02  0.7546771E-02  0.1310280E+00
          1   -1    0    0  501    0  0.00000000000E+00  0.00000000000E+00  0.15524158258E+02  0.15524158258E+02  0.00000000000E+00 0. -1.
         -1   -1    0    0    0  501 -0.00000000000E+00 -0.00000000000E+00 -0.52458424439E+03  0.52458424439E+03  0.00000000000E+00 0.  1.
         24    1    1    2    0    0 -0.21781229859E+02 -0.25052703279E+02 -0.32625437663E+03  0.33765543701E+03  0.80419002446E+02 0.  1.
        -24    1    1    2    0    0  0.21781229859E+02  0.25052703279E+02 -0.18280570950E+03  0.20245296564E+03  0.80419002446E+02 0. -1.
<mgrwt>
<rscale>  0 0.87001585E+02</rscale>
<asrwt>0</asrwt>
<pdfrwt beam="1">  1        1 0.23883317E-02 0.87001585E+02</pdfrwt>
<pdfrwt beam="2">  1       -1 0.80705280E-01 0.87001585E+02</pdfrwt>
<totfact> 0.68709397E+03</totfact>
</mgrwt>
</event>
<event>
 4    1  0.5097315E-001  0.9466529E+02  0.7546771E-02  0.1291932E+00
         -2   -1    0    0    0  501 -0.00000000000E+00  0.00000000000E+00  0.78238282986E+03  0.78238282986E+03  0.00000000000E+00 0.  1.
          2   -1    0    0  501    0  0.00000000000E+00 -0.00000000000E+00 -0.11591467623E+02  0.11591467623E+02  0.00000000000E+00 0. -1.
         24    1    1    2    0    0 -0.47802082188E+02  0.14465920940E+02  0.34218456873E+03  0.35503774019E+03  0.80419002446E+02 0.  1.
        -24    1    1    2    0    0  0.47802082188E+02 -0.14465920940E+02  0.42860679351E+03  0.43893655729E+03  0.80419002446E+02 0. -1.
<mgrwt>
<rscale>  0 0.94665294E+02</rscale>
<asrwt>0</asrwt>
<pdfrwt beam="1">  1        2 0.17833033E-02 0.94665294E+02</pdfrwt>
<pdfrwt beam="2">  1       -2 0.12036655E+00 0.94665294E+02</pdfrwt>
<totfact> 0.32535938E+03</totfact>
</mgrwt>
</event>
<event>
 4    1  0.5097315E-001  0.1283709E+03  0.7546771E-02  0.1229893E+00
         -2   -1    0    0    0  501 -0.00000000000E+00  0.00000000000E+00  0.15381198044E+02  0.15381198044E+02  0.00000000000E+00 0.  1.
          2   -1    0    0  501    0  0.00000000000E+00 -0.00000000000E+00 -0.12855723863E+04  0.12855723863E+04  0.00000000000E+00 0. -1.
         24    1    1    2    0    0  0.81123394615E+02  0.58573577684E+02 -0.90060937023E+03  0.90971221981E+03  0.80419002446E+02 0. -1.
        -24    1    1    2    0    0 -0.81123394615E+02 -0.58573577684E+02 -0.36958181799E+03  0.39124136450E+03  0.80419002446E+02 0.  1.
<mgrwt>
<rscale>  0 0.12837089E+03</rscale>
<asrwt>0</asrwt>
<pdfrwt beam="1">  1        2 0.19778029E+00 0.12837089E+03</pdfrwt>
<pdfrwt beam="2">  1       -2 0.23663391E-02 0.12837089E+03</pdfrwt>
<totfact> 0.10425252E+04</totfact>
</mgrwt>
</event>
<event>
 4    1  0.5097315E-001  0.8560668E+02  0.7546771E-02  0.1313854E+00
          2   -1    0    0  501    0  0.00000000000E+00  0.00000000000E+00  0.51405179600E+02  0.51405179600E+02  0.00000000000E+00 0. -1.
         -2   -1    0    0    0  501 -0.00000000000E+00 -0.00000000000E+00 -0.36215575822E+03  0.36215575822E+03  0.00000000000E+00 0.  1.
         24    1    1    2    0    0  0.25400161191E+02  0.14701032769E+02  0.56411760754E+01  0.85792350328E+02  0.80419002446E+02 0.  0.
        -24    1    1    2    0    0 -0.25400161191E+02 -0.14701032769E+02 -0.31639175470E+03  0.32776858750E+03  0.80419002446E+02 0.  1.
<mgrwt>
<rscale>  0 0.85606685E+02</rscale>
<asrwt>0</asrwt>
<pdfrwt beam="1">  1        2 0.79084888E-02 0.85606685E+02</pdfrwt>
<pdfrwt beam="2">  1       -2 0.55716273E-01 0.85606685E+02</pdfrwt>
<totfact> 0.24801171E+03</totfact>
</mgrwt>
</event>
<event>
 4    1  0.5097315E-001  0.8405424E+02  0.7546771E-02  0.1317924E+00
         -1   -1    0    0    0  501 -0.00000000000E+00  0.00000000000E+00  0.45289132690E+02  0.45289132690E+02  0.00000000000E+00 0.  1.
          1   -1    0    0  501    0  0.00000000000E+00 -0.00000000000E+00 -0.14655953623E+04  0.14655953623E+04  0.00000000000E+00 0. -1.
         24    1    1    2    0    0  0.24451964554E+02  0.28709813927E-01  0.39530016984E+01  0.84147142385E+02  0.80419002446E+02 0.  1.
        -24    1    1    2    0    0 -0.24451964554E+02 -0.28709813927E-01 -0.14242592313E+04  0.14267373526E+04  0.80419002446E+02 0. -1.
<mgrwt>
<rscale>  0 0.84054241E+02</rscale>
<asrwt>0</asrwt>
<pdfrwt beam="1">  1        1 0.22547616E+00 0.84054241E+02</pdfrwt>
<pdfrwt beam="2">  1       -1 0.69675605E-02 0.84054241E+02</pdfrwt>
<totfact> 0.82005278E+02</totfact>
</mgrwt>
</event>
<event>
 4    1  0.5097315E-001  0.8858474E+02  0.7546771E-02  0.1306316E+00
         -2   -1    0    0    0  501 -0.00000000000E+00  0.00000000000E+00  0.16490771445E+02  0.16490771445E+02  0.00000000000E+00 0.  1.
          2   -1    0    0  501    0  0.00000000000E+00 -0.00000000000E+00 -0.50847051690E+03  0.50847051690E+03  0.00000000000E+00 0. -1.
         24    1    1    2    0    0 -0.34344051979E+02  0.14160754805E+02 -0.31246513490E+03  0.32477949037E+03  0.80419002446E+02 0.  1.
        -24    1    1    2    0    0  0.34344051979E+02 -0.14160754805E+02 -0.17951461056E+03  0.20018179798E+03  0.80419002446E+02 0.  0.
<mgrwt>
<rscale>  0 0.88584744E+02</rscale>
<asrwt>0</asrwt>
<pdfrwt beam="1">  1        2 0.78226227E-01 0.88584744E+02</pdfrwt>
<pdfrwt beam="2">  1       -2 0.25370420E-02 0.88584744E+02</pdfrwt>
<totfact> 0.29671091E+04</totfact>
</mgrwt>
</event>
<event>
 4    1  0.5097315E-001  0.8088256E+02  0.7546771E-02  0.1326565E+00
          1   -1    0    0  501    0  0.00000000000E+00  0.00000000000E+00  0.27543646678E+03  0.27543646678E+03  0.00000000000E+00 0. -1.
         -1   -1    0    0    0  501 -0.00000000000E+00 -0.00000000000E+00 -0.55896887719E+02  0.55896887719E+02  0.00000000000E+00 0.  1.
         24    1    1    2    0    0 -0.77172581948E+01 -0.39009113565E+01 -0.15862613183E+02  0.82423368257E+02  0.80419002446E+02 0.  1.
        -24    1    1    2    0    0  0.77172581948E+01  0.39009113565E+01  0.23540219224E+03  0.24890998624E+03  0.80419002446E+02 0. -1.
<mgrwt>
<rscale>  0 0.80882564E+02</rscale>
<asrwt>0</asrwt>
<pdfrwt beam="1">  1        1 0.42374840E-01 0.80882564E+02</pdfrwt>
<pdfrwt beam="2">  1       -1 0.85995213E-02 0.80882564E+02</pdfrwt>
<totfact> 0.68870057E+03</totfact>
</mgrwt>
</event>
<event>
 4    1  0.5097315E-001  0.8768267E+02  0.7546771E-02  0.1308562E+00
          1   -1    0    0  501    0  0.00000000000E+00  0.00000000000E+00  0.10340895102E+04  0.10340895102E+04  0.00000000000E+00 0. -1.
         -1   -1    0    0    0  501 -0.00000000000E+00 -0.00000000000E+00 -0.18588613919E+02  0.18588613919E+02  0.00000000000E+00 0.  1.
         24    1    1    2    0    0  0.34321892972E+02 -0.65606503107E+01  0.10003819533E+03  0.13302590330E+03  0.80419002446E+02 0.  1.
        -24    1    1    2    0    0 -0.34321892972E+02  0.65606503107E+01  0.91546270092E+03  0.91965222079E+03  0.80419002446E+02 0. -1.
<mgrwt>
<rscale>  0 0.87682669E+02</rscale>
<asrwt>0</asrwt>
<pdfrwt beam="1">  1        1 0.15909065E+00 0.87682669E+02</pdfrwt>
<pdfrwt beam="2">  1       -1 0.28597876E-02 0.87682669E+02</pdfrwt>
<totfact> 0.58222935E+03</totfact>
</mgrwt>
</event>
<event>
 4    1  0.5097315E-001  0.9321349E+02  0.7546771E-02  0.1295251E+00
          2   -1    0    0  501    0  0.00000000000E+00  0.00000000000E+00  0.31600964000E+02  0.31600964000E+02  0.00000000000E+00 0. -1.
         -2   -1    0    0    0  501 -0.00000000000E+00 -0.00000000000E+00 -0.27739829322E+03  0.27739829322E+03  0.00000000000E+00 0.  1.
         24    1    1    2    0    0 -0.14714477915E+02 -0.44777473369E+02 -0.10839045432E+03  0.14295889102E+03  0.80419002446E+02 0.  0.
        -24    1    1    2    0    0  0.14714477915E+02  0.44777473369E+02 -0.13740687490E+03  0.16604036620E+03  0.80419002446E+02 0.  1.
<mgrwt>
<rscale>  0 0.93213486E+02</rscale>
<asrwt>0</asrwt>
<pdfrwt beam="1">  1        2 0.48616869E-02 0.93213486E+02</pdfrwt>
<pdfrwt beam="2">  1       -2 0.42676659E-01 0.93213486E+02</pdfrwt>
<totfact> 0.77878010E+03</totfact>
</mgrwt>
</event>
<event>
 4    1  0.5097315E-001  0.9367337E+02  0.7546771E-02  0.1294192E+00
         -1   -1    0    0    0  501 -0.00000000000E+00  0.00000000000E+00  0.62997179263E+01  0.62997179263E+01  0.00000000000E+00 0.  1.
          1   -1    0    0  501    0  0.00000000000E+00 -0.00000000000E+00 -0.16879498828E+04  0.16879498828E+04  0.00000000000E+00 0. -1.
         24    1    1    2    0    0  0.47420263870E+02  0.76683059836E+01 -0.48663532354E+03  0.49556900470E+03  0.80419002446E+02 0. -1.
        -24    1    1    2    0    0 -0.47420263870E+02 -0.76683059836E+01 -0.11950148413E+04  0.11986805960E+04  0.80419002446E+02 0. -1.
<mgrwt>
<rscale>  0 0.93673370E+02</rscale>
<asrwt>0</asrwt>
<pdfrwt beam="1">  1        1 0.25968461E+00 0.93673370E+02</pdfrwt>
<pdfrwt beam="2">  1       -1 0.96918732E-03 0.93673370E+02</pdfrwt>
<totfact> 0.10134511E+04</totfact>
</mgrwt>
</event>
<event>
 4    1  0.5097315E-001  0.8307099E+02  0.7546771E-02  0.1320556E+00
         -1   -1    0    0    0  501 -0.00000000000E+00  0.00000000000E+00  0.72964784265E+01  0.72964784265E+01  0.00000000000E+00 0.  1.
          1   -1    0    0  501    0  0.00000000000E+00 -0.00000000000E+00 -0.13461740112E+04  0.13461740112E+04  0.00000000000E+00 0. -1.
         24    1    1    2    0    0 -0.12781409927E+02 -0.16438023028E+02 -0.30036131862E+03  0.31163714592E+03  0.80419002446E+02 0.  1.
        -24    1    1    2    0    0  0.12781409927E+02  0.16438023028E+02 -0.10385162141E+04  0.10418333437E+04  0.80419002446E+02 0. -1.
<mgrwt>
<rscale>  0 0.83070988E+02</rscale>
<asrwt>0</asrwt>
<pdfrwt beam="1">  1        1 0.20710351E+00 0.83070988E+02</pdfrwt>
<pdfrwt beam="2">  1       -1 0.11225361E-02 0.83070988E+02</pdfrwt>
<totfact> 0.13502583E+04</totfact>
</mgrwt>
</event>
<event>
 4    1  0.5097315E-001  0.8424658E+02  0.7546771E-02  0.1317415E+00
          2   -1    0    0  501    0  0.00000000000E+00  0.00000000000E+00  0.13757854507E+04  0.13757854507E+04  0.00000000000E+00 0. -1.
         -2   -1    0    0    0  501 -0.00000000000E+00 -0.00000000000E+00 -0.68359695966E+01  0.68359695966E+01  0.00000000000E+00 0.  1.
         24    1    1    2    0    0 -0.25005656340E+02 -0.22330853488E+01  0.10268905888E+04  0.10303406072E+04  0.80419002446E+02 0. -1.
        -24    1    1    2    0    0  0.25005656340E+02  0.22330853488E+01  0.34205889228E+03  0.35228081307E+03  0.80419002446E+02 0.  1.
<mgrwt>
<rscale>  0 0.84246575E+02</rscale>
<asrwt>0</asrwt>
<pdfrwt beam="1">  1        2 0.21165908E+00 0.84246575E+02</pdfrwt>
<pdfrwt beam="2">  1       -2 0.10516887E-02 0.84246575E+02</pdfrwt>
<totfact> 0.29031645E+04</totfact>
</mgrwt>
</event>
<event>
 4    1  0.5097315E-001  0.8615050E+02  0.7546771E-02  0.1312451E+00
         -2   -1    0    0    0  501 -0.00000000000E+00  0.00000000000E+00  0.85579526929E+03  0.85579526929E+03  0.00000000000E+00 0.  1.
          2   -1    0    0  501    0  0.00000000000E+00 -0.00000000000E+00 -0.91516634901E+01  0.91516634901E+01  0.00000000000E+00 0. -1.
         24    1    1    2    0    0 -0.15868235380E+02 -0.26512106067E+02  0.32436662582E+03  0.33561230097E+03  0.80419002446E+02 0. -1.
        -24    1    1    2    0    0  0.15868235380E+02  0.26512106067E+02  0.52227697998E+03  0.52933463181E+03  0.80419002446E+02 0.  1.
<mgrwt>
<rscale>  0 0.86150500E+02</rscale>
<asrwt>0</asrwt>
<pdfrwt beam="1">  1        2 0.14079489E-02 0.86150500E+02</pdfrwt>
<pdfrwt beam="2">  1       -2 0.13166075E+00 0.86150500E+02</pdfrwt>
<totfact> 0.35762358E+03</totfact>
</mgrwt>
</event>
<event>
 4    1  0.5097315E-001  0.1073493E+03  0.7546771E-02  0.1265559E+00
          2   -1    0    0  501    0  0.00000000000E+00  0.00000000000E+00  0.93267039696E+03  0.93267039696E+03  0.00000000000E+00 0. -1.
         -2   -1    0    0    0  501 -0.00000000000E+00 -0.00000000000E+00 -0.12366849280E+02  0.12366849280E+02  0.00000000000E+00 0.  1.
         24    1    1    2    0    0 -0.35975205066E+02 -0.61338786560E+02  0.47428314358E+03  0.48628014390E+03  0.80419002446E+02 0.  0.
        -24    1    1    2    0    0  0.35975205066E+02  0.61338786560E+02  0.44602040411E+03  0.45875710234E+03  0.80419002446E+02 0. -1.
<mgrwt>
<rscale>  0 0.10734933E+03</rscale>
<asrwt>0</asrwt>
<pdfrwt beam="1">  1        2 0.14348770E+00 0.10734933E+03</pdfrwt>
<pdfrwt beam="2">  1       -2 0.19025929E-02 0.10734933E+03</pdfrwt>
<totfact> 0.22446420E+04</totfact>
</mgrwt>
</event>
<event>
 4    1  0.5097315E-001  0.8424634E+02  0.7546771E-02  0.1317415E+00
         -2   -1    0    0    0  501 -0.00000000000E+00  0.00000000000E+00  0.12892019697E+02  0.12892019697E+02  0.00000000000E+00 0.  1.
          2   -1    0    0  501    0  0.00000000000E+00 -0.00000000000E+00 -0.82685713491E+03  0.82685713491E+03  0.00000000000E+00 0. -1.
         24    1    1    2    0    0  0.22461361726E+02 -0.11212388241E+02 -0.64970835618E+03  0.65514761273E+03  0.80419002446E+02 0. -1.
        -24    1    1    2    0    0 -0.22461361726E+02  0.11212388241E+02 -0.16425675903E+03  0.18460154187E+03  0.80419002446E+02 0.  1.
<mgrwt>
<rscale>  0 0.84246343E+02</rscale>
<asrwt>0</asrwt>
<pdfrwt beam="1">  1        2 0.12720886E+00 0.84246343E+02</pdfrwt>
<pdfrwt beam="2">  1       -2 0.19833866E-02 0.84246343E+02</pdfrwt>
<totfact> 0.24106568E+04</totfact>
</mgrwt>
</event>
<event>
 4    1  0.5097315E-001  0.8923180E+02  0.7546771E-02  0.1304723E+00
          1   -1    0    0  501    0  0.00000000000E+00  0.00000000000E+00  0.40823400495E+02  0.40823400495E+02  0.00000000000E+00 0. -1.
         -1   -1    0    0    0  501 -0.00000000000E+00 -0.00000000000E+00 -0.19778616518E+03  0.19778616518E+03  0.00000000000E+00 0.  1.
         24    1    1    2    0    0 -0.30138916607E+02 -0.24222808015E+02 -0.92531931490E+02  0.12854755160E+03  0.80419002446E+02 0. -1.
        -24    1    1    2    0    0  0.30138916607E+02  0.24222808015E+02 -0.64430833199E+02  0.11006201408E+03  0.80419002446E+02 0.  0.
<mgrwt>
<rscale>  0 0.89231803E+02</rscale>
<asrwt>0</asrwt>
<pdfrwt beam="1">  1        1 0.62805233E-02 0.89231803E+02</pdfrwt>
<pdfrwt beam="2">  1       -1 0.30428640E-01 0.89231803E+02</pdfrwt>
<totfact> 0.10897656E+04</totfact>
</mgrwt>
</event>
<event>
 4    1  0.5097315E-001  0.8897236E+02  0.7546771E-02  0.1305360E+00
         -1   -1    0    0    0  501 -0.00000000000E+00  0.00000000000E+00  0.14363860560E+02  0.14363860560E+02  0.00000000000E+00 0.  1.
          1   -1    0    0  501    0  0.00000000000E+00 -0.00000000000E+00 -0.73404284021E+03  0.73404284021E+03  0.00000000000E+00 0. -1.
         24    1    1    2    0    0 -0.91209853608E+01  0.36955005860E+02 -0.17303311894E+03  0.19456757447E+03  0.80419002446E+02 0.  1.
        -24    1    1    2    0    0  0.91209853608E+01 -0.36955005860E+02 -0.54664586071E+03  0.55383912630E+03  0.80419002446E+02 0. -1.
<mgrwt>
<rscale>  0 0.88972360E+02</rscale>
<asrwt>0</asrwt>
<pdfrwt beam="1">  1        1 0.11292962E+00 0.88972360E+02</pdfrwt>
<pdfrwt beam="2">  1       -1 0.22098256E-02 0.88972360E+02</pdfrwt>
<totfact> 0.14324909E+04</totfact>
</mgrwt>
</event>
<event>
 4    1  0.5097315E-001  0.8238611E+02  0.7546771E-02  0.1322413E+00
         -3   -1    0    0    0  501 -0.00000000000E+00  0.00000000000E+00  0.75692059230E+01  0.75692059230E+01  0.00000000000E+00 0.  1.
          3   -1    0    0  501    0  0.00000000000E+00 -0.00000000000E+00 -0.94868584332E+03  0.94868584332E+03  0.00000000000E+00 0. -1.
         24    1    1    2    0    0 -0.14208095933E+02 -0.10880305162E+02 -0.58246003572E+03  0.58825773279E+03  0.80419002446E+02 0.  0.
        -24    1    1    2    0    0  0.14208095933E+02  0.10880305162E+02 -0.35865660168E+03  0.36799731645E+03  0.80419002446E+02 0.  0.
<mgrwt>
<rscale>  0 0.82386095E+02</rscale>
<asrwt>0</asrwt>
<pdfrwt beam="1">  1        3 0.14595172E+00 0.82386105E+02</pdfrwt>
<pdfrwt beam="2">  1       -3 0.11644928E-02 0.82386105E+02</pdfrwt>
<totfact> 0.16789807E+03</totfact>
</mgrwt>
</event>
<event>
 4    1  0.5097315E-001  0.8291069E+02  0.7546771E-02  0.1320989E+00
          2   -1    0    0  501    0  0.00000000000E+00  0.00000000000E+00  0.12014819653E+03  0.12014819653E+03  0.00000000000E+00 0. -1.
         -2   -1    0    0    0  501 -0.00000000000E+00 -0.00000000000E+00 -0.57879385706E+02  0.57879385706E+02  0.00000000000E+00 0.  1.
         24    1    1    2    0    0 -0.60849165040E+01 -0.19233830495E+02  0.40677039762E+02  0.92351523878E+02  0.80419002446E+02 0.  0.
        -24    1    1    2    0    0  0.60849165040E+01  0.19233830495E+02  0.21591771066E+02  0.85676058363E+02  0.80419002446E+02 0. -1.
<mgrwt>
<rscale>  0 0.82910689E+02</rscale>
<asrwt>0</asrwt>
<pdfrwt beam="1">  1        2 0.18484338E-01 0.82910689E+02</pdfrwt>
<pdfrwt beam="2">  1       -2 0.89045209E-02 0.82910689E+02</pdfrwt>
<totfact> 0.21317051E+04</totfact>
</mgrwt>
</event>
<event>
 4    1  0.5097315E-001  0.1202136E+03  0.7546771E-02  0.1242745E+00
          1   -1    0    0  501    0  0.00000000000E+00  0.00000000000E+00  0.15552977991E+04  0.15552977991E+04  0.00000000000E+00 0. -1.
         -1   -1    0    0    0  501 -0.00000000000E+00 -0.00000000000E+00 -0.10775537046E+02  0.10775537046E+02  0.00000000000E+00 0.  1.
         24    1    1    2    0    0 -0.12680371388E+02  0.88449383585E+02  0.48168407136E+03  0.49645830220E+03  0.80419002446E+02 0.  1.
        -24    1    1    2    0    0  0.12680371388E+02 -0.88449383585E+02  0.10628381907E+04  0.10696150339E+04  0.80419002446E+02 0.  0.
<mgrwt>
<rscale>  0 0.12021357E+03</rscale>
<asrwt>0</asrwt>
<pdfrwt beam="1">  1        1 0.23927641E+00 0.12021357E+03</pdfrwt>
<pdfrwt beam="2">  1       -1 0.16577762E-02 0.12021357E+03</pdfrwt>
<totfact> 0.58017545E+03</totfact>
</mgrwt>
</event>
<event>
 4    1  0.5097315E-001  0.8460601E+02  0.7546771E-02  0.1316466E+00
         -2   -1    0    0    0  501 -0.00000000000E+00  0.00000000000E+00  0.15196194096E+02  0.15196194096E+02  0.00000000000E+00 0.  1.
          2   -1    0    0  501    0  0.00000000000E+00 -0.00000000000E+00 -0.17315161773E+04  0.17315161773E+04  0.00000000000E+00 0. -1.
         24    1    1    2    0    0  0.16396989284E+02  0.20545049085E+02 -0.16033098440E+04  0.16055406044E+04  0.80419002446E+02 0. -1.
        -24    1    1    2    0    0 -0.16396989284E+02 -0.20545049085E+02 -0.11301013916E+03  0.14117176703E+03  0.80419002446E+02 0.  1.
<mgrwt>
<rscale>  0 0.84606006E+02</rscale>
<asrwt>0</asrwt>
<pdfrwt beam="1">  1        2 0.26638695E+00 0.84606006E+02</pdfrwt>
<pdfrwt beam="2">  1       -2 0.23378773E-02 0.84606006E+02</pdfrwt>
<totfact> 0.61372619E+03</totfact>
</mgrwt>
</event>
<event>
 4    1  0.5097315E-001  0.8166242E+02  0.7546771E-02  0.1324399E+00
         -2   -1    0    0    0  501 -0.00000000000E+00  0.00000000000E+00  0.12013746054E+02  0.12013746054E+02  0.00000000000E+00 0.  1.
          2   -1    0    0  501    0  0.00000000000E+00 -0.00000000000E+00 -0.83269885823E+03  0.83269885823E+03  0.00000000000E+00 0. -1.
         24    1    1    2    0    0  0.19783666438E+01  0.14057793560E+02 -0.65420727583E+03  0.65928439326E+03  0.80419002446E+02 0.  1.
        -24    1    1    2    0    0 -0.19783666438E+01 -0.14057793560E+02 -0.16647783635E+03  0.18542821103E+03  0.80419002446E+02 0.  0.
<mgrwt>
<rscale>  0 0.81662424E+02</rscale>
<asrwt>0</asrwt>
<pdfrwt beam="1">  1        2 0.12810749E+00 0.81662424E+02</pdfrwt>
<pdfrwt beam="2">  1       -2 0.18482690E-02 0.81662424E+02</pdfrwt>
<totfact> 0.26355174E+04</totfact>
</mgrwt>
</event>
<event>
 4    1  0.5097315E-001  0.8485526E+02  0.7546771E-02  0.1315811E+00
         -2   -1    0    0    0  501 -0.00000000000E+00  0.00000000000E+00  0.60013958051E+01  0.60013958051E+01  0.00000000000E+00 0.  1.
          2   -1    0    0  501    0  0.00000000000E+00 -0.00000000000E+00 -0.23570175288E+04  0.23570175288E+04  0.00000000000E+00 0. -1.
         24    1    1    2    0    0  0.24656608953E+02  0.11191572476E+02 -0.20033837883E+04  0.20051800465E+04  0.80419002446E+02 0. -1.
        -24    1    1    2    0    0 -0.24656608953E+02 -0.11191572476E+02 -0.34763234472E+03  0.35783887814E+03  0.80419002446E+02 0.  1.
<mgrwt>
<rscale>  0 0.84855263E+02</rscale>
<asrwt>0</asrwt>
<pdfrwt beam="1">  1        2 0.36261781E+00 0.84855263E+02</pdfrwt>
<pdfrwt beam="2">  1       -2 0.92329234E-03 0.84855263E+02</pdfrwt>
<totfact> 0.11152681E+04</totfact>
</mgrwt>
</event>
<event>
 4    1  0.5097315E-001  0.1091235E+03  0.7546771E-02  0.1262202E+00
         -2   -1    0    0    0  501 -0.00000000000E+00  0.00000000000E+00  0.55423576218E+03  0.55423576218E+03  0.00000000000E+00 0.  1.
          2   -1    0    0  501    0  0.00000000000E+00 -0.00000000000E+00 -0.30179314333E+02  0.30179314333E+02  0.00000000000E+00 0. -1.
         24    1    1    2    0    0  0.53372951162E+02 -0.50912221697E+02  0.10519214341E+03  0.15156955243E+03  0.80419002446E+02 0. -1.
        -24    1    1    2    0    0 -0.53372951162E+02  0.50912221697E+02  0.41886430444E+03  0.43284552408E+03  0.80419002446E+02 0.  1.
<mgrwt>
<rscale>  0 0.10912352E+03</rscale>
<asrwt>0</asrwt>
<pdfrwt beam="1">  1        2 0.46429718E-02 0.10912352E+03</pdfrwt>
<pdfrwt beam="2">  1       -2 0.85267033E-01 0.10912352E+03</pdfrwt>
<totfact> 0.20293537E+03</totfact>
</mgrwt>
</event>
<event>
 4    1  0.5097315E-001  0.1116297E+03  0.7546771E-02  0.1257581E+00
         -2   -1    0    0    0  501 -0.00000000000E+00  0.00000000000E+00  0.39904324483E+02  0.39904324483E+02  0.00000000000E+00 0.  1.
          2   -1    0    0  501    0  0.00000000000E+00 -0.00000000000E+00 -0.88564308513E+03  0.88564308513E+03  0.00000000000E+00 0. -1.
         24    1    1    2    0    0 -0.74594506505E+02  0.20727664711E+02 -0.79522284909E+03  0.80301965864E+03  0.80419002446E+02 0. -1.
        -24    1    1    2    0    0  0.74594506505E+02 -0.20727664711E+02 -0.50515911558E+02  0.12252775098E+03  0.80419002446E+02 0.  1.
<mgrwt>
<rscale>  0 0.11162971E+03</rscale>
<asrwt>0</asrwt>
<pdfrwt beam="1">  1        2 0.13625276E+00 0.11162971E+03</pdfrwt>
<pdfrwt beam="2">  1       -2 0.61391276E-02 0.11162971E+03</pdfrwt>
<totfact> 0.42965195E+03</totfact>
</mgrwt>
</event>
<event>
 4    1  0.5097315E-001  0.8239547E+02  0.7546771E-02  0.1322388E+00
         -1   -1    0    0    0  501 -0.00000000000E+00  0.00000000000E+00  0.30313926354E+02  0.30313926354E+02  0.00000000000E+00 0.  1.
          1   -1    0    0  501    0  0.00000000000E+00 -0.00000000000E+00 -0.23849773136E+03  0.23849773136E+03  0.00000000000E+00 0. -1.
         24    1    1    2    0    0 -0.17938357965E+02 -0.11183127456E+00 -0.70904710313E+02  0.10870368481E+03  0.80419002446E+02 0.  1.
        -24    1    1    2    0    0  0.17938357965E+02  0.11183127456E+00 -0.13727909469E+03  0.16010797290E+03  0.80419002446E+02 0. -1.
<mgrwt>
<rscale>  0 0.82395468E+02</rscale>
<asrwt>0</asrwt>
<pdfrwt beam="1">  1        1 0.36691957E-01 0.82395468E+02</pdfrwt>
<pdfrwt beam="2">  1       -1 0.46636811E-02 0.82395468E+02</pdfrwt>
<totfact> 0.20240222E+04</totfact>
</mgrwt>
</event>
<event>
 4    1  0.5097315E-001  0.2446277E+03  0.7546771E-02  0.1116748E+00
         -1   -1    0    0    0  501 -0.00000000000E+00  0.00000000000E+00  0.57123191800E+02  0.57123191800E+02  0.00000000000E+00 0.  1.
          1   -1    0    0  501    0  0.00000000000E+00 -0.00000000000E+00 -0.14091797356E+04  0.14091797356E+04  0.00000000000E+00 0. -1.
         24    1    1    2    0    0 -0.22767808974E+03 -0.39219373338E+02 -0.10473992922E+04  0.10755872652E+04  0.80419002446E+02 0. -1.
        -24    1    1    2    0    0  0.22767808974E+03  0.39219373338E+02 -0.30465725163E+03  0.39071566224E+03  0.80419002446E+02 0.  1.
<mgrwt>
<rscale>  0 0.24462768E+03</rscale>
<asrwt>0</asrwt>
<pdfrwt beam="1">  1        1 0.21679687E+00 0.24462771E+03</pdfrwt>
<pdfrwt beam="2">  1       -1 0.87881840E-02 0.24462771E+03</pdfrwt>
<totfact> 0.61585700E+02</totfact>
</mgrwt>
</event>
<event>
 4    1  0.5097315E-001  0.9291509E+02  0.7546771E-02  0.1295942E+00
         -2   -1    0    0    0  501 -0.00000000000E+00  0.00000000000E+00  0.79624249771E+01  0.79624249771E+01  0.00000000000E+00 0.  1.
          2   -1    0    0  501    0  0.00000000000E+00 -0.00000000000E+00 -0.26159788025E+04  0.26159788025E+04  0.00000000000E+00 0. -1.
         24    1    1    2    0    0  0.33244550124E+02 -0.32569887117E+02 -0.23079273647E+04  0.23097969465E+04  0.80419002446E+02 0. -1.
        -24    1    1    2    0    0 -0.33244550124E+02  0.32569887117E+02 -0.30008901280E+03  0.31414428089E+03  0.80419002446E+02 0.  1.
<mgrwt>
<rscale>  0 0.92915088E+02</rscale>
<asrwt>0</asrwt>
<pdfrwt beam="1">  1        2 0.40245848E+00 0.92915088E+02</pdfrwt>
<pdfrwt beam="2">  1       -2 0.12249878E-02 0.92915088E+02</pdfrwt>
<totfact> 0.54799693E+03</totfact>
</mgrwt>
</event>
<event>
 4    1  0.5097315E-001  0.8563042E+02  0.7546771E-02  0.1313792E+00
         -2   -1    0    0    0  501 -0.00000000000E+00  0.00000000000E+00  0.16501242724E+02  0.16501242724E+02  0.00000000000E+00 0.  1.
          2   -1    0    0  501    0  0.00000000000E+00 -0.00000000000E+00 -0.45884482088E+03  0.45884482088E+03  0.00000000000E+00 0. -1.
         24    1    1    2    0    0 -0.17885880803E+02 -0.23354826578E+02 -0.26339333577E+03  0.27696320683E+03  0.80419002446E+02 0. -1.
        -24    1    1    2    0    0  0.17885880803E+02  0.23354826578E+02 -0.17895024239E+03  0.19838285678E+03  0.80419002446E+02 0.  1.
<mgrwt>
<rscale>  0 0.85630419E+02</rscale>
<asrwt>0</asrwt>
<pdfrwt beam="1">  1        2 0.70591512E-01 0.85630419E+02</pdfrwt>
<pdfrwt beam="2">  1       -2 0.25386527E-02 0.85630419E+02</pdfrwt>
<totfact> 0.32970178E+04</totfact>
</mgrwt>
</event>
<event>
 4    1  0.5097315E-001  0.8872631E+02  0.7546771E-02  0.1305966E+00
         -1   -1    0    0    0  501 -0.00000000000E+00  0.00000000000E+00  0.53760935967E+02  0.53760935967E+02  0.00000000000E+00 0.  1.
          1   -1    0    0  501    0  0.00000000000E+00 -0.00000000000E+00 -0.16232493068E+03  0.16232493068E+03  0.00000000000E+00 0. -1.
         24    1    1    2    0    0  0.18506172521E+02 -0.32598528878E+02 -0.20475799975E+02  0.91058315630E+02  0.80419002446E+02 0.  1.
        -24    1    1    2    0    0 -0.18506172521E+02  0.32598528878E+02 -0.88088194737E+02  0.12502755102E+03  0.80419002446E+02 0. -1.
<mgrwt>
<rscale>  0 0.88726312E+02</rscale>
<asrwt>0</asrwt>
<pdfrwt beam="1">  1        1 0.24973066E-01 0.88726312E+02</pdfrwt>
<pdfrwt beam="2">  1       -1 0.82709132E-02 0.88726312E+02</pdfrwt>
<totfact> 0.14057670E+04</totfact>
</mgrwt>
</event>
<event>
 4    1  0.5097315E-001  0.9693180E+02  0.7546771E-02  0.1286884E+00
          1   -1    0    0  501    0  0.00000000000E+00  0.00000000000E+00  0.49850430509E+03  0.49850430509E+03  0.00000000000E+00 0. -1.
         -1   -1    0    0    0  501 -0.00000000000E+00 -0.00000000000E+00 -0.28953236811E+02  0.28953236811E+02  0.00000000000E+00 0.  1.
         24    1    1    2    0    0 -0.42675538727E+02 -0.33276893472E+02  0.39058144123E+03  0.40242966023E+03  0.80419002446E+02 0.  0.
        -24    1    1    2    0    0  0.42675538727E+02  0.33276893472E+02  0.78969627049E+02  0.12502788167E+03  0.80419002446E+02 0.  0.
<mgrwt>
<rscale>  0 0.96931788E+02</rscale>
<asrwt>0</asrwt>
<pdfrwt beam="1">  1        1 0.76692964E-01 0.96931800E+02</pdfrwt>
<pdfrwt beam="2">  1       -1 0.44543445E-02 0.96931800E+02</pdfrwt>
<totfact> 0.88386187E+03</totfact>
</mgrwt>
</event>
<event>
 4    1  0.5097315E-001  0.1622192E+03  0.7546771E-02  0.1186214E+00
          2   -1    0    0  501    0  0.00000000000E+00  0.00000000000E+00  0.15627187800E+03  0.15627187800E+03  0.00000000000E+00 0. -1.
         -2   -1    0    0    0  501 -0.00000000000E+00 -0.00000000000E+00 -0.16964839663E+03  0.16964839663E+03  0.00000000000E+00 0.  1.
         24    1    1    2    0    0  0.12015387613E+02  0.14036911183E+03  0.73307115118E+01  0.16238476647E+03  0.80419002446E+02 0.  0.
        -24    1    1    2    0    0 -0.12015387613E+02 -0.14036911183E+03 -0.20707230146E+02  0.16353550816E+03  0.80419002446E+02 0. -1.
<mgrwt>
<rscale>  0 0.16221921E+03</rscale>
<asrwt>0</asrwt>
<pdfrwt beam="1">  1        2 0.24041827E-01 0.16221921E+03</pdfrwt>
<pdfrwt beam="2">  1       -2 0.26099753E-01 0.16221921E+03</pdfrwt>
<totfact> 0.28826158E+03</totfact>
</mgrwt>
</event>
<event>
 4    1  0.5097315E-001  0.8391348E+02  0.7546771E-02  0.1318299E+00
          2   -1    0    0  501    0  0.00000000000E+00  0.00000000000E+00  0.51346899406E+03  0.51346899406E+03  0.00000000000E+00 0. -1.
         -2   -1    0    0    0  501 -0.00000000000E+00 -0.00000000000E+00 -0.21655909518E+02  0.21655909518E+02  0.00000000000E+00 0.  1.
         24    1    1    2    0    0 -0.14053735071E+02  0.19410019651E+02  0.40794282799E+03  0.41648388107E+03  0.80419002446E+02 0. -1.
        -24    1    1    2    0    0  0.14053735071E+02 -0.19410019651E+02  0.83870256553E+02  0.11864102250E+03  0.80419002446E+02 0. -1.
<mgrwt>
<rscale>  0 0.83913481E+02</rscale>
<asrwt>0</asrwt>
<pdfrwt beam="1">  1        2 0.78995221E-01 0.83913481E+02</pdfrwt>
<pdfrwt beam="2">  1       -2 0.33316788E-02 0.83913481E+02</pdfrwt>
<totfact> 0.19660132E+04</totfact>
</mgrwt>
</event>
<event>
 4    1  0.5097315E-001  0.1081751E+03  0.7546771E-02  0.1263987E+00
          1   -1    0    0  501    0  0.00000000000E+00  0.00000000000E+00  0.25059021185E+02  0.25059021185E+02  0.00000000000E+00 0. -1.
         -1   -1    0    0    0  501 -0.00000000000E+00 -0.00000000000E+00 -0.66083031501E+03  0.66083031501E+03  0.00000000000E+00 0.  1.
         24    1    1    2    0    0  0.67847511956E+02  0.25126511509E+02 -0.50363278653E+03  0.51511923482E+03  0.80419002446E+02 0.  0.
        -24    1    1    2    0    0 -0.67847511956E+02 -0.25126511509E+02 -0.13213850730E+03  0.17077010138E+03  0.80419002446E+02 0. -1.
<mgrwt>
<rscale>  0 0.10817505E+03</rscale>
<asrwt>0</asrwt>
<pdfrwt beam="1">  1        1 0.38552336E-02 0.10817505E+03</pdfrwt>
<pdfrwt beam="2">  1       -1 0.10166621E+00 0.10817505E+03</pdfrwt>
<totfact> 0.22254763E+03</totfact>
</mgrwt>
</event>
<event>
 4    1  0.5097315E-001  0.9692145E+02  0.7546771E-02  0.1286906E+00
          1   -1    0    0  501    0  0.00000000000E+00  0.00000000000E+00  0.84416593412E+03  0.84416593412E+03  0.00000000000E+00 0. -1.
         -1   -1    0    0    0  501 -0.00000000000E+00 -0.00000000000E+00 -0.11890267850E+02  0.11890267850E+02  0.00000000000E+00 0.  1.
         24    1    1    2    0    0  0.70311899468E+01  0.53638736213E+02  0.30775320606E+03  0.32265430951E+03  0.80419002446E+02 0.  1.
        -24    1    1    2    0    0 -0.70311899468E+01 -0.53638736213E+02  0.52452246021E+03  0.53340189246E+03  0.80419002446E+02 0. -1.
<mgrwt>
<rscale>  0 0.96921451E+02</rscale>
<asrwt>0</asrwt>
<pdfrwt beam="1">  1        1 0.12987163E+00 0.96921451E+02</pdfrwt>
<pdfrwt beam="2">  1       -1 0.18292726E-02 0.96921451E+02</pdfrwt>
<totfact> 0.15378425E+04</totfact>
</mgrwt>
</event>
<event>
 4    1  0.5097315E-001  0.1047578E+03  0.7546771E-02  0.1270598E+00
         -2   -1    0    0    0  501 -0.00000000000E+00  0.00000000000E+00  0.26627991116E+02  0.26627991116E+02  0.00000000000E+00 0.  1.
          2   -1    0    0  501    0  0.00000000000E+00 -0.00000000000E+00 -0.76262443297E+03  0.76262443297E+03  0.00000000000E+00 0. -1.
         24    1    1    2    0    0  0.65236878275E+02 -0.15846784213E+02 -0.63552748825E+03  0.64410354379E+03  0.80419002446E+02 0. -1.
        -24    1    1    2    0    0 -0.65236878275E+02  0.15846784213E+02 -0.10046895361E+03  0.14514888029E+03  0.80419002446E+02 0.  1.
<mgrwt>
<rscale>  0 0.10475775E+03</rscale>
<asrwt>0</asrwt>
<pdfrwt beam="1">  1        2 0.11732684E+00 0.10475775E+03</pdfrwt>
<pdfrwt beam="2">  1       -2 0.40966137E-02 0.10475775E+03</pdfrwt>
<totfact> 0.94369763E+03</totfact>
</mgrwt>
</event>
<event>
 4    1  0.5097315E-001  0.9437344E+02  0.7546771E-02  0.1292594E+00
         -3   -1    0    0    0  501 -0.00000000000E+00  0.00000000000E+00  0.20130186797E+02  0.20130186797E+02  0.00000000000E+00 0.  1.
          3   -1    0    0  501    0  0.00000000000E+00 -0.00000000000E+00 -0.92418974857E+03  0.92418974857E+03  0.00000000000E+00 0. -1.
         24    1    1    2    0    0  0.49065765076E+02  0.56285541051E+01 -0.11113484808E+03  0.14579883516E+03  0.80419002446E+02 0.  1.
        -24    1    1    2    0    0 -0.49065765076E+02 -0.56285541051E+01 -0.79292471370E+03  0.79852110020E+03  0.80419002446E+02 0. -1.
<mgrwt>
<rscale>  0 0.94373438E+02</rscale>
<asrwt>0</asrwt>
<pdfrwt beam="1">  1        3 0.14218304E+00 0.94373438E+02</pdfrwt>
<pdfrwt beam="2">  1       -3 0.30969517E-02 0.94373438E+02</pdfrwt>
<totfact> 0.42006692E+02</totfact>
</mgrwt>
</event>
<event>
 4    1  0.5097315E-001  0.1011553E+03  0.7546771E-02  0.1277885E+00
         -2   -1    0    0    0  501 -0.00000000000E+00  0.00000000000E+00  0.69463236102E+02  0.69463236102E+02  0.00000000000E+00 0.  1.
          2   -1    0    0  501    0  0.00000000000E+00 -0.00000000000E+00 -0.14778608605E+03  0.14778608605E+03  0.00000000000E+00 0. -1.
         24    1    1    2    0    0  0.55951451796E+02 -0.25191461721E+02 -0.32973916407E+02  0.10639393695E+03  0.80419002446E+02 0. -1.
        -24    1    1    2    0    0 -0.55951451796E+02  0.25191461721E+02 -0.45348933544E+02  0.11085538521E+03  0.80419002446E+02 0.  1.
<mgrwt>
<rscale>  0 0.10115529E+03</rscale>
<asrwt>0</asrwt>
<pdfrwt beam="1">  1        2 0.22736321E-01 0.10115531E+03</pdfrwt>
<pdfrwt beam="2">  1       -2 0.10686652E-01 0.10115531E+03</pdfrwt>
<totfact> 0.13022774E+04</totfact>
</mgrwt>
</event>
<event>
 4    1  0.5097315E-001  0.8294193E+02  0.7546771E-02  0.1320904E+00
          2   -1    0    0  501    0  0.00000000000E+00  0.00000000000E+00  0.27818204451E+04  0.27818204451E+04  0.00000000000E+00 0. -1.
         -2   -1    0    0    0  501 -0.00000000000E+00 -0.00000000000E+00 -0.16038246780E+02  0.16038246780E+02  0.00000000000E+00 0.  1.
         24    1    1    2    0    0  0.11795609771E+02 -0.16523080796E+02  0.26694557942E+04  0.26707440165E+04  0.80419002446E+02 0. -1.
        -24    1    1    2    0    0 -0.11795609771E+02  0.16523080796E+02  0.96326404133E+02  0.12711467538E+03  0.80419002446E+02 0.  1.
<mgrwt>
<rscale>  0 0.82941935E+02</rscale>
<asrwt>0</asrwt>
<pdfrwt beam="1">  1        2 0.42797199E+00 0.82941935E+02</pdfrwt>
<pdfrwt beam="2">  1       -2 0.24674248E-02 0.82941935E+02</pdfrwt>
<totfact> 0.16395182E+03</totfact>
</mgrwt>
</event>
<event>
 4    1  0.5097315E-001  0.1090182E+03  0.7546771E-02  0.1262399E+00
          1   -1    0    0  501    0  0.00000000000E+00  0.00000000000E+00  0.49542791241E+03  0.49542791241E+03  0.00000000000E+00 0. -1.
         -1   -1    0    0    0  501 -0.00000000000E+00 -0.00000000000E+00 -0.33873533820E+02  0.33873533820E+02  0.00000000000E+00 0.  1.
         24    1    1    2    0    0 -0.65777660480E+02  0.33031009751E+02  0.87817188188E+02  0.13998865211E+03  0.80419002446E+02 0.  1.
        -24    1    1    2    0    0  0.65777660480E+02 -0.33031009751E+02  0.37373719040E+03  0.38931279412E+03  0.80419002446E+02 0. -1.
<mgrwt>
<rscale>  0 0.10901818E+03</rscale>
<asrwt>0</asrwt>
<pdfrwt beam="1">  1        1 0.76219673E-01 0.10901818E+03</pdfrwt>
<pdfrwt beam="2">  1       -1 0.52113133E-02 0.10901818E+03</pdfrwt>
<totfact> 0.71377197E+03</totfact>
</mgrwt>
</event>
<event>
 4    1  0.5097315E-001  0.2324826E+03  0.7546771E-02  0.1124905E+00
          1   -1    0    0  501    0  0.00000000000E+00  0.00000000000E+00  0.11917801081E+03  0.11917801081E+03  0.00000000000E+00 0. -1.
         -1   -1    0    0    0  501 -0.00000000000E+00 -0.00000000000E+00 -0.48446870922E+03  0.48446870922E+03  0.00000000000E+00 0.  1.
         24    1    1    2    0    0 -0.15210458289E+03  0.15634930362E+03 -0.10634460773E+03  0.25565073915E+03  0.80419002446E+02 0. -1.
        -24    1    1    2    0    0  0.15210458289E+03 -0.15634930362E+03 -0.25894609068E+03  0.34799598088E+03  0.80419002446E+02 0.  1.
<mgrwt>
<rscale>  0 0.23248255E+03</rscale>
<asrwt>0</asrwt>
<pdfrwt beam="1">  1        1 0.18335078E-01 0.23248258E+03</pdfrwt>
<pdfrwt beam="2">  1       -1 0.74533649E-01 0.23248258E+03</pdfrwt>
<totfact> 0.54123831E+02</totfact>
</mgrwt>
</event>
<event>
 4    1  0.5097315E-001  0.8428881E+02  0.7546771E-02  0.1317303E+00
         -1   -1    0    0    0  501 -0.00000000000E+00  0.00000000000E+00  0.13968113504E+02  0.13968113504E+02  0.00000000000E+00 0.  1.
          1   -1    0    0  501    0  0.00000000000E+00 -0.00000000000E+00 -0.15409743397E+04  0.15409743397E+04  0.00000000000E+00 0. -1.
         24    1    1    2    0    0  0.24866391010E+02  0.43645644336E+01 -0.12714894360E+03  0.15254984968E+03  0.80419002446E+02 0.  0.
        -24    1    1    2    0    0 -0.24866391010E+02 -0.43645644336E+01 -0.13998572826E+04  0.14023926035E+04  0.80419002446E+02 0. -1.
<mgrwt>
<rscale>  0 0.84288806E+02</rscale>
<asrwt>0</asrwt>
<pdfrwt beam="1">  1        1 0.23707303E+00 0.84288806E+02</pdfrwt>
<pdfrwt beam="2">  1       -1 0.21489400E-02 0.84288806E+02</pdfrwt>
<totfact> 0.40392711E+03</totfact>
</mgrwt>
</event>
<event>
 4    1  0.5097315E-001  0.9816938E+02  0.7546771E-02  0.1284193E+00
          2   -1    0    0  501    0  0.00000000000E+00  0.00000000000E+00  0.66212940129E+03  0.66212940129E+03  0.00000000000E+00 0. -1.
         -2   -1    0    0    0  501 -0.00000000000E+00 -0.00000000000E+00 -0.14555237648E+02  0.14555237648E+02  0.00000000000E+00 0.  1.
         24    1    1    2    0    0 -0.98657947546E+01  0.55431736383E+02  0.32541654113E+03  0.33990168064E+03  0.80419002446E+02 0. -1.
        -24    1    1    2    0    0  0.98657947546E+01 -0.55431736383E+02  0.32215762251E+03  0.33678295830E+03  0.80419002446E+02 0.  1.
<mgrwt>
<rscale>  0 0.98169380E+02</rscale>
<asrwt>0</asrwt>
<pdfrwt beam="1">  1        2 0.10186604E+00 0.98169380E+02</pdfrwt>
<pdfrwt beam="2">  1       -2 0.22392678E-02 0.98169380E+02</pdfrwt>
<totfact> 0.26770321E+04</totfact>
</mgrwt>
</event>
<event>
 4    1  0.5097315E-001  0.8556133E+02  0.7546771E-02  0.1313971E+00
         -4   -1    0    0    0  501 -0.00000000000E+00  0.00000000000E+00  0.88435911194E+02  0.88435911194E+02  0.00000000000E+00 0.  1.
          4   -1    0    0  501    0  0.00000000000E+00 -0.00000000000E+00 -0.10643927149E+03  0.10643927149E+03  0.00000000000E+00 0. -1.
         24    1    1    2    0    0  0.16405758689E+01 -0.29169057618E+02 -0.54939941072E+02  0.10168155433E+03  0.80419002446E+02 0.  1.
        -24    1    1    2    0    0 -0.16405758689E+01  0.29169057618E+02  0.36936580778E+02  0.93193628352E+02  0.80419002446E+02 0.  1.
<mgrwt>
<rscale>  0 0.85561331E+02</rscale>
<asrwt>0</asrwt>
<pdfrwt beam="1">  1        4 0.16375272E-01 0.85561331E+02</pdfrwt>
<pdfrwt beam="2">  1       -4 0.13605525E-01 0.85561331E+02</pdfrwt>
<totfact> 0.21121111E+03</totfact>
</mgrwt>
</event>
<event>
 4    1  0.5097315E-001  0.8549401E+02  0.7546771E-02  0.1314146E+00
          2   -1    0    0  501    0  0.00000000000E+00  0.00000000000E+00  0.24525504103E+02  0.24525504103E+02  0.00000000000E+00 0. -1.
         -2   -1    0    0    0  501 -0.00000000000E+00 -0.00000000000E+00 -0.35710353613E+03  0.35710353613E+03  0.00000000000E+00 0.  1.
         24    1    1    2    0    0  0.28557749003E+00  0.29016014338E+02 -0.88677311207E+02  0.12317829403E+03  0.80419002446E+02 0. -1.
        -24    1    1    2    0    0 -0.28557749003E+00 -0.29016014338E+02 -0.24390072082E+03  0.25845074621E+03  0.80419002446E+02 0.  1.
<mgrwt>
<rscale>  0 0.85494015E+02</rscale>
<asrwt>0</asrwt>
<pdfrwt beam="1">  1        2 0.37731548E-02 0.85494015E+02</pdfrwt>
<pdfrwt beam="2">  1       -2 0.54939001E-01 0.85494015E+02</pdfrwt>
<totfact> 0.65637753E+03</totfact>
</mgrwt>
</event>
<event>
 4    1  0.5097315E-001  0.1057918E+03  0.7546771E-02  0.1268567E+00
         -2   -1    0    0    0  501 -0.00000000000E+00  0.00000000000E+00  0.16749319569E+03  0.16749319569E+03  0.00000000000E+00 0.  1.
          2   -1    0    0  501    0  0.00000000000E+00 -0.00000000000E+00 -0.70074805081E+02  0.70074805081E+02  0.00000000000E+00 0. -1.
         24    1    1    2    0    0 -0.66122330964E+02  0.18775298571E+02  0.74309282219E+02  0.12928170739E+03  0.80419002446E+02 0.  0.
        -24    1    1    2    0    0  0.66122330964E+02 -0.18775298571E+02  0.23109108390E+02  0.10828629338E+03  0.80419002446E+02 0.  1.
<mgrwt>
<rscale>  0 0.10579174E+03</rscale>
<asrwt>0</asrwt>
<pdfrwt beam="1">  1        2 0.10780739E-01 0.10579176E+03</pdfrwt>
<pdfrwt beam="2">  1       -2 0.25768184E-01 0.10579176E+03</pdfrwt>
<totfact> 0.72677803E+03</totfact>
</mgrwt>
</event>
<event>
 4    1  0.5097315E-001  0.8329135E+02  0.7546771E-02  0.1319962E+00
         -1   -1    0    0    0  501 -0.00000000000E+00  0.00000000000E+00  0.88937653509E+01  0.88937653509E+01  0.00000000000E+00 0.  1.
          1   -1    0    0  501    0  0.00000000000E+00 -0.00000000000E+00 -0.79538907798E+03  0.79538907798E+03  0.00000000000E+00 0. -1.
         24    1    1    2    0    0  0.13865172833E+02  0.16672909213E+02 -0.44912120377E+03  0.45677926896E+03  0.80419002446E+02 0. -1.
        -24    1    1    2    0    0 -0.13865172833E+02 -0.16672909213E+02 -0.33737410886E+03  0.34750357437E+03  0.80419002446E+02 0. -1.
<mgrwt>
<rscale>  0 0.83291336E+02</rscale>
<asrwt>0</asrwt>
<pdfrwt beam="1">  1        1 0.12236758E+00 0.83291346E+02</pdfrwt>
<pdfrwt beam="2">  1       -1 0.13682713E-02 0.83291346E+02</pdfrwt>
<totfact> 0.25039357E+04</totfact>
</mgrwt>
</event>
<event>
 4    1  0.5097315E-001  0.8411984E+02  0.7546771E-02  0.1317750E+00
         -2   -1    0    0    0  501 -0.00000000000E+00  0.00000000000E+00  0.94680469585E+01  0.94680469585E+01  0.00000000000E+00 0.  1.
          2   -1    0    0  501    0  0.00000000000E+00 -0.00000000000E+00 -0.77648705418E+03  0.77648705418E+03  0.00000000000E+00 0. -1.
         24    1    1    2    0    0  0.11826452334E+02 -0.21657938145E+02 -0.45960590889E+03  0.46724055764E+03  0.80419002446E+02 0. -1.
        -24    1    1    2    0    0 -0.11826452334E+02  0.21657938145E+02 -0.30741309833E+03  0.31871454350E+03  0.80419002446E+02 0.  1.
<mgrwt>
<rscale>  0 0.84119838E+02</rscale>
<asrwt>0</asrwt>
<pdfrwt beam="1">  1        2 0.11945955E+00 0.84119838E+02</pdfrwt>
<pdfrwt beam="2">  1       -2 0.14566226E-02 0.84119838E+02</pdfrwt>
<totfact> 0.40428806E+04</totfact>
</mgrwt>
</event>
<event>
 4    1  0.5097315E-001  0.8858762E+02  0.7546771E-02  0.1306308E+00
         -1   -1    0    0    0  501 -0.00000000000E+00  0.00000000000E+00  0.62325072247E+01  0.62325072247E+01  0.00000000000E+00 0.  1.
          1   -1    0    0  501    0  0.00000000000E+00 -0.00000000000E+00 -0.26818612311E+04  0.26818612311E+04  0.00000000000E+00 0. -1.
         24    1    1    2    0    0 -0.35604941240E+02  0.10622522685E+02 -0.35888334775E+03  0.36965527600E+03  0.80419002446E+02 0.  1.
        -24    1    1    2    0    0  0.35604941240E+02 -0.10622522685E+02 -0.23167453761E+04  0.23184384623E+04  0.80419002446E+02 0. -1.
<mgrwt>
<rscale>  0 0.88587616E+02</rscale>
<asrwt>0</asrwt>
<pdfrwt beam="1">  1        1 0.41259361E+00 0.88587616E+02</pdfrwt>
<pdfrwt beam="2">  1       -1 0.95884824E-03 0.88587616E+02</pdfrwt>
<totfact> 0.24051914E+03</totfact>
</mgrwt>
</event>
<event>
 4    1  0.5097315E-001  0.8482478E+02  0.7546771E-02  0.1315891E+00
          2   -1    0    0  501    0  0.00000000000E+00  0.00000000000E+00  0.50268063507E+03  0.50268063507E+03  0.00000000000E+00 0. -1.
         -2   -1    0    0    0  501 -0.00000000000E+00 -0.00000000000E+00 -0.37032135833E+02  0.37032135833E+02  0.00000000000E+00 0.  1.
         24    1    1    2    0    0  0.24070017896E+02 -0.12192671164E+02  0.44418877173E+03  0.45221555466E+03  0.80419002446E+02 0. -1.
        -24    1    1    2    0    0 -0.24070017896E+02  0.12192671164E+02  0.21459727509E+02  0.87497216246E+02  0.80419002446E+02 0.  1.
<mgrwt>
<rscale>  0 0.84824778E+02</rscale>
<asrwt>0</asrwt>
<pdfrwt beam="1">  1        2 0.77335477E-01 0.84824778E+02</pdfrwt>
<pdfrwt beam="2">  1       -2 0.56972520E-02 0.84824778E+02</pdfrwt>
<totfact> 0.91342302E+03</totfact>
</mgrwt>
</event>
<event>
 4    1  0.5097315E-001  0.8098632E+02  0.7546771E-02  0.1326275E+00
         -1   -1    0    0    0  501 -0.00000000000E+00  0.00000000000E+00  0.56682804058E+01  0.56682804058E+01  0.00000000000E+00 0.  1.
          1   -1    0    0  501    0  0.00000000000E+00 -0.00000000000E+00 -0.14825303298E+04  0.14825303298E+04  0.00000000000E+00 0. -1.
         24    1    1    2    0    0 -0.52424869841E+01  0.80053048473E+01 -0.38980798492E+03  0.39813195003E+03  0.80419002446E+02 0.  0.
        -24    1    1    2    0    0  0.52424869841E+01 -0.80053048473E+01 -0.10870540644E+04  0.10900666601E+04  0.80419002446E+02 0.  0.
<mgrwt>
<rscale>  0 0.80986323E+02</rscale>
<asrwt>0</asrwt>
<pdfrwt beam="1">  1        1 0.22808185E+00 0.80986323E+02</pdfrwt>
<pdfrwt beam="2">  1       -1 0.87204215E-03 0.80986323E+02</pdfrwt>
<totfact> 0.15710798E+04</totfact>
</mgrwt>
</event>
<event>
 4    1  0.5097315E-001  0.9657215E+02  0.7546771E-02  0.1287674E+00
          1   -1    0    0  501    0  0.00000000000E+00  0.00000000000E+00  0.90351734814E+03  0.90351734814E+03  0.00000000000E+00 0. -1.
         -1   -1    0    0    0  501 -0.00000000000E+00 -0.00000000000E+00 -0.11700755093E+02  0.11700755093E+02  0.00000000000E+00 0.  1.
         24    1    1    2    0    0  0.23205050768E+02  0.48171454080E+02  0.28882917761E+03  0.30454633992E+03  0.80419002446E+02 0.  1.
        -24    1    1    2    0    0 -0.23205050768E+02 -0.48171454080E+02  0.60298741544E+03  0.61067176331E+03  0.80419002446E+02 0. -1.
<mgrwt>
<rscale>  0 0.96572146E+02</rscale>
<asrwt>0</asrwt>
<pdfrwt beam="1">  1        1 0.13900261E+00 0.96572146E+02</pdfrwt>
<pdfrwt beam="2">  1       -1 0.18001169E-02 0.96572146E+02</pdfrwt>
<totfact> 0.14160386E+04</totfact>
</mgrwt>
</event>
<event>
 4    1  0.5097315E-001  0.9080535E+02  0.7546771E-02  0.1300913E+00
         -1   -1    0    0    0  501 -0.00000000000E+00  0.00000000000E+00  0.85215033171E+01  0.85215033171E+01  0.00000000000E+00 0.  1.
          1   -1    0    0  501    0  0.00000000000E+00 -0.00000000000E+00 -0.26048143502E+04  0.26048143502E+04  0.00000000000E+00 0. -1.
         24    1    1    2    0    0  0.39433581976E+02 -0.14946164397E+02 -0.26222591600E+03  0.27750322916E+03  0.80419002446E+02 0.  1.
        -24    1    1    2    0    0 -0.39433581976E+02  0.14946164397E+02 -0.23340669309E+04  0.23358326243E+04  0.80419002446E+02 0. -1.
<mgrwt>
<rscale>  0 0.90805348E+02</rscale>
<asrwt>0</asrwt>
<pdfrwt beam="1">  1        1 0.40074110E+00 0.90805348E+02</pdfrwt>
<pdfrwt beam="2">  1       -1 0.13109991E-02 0.90805348E+02</pdfrwt>
<totfact> 0.17357538E+03</totfact>
</mgrwt>
</event>
<event>
 4    1  0.5097315E-001  0.9765655E+02  0.7546771E-02  0.1285303E+00
         -1   -1    0    0    0  501 -0.00000000000E+00  0.00000000000E+00  0.10695878988E+02  0.10695878988E+02  0.00000000000E+00 0.  1.
          1   -1    0    0  501    0  0.00000000000E+00 -0.00000000000E+00 -0.97057118913E+03  0.97057118913E+03  0.00000000000E+00 0. -1.
         24    1    1    2    0    0 -0.52533308092E+02  0.17602177784E+02 -0.34001549814E+03  0.35376169953E+03  0.80419002446E+02 0.  1.
        -24    1    1    2    0    0  0.52533308092E+02 -0.17602177784E+02 -0.61985981200E+03  0.62750536859E+03  0.80419002446E+02 0. -1.
<mgrwt>
<rscale>  0 0.97656547E+02</rscale>
<asrwt>0</asrwt>
<pdfrwt beam="1">  1        1 0.14931866E+00 0.97656547E+02</pdfrwt>
<pdfrwt beam="2">  1       -1 0.16455197E-02 0.97656547E+02</pdfrwt>
<totfact> 0.14360608E+04</totfact>
</mgrwt>
</event>
<event>
 4    1  0.5097315E-001  0.8343775E+02  0.7546771E-02  0.1319569E+00
         -2   -1    0    0    0  501 -0.00000000000E+00  0.00000000000E+00  0.21269451173E+02  0.21269451173E+02  0.00000000000E+00 0.  1.
          2   -1    0    0  501    0  0.00000000000E+00 -0.00000000000E+00 -0.86424037849E+03  0.86424037849E+03  0.00000000000E+00 0. -1.
         24    1    1    2    0    0 -0.92188113476E+01  0.20239932211E+02 -0.77046678984E+03  0.77497156821E+03  0.80419002446E+02 0. -1.
        -24    1    1    2    0    0  0.92188113476E+01 -0.20239932211E+02 -0.72504137479E+02  0.11053826145E+03  0.80419002446E+02 0.  1.
<mgrwt>
<rscale>  0 0.83437745E+02</rscale>
<asrwt>0</asrwt>
<pdfrwt beam="1">  1        2 0.13296005E+00 0.83437745E+02</pdfrwt>
<pdfrwt beam="2">  1       -2 0.32722234E-02 0.83437745E+02</pdfrwt>
<totfact> 0.11067693E+04</totfact>
</mgrwt>
</event>
<event>
 4    1  0.5097315E-001  0.8726957E+02  0.7546771E-02  0.1309602E+00
         -1   -1    0    0    0  501 -0.00000000000E+00  0.00000000000E+00  0.34388050446E+03  0.34388050446E+03  0.00000000000E+00 0.  1.
          1   -1    0    0  501    0  0.00000000000E+00 -0.00000000000E+00 -0.30779908111E+02  0.30779908111E+02  0.00000000000E+00 0. -1.
         24    1    1    2    0    0 -0.33847601462E+02  0.17614249478E+01  0.25575871738E+03  0.27023785859E+03  0.80419002446E+02 0.  1.
        -24    1    1    2    0    0  0.33847601462E+02 -0.17614249478E+01  0.57341878967E+02  0.10442255398E+03  0.80419002446E+02 0. -1.
<mgrwt>
<rscale>  0 0.87269575E+02</rscale>
<asrwt>0</asrwt>
<pdfrwt beam="1">  1        1 0.47353707E-02 0.87269575E+02</pdfrwt>
<pdfrwt beam="2">  1       -1 0.52904691E-01 0.87269575E+02</pdfrwt>
<totfact> 0.60817602E+03</totfact>
</mgrwt>
</event>
<event>
 4    1  0.5097315E-001  0.8291038E+02  0.7546771E-02  0.1320989E+00
         -2   -1    0    0    0  501 -0.00000000000E+00  0.00000000000E+00  0.11208180200E+02  0.11208180200E+02  0.00000000000E+00 0.  1.
          2   -1    0    0  501    0  0.00000000000E+00 -0.00000000000E+00 -0.17960269217E+04  0.17960269217E+04  0.00000000000E+00 0. -1.
         24    1    1    2    0    0 -0.13475953810E+02 -0.15010482688E+02 -0.16256861618E+04  0.16277990136E+04  0.80419002446E+02 0. -1.
        -24    1    1    2    0    0  0.13475953810E+02  0.15010482688E+02 -0.15913257967E+03  0.17943608831E+03  0.80419002446E+02 0.  1.
<mgrwt>
<rscale>  0 0.82910385E+02</rscale>
<asrwt>0</asrwt>
<pdfrwt beam="1">  1        2 0.27631197E+00 0.82910385E+02</pdfrwt>
<pdfrwt beam="2">  1       -2 0.17243346E-02 0.82910385E+02</pdfrwt>
<totfact> 0.88079245E+03</totfact>
</mgrwt>
</event>
<event>
 4    1  0.5097315E-001  0.8441840E+02  0.7546771E-02  0.1316961E+00
          2   -1    0    0  501    0  0.00000000000E+00  0.00000000000E+00  0.26030236650E+03  0.26030236650E+03  0.00000000000E+00 0. -1.
         -2   -1    0    0    0  501 -0.00000000000E+00 -0.00000000000E+00 -0.89524489005E+02  0.89524489005E+02  0.00000000000E+00 0.  1.
         24    1    1    2    0    0  0.25322596235E+02  0.42446291673E+01  0.23112322967E+03  0.24605774526E+03  0.80419002446E+02 0. -1.
        -24    1    1    2    0    0 -0.25322596235E+02 -0.42446291673E+01 -0.60345352175E+02  0.10376911024E+03  0.80419002446E+02 0.  1.
<mgrwt>
<rscale>  0 0.84418403E+02</rscale>
<asrwt>0</asrwt>
<pdfrwt beam="1">  1        2 0.40046517E-01 0.84418403E+02</pdfrwt>
<pdfrwt beam="2">  1       -2 0.13772998E-01 0.84418403E+02</pdfrwt>
<totfact> 0.46808282E+03</totfact>
</mgrwt>
</event>
<event>
 4    1  0.5097315E-001  0.8824644E+02  0.7546771E-02  0.1307155E+00
          2   -1    0    0  501    0  0.00000000000E+00  0.00000000000E+00  0.20039988037E+03  0.20039988037E+03  0.00000000000E+00 0. -1.
         -2   -1    0    0    0  501 -0.00000000000E+00 -0.00000000000E+00 -0.11257375963E+03  0.11257375963E+03  0.00000000000E+00 0.  1.
         24    1    1    2    0    0  0.23706255609E+02  0.27536008313E+02  0.17054259354E+03  0.19202138026E+03  0.80419002446E+02 0. -1.
        -24    1    1    2    0    0 -0.23706255609E+02 -0.27536008313E+02 -0.82716472801E+02  0.12095225974E+03  0.80419002446E+02 0.  1.
<mgrwt>
<rscale>  0 0.88246441E+02</rscale>
<asrwt>0</asrwt>
<pdfrwt beam="1">  1        2 0.30830751E-01 0.88246441E+02</pdfrwt>
<pdfrwt beam="2">  1       -2 0.17319040E-01 0.88246441E+02</pdfrwt>
<totfact> 0.42680545E+03</totfact>
</mgrwt>
</event>
<event>
 4    1  0.5097315E-001  0.8774454E+02  0.7546771E-02  0.1308407E+00
          2   -1    0    0  501    0  0.00000000000E+00  0.00000000000E+00  0.26352894528E+04  0.26352894528E+04  0.00000000000E+00 0. -1.
         -2   -1    0    0    0  501 -0.00000000000E+00 -0.00000000000E+00 -0.30664137853E+01  0.30664137853E+01  0.00000000000E+00 0.  1.
         24    1    1    2    0    0  0.34390965330E+02 -0.70107073332E+01  0.16028476230E+04  0.16052475220E+04  0.80419002446E+02 0.  0.
        -24    1    1    2    0    0 -0.34390965330E+02  0.70107073332E+01  0.10293754160E+04  0.10331083446E+04  0.80419002446E+02 0. -1.
<mgrwt>
<rscale>  0 0.87744541E+02</rscale>
<asrwt>0</asrwt>
<pdfrwt beam="1">  1        2 0.40542733E+00 0.87744541E+02</pdfrwt>
<pdfrwt beam="2">  1       -2 0.47175808E-03 0.87744541E+02</pdfrwt>
<totfact> 0.20504459E+04</totfact>
</mgrwt>
</event>
<event>
 4    1  0.5097315E-001  0.8344971E+02  0.7546771E-02  0.1319537E+00
         -3   -1    0    0    0  501 -0.00000000000E+00  0.00000000000E+00  0.74265561767E+03  0.74265561767E+03  0.00000000000E+00 0.  1.
          3   -1    0    0  501    0  0.00000000000E+00 -0.00000000000E+00 -0.12717894845E+02  0.12717894845E+02  0.00000000000E+00 0. -1.
         24    1    1    2    0    0 -0.21538368520E+02 -0.57216092006E+01  0.55854773744E+03  0.56474722583E+03  0.80419002446E+02 0.  1.
        -24    1    1    2    0    0  0.21538368520E+02  0.57216092006E+01  0.17138998538E+03  0.19062628668E+03  0.80419002446E+02 0. -1.
<mgrwt>
<rscale>  0 0.83449710E+02</rscale>
<asrwt>0</asrwt>
<pdfrwt beam="1">  1        3 0.19565998E-02 0.83449710E+02</pdfrwt>
<pdfrwt beam="2">  1       -3 0.11425468E+00 0.83449710E+02</pdfrwt>
<totfact> 0.13794366E+03</totfact>
</mgrwt>
</event>
<event>
 4    1  0.5097315E-001  0.8337155E+02  0.7546771E-02  0.1319747E+00
         -2   -1    0    0    0  501 -0.00000000000E+00  0.00000000000E+00  0.22398732519E+02  0.22398732519E+02  0.00000000000E+00 0.  1.
          2   -1    0    0  501    0  0.00000000000E+00 -0.00000000000E+00 -0.42623309164E+03  0.42623309164E+03  0.00000000000E+00 0. -1.
         24    1    1    2    0    0  0.41721283968E+01  0.21591483019E+02 -0.31889388694E+03  0.32961208394E+03  0.80419002446E+02 0. -1.
        -24    1    1    2    0    0 -0.41721283968E+01 -0.21591483019E+02 -0.84940472182E+02  0.11901974023E+03  0.80419002446E+02 0.  1.
<mgrwt>
<rscale>  0 0.83371546E+02</rscale>
<asrwt>0</asrwt>
<pdfrwt beam="1">  1        2 0.65574325E-01 0.83371546E+02</pdfrwt>
<pdfrwt beam="2">  1       -2 0.34459587E-02 0.83371546E+02</pdfrwt>
<totfact> 0.22817105E+04</totfact>
</mgrwt>
</event>
<event>
 4    1  0.5097315E-001  0.9230396E+02  0.7546771E-02  0.1297366E+00
         -2   -1    0    0    0  501 -0.00000000000E+00  0.00000000000E+00  0.45497070441E+01  0.45497070441E+01  0.00000000000E+00 0.  1.
          2   -1    0    0  501    0  0.00000000000E+00 -0.00000000000E+00 -0.18787554050E+04  0.18787554050E+04  0.00000000000E+00 0. -1.
         24    1    1    2    0    0 -0.41064411971E+02  0.19144587227E+02 -0.88343074436E+03  0.88823977461E+03  0.80419002446E+02 0. -1.
        -24    1    1    2    0    0  0.41064411971E+02 -0.19144587227E+02 -0.99077495356E+03  0.99506533741E+03  0.80419002446E+02 0.  1.
<mgrwt>
<rscale>  0 0.92303950E+02</rscale>
<asrwt>0</asrwt>
<pdfrwt beam="1">  1        2 0.28903985E+00 0.92303962E+02</pdfrwt>
<pdfrwt beam="2">  1       -2 0.69995358E-03 0.92303962E+02</pdfrwt>
<totfact> 0.28901631E+04</totfact>
</mgrwt>
</event>
<event>
 4    1  0.5097315E-001  0.1211377E+03  0.7546771E-02  0.1241232E+00
         -4   -1    0    0    0  501 -0.00000000000E+00  0.00000000000E+00  0.80730352082E+02  0.80730352082E+02  0.00000000000E+00 0.  1.
          4   -1    0    0  501    0  0.00000000000E+00 -0.00000000000E+00 -0.20039100216E+03  0.20039100216E+03  0.00000000000E+00 0. -1.
         24    1    1    2    0    0 -0.89488719399E+02  0.14103185093E+02 -0.16982614922E+02  0.12232234421E+03  0.80419002446E+02 0. -1.
        -24    1    1    2    0    0  0.89488719399E+02 -0.14103185093E+02 -0.10267803516E+03  0.15879901004E+03  0.80419002446E+02 0.  1.
<mgrwt>
<rscale>  0 0.12113773E+03</rscale>
<asrwt>0</asrwt>
<pdfrwt beam="1">  1        4 0.30829385E-01 0.12113775E+03</pdfrwt>
<pdfrwt beam="2">  1       -4 0.12420054E-01 0.12113775E+03</pdfrwt>
<totfact> 0.85269026E+02</totfact>
</mgrwt>
</event>
<event>
 4    1  0.5097315E-001  0.8685994E+02  0.7546771E-02  0.1310639E+00
         -1   -1    0    0    0  501 -0.00000000000E+00  0.00000000000E+00  0.95435302719E+02  0.95435302719E+02  0.00000000000E+00 0.  1.
          1   -1    0    0  501    0  0.00000000000E+00 -0.00000000000E+00 -0.86579758105E+02  0.86579758105E+02  0.00000000000E+00 0. -1.
         24    1    1    2    0    0  0.32824280089E+02  0.11615174100E-01  0.31257231009E+02  0.92312859034E+02  0.80419002446E+02 0.  1.
        -24    1    1    2    0    0 -0.32824280089E+02 -0.11615174100E-01 -0.22401686395E+02  0.89702201790E+02  0.80419002446E+02 0. -1.
<mgrwt>
<rscale>  0 0.86859942E+02</rscale>
<asrwt>0</asrwt>
<pdfrwt beam="1">  1        1 0.13319963E-01 0.86859942E+02</pdfrwt>
<pdfrwt beam="2">  1       -1 0.14682354E-01 0.86859942E+02</pdfrwt>
<totfact> 0.12973532E+04</totfact>
</mgrwt>
</event>
<event>
 4    1  0.5097315E-001  0.8443198E+02  0.7546771E-02  0.1316925E+00
         -2   -1    0    0    0  501 -0.00000000000E+00  0.00000000000E+00  0.35855331521E+03  0.35855331521E+03  0.00000000000E+00 0.  1.
          2   -1    0    0  501    0  0.00000000000E+00 -0.00000000000E+00 -0.24028670035E+02  0.24028670035E+02  0.00000000000E+00 0. -1.
         24    1    1    2    0    0  0.28568333391E+00  0.25718887801E+02  0.87796727846E+02  0.12180732400E+03  0.80419002446E+02 0.  0.
        -24    1    1    2    0    0 -0.28568333391E+00 -0.25718887801E+02  0.24672791733E+03  0.26077466125E+03  0.80419002446E+02 0.  1.
<mgrwt>
<rscale>  0 0.84431977E+02</rscale>
<asrwt>0</asrwt>
<pdfrwt beam="1">  1        2 0.36967187E-02 0.84431977E+02</pdfrwt>
<pdfrwt beam="2">  1       -2 0.55162045E-01 0.84431977E+02</pdfrwt>
<totfact> 0.66791240E+03</totfact>
</mgrwt>
</event>
<event>
 4    1  0.5097315E-001  0.1326334E+03  0.7546771E-02  0.1223600E+00
          3   -1    0    0  501    0  0.00000000000E+00  0.00000000000E+00  0.20191188209E+03  0.20191188209E+03  0.00000000000E+00 0. -1.
         -3   -1    0    0    0  501 -0.00000000000E+00 -0.00000000000E+00 -0.54463553902E+03  0.54463553902E+03  0.00000000000E+00 0.  1.
         24    1    1    2    0    0  0.91193706316E+02 -0.52991551862E+02 -0.51347900023E+03  0.53033225083E+03  0.80419002446E+02 0.  1.
        -24    1    1    2    0    0 -0.91193706316E+02  0.52991551862E+02  0.17075534330E+03  0.21621517028E+03  0.80419002446E+02 0. -1.
<mgrwt>
<rscale>  0 0.13263338E+03</rscale>
<asrwt>0</asrwt>
<pdfrwt beam="1">  1        3 0.31063367E-01 0.13263338E+03</pdfrwt>
<pdfrwt beam="2">  1       -3 0.83790081E-01 0.13263338E+03</pdfrwt>
<totfact> 0.32096322E+01</totfact>
</mgrwt>
</event>
<event>
 4    1  0.5097315E-001  0.1661773E+03  0.7546771E-02  0.1181894E+00
          2   -1    0    0  501    0  0.00000000000E+00  0.00000000000E+00  0.15291459143E+04  0.15291459143E+04  0.00000000000E+00 0. -1.
         -2   -1    0    0    0  501 -0.00000000000E+00 -0.00000000000E+00 -0.21085606826E+02  0.21085606826E+02  0.00000000000E+00 0.  1.
         24    1    1    2    0    0  0.33472834005E+01 -0.14538392458E+03  0.10476928061E+04  0.10607898575E+04  0.80419002446E+02 0.  1.
        -24    1    1    2    0    0 -0.33472834005E+01  0.14538392458E+03  0.46036750136E+03  0.48944166363E+03  0.80419002446E+02 0. -1.
<mgrwt>
<rscale>  0 0.16617733E+03</rscale>
<asrwt>0</asrwt>
<pdfrwt beam="1">  1        2 0.23525313E+00 0.16617733E+03</pdfrwt>
<pdfrwt beam="2">  1       -2 0.32439407E-02 0.16617733E+03</pdfrwt>
<totfact> 0.49163723E+03</totfact>
</mgrwt>
</event>
<event>
 4    1  0.5097315E-001  0.8691395E+02  0.7546771E-02  0.1310502E+00
          3   -1    0    0  501    0  0.00000000000E+00  0.00000000000E+00  0.30603182625E+03  0.30603182625E+03  0.00000000000E+00 0. -1.
         -3   -1    0    0    0  501 -0.00000000000E+00 -0.00000000000E+00 -0.29849401411E+02  0.29849401411E+02  0.00000000000E+00 0.  1.
         24    1    1    2    0    0 -0.18050006978E+02 -0.27586529674E+02  0.68228182513E+02  0.11049488773E+03  0.80419002446E+02 0.  1.
        -24    1    1    2    0    0  0.18050006978E+02  0.27586529674E+02  0.20795424232E+03  0.22538633993E+03  0.80419002446E+02 0. -1.
<mgrwt>
<rscale>  0 0.86913954E+02</rscale>
<asrwt>0</asrwt>
<pdfrwt beam="1">  1        3 0.47081817E-01 0.86913954E+02</pdfrwt>
<pdfrwt beam="2">  1       -3 0.45922158E-02 0.86913954E+02</pdfrwt>
<totfact> 0.24681727E+03</totfact>
</mgrwt>
</event>
<event>
 4    1  0.5097315E-001  0.8322008E+02  0.7546771E-02  0.1320154E+00
          2   -1    0    0  501    0  0.00000000000E+00  0.00000000000E+00  0.31466718756E+04  0.31466718756E+04  0.00000000000E+00 0. -1.
         -2   -1    0    0    0  501 -0.00000000000E+00 -0.00000000000E+00 -0.11041325542E+02  0.11041325542E+02  0.00000000000E+00 0.  1.
         24    1    1    2    0    0  0.12289560753E+02 -0.17530900482E+02  0.29805743513E+04  0.29817359114E+04  0.80419002446E+02 0. -1.
        -24    1    1    2    0    0 -0.12289560753E+02  0.17530900482E+02  0.15505619875E+03  0.17597728972E+03  0.80419002446E+02 0.  1.
<mgrwt>
<rscale>  0 0.83220080E+02</rscale>
<asrwt>0</asrwt>
<pdfrwt beam="1">  1        2 0.48410265E+00 0.83220080E+02</pdfrwt>
<pdfrwt beam="2">  1       -2 0.16986680E-02 0.83220080E+02</pdfrwt>
<totfact> 0.17434630E+03</totfact>
</mgrwt>
</event>
<event>
 4    1  0.5097315E-001  0.8103570E+02  0.7546771E-02  0.1326138E+00
          2   -1    0    0  501    0  0.00000000000E+00  0.00000000000E+00  0.56852672654E+03  0.56852672654E+03  0.00000000000E+00 0. -1.
         -2   -1    0    0    0  501 -0.00000000000E+00 -0.00000000000E+00 -0.12946264181E+02  0.12946264181E+02  0.00000000000E+00 0.  1.
         24    1    1    2    0    0 -0.14032551409E+01  0.98792121952E+01  0.37325188983E+03  0.38194732252E+03  0.80419002446E+02 0. -1.
        -24    1    1    2    0    0  0.14032551409E+01 -0.98792121952E+01  0.18232857252E+03  0.19952566820E+03  0.80419002446E+02 0.  1.
<mgrwt>
<rscale>  0 0.81035695E+02</rscale>
<asrwt>0</asrwt>
<pdfrwt beam="1">  1        2 0.87465631E-01 0.81035695E+02</pdfrwt>
<pdfrwt beam="2">  1       -2 0.19917334E-02 0.81035695E+02</pdfrwt>
<totfact> 0.36824291E+04</totfact>
</mgrwt>
</event>
<event>
 4    1  0.5097315E-001  0.1197610E+03  0.7546771E-02  0.1243492E+00
          1   -1    0    0  501    0  0.00000000000E+00  0.00000000000E+00  0.23090355092E+03  0.23090355092E+03  0.00000000000E+00 0. -1.
         -1   -1    0    0    0  501 -0.00000000000E+00 -0.00000000000E+00 -0.68463029462E+02  0.68463029462E+02  0.00000000000E+00 0.  1.
         24    1    1    2    0    0 -0.86696396822E+01  0.88319460785E+02  0.35643314739E+02  0.12495259759E+03  0.80419002446E+02 0. -1.
        -24    1    1    2    0    0  0.86696396822E+01 -0.88319460785E+02  0.12679720672E+03  0.17441398279E+03  0.80419002446E+02 0.  1.
<mgrwt>
<rscale>  0 0.11976104E+03</rscale>
<asrwt>0</asrwt>
<pdfrwt beam="1">  1        1 0.35523623E-01 0.11976104E+03</pdfrwt>
<pdfrwt beam="2">  1       -1 0.10532774E-01 0.11976104E+03</pdfrwt>
<totfact> 0.64803464E+03</totfact>
</mgrwt>
</event>
<event>
 4    1  0.5097315E-001  0.1068954E+03  0.7546771E-02  0.1266430E+00
         -1   -1    0    0    0  501 -0.00000000000E+00  0.00000000000E+00  0.10263379909E+02  0.10263379909E+02  0.00000000000E+00 0.  1.
          1   -1    0    0  501    0  0.00000000000E+00 -0.00000000000E+00 -0.20586590686E+04  0.20586590686E+04  0.00000000000E+00 0. -1.
         24    1    1    2    0    0  0.25930715561E+02 -0.65475250297E+02 -0.32320865077E+03  0.34042687658E+03  0.80419002446E+02 0.  1.
        -24    1    1    2    0    0 -0.25930715561E+02  0.65475250297E+02 -0.17251870379E+04  0.17284955719E+04  0.80419002446E+02 0. -1.
<mgrwt>
<rscale>  0 0.10689540E+03</rscale>
<asrwt>0</asrwt>
<pdfrwt beam="1">  1        1 0.31671678E+00 0.10689540E+03</pdfrwt>
<pdfrwt beam="2">  1       -1 0.15789815E-02 0.10689540E+03</pdfrwt>
<totfact> 0.29768251E+03</totfact>
</mgrwt>
</event>
<event>
 4    1  0.5097315E-001  0.8128578E+02  0.7546771E-02  0.1325442E+00
          1   -1    0    0  501    0  0.00000000000E+00  0.00000000000E+00  0.25707355420E+04  0.25707355420E+04  0.00000000000E+00 0. -1.
         -1   -1    0    0    0  501 -0.00000000000E+00 -0.00000000000E+00 -0.28505528707E+01  0.28505528707E+01  0.00000000000E+00 0.  1.
         24    1    1    2    0    0 -0.91422355134E+01 -0.75221153314E+01  0.88041389890E+03  0.88415836365E+03  0.80419002446E+02 0.  0.
        -24    1    1    2    0    0  0.91422355134E+01  0.75221153314E+01  0.16874710903E+04  0.16894277312E+04  0.80419002446E+02 0.  0.
<mgrwt>
<rscale>  0 0.81285784E+02</rscale>
<asrwt>0</asrwt>
<pdfrwt beam="1">  1        1 0.39549592E+00 0.81285784E+02</pdfrwt>
<pdfrwt beam="2">  1       -1 0.43854865E-03 0.81285784E+02</pdfrwt>
<totfact> 0.84772141E+03</totfact>
</mgrwt>
</event>
<event>
 4    1  0.5097315E-001  0.8245465E+02  0.7546771E-02  0.1322226E+00
          1   -1    0    0  501    0  0.00000000000E+00  0.00000000000E+00  0.81723263381E+03  0.81723263381E+03  0.00000000000E+00 0. -1.
         -1   -1    0    0    0  501 -0.00000000000E+00 -0.00000000000E+00 -0.24169992280E+02  0.24169992280E+02  0.00000000000E+00 0.  1.
         24    1    1    2    0    0  0.17625266854E+02  0.45720548318E+01  0.55840607654E+02  0.99583849768E+02  0.80419002446E+02 0.  1.
        -24    1    1    2    0    0 -0.17625266854E+02 -0.45720548318E+01  0.73722203387E+03  0.74181877632E+03  0.80419002446E+02 0. -1.
<mgrwt>
<rscale>  0 0.82454652E+02</rscale>
<asrwt>0</asrwt>
<pdfrwt beam="1">  1        1 0.12572808E+00 0.82454652E+02</pdfrwt>
<pdfrwt beam="2">  1       -1 0.37184610E-02 0.82454652E+02</pdfrwt>
<totfact> 0.57676919E+03</totfact>
</mgrwt>
</event>
<event>
 4    1  0.5097315E-001  0.1041566E+03  0.7546771E-02  0.1271790E+00
          1   -1    0    0  501    0  0.00000000000E+00  0.00000000000E+00  0.61549441328E+02  0.61549441328E+02  0.00000000000E+00 0. -1.
         -1   -1    0    0    0  501 -0.00000000000E+00 -0.00000000000E+00 -0.17970451573E+03  0.17970451573E+03  0.00000000000E+00 0.  1.
         24    1    1    2    0    0 -0.48752634739E+02  0.44772401437E+02 -0.75782007933E+02  0.12880805877E+03  0.80419002446E+02 0.  1.
        -24    1    1    2    0    0  0.48752634739E+02 -0.44772401437E+02 -0.42373066467E+02  0.11244589828E+03  0.80419002446E+02 0. -1.
<mgrwt>
<rscale>  0 0.10415663E+03</rscale>
<asrwt>0</asrwt>
<pdfrwt beam="1">  1        1 0.94691449E-02 0.10415663E+03</pdfrwt>
<pdfrwt beam="2">  1       -1 0.27646848E-01 0.10415663E+03</pdfrwt>
<totfact> 0.75078017E+03</totfact>
</mgrwt>
</event>
<event>
 4    1  0.5097315E-001  0.8384227E+02  0.7546771E-02  0.1318488E+00
          1   -1    0    0  501    0  0.00000000000E+00  0.00000000000E+00  0.76884999797E+03  0.76884999797E+03  0.00000000000E+00 0. -1.
         -1   -1    0    0    0  501 -0.00000000000E+00 -0.00000000000E+00 -0.10860858194E+02  0.10860858194E+02  0.00000000000E+00 0.  1.
         24    1    1    2    0    0  0.20448471295E+02 -0.12007063644E+02  0.22394281678E+03  0.23912321238E+03  0.80419002446E+02 0.  0.
        -24    1    1    2    0    0 -0.20448471295E+02  0.12007063644E+02  0.53404632299E+03  0.54058764379E+03  0.80419002446E+02 0.  0.
<mgrwt>
<rscale>  0 0.83842266E+02</rscale>
<asrwt>0</asrwt>
<pdfrwt beam="1">  1        1 0.11828457E+00 0.83842266E+02</pdfrwt>
<pdfrwt beam="2">  1       -1 0.16709019E-02 0.83842266E+02</pdfrwt>
<totfact> 0.19842054E+04</totfact>
</mgrwt>
</event>
<event>
 4    1  0.5097315E-001  0.9187593E+02  0.7546771E-02  0.1298371E+00
         -2   -1    0    0    0  501 -0.00000000000E+00  0.00000000000E+00  0.43239919941E+02  0.43239919941E+02  0.00000000000E+00 0.  1.
          2   -1    0    0  501    0  0.00000000000E+00 -0.00000000000E+00 -0.23829332026E+03  0.23829332026E+03  0.00000000000E+00 0. -1.
         24    1    1    2    0    0 -0.43823580915E+02 -0.73119763203E+01 -0.15737623032E+03  0.18223189915E+03  0.80419002446E+02 0. -1.
        -24    1    1    2    0    0  0.43823580915E+02  0.73119763203E+01 -0.37677169998E+02  0.99301341055E+02  0.80419002446E+02 0.  1.
<mgrwt>
<rscale>  0 0.91875934E+02</rscale>
<asrwt>0</asrwt>
<pdfrwt beam="1">  1        2 0.36660511E-01 0.91875934E+02</pdfrwt>
<pdfrwt beam="2">  1       -2 0.66522953E-02 0.91875934E+02</pdfrwt>
<totfact> 0.15987995E+04</totfact>
</mgrwt>
</event>
<event>
 4    1  0.5097315E-001  0.1134887E+03  0.7546771E-02  0.1254242E+00
         -1   -1    0    0    0  501 -0.00000000000E+00  0.00000000000E+00  0.11232055328E+03  0.11232055328E+03  0.00000000000E+00 0.  1.
          1   -1    0    0  501    0  0.00000000000E+00 -0.00000000000E+00 -0.15579564702E+03  0.15579564702E+03  0.00000000000E+00 0. -1.
         24    1    1    2    0    0  0.58038610466E+02 -0.55172342432E+02  0.47139916066E+02  0.12288960621E+03  0.80419002446E+02 0.  1.
        -24    1    1    2    0    0 -0.58038610466E+02  0.55172342432E+02 -0.90615009806E+02  0.14522659409E+03  0.80419002446E+02 0. -1.
<mgrwt>
<rscale>  0 0.11348869E+03</rscale>
<asrwt>0</asrwt>
<pdfrwt beam="1">  1        1 0.23968561E-01 0.11348869E+03</pdfrwt>
<pdfrwt beam="2">  1       -1 0.17280085E-01 0.11348869E+03</pdfrwt>
<totfact> 0.48842763E+03</totfact>
</mgrwt>
</event>
<event>
 4    1  0.5097315E-001  0.9278873E+02  0.7546771E-02  0.1296236E+00
         -3   -1    0    0    0  501 -0.00000000000E+00  0.00000000000E+00  0.25199625355E+03  0.25199625355E+03  0.00000000000E+00 0.  1.
          3   -1    0    0  501    0  0.00000000000E+00 -0.00000000000E+00 -0.34669137002E+02  0.34669137002E+02  0.00000000000E+00 0. -1.
         24    1    1    2    0    0 -0.37967102163E+02  0.26477002469E+02  0.12592753012E+03  0.15642087873E+03  0.80419002446E+02 0.  0.
        -24    1    1    2    0    0  0.37967102163E+02 -0.26477002469E+02  0.91399586428E+02  0.13024451182E+03  0.80419002446E+02 0. -1.
<mgrwt>
<rscale>  0 0.92788730E+02</rscale>
<asrwt>0</asrwt>
<pdfrwt beam="1">  1        3 0.53337135E-02 0.92788730E+02</pdfrwt>
<pdfrwt beam="2">  1       -3 0.38768653E-01 0.92788730E+02</pdfrwt>
<totfact> 0.28779049E+03</totfact>
</mgrwt>
</event>
<event>
 4    1  0.5097315E-001  0.8149438E+02  0.7546771E-02  0.1324863E+00
          3   -1    0    0  501    0  0.00000000000E+00  0.00000000000E+00  0.16505454636E+03  0.16505454636E+03  0.00000000000E+00 0. -1.
         -3   -1    0    0    0  501 -0.00000000000E+00 -0.00000000000E+00 -0.42090744578E+02  0.42090744578E+02  0.00000000000E+00 0.  1.
         24    1    1    2    0    0 -0.97073970542E+01  0.89378283233E+01  0.39747272360E+02  0.90670722657E+02  0.80419002446E+02 0.  1.
        -24    1    1    2    0    0  0.97073970542E+01 -0.89378283233E+01  0.83216529422E+02  0.11647456828E+03  0.80419002446E+02 0. -1.
<mgrwt>
<rscale>  0 0.81494382E+02</rscale>
<asrwt>0</asrwt>
<pdfrwt beam="1">  1        3 0.25393007E-01 0.81494382E+02</pdfrwt>
<pdfrwt beam="2">  1       -3 0.64754992E-02 0.81494382E+02</pdfrwt>
<totfact> 0.44888515E+03</totfact>
</mgrwt>
</event>
<event>
 4    1  0.5097315E-001  0.8777103E+02  0.7546771E-02  0.1308341E+00
          1   -1    0    0  501    0  0.00000000000E+00  0.00000000000E+00  0.44685727594E+03  0.44685727594E+03  0.00000000000E+00 0. -1.
         -1   -1    0    0    0  501 -0.00000000000E+00 -0.00000000000E+00 -0.30233513037E+02  0.30233513037E+02  0.00000000000E+00 0.  1.
         24    1    1    2    0    0  0.69805029264E+01  0.34464621272E+02  0.51927819732E+02  0.10198162558E+03  0.80419002446E+02 0.  1.
        -24    1    1    2    0    0 -0.69805029264E+01 -0.34464621272E+02  0.36469594317E+03  0.37510916339E+03  0.80419002446E+02 0. -1.
<mgrwt>
<rscale>  0 0.87771029E+02</rscale>
<asrwt>0</asrwt>
<pdfrwt beam="1">  1        1 0.68747268E-01 0.87771029E+02</pdfrwt>
<pdfrwt beam="2">  1       -1 0.46513100E-02 0.87771029E+02</pdfrwt>
<totfact> 0.94621406E+03</totfact>
</mgrwt>
</event>
<event>
 4    1  0.5097315E-001  0.8408781E+02  0.7546771E-02  0.1317835E+00
          2   -1    0    0  501    0  0.00000000000E+00  0.00000000000E+00  0.88807643123E+03  0.88807643123E+03  0.00000000000E+00 0. -1.
         -2   -1    0    0    0  501 -0.00000000000E+00 -0.00000000000E+00 -0.13479843423E+02  0.13479843423E+02  0.00000000000E+00 0.  1.
         24    1    1    2    0    0 -0.23267379085E+02 -0.78849859937E+01  0.72570791556E+03  0.73056330225E+03  0.80419002446E+02 0. -1.
        -24    1    1    2    0    0  0.23267379085E+02  0.78849859937E+01  0.14888867225E+03  0.17099297241E+03  0.80419002446E+02 0. -1.
<mgrwt>
<rscale>  0 0.84087811E+02</rscale>
<asrwt>0</asrwt>
<pdfrwt beam="1">  1        2 0.13662710E+00 0.84087811E+02</pdfrwt>
<pdfrwt beam="2">  1       -2 0.20738228E-02 0.84087811E+02</pdfrwt>
<totfact> 0.20676633E+04</totfact>
</mgrwt>
</event>
<event>
 4    1  0.5097315E-001  0.1186820E+03  0.7546771E-02  0.1245287E+00
         -2   -1    0    0    0  501 -0.00000000000E+00  0.00000000000E+00  0.84336882322E+01  0.84336882322E+01  0.00000000000E+00 0.  1.
          2   -1    0    0  501    0  0.00000000000E+00 -0.00000000000E+00 -0.31401801913E+04  0.31401801913E+04  0.00000000000E+00 0. -1.
         24    1    1    2    0    0 -0.85392107099E+02 -0.18066270178E+02 -0.26430255571E+04  0.26456888542E+04  0.80419002446E+02 0. -1.
        -24    1    1    2    0    0  0.85392107099E+02  0.18066270178E+02 -0.48872094602E+03  0.50292502534E+03  0.80419002446E+02 0.  1.
<mgrwt>
<rscale>  0 0.11868200E+03</rscale>
<asrwt>0</asrwt>
<pdfrwt beam="1">  1        2 0.48310446E+00 0.11868200E+03</pdfrwt>
<pdfrwt beam="2">  1       -2 0.12974910E-02 0.11868200E+03</pdfrwt>
<totfact> 0.25615463E+03</totfact>
</mgrwt>
</event>
<event>
 4    1  0.5097315E-001  0.1566429E+03  0.7546771E-02  0.1192540E+00
         -2   -1    0    0    0  501 -0.00000000000E+00  0.00000000000E+00  0.12463065945E+02  0.12463065945E+02  0.00000000000E+00 0.  1.
          2   -1    0    0  501    0  0.00000000000E+00 -0.00000000000E+00 -0.19995036355E+04  0.19995036355E+04  0.00000000000E+00 0. -1.
         24    1    1    2    0    0  0.28199819123E+02 -0.13143273034E+03 -0.11182244871E+04  0.11291426004E+04  0.80419002446E+02 0. -1.
        -24    1    1    2    0    0 -0.28199819123E+02  0.13143273034E+03 -0.86881608246E+03  0.88282410111E+03  0.80419002446E+02 0.  1.
<mgrwt>
<rscale>  0 0.15664293E+03</rscale>
<asrwt>0</asrwt>
<pdfrwt beam="1">  1        2 0.30761565E+00 0.15664293E+03</pdfrwt>
<pdfrwt beam="2">  1       -2 0.19173966E-02 0.15664293E+03</pdfrwt>
<totfact> 0.60731536E+03</totfact>
</mgrwt>
</event>
<event>
 4    1  0.5097315E-001  0.8126713E+02  0.7546771E-02  0.1325493E+00
          1   -1    0    0  501    0  0.00000000000E+00  0.00000000000E+00  0.24694185203E+03  0.24694185203E+03  0.00000000000E+00 0. -1.
         -1   -1    0    0    0  501 -0.00000000000E+00 -0.00000000000E+00 -0.37421116346E+02  0.37421116346E+02  0.00000000000E+00 0.  1.
         24    1    1    2    0    0 -0.63847160796E+01 -0.98166248897E+01  0.28815113202E+02  0.86224459563E+02  0.80419002446E+02 0.  1.
        -24    1    1    2    0    0  0.63847160796E+01  0.98166248897E+01  0.18070562248E+03  0.19813850881E+03  0.80419002446E+02 0.  0.
<mgrwt>
<rscale>  0 0.81267132E+02</rscale>
<asrwt>0</asrwt>
<pdfrwt beam="1">  1        1 0.37991053E-01 0.81267132E+02</pdfrwt>
<pdfrwt beam="2">  1       -1 0.57570950E-02 0.81267132E+02</pdfrwt>
<totfact> 0.14241543E+04</totfact>
</mgrwt>
</event>
<event>
 4    1  0.5097315E-001  0.9029865E+02  0.7546771E-02  0.1302130E+00
          2   -1    0    0  501    0  0.00000000000E+00  0.00000000000E+00  0.15096762985E+04  0.15096762985E+04  0.00000000000E+00 0. -1.
         -2   -1    0    0    0  501 -0.00000000000E+00 -0.00000000000E+00 -0.60115643079E+01  0.60115643079E+01  0.00000000000E+00 0.  1.
         24    1    1    2    0    0 -0.35984928838E+02 -0.19791790122E+02  0.99334056013E+03  0.99743637111E+03  0.80419002446E+02 0.  1.
        -24    1    1    2    0    0  0.35984928838E+02  0.19791790122E+02  0.51032417402E+03  0.51825149166E+03  0.80419002446E+02 0.  0.
<mgrwt>
<rscale>  0 0.90298649E+02</rscale>
<asrwt>0</asrwt>
<pdfrwt beam="1">  1        2 0.23225759E+00 0.90298649E+02</pdfrwt>
<pdfrwt beam="2">  1       -2 0.92485725E-03 0.90298649E+02</pdfrwt>
<totfact> 0.29887922E+04</totfact>
</mgrwt>
</event>
<event>
 4    1  0.5097315E-001  0.2076364E+03  0.7546771E-02  0.1143451E+00
         -2   -1    0    0    0  501 -0.00000000000E+00  0.00000000000E+00  0.68517342811E+02  0.68517342811E+02  0.00000000000E+00 0.  1.
          2   -1    0    0  501    0  0.00000000000E+00 -0.00000000000E+00 -0.71095196566E+03  0.71095196566E+03  0.00000000000E+00 0. -1.
         24    1    1    2    0    0  0.15264825896E+03  0.11551698060E+03 -0.45335583824E+03  0.49864255313E+03  0.80419002446E+02 0. -1.
        -24    1    1    2    0    0 -0.15264825896E+03 -0.11551698060E+03 -0.18907878462E+03  0.28082675535E+03  0.80419002446E+02 0.  1.
<mgrwt>
<rscale>  0 0.20763641E+03</rscale>
<asrwt>0</asrwt>
<pdfrwt beam="1">  1        2 0.10937722E+00 0.20763641E+03</pdfrwt>
<pdfrwt beam="2">  1       -2 0.10541130E-01 0.20763641E+03</pdfrwt>
<totfact> 0.24911343E+03</totfact>
</mgrwt>
</event>
<event>
 4    1  0.5097315E-001  0.9369555E+02  0.7546771E-02  0.1294141E+00
          2   -1    0    0  501    0  0.00000000000E+00  0.00000000000E+00  0.89327284206E+03  0.89327284206E+03  0.00000000000E+00 0. -1.
         -2   -1    0    0    0  501 -0.00000000000E+00 -0.00000000000E+00 -0.99222956616E+01  0.99222956616E+01  0.00000000000E+00 0.  1.
         24    1    1    2    0    0 -0.24471438979E+02 -0.41385863280E+02  0.48575914410E+03  0.49471284907E+03  0.80419002446E+02 0. -1.
        -24    1    1    2    0    0  0.24471438979E+02  0.41385863280E+02  0.39759140231E+03  0.40848228866E+03  0.80419002446E+02 0.  0.
<mgrwt>
<rscale>  0 0.93695555E+02</rscale>
<asrwt>0</asrwt>
<pdfrwt beam="1">  1        2 0.13742653E+00 0.93695555E+02</pdfrwt>
<pdfrwt beam="2">  1       -2 0.15265077E-02 0.93695555E+02</pdfrwt>
<totfact> 0.32152894E+04</totfact>
</mgrwt>
</event>
<event>
 4    1  0.5097315E-001  0.8384993E+02  0.7546771E-02  0.1318468E+00
         -2   -1    0    0    0  501 -0.00000000000E+00  0.00000000000E+00  0.17657253482E+03  0.17657253482E+03  0.00000000000E+00 0.  1.
          2   -1    0    0  501    0  0.00000000000E+00 -0.00000000000E+00 -0.16871136908E+03  0.16871136908E+03  0.00000000000E+00 0. -1.
         24    1    1    2    0    0 -0.23578648062E+02 -0.27643578771E+01 -0.14696934094E+03  0.16920637532E+03  0.80419002446E+02 0. -1.
        -24    1    1    2    0    0  0.23578648062E+02  0.27643578771E+01  0.15483050668E+03  0.17607752858E+03  0.80419002446E+02 0.  1.
<mgrwt>
<rscale>  0 0.83849927E+02</rscale>
<asrwt>0</asrwt>
<pdfrwt beam="1">  1        2 0.25955595E-01 0.83849927E+02</pdfrwt>
<pdfrwt beam="2">  1       -2 0.27165006E-01 0.83849927E+02</pdfrwt>
<totfact> 0.23875320E+03</totfact>
</mgrwt>
</event>
<event>
 4    1  0.5097315E-001  0.8347489E+02  0.7546771E-02  0.1319470E+00
         -2   -1    0    0    0  501 -0.00000000000E+00  0.00000000000E+00  0.17384697205E+02  0.17384697205E+02  0.00000000000E+00 0.  1.
          2   -1    0    0  501    0  0.00000000000E+00 -0.00000000000E+00 -0.73808919635E+03  0.73808919635E+03  0.00000000000E+00 0. -1.
         24    1    1    2    0    0 -0.21721139196E+02  0.53883383238E+01 -0.61569657218E+03  0.62132948347E+03  0.80419002446E+02 0.  0.
        -24    1    1    2    0    0  0.21721139196E+02 -0.53883383238E+01 -0.10500792697E+03  0.13414441009E+03  0.80419002446E+02 0.  1.
<mgrwt>
<rscale>  0 0.83474895E+02</rscale>
<asrwt>0</asrwt>
<pdfrwt beam="1">  1        2 0.11355217E+00 0.83474895E+02</pdfrwt>
<pdfrwt beam="2">  1       -2 0.26745691E-02 0.83474895E+02</pdfrwt>
<totfact> 0.17965877E+04</totfact>
</mgrwt>
</event>
<event>
 4    1  0.5097315E-001  0.8439754E+02  0.7546771E-02  0.1317016E+00
         -2   -1    0    0    0  501 -0.00000000000E+00  0.00000000000E+00  0.11163615785E+03  0.11163615785E+03  0.00000000000E+00 0.  1.
          2   -1    0    0  501    0  0.00000000000E+00 -0.00000000000E+00 -0.31737537824E+03  0.31737537824E+03  0.00000000000E+00 0. -1.
         24    1    1    2    0    0  0.17571390631E+01  0.25546834263E+02 -0.29460471032E+03  0.30645534679E+03  0.80419002446E+02 0. -1.
        -24    1    1    2    0    0 -0.17571390631E+01 -0.25546834263E+02  0.88865489937E+02  0.12255618930E+03  0.80419002446E+02 0.  1.
<mgrwt>
<rscale>  0 0.84397537E+02</rscale>
<asrwt>0</asrwt>
<pdfrwt beam="1">  1        2 0.48826982E-01 0.84397537E+02</pdfrwt>
<pdfrwt beam="2">  1       -2 0.17174793E-01 0.84397537E+02</pdfrwt>
<totfact> 0.26625592E+03</totfact>
</mgrwt>
</event>
<event>
 4    1  0.5097315E-001  0.8448741E+02  0.7546771E-02  0.1316778E+00
          3   -1    0    0  501    0  0.00000000000E+00  0.00000000000E+00  0.84224724556E+01  0.84224724556E+01  0.00000000000E+00 0. -1.
         -3   -1    0    0    0  501 -0.00000000000E+00 -0.00000000000E+00 -0.11360763408E+04  0.11360763408E+04  0.00000000000E+00 0.  1.
         24    1    1    2    0    0 -0.22635427363E+02  0.12591437949E+02 -0.85223342909E+03  0.85641108148E+03  0.80419002446E+02 0.  1.
        -24    1    1    2    0    0  0.22635427363E+02 -0.12591437949E+02 -0.27542043924E+03  0.28808773176E+03  0.80419002446E+02 0. -1.
<mgrwt>
<rscale>  0 0.84487412E+02</rscale>
<asrwt>0</asrwt>
<pdfrwt beam="1">  1        3 0.12957655E-02 0.84487412E+02</pdfrwt>
<pdfrwt beam="2">  1       -3 0.17478091E+00 0.84487412E+02</pdfrwt>
<totfact> 0.91366002E+02</totfact>
</mgrwt>
</event>
<event>
 4    1  0.5097315E-001  0.8214930E+02  0.7546771E-02  0.1323060E+00
         -2   -1    0    0    0  501 -0.00000000000E+00  0.00000000000E+00  0.22149514319E+02  0.22149514319E+02  0.00000000000E+00 0.  1.
          2   -1    0    0  501    0  0.00000000000E+00 -0.00000000000E+00 -0.91513719577E+03  0.91513719577E+03  0.00000000000E+00 0. -1.
         24    1    1    2    0    0  0.64993824066E+01 -0.15461252168E+02 -0.82925429483E+03  0.83331338267E+03  0.80419002446E+02 0. -1.
        -24    1    1    2    0    0 -0.64993824066E+01  0.15461252168E+02 -0.63733386627E+02  0.10397332742E+03  0.80419002446E+02 0.  1.
<mgrwt>
<rscale>  0 0.82149305E+02</rscale>
<asrwt>0</asrwt>
<pdfrwt beam="1">  1        2 0.14079033E+00 0.82149305E+02</pdfrwt>
<pdfrwt beam="2">  1       -2 0.34076178E-02 0.82149305E+02</pdfrwt>
<totfact> 0.96908582E+03</totfact>
</mgrwt>
</event>
<event>
 4    1  0.5097315E-001  0.9359277E+02  0.7546771E-02  0.1294377E+00
          2   -1    0    0  501    0  0.00000000000E+00  0.00000000000E+00  0.81296238504E+03  0.81296238504E+03  0.00000000000E+00 0. -1.
         -2   -1    0    0    0  501 -0.00000000000E+00 -0.00000000000E+00 -0.21901673457E+02  0.21901673457E+02  0.00000000000E+00 0.  1.
         24    1    1    2    0    0 -0.41079026138E+02  0.24594819530E+02  0.69306071324E+03  0.69935167100E+03  0.80419002446E+02 0.  0.
        -24    1    1    2    0    0  0.41079026138E+02 -0.24594819530E+02  0.97999998342E+02  0.13551238750E+03  0.80419002446E+02 0.  0.
<mgrwt>
<rscale>  0 0.93592775E+02</rscale>
<asrwt>0</asrwt>
<pdfrwt beam="1">  1        2 0.12507111E+00 0.93592775E+02</pdfrwt>
<pdfrwt beam="2">  1       -2 0.33694888E-02 0.93592775E+02</pdfrwt>
<totfact> 0.11540854E+04</totfact>
</mgrwt>
</event>
<event>
 4    1  0.5097315E-001  0.8379750E+02  0.7546771E-02  0.1318607E+00
          2   -1    0    0  501    0  0.00000000000E+00  0.00000000000E+00  0.30611675787E+02  0.30611675787E+02  0.00000000000E+00 0. -1.
         -2   -1    0    0    0  501 -0.00000000000E+00 -0.00000000000E+00 -0.32270522841E+03  0.32270522841E+03  0.00000000000E+00 0.  1.
         24    1    1    2    0    0  0.61912627349E+01  0.22726042864E+02 -0.51050399231E+02  0.98123208134E+02  0.80419002446E+02 0.  1.
        -24    1    1    2    0    0 -0.61912627349E+01 -0.22726042864E+02 -0.24104315340E+03  0.25519369607E+03  0.80419002446E+02 0.  1.
<mgrwt>
<rscale>  0 0.83797498E+02</rscale>
<asrwt>0</asrwt>
<pdfrwt beam="1">  1        2 0.47094887E-02 0.83797498E+02</pdfrwt>
<pdfrwt beam="2">  1       -2 0.49646957E-01 0.83797498E+02</pdfrwt>
<totfact> 0.59977638E+03</totfact>
</mgrwt>
</event>
<event>
 4    1  0.5097315E-001  0.9177658E+02  0.7546771E-02  0.1298606E+00
         -4   -1    0    0    0  501 -0.00000000000E+00  0.00000000000E+00  0.14848058763E+03  0.14848058763E+03  0.00000000000E+00 0.  1.
          4   -1    0    0  501    0  0.00000000000E+00 -0.00000000000E+00 -0.76138881591E+02  0.76138881591E+02  0.00000000000E+00 0. -1.
         24    1    1    2    0    0  0.76345067907E+01 -0.43559596425E+02 -0.20536817691E+02  0.94046270367E+02  0.80419002446E+02 0. -1.
        -24    1    1    2    0    0 -0.76345067907E+01  0.43559596425E+02  0.92878523733E+02  0.13057319886E+03  0.80419002446E+02 0.  1.
<mgrwt>
<rscale>  0 0.91776577E+02</rscale>
<asrwt>0</asrwt>
<pdfrwt beam="1">  1        4 0.11713674E-01 0.91776577E+02</pdfrwt>
<pdfrwt beam="2">  1       -4 0.22843167E-01 0.91776577E+02</pdfrwt>
<totfact> 0.15372752E+03</totfact>
</mgrwt>
</event>
<event>
 4    1  0.5097315E-001  0.8941082E+02  0.7546771E-02  0.1304285E+00
          2   -1    0    0  501    0  0.00000000000E+00  0.00000000000E+00  0.11671635201E+04  0.11671635201E+04  0.00000000000E+00 0. -1.
         -2   -1    0    0    0  501 -0.00000000000E+00 -0.00000000000E+00 -0.72684795137E+01  0.72684795137E+01  0.00000000000E+00 0.  1.
         24    1    1    2    0    0  0.32712576173E+02 -0.21376751389E+02  0.72096012137E+03  0.72648316615E+03  0.80419002446E+02 0.  0.
        -24    1    1    2    0    0 -0.32712576173E+02  0.21376751389E+02  0.43893491925E+03  0.44794883350E+03  0.80419002446E+02 0. -1.
<mgrwt>
<rscale>  0 0.89410816E+02</rscale>
<asrwt>0</asrwt>
<pdfrwt beam="1">  1        2 0.17956347E+00 0.89410816E+02</pdfrwt>
<pdfrwt beam="2">  1       -2 0.11182285E-02 0.89410816E+02</pdfrwt>
<totfact> 0.34555944E+04</totfact>
</mgrwt>
</event>
<event>
 4    1  0.5097315E-001  0.8622924E+02  0.7546771E-02  0.1312249E+00
          2   -1    0    0  501    0  0.00000000000E+00  0.00000000000E+00  0.14000730669E+04  0.14000730669E+04  0.00000000000E+00 0. -1.
         -2   -1    0    0    0  501 -0.00000000000E+00 -0.00000000000E+00 -0.12770957146E+02  0.12770957146E+02  0.00000000000E+00 0.  1.
         24    1    1    2    0    0 -0.14202520647E+02  0.27686715565E+02  0.12335680944E+04  0.12365782326E+04  0.80419002446E+02 0. -1.
        -24    1    1    2    0    0  0.14202520647E+02 -0.27686715565E+02  0.15373401539E+03  0.17626579150E+03  0.80419002446E+02 0.  1.
<mgrwt>
<rscale>  0 0.86229240E+02</rscale>
<asrwt>0</asrwt>
<pdfrwt beam="1">  1        2 0.21539573E+00 0.86229240E+02</pdfrwt>
<pdfrwt beam="2">  1       -2 0.19647637E-02 0.86229240E+02</pdfrwt>
<totfact> 0.11609568E+04</totfact>
</mgrwt>
</event>
<event>
 4    1  0.5097315E-001  0.8867297E+02  0.7546771E-02  0.1306098E+00
         -1   -1    0    0    0  501 -0.00000000000E+00  0.00000000000E+00  0.61773856254E+02  0.61773856254E+02  0.00000000000E+00 0.  1.
          1   -1    0    0  501    0  0.00000000000E+00 -0.00000000000E+00 -0.12886798579E+03  0.12886798579E+03  0.00000000000E+00 0. -1.
         24    1    1    2    0    0  0.35251419271E+02  0.12369843605E+02 -0.44111355213E+02  0.99038897432E+02  0.80419002446E+02 0.  1.
        -24    1    1    2    0    0 -0.35251419271E+02 -0.12369843605E+02 -0.22982774320E+02  0.91602944610E+02  0.80419002446E+02 0.  0.
<mgrwt>
<rscale>  0 0.88672958E+02</rscale>
<asrwt>0</asrwt>
<pdfrwt beam="1">  1        1 0.19825844E-01 0.88672969E+02</pdfrwt>
<pdfrwt beam="2">  1       -1 0.95036703E-02 0.88672969E+02</pdfrwt>
<totfact> 0.15219483E+04</totfact>
</mgrwt>
</event>
<event>
 4    1  0.5097315E-001  0.8384095E+02  0.7546771E-02  0.1318492E+00
          2   -1    0    0  501    0  0.00000000000E+00  0.00000000000E+00  0.16328356692E+04  0.16328356692E+04  0.00000000000E+00 0. -1.
         -2   -1    0    0    0  501 -0.00000000000E+00 -0.00000000000E+00 -0.18094271292E+02  0.18094271292E+02  0.00000000000E+00 0.  1.
         24    1    1    2    0    0  0.20951341390E+02  0.11096432332E+02  0.15279789983E+04  0.15302774666E+04  0.80419002446E+02 0. -1.
        -24    1    1    2    0    0 -0.20951341390E+02 -0.11096432332E+02  0.86762399538E+02  0.12065247384E+03  0.80419002446E+02 0.  1.
<mgrwt>
<rscale>  0 0.83840953E+02</rscale>
<asrwt>0</asrwt>
<pdfrwt beam="1">  1        2 0.25120537E+00 0.83840953E+02</pdfrwt>
<pdfrwt beam="2">  1       -2 0.27837353E-02 0.83840953E+02</pdfrwt>
<totfact> 0.53445487E+03</totfact>
</mgrwt>
</event>
<event>
 4    1  0.5097315E-001  0.1011000E+03  0.7546771E-02  0.1278000E+00
         -2   -1    0    0    0  501 -0.00000000000E+00  0.00000000000E+00  0.70576354262E+02  0.70576354262E+02  0.00000000000E+00 0.  1.
          2   -1    0    0  501    0  0.00000000000E+00 -0.00000000000E+00 -0.10488213469E+04  0.10488213469E+04  0.00000000000E+00 0. -1.
         24    1    1    2    0    0 -0.56264670794E+02  0.24254400255E+02 -0.10087439174E+04  0.10137975616E+04  0.80419002446E+02 0. -1.
        -24    1    1    2    0    0  0.56264670794E+02 -0.24254400255E+02  0.30498924736E+02  0.10560013956E+03  0.80419002446E+02 0.  1.
<mgrwt>
<rscale>  0 0.10109998E+03</rscale>
<asrwt>0</asrwt>
<pdfrwt beam="1">  1        2 0.16135713E+00 0.10109998E+03</pdfrwt>
<pdfrwt beam="2">  1       -2 0.10857901E-01 0.10109998E+03</pdfrwt>
<totfact> 0.14222258E+03</totfact>
</mgrwt>
</event>
<event>
 4    1  0.5097315E-001  0.8110296E+02  0.7546771E-02  0.1325950E+00
          2   -1    0    0  501    0  0.00000000000E+00  0.00000000000E+00  0.14064952484E+04  0.14064952484E+04  0.00000000000E+00 0. -1.
         -2   -1    0    0    0  501 -0.00000000000E+00 -0.00000000000E+00 -0.47332764022E+01  0.47332764022E+01  0.00000000000E+00 0.  1.
         24    1    1    2    0    0  0.34027725226E+01  0.99445751421E+01  0.77805776850E+03  0.78227334131E+03  0.80419002446E+02 0.  0.
        -24    1    1    2    0    0 -0.34027725226E+01 -0.99445751421E+01  0.62370420352E+03  0.62895518352E+03  0.80419002446E+02 0.  0.
<mgrwt>
<rscale>  0 0.81102955E+02</rscale>
<asrwt>0</asrwt>
<pdfrwt beam="1">  1        2 0.21638355E+00 0.81102955E+02</pdfrwt>
<pdfrwt beam="2">  1       -2 0.72819749E-03 0.81102955E+02</pdfrwt>
<totfact> 0.46807420E+04</totfact>
</mgrwt>
</event>
<event>
 4    1  0.5097315E-001  0.8983798E+02  0.7546771E-02  0.1303245E+00
         -2   -1    0    0    0  501 -0.00000000000E+00  0.00000000000E+00  0.33438352786E+02  0.33438352786E+02  0.00000000000E+00 0.  1.
          2   -1    0    0  501    0  0.00000000000E+00 -0.00000000000E+00 -0.35882167158E+03  0.35882167158E+03  0.00000000000E+00 0. -1.
         24    1    1    2    0    0 -0.26765847527E+02  0.29786503758E+02 -0.27490455654E+03  0.28921164838E+03  0.80419002446E+02 0. -1.
        -24    1    1    2    0    0  0.26765847527E+02 -0.29786503758E+02 -0.50478762259E+02  0.10304837599E+03  0.80419002446E+02 0.  1.
<mgrwt>
<rscale>  0 0.89837978E+02</rscale>
<asrwt>0</asrwt>
<pdfrwt beam="1">  1        2 0.55203334E-01 0.89837978E+02</pdfrwt>
<pdfrwt beam="2">  1       -2 0.51443620E-02 0.89837978E+02</pdfrwt>
<totfact> 0.15274700E+04</totfact>
</mgrwt>
</event>
<event>
 4    1  0.5097315E-001  0.8138899E+02  0.7546771E-02  0.1325155E+00
          2   -1    0    0  501    0  0.00000000000E+00  0.00000000000E+00  0.22447126385E+04  0.22447126385E+04  0.00000000000E+00 0. -1.
         -2   -1    0    0    0  501 -0.00000000000E+00 -0.00000000000E+00 -0.10723629764E+02  0.10723629764E+02  0.00000000000E+00 0.  1.
         24    1    1    2    0    0  0.75489111217E+01  0.99982897523E+01  0.20770876960E+04  0.20786816651E+04  0.80419002446E+02 0.  0.
        -24    1    1    2    0    0 -0.75489111217E+01 -0.99982897523E+01  0.15690131269E+03  0.17675460315E+03  0.80419002446E+02 0.  1.
<mgrwt>
<rscale>  0 0.81388991E+02</rscale>
<asrwt>0</asrwt>
<pdfrwt beam="1">  1        2 0.34534003E+00 0.81388991E+02</pdfrwt>
<pdfrwt beam="2">  1       -2 0.16497910E-02 0.81388991E+02</pdfrwt>
<totfact> 0.55835975E+03</totfact>
</mgrwt>
</event>
<event>
 4    1  0.5097315E-001  0.9918650E+02  0.7546771E-02  0.1282016E+00
          2   -1    0    0  501    0  0.00000000000E+00  0.00000000000E+00  0.76426525233E+02  0.76426525233E+02  0.00000000000E+00 0. -1.
         -2   -1    0    0    0  501 -0.00000000000E+00 -0.00000000000E+00 -0.12895632578E+03  0.12895632578E+03  0.00000000000E+00 0.  1.
         24    1    1    2    0    0 -0.55736839231E+02  0.16252720829E+02 -0.21910342044E+02  0.10157768074E+03  0.80419002446E+02 0. -1.
        -24    1    1    2    0    0  0.55736839231E+02 -0.16252720829E+02 -0.30619458501E+02  0.10380517027E+03  0.80419002446E+02 0.  1.
<mgrwt>
<rscale>  0 0.99186502E+02</rscale>
<asrwt>0</asrwt>
<pdfrwt beam="1">  1        2 0.11757927E-01 0.99186502E+02</pdfrwt>
<pdfrwt beam="2">  1       -2 0.19839435E-01 0.99186502E+02</pdfrwt>
<totfact> 0.10182054E+04</totfact>
</mgrwt>
</event>
<event>
 4    1  0.5097315E-001  0.8595932E+02  0.7546771E-02  0.1312943E+00
         -2   -1    0    0    0  501 -0.00000000000E+00  0.00000000000E+00  0.24317738257E+02  0.24317738257E+02  0.00000000000E+00 0.  1.
          2   -1    0    0  501    0  0.00000000000E+00 -0.00000000000E+00 -0.38950282173E+03  0.38950282173E+03  0.00000000000E+00 0. -1.
         24    1    1    2    0    0  0.89937538610E+01 -0.28998302767E+02 -0.27961925256E+03  0.29253364171E+03  0.80419002446E+02 0. -1.
        -24    1    1    2    0    0 -0.89937538610E+01  0.28998302767E+02 -0.85565830904E+02  0.12128691827E+03  0.80419002446E+02 0.  1.
<mgrwt>
<rscale>  0 0.85959323E+02</rscale>
<asrwt>0</asrwt>
<pdfrwt beam="1">  1        2 0.59923507E-01 0.85959323E+02</pdfrwt>
<pdfrwt beam="2">  1       -2 0.37411908E-02 0.85959323E+02</pdfrwt>
<totfact> 0.22320392E+04</totfact>
</mgrwt>
</event>
<event>
 4    1  0.5097315E-001  0.8415325E+02  0.7546771E-02  0.1317662E+00
          2   -1    0    0  501    0  0.00000000000E+00  0.00000000000E+00  0.89219358846E+02  0.89219358846E+02  0.00000000000E+00 0. -1.
         -2   -1    0    0    0  501 -0.00000000000E+00 -0.00000000000E+00 -0.11196467562E+03  0.11196467562E+03  0.00000000000E+00 0.  1.
         24    1    1    2    0    0 -0.20959840388E+02  0.13237758191E+02  0.42897905035E+02  0.94456335742E+02  0.80419002446E+02 0. -1.
        -24    1    1    2    0    0  0.20959840388E+02 -0.13237758191E+02 -0.65643221807E+02  0.10672769872E+03  0.80419002446E+02 0.  1.
<mgrwt>
<rscale>  0 0.84153248E+02</rscale>
<asrwt>0</asrwt>
<pdfrwt beam="1">  1        2 0.13726055E-01 0.84153248E+02</pdfrwt>
<pdfrwt beam="2">  1       -2 0.17225335E-01 0.84153248E+02</pdfrwt>
<totfact> 0.10554337E+04</totfact>
</mgrwt>
</event>
<event>
 4    1  0.5097315E-001  0.8719803E+02  0.7546771E-02  0.1309783E+00
          2   -1    0    0  501    0  0.00000000000E+00  0.00000000000E+00  0.57295409389E+03  0.57295409389E+03  0.00000000000E+00 0. -1.
         -2   -1    0    0    0  501 -0.00000000000E+00 -0.00000000000E+00 -0.13300703679E+02  0.13300703679E+02  0.00000000000E+00 0.  1.
         24    1    1    2    0    0 -0.89133211439E+01 -0.32508970473E+02  0.29375106753E+03  0.30641995053E+03  0.80419002446E+02 0. -1.
        -24    1    1    2    0    0  0.89133211439E+01  0.32508970473E+02  0.26590232268E+03  0.27983484704E+03  0.80419002446E+02 0.  1.
<mgrwt>
<rscale>  0 0.87198030E+02</rscale>
<asrwt>0</asrwt>
<pdfrwt beam="1">  1        2 0.88146765E-01 0.87198030E+02</pdfrwt>
<pdfrwt beam="2">  1       -2 0.20462625E-02 0.87198030E+02</pdfrwt>
<totfact> 0.35426394E+04</totfact>
</mgrwt>
</event>
<event>
 4    1  0.5097315E-001  0.8083026E+02  0.7546771E-02  0.1326712E+00
          2   -1    0    0  501    0  0.00000000000E+00  0.00000000000E+00  0.22392159214E+04  0.22392159214E+04  0.00000000000E+00 0. -1.
         -2   -1    0    0    0  501 -0.00000000000E+00 -0.00000000000E+00 -0.35264330112E+01  0.35264330112E+01  0.00000000000E+00 0.  1.
         24    1    1    2    0    0  0.80204598868E+01 -0.14094977526E+01  0.15837181224E+04  0.15857794997E+04  0.80419002446E+02 0.  0.
        -24    1    1    2    0    0 -0.80204598868E+01  0.14094977526E+01  0.65197136592E+03  0.65696285465E+03  0.80419002446E+02 0.  1.
<mgrwt>
<rscale>  0 0.80830257E+02</rscale>
<asrwt>0</asrwt>
<pdfrwt beam="1">  1        2 0.34449362E+00 0.80830257E+02</pdfrwt>
<pdfrwt beam="2">  1       -2 0.54252995E-03 0.80830257E+02</pdfrwt>
<totfact> 0.26962373E+04</totfact>
</mgrwt>
</event>
<event>
 4    1  0.5097315E-001  0.8208759E+02  0.7546771E-02  0.1323229E+00
          1   -1    0    0  501    0  0.00000000000E+00  0.00000000000E+00  0.80918714425E+01  0.80918714425E+01  0.00000000000E+00 0. -1.
         -1   -1    0    0    0  501 -0.00000000000E+00 -0.00000000000E+00 -0.15680619189E+04  0.15680619189E+04  0.00000000000E+00 0.  1.
         24    1    1    2    0    0 -0.12932431021E+02 -0.10193559632E+02 -0.13196542677E+04  0.13222048853E+04  0.80419002446E+02 0.  0.
        -24    1    1    2    0    0  0.12932431021E+02  0.10193559632E+02 -0.24031577974E+03  0.25394890505E+03  0.80419002446E+02 0. -1.
<mgrwt>
<rscale>  0 0.82087590E+02</rscale>
<asrwt>0</asrwt>
<pdfrwt beam="1">  1        1 0.12449044E-02 0.82087590E+02</pdfrwt>
<pdfrwt beam="2">  1       -1 0.24124008E+00 0.82087590E+02</pdfrwt>
<totfact> 0.10262051E+03</totfact>
</mgrwt>
</event>
<event>
 4    1  0.5097315E-001  0.9811486E+02  0.7546771E-02  0.1284311E+00
         -2   -1    0    0    0  501 -0.00000000000E+00  0.00000000000E+00  0.21264524092E+02  0.21264524092E+02  0.00000000000E+00 0.  1.
          2   -1    0    0  501    0  0.00000000000E+00 -0.00000000000E+00 -0.73218686140E+03  0.73218686140E+03  0.00000000000E+00 0. -1.
         24    1    1    2    0    0  0.38248016246E+02  0.41187367921E+02 -0.58821251335E+03  0.59633923806E+03  0.80419002446E+02 0.  1.
        -24    1    1    2    0    0 -0.38248016246E+02 -0.41187367921E+02 -0.12270982395E+03  0.15711214743E+03  0.80419002446E+02 0.  0.
<mgrwt>
<rscale>  0 0.98114861E+02</rscale>
<asrwt>0</asrwt>
<pdfrwt beam="1">  1        2 0.11264413E+00 0.98114861E+02</pdfrwt>
<pdfrwt beam="2">  1       -2 0.32714652E-02 0.98114861E+02</pdfrwt>
<totfact> 0.13723451E+04</totfact>
</mgrwt>
</event>
<event>
 4    1  0.5097315E-001  0.9819224E+02  0.7546771E-02  0.1284144E+00
         -2   -1    0    0    0  501 -0.00000000000E+00  0.00000000000E+00  0.34261827117E+03  0.34261827117E+03  0.00000000000E+00 0.  1.
          2   -1    0    0  501    0  0.00000000000E+00 -0.00000000000E+00 -0.30053073135E+03  0.30053073135E+03  0.00000000000E+00 0. -1.
         24    1    1    2    0    0  0.56069651459E+02 -0.55402513804E+01 -0.28510484884E+03  0.30154019796E+03  0.80419002446E+02 0. -1.
        -24    1    1    2    0    0 -0.56069651459E+02  0.55402513804E+01  0.32719238866E+03  0.34160880456E+03  0.80419002446E+02 0.  1.
<mgrwt>
<rscale>  0 0.98192241E+02</rscale>
<asrwt>0</asrwt>
<pdfrwt beam="1">  1        2 0.46235497E-01 0.98192241E+02</pdfrwt>
<pdfrwt beam="2">  1       -2 0.52710503E-01 0.98192241E+02</pdfrwt>
<totfact> 0.37902988E+02</totfact>
</mgrwt>
</event>
<event>
 4    1  0.5097315E-001  0.9837893E+02  0.7546771E-02  0.1283742E+00
         -4   -1    0    0    0  501 -0.00000000000E+00  0.00000000000E+00  0.22831511315E+03  0.22831511315E+03  0.00000000000E+00 0.  1.
          4   -1    0    0  501    0  0.00000000000E+00 -0.00000000000E+00 -0.63714365441E+02  0.63714365441E+02  0.00000000000E+00 0. -1.
         24    1    1    2    0    0 -0.50639131921E+02  0.25433750731E+02 -0.21710906358E+01  0.98402880785E+02  0.80419002446E+02 0. -1.
        -24    1    1    2    0    0  0.50639131921E+02 -0.25433750731E+02  0.16677183834E+03  0.19362659780E+03  0.80419002446E+02 0.  1.
<mgrwt>
<rscale>  0 0.98378927E+02</rscale>
<asrwt>0</asrwt>
<pdfrwt beam="1">  1        4 0.98022102E-02 0.98378927E+02</pdfrwt>
<pdfrwt beam="2">  1       -4 0.35125402E-01 0.98378927E+02</pdfrwt>
<totfact> 0.94667937E+02</totfact>
</mgrwt>
</event>
<event>
 4    1  0.5097315E-001  0.8350534E+02  0.7546771E-02  0.1319388E+00
         -2   -1    0    0    0  501 -0.00000000000E+00  0.00000000000E+00  0.22738443682E+02  0.22738443682E+02  0.00000000000E+00 0.  1.
          2   -1    0    0  501    0  0.00000000000E+00 -0.00000000000E+00 -0.86926322985E+03  0.86926322985E+03  0.00000000000E+00 0. -1.
         24    1    1    2    0    0  0.73000314831E+01 -0.21275221848E+02 -0.78206718793E+03  0.78651270042E+03  0.80419002446E+02 0. -1.
        -24    1    1    2    0    0 -0.73000314831E+01  0.21275221848E+02 -0.64457598241E+02  0.10548897312E+03  0.80419002446E+02 0.  1.
<mgrwt>
<rscale>  0 0.83505338E+02</rscale>
<asrwt>0</asrwt>
<pdfrwt beam="1">  1        2 0.13373280E+00 0.83505338E+02</pdfrwt>
<pdfrwt beam="2">  1       -2 0.34982222E-02 0.83505338E+02</pdfrwt>
<totfact> 0.99692594E+03</totfact>
</mgrwt>
</event>
<event>
 4    1  0.5097315E-001  0.9320643E+02  0.7546771E-02  0.1295268E+00
          2   -1    0    0  501    0  0.00000000000E+00  0.00000000000E+00  0.13570310399E+02  0.13570310399E+02  0.00000000000E+00 0. -1.
         -2   -1    0    0    0  501 -0.00000000000E+00 -0.00000000000E+00 -0.10408156407E+04  0.10408156407E+04  0.00000000000E+00 0.  1.
         24    1    1    2    0    0 -0.28663783867E+01 -0.47031974689E+02 -0.18653994245E+03  0.20852958747E+03  0.80419002446E+02 0. -1.
        -24    1    1    2    0    0  0.28663783867E+01  0.47031974689E+02 -0.84070538783E+03  0.84585636361E+03  0.80419002446E+02 0.  1.
<mgrwt>
<rscale>  0 0.93206431E+02</rscale>
<asrwt>0</asrwt>
<pdfrwt beam="1">  1        2 0.20877396E-02 0.93206431E+02</pdfrwt>
<pdfrwt beam="2">  1       -2 0.16012552E+00 0.93206431E+02</pdfrwt>
<totfact> 0.12936824E+03</totfact>
</mgrwt>
</event>
<event>
 4    1  0.5097315E-001  0.1146733E+03  0.7546771E-02  0.1252152E+00
         -2   -1    0    0    0  501 -0.00000000000E+00  0.00000000000E+00  0.14159513925E+02  0.14159513925E+02  0.00000000000E+00 0.  1.
          2   -1    0    0  501    0  0.00000000000E+00 -0.00000000000E+00 -0.95646831702E+03  0.95646831702E+03  0.00000000000E+00 0. -1.
         24    1    1    2    0    0  0.46070471680E+02 -0.67529645670E+02 -0.38846440699E+03  0.40503648337E+03  0.80419002446E+02 0. -1.
        -24    1    1    2    0    0 -0.46070471680E+02  0.67529645670E+02 -0.55384439611E+03  0.56559134758E+03  0.80419002446E+02 0.  0.
<mgrwt>
<rscale>  0 0.11467328E+03</rscale>
<asrwt>0</asrwt>
<pdfrwt beam="1">  1        2 0.14714900E+00 0.11467329E+03</pdfrwt>
<pdfrwt beam="2">  1       -2 0.21783863E-02 0.11467329E+03</pdfrwt>
<totfact> 0.17947594E+04</totfact>
</mgrwt>
</event>
<event>
 4    1  0.5097315E-001  0.8241977E+02  0.7546771E-02  0.1322321E+00
          2   -1    0    0  501    0  0.00000000000E+00  0.00000000000E+00  0.57647415278E+03  0.57647415278E+03  0.00000000000E+00 0. -1.
         -2   -1    0    0    0  501 -0.00000000000E+00 -0.00000000000E+00 -0.16574448882E+02  0.16574448882E+02  0.00000000000E+00 0.  1.
         24    1    1    2    0    0  0.17829201648E+02 -0.28144947900E+01  0.43936916332E+03  0.44703274986E+03  0.80419002446E+02 0.  0.
        -24    1    1    2    0    0 -0.17829201648E+02  0.28144947900E+01  0.12053054057E+03  0.14601585180E+03  0.80419002446E+02 0.  1.
<mgrwt>
<rscale>  0 0.82419766E+02</rscale>
<asrwt>0</asrwt>
<pdfrwt beam="1">  1        2 0.88688316E-01 0.82419766E+02</pdfrwt>
<pdfrwt beam="2">  1       -2 0.25499157E-02 0.82419766E+02</pdfrwt>
<totfact> 0.25477753E+04</totfact>
</mgrwt>
</event>
<event>
 4    1  0.5097315E-001  0.8303042E+02  0.7546771E-02  0.1320665E+00
          2   -1    0    0  501    0  0.00000000000E+00  0.00000000000E+00  0.12770379112E+04  0.12770379112E+04  0.00000000000E+00 0. -1.
         -2   -1    0    0    0  501 -0.00000000000E+00 -0.00000000000E+00 -0.71682168483E+01  0.71682168483E+01  0.00000000000E+00 0.  1.
         24    1    1    2    0    0  0.92361790047E+01 -0.18480472560E+02  0.95398191046E+03  0.95758839608E+03  0.80419002446E+02 0. -1.
        -24    1    1    2    0    0 -0.92361790047E+01  0.18480472560E+02  0.31588778386E+03  0.32661773193E+03  0.80419002446E+02 0.  1.
<mgrwt>
<rscale>  0 0.83030421E+02</rscale>
<asrwt>0</asrwt>
<pdfrwt beam="1">  1        2 0.19646719E+00 0.83030421E+02</pdfrwt>
<pdfrwt beam="2">  1       -2 0.11028036E-02 0.83030421E+02</pdfrwt>
<totfact> 0.30540978E+04</totfact>
</mgrwt>
</event>
<event>
 4    1  0.5097315E-001  0.8363285E+02  0.7546771E-02  0.1319047E+00
         -1   -1    0    0    0  501 -0.00000000000E+00  0.00000000000E+00  0.19407176477E+03  0.19407176477E+03  0.00000000000E+00 0.  1.
          1   -1    0    0  501    0  0.00000000000E+00 -0.00000000000E+00 -0.13015936341E+03  0.13015936341E+03  0.00000000000E+00 0. -1.
         24    1    1    2    0    0 -0.16091455857E+02  0.16379943501E+02  0.16981205746E+03  0.18928969416E+03  0.80419002446E+02 0.  1.
        -24    1    1    2    0    0  0.16091455857E+02 -0.16379943501E+02 -0.10589965610E+03  0.13494143403E+03  0.80419002446E+02 0. -1.
<mgrwt>
<rscale>  0 0.83632849E+02</rscale>
<asrwt>0</asrwt>
<pdfrwt beam="1">  1        1 0.20024517E-01 0.83632849E+02</pdfrwt>
<pdfrwt beam="2">  1       -1 0.29857195E-01 0.83632849E+02</pdfrwt>
<totfact> 0.24843894E+03</totfact>
</mgrwt>
</event>
<event>
 4    1  0.5097315E-001  0.9001316E+02  0.7546771E-02  0.1302820E+00
          2   -1    0    0  501    0  0.00000000000E+00  0.00000000000E+00  0.25353857063E+03  0.25353857063E+03  0.00000000000E+00 0. -1.
         -2   -1    0    0    0  501 -0.00000000000E+00 -0.00000000000E+00 -0.65566834592E+02  0.65566834592E+02  0.00000000000E+00 0.  1.
         24    1    1    2    0    0  0.39758050468E+02  0.73790389001E+01  0.20821958545E+03  0.22684303937E+03  0.80419002446E+02 0. -1.
        -24    1    1    2    0    0 -0.39758050468E+02 -0.73790389001E+01 -0.20247849412E+02  0.92262365850E+02  0.80419002446E+02 0.  1.
<mgrwt>
<rscale>  0 0.90013159E+02</rscale>
<asrwt>0</asrwt>
<pdfrwt beam="1">  1        2 0.39005933E-01 0.90013159E+02</pdfrwt>
<pdfrwt beam="2">  1       -2 0.10087205E-01 0.90013159E+02</pdfrwt>
<totfact> 0.79014776E+03</totfact>
</mgrwt>
</event>
<event>
 4    1  0.5097315E-001  0.8228362E+02  0.7546771E-02  0.1322693E+00
         -1   -1    0    0    0  501 -0.00000000000E+00  0.00000000000E+00  0.95791429441E+02  0.95791429441E+02  0.00000000000E+00 0.  1.
          1   -1    0    0  501    0  0.00000000000E+00 -0.00000000000E+00 -0.87070881501E+02  0.87070881501E+02  0.00000000000E+00 0. -1.
         24    1    1    2    0    0  0.22309722419E+01  0.17274265648E+02  0.44029274353E+02  0.93322936330E+02  0.80419002446E+02 0.  1.
        -24    1    1    2    0    0 -0.22309722419E+01 -0.17274265648E+02 -0.35308726412E+02  0.89539374613E+02  0.80419002446E+02 0. -1.
<mgrwt>
<rscale>  0 0.82283616E+02</rscale>
<asrwt>0</asrwt>
<pdfrwt beam="1">  1        1 0.13395520E-01 0.82283616E+02</pdfrwt>
<pdfrwt beam="2">  1       -1 0.14737143E-01 0.82283616E+02</pdfrwt>
<totfact> 0.12733265E+04</totfact>
</mgrwt>
</event>
<event>
 4    1  0.5097315E-001  0.8140062E+02  0.7546771E-02  0.1325123E+00
         -1   -1    0    0    0  501 -0.00000000000E+00  0.00000000000E+00  0.22506557585E+01  0.22506557585E+01  0.00000000000E+00 0.  1.
          1   -1    0    0  501    0  0.00000000000E+00 -0.00000000000E+00 -0.31539501151E+04  0.31539501151E+04  0.00000000000E+00 0. -1.
         24    1    1    2    0    0  0.12603302127E+02  0.40262078173E-01 -0.11687456901E+04  0.11715769497E+04  0.80419002446E+02 0.  1.
        -24    1    1    2    0    0 -0.12603302127E+02 -0.40262078173E-01 -0.19829537692E+04  0.19846238212E+04  0.80419002446E+02 0. -1.
<mgrwt>
<rscale>  0 0.81400619E+02</rscale>
<asrwt>0</asrwt>
<pdfrwt beam="1">  1        1 0.48522366E+00 0.81400619E+02</pdfrwt>
<pdfrwt beam="2">  1       -1 0.34625433E-03 0.81400619E+02</pdfrwt>
<totfact> 0.48120010E+03</totfact>
</mgrwt>
</event>
<event>
 4    1  0.5097315E-001  0.8989103E+02  0.7546771E-02  0.1303116E+00
         -1   -1    0    0    0  501 -0.00000000000E+00  0.00000000000E+00  0.37013827918E+02  0.37013827918E+02  0.00000000000E+00 0.  1.
          1   -1    0    0  501    0  0.00000000000E+00 -0.00000000000E+00 -0.64248787979E+03  0.64248787979E+03  0.00000000000E+00 0. -1.
         24    1    1    2    0    0 -0.14037182396E+01 -0.40139891474E+02 -0.26677103722E+02  0.93766012658E+02  0.80419002446E+02 0.  1.
        -24    1    1    2    0    0  0.14037182396E+01  0.40139891474E+02 -0.57879694815E+03  0.58573569505E+03  0.80419002446E+02 0. -1.
<mgrwt>
<rscale>  0 0.89891030E+02</rscale>
<asrwt>0</asrwt>
<pdfrwt beam="1">  1        1 0.98844282E-01 0.89891030E+02</pdfrwt>
<pdfrwt beam="2">  1       -1 0.56944355E-02 0.89891030E+02</pdfrwt>
<totfact> 0.43874794E+03</totfact>
</mgrwt>
</event>
<event>
 4    1  0.5097315E-001  0.8723628E+02  0.7546771E-02  0.1309686E+00
          2   -1    0    0  501    0  0.00000000000E+00  0.00000000000E+00  0.17757770384E+03  0.17757770384E+03  0.00000000000E+00 0. -1.
         -2   -1    0    0    0  501 -0.00000000000E+00 -0.00000000000E+00 -0.44005874994E+02  0.44005874994E+02  0.00000000000E+00 0.  1.
         24    1    1    2    0    0 -0.18535588610E+02 -0.28273383342E+02  0.84699637988E+02  0.12159028284E+03  0.80419002446E+02 0. -1.
        -24    1    1    2    0    0  0.18535588610E+02  0.28273383342E+02  0.48872190860E+02  0.99993295998E+02  0.80419002446E+02 0.  0.
<mgrwt>
<rscale>  0 0.87236278E+02</rscale>
<asrwt>0</asrwt>
<pdfrwt beam="1">  1        2 0.27319646E-01 0.87236278E+02</pdfrwt>
<pdfrwt beam="2">  1       -2 0.67701347E-02 0.87236278E+02</pdfrwt>
<totfact> 0.21175697E+04</totfact>
</mgrwt>
</event>
<event>
 4    1  0.5097315E-001  0.9829678E+02  0.7546771E-02  0.1283919E+00
          2   -1    0    0  501    0  0.00000000000E+00  0.00000000000E+00  0.88668648959E+02  0.88668648959E+02  0.00000000000E+00 0. -1.
         -2   -1    0    0    0  501 -0.00000000000E+00 -0.00000000000E+00 -0.14245817018E+03  0.14245817018E+03  0.00000000000E+00 0.  1.
         24    1    1    2    0    0 -0.23708953724E+02  0.51312041322E+02  0.29135150840E+02  0.10252371940E+03  0.80419002446E+02 0. -1.
        -24    1    1    2    0    0  0.23708953724E+02 -0.51312041322E+02 -0.82924672062E+02  0.12860309974E+03  0.80419002446E+02 0.  1.
<mgrwt>
<rscale>  0 0.98296775E+02</rscale>
<asrwt>0</asrwt>
<pdfrwt beam="1">  1        2 0.13641331E-01 0.98296775E+02</pdfrwt>
<pdfrwt beam="2">  1       -2 0.21916642E-01 0.98296775E+02</pdfrwt>
<totfact> 0.72127678E+03</totfact>
</mgrwt>
</event>
<event>
 4    1  0.5097315E-001  0.1015377E+03  0.7546771E-02  0.1277095E+00
          2   -1    0    0  501    0  0.00000000000E+00  0.00000000000E+00  0.30433402356E+04  0.30433402356E+04  0.00000000000E+00 0. -1.
         -2   -1    0    0    0  501 -0.00000000000E+00 -0.00000000000E+00 -0.35955617566E+01  0.35955617566E+01  0.00000000000E+00 0.  1.
         24    1    1    2    0    0 -0.42438812763E+02 -0.45184354609E+02  0.11535636710E+04  0.11580237639E+04  0.80419002446E+02 0.  0.
        -24    1    1    2    0    0  0.42438812763E+02  0.45184354609E+02  0.18861810029E+04  0.18889120335E+04  0.80419002446E+02 0.  0.
<mgrwt>
<rscale>  0 0.10153766E+03</rscale>
<asrwt>0</asrwt>
<pdfrwt beam="1">  1        2 0.46820413E+00 0.10153768E+03</pdfrwt>
<pdfrwt beam="2">  1       -2 0.55316578E-03 0.10153768E+03</pdfrwt>
<totfact> 0.97897787E+03</totfact>
</mgrwt>
</event>
<event>
 4    1  0.5097315E-001  0.1090943E+03  0.7546771E-02  0.1262256E+00
         -2   -1    0    0    0  501 -0.00000000000E+00  0.00000000000E+00  0.19069976510E+02  0.19069976510E+02  0.00000000000E+00 0.  1.
          2   -1    0    0  501    0  0.00000000000E+00 -0.00000000000E+00 -0.92974661910E+03  0.92974661910E+03  0.00000000000E+00 0. -1.
         24    1    1    2    0    0  0.33274552719E+02  0.65781169628E+02 -0.72734508642E+03  0.73548110026E+03  0.80419002446E+02 0. -1.
        -24    1    1    2    0    0 -0.33274552719E+02 -0.65781169628E+02 -0.18333155616E+03  0.21333549535E+03  0.80419002446E+02 0.  1.
<mgrwt>
<rscale>  0 0.10909434E+03</rscale>
<asrwt>0</asrwt>
<pdfrwt beam="1">  1        2 0.14303794E+00 0.10909434E+03</pdfrwt>
<pdfrwt beam="2">  1       -2 0.29338426E-02 0.10909434E+03</pdfrwt>
<totfact> 0.12042614E+04</totfact>
</mgrwt>
</event>
<event>
 4    1  0.5097315E-001  0.1252717E+03  0.7546771E-02  0.1234645E+00
         -3   -1    0    0    0  501 -0.00000000000E+00  0.00000000000E+00  0.72859254136E+03  0.72859254136E+03  0.00000000000E+00 0.  1.
          3   -1    0    0  501    0  0.00000000000E+00 -0.00000000000E+00 -0.21540210627E+02  0.21540210627E+02  0.00000000000E+00 0. -1.
         24    1    1    2    0    0  0.80957038596E+02  0.51688873896E+02  0.35657800801E+03  0.37794295010E+03  0.80419002446E+02 0.  0.
        -24    1    1    2    0    0 -0.80957038596E+02 -0.51688873896E+02  0.35047432272E+03  0.37218980188E+03  0.80419002446E+02 0.  0.
<mgrwt>
<rscale>  0 0.12527170E+03</rscale>
<asrwt>0</asrwt>
<pdfrwt beam="1">  1        3 0.33138791E-02 0.12527170E+03</pdfrwt>
<pdfrwt beam="2">  1       -3 0.11209114E+00 0.12527170E+03</pdfrwt>
<totfact> 0.69305550E+02</totfact>
</mgrwt>
</event>
<event>
 4    1  0.5097315E-001  0.9661062E+02  0.7546771E-02  0.1287589E+00
         -2   -1    0    0    0  501 -0.00000000000E+00  0.00000000000E+00  0.86369615454E+02  0.86369615454E+02  0.00000000000E+00 0.  1.
          2   -1    0    0  501    0  0.00000000000E+00 -0.00000000000E+00 -0.10808767354E+03  0.10808767354E+03  0.00000000000E+00 0. -1.
         24    1    1    2    0    0 -0.16300454125E+02 -0.50996974012E+02 -0.12238308339E+02  0.97382689983E+02  0.80419002446E+02 0.  0.
        -24    1    1    2    0    0  0.16300454125E+02  0.50996974012E+02 -0.94797497443E+01  0.97074599008E+02  0.80419002446E+02 0. -1.
<mgrwt>
<rscale>  0 0.96610621E+02</rscale>
<asrwt>0</asrwt>
<pdfrwt beam="1">  1        2 0.16628873E-01 0.96610621E+02</pdfrwt>
<pdfrwt beam="2">  1       -2 0.13287633E-01 0.96610621E+02</pdfrwt>
<totfact> 0.13051685E+04</totfact>
</mgrwt>
</event>
<event>
 4    1  0.5097315E-001  0.8400446E+02  0.7546771E-02  0.1318057E+00
          2   -1    0    0  501    0  0.00000000000E+00  0.00000000000E+00  0.12500396926E+03  0.12500396926E+03  0.00000000000E+00 0. -1.
         -2   -1    0    0    0  501 -0.00000000000E+00 -0.00000000000E+00 -0.65553687036E+02  0.65553687036E+02  0.00000000000E+00 0.  1.
         24    1    1    2    0    0  0.16734483823E+02 -0.17592357375E+02  0.65227225922E+02  0.10635478806E+03  0.80419002446E+02 0. -1.
        -24    1    1    2    0    0 -0.16734483823E+02  0.17592357375E+02 -0.57769436972E+01  0.84202868239E+02  0.80419002446E+02 0.  1.
<mgrwt>
<rscale>  0 0.84004464E+02</rscale>
<asrwt>0</asrwt>
<pdfrwt beam="1">  1        2 0.19231380E-01 0.84004464E+02</pdfrwt>
<pdfrwt beam="2">  1       -2 0.10085183E-01 0.84004464E+02</pdfrwt>
<totfact> 0.16847593E+04</totfact>
</mgrwt>
</event>
<event>
 4    1  0.5097315E-001  0.9423224E+02  0.7546771E-02  0.1292915E+00
          2   -1    0    0  501    0  0.00000000000E+00  0.00000000000E+00  0.24884223699E+03  0.24884223699E+03  0.00000000000E+00 0. -1.
         -2   -1    0    0    0  501 -0.00000000000E+00 -0.00000000000E+00 -0.11392862836E+03  0.11392862836E+03  0.00000000000E+00 0.  1.
         24    1    1    2    0    0  0.43765644986E+02 -0.22295012349E+02  0.21777547119E+03  0.23728858182E+03  0.80419002446E+02 0. -1.
        -24    1    1    2    0    0 -0.43765644986E+02  0.22295012349E+02 -0.82861862560E+02  0.12548228352E+03  0.80419002446E+02 0.  1.
<mgrwt>
<rscale>  0 0.94232241E+02</rscale>
<asrwt>0</asrwt>
<pdfrwt beam="1">  1        2 0.38283421E-01 0.94232241E+02</pdfrwt>
<pdfrwt beam="2">  1       -2 0.17527481E-01 0.94232241E+02</pdfrwt>
<totfact> 0.33413090E+03</totfact>
</mgrwt>
</event>
<event>
 4    1  0.5097315E-001  0.1249721E+03  0.7546771E-02  0.1235113E+00
         -2   -1    0    0    0  501 -0.00000000000E+00  0.00000000000E+00  0.58269143006E+01  0.58269143006E+01  0.00000000000E+00 0.  1.
          2   -1    0    0  501    0  0.00000000000E+00 -0.00000000000E+00 -0.28776849234E+04  0.28776849234E+04  0.00000000000E+00 0. -1.
         24    1    1    2    0    0  0.58026565648E+02  0.76050774156E+02 -0.18135017639E+04  0.18178027028E+04  0.80419002446E+02 0. -1.
        -24    1    1    2    0    0 -0.58026565648E+02 -0.76050774156E+02 -0.10583562452E+04  0.10657091349E+04  0.80419002446E+02 0.  0.
<mgrwt>
<rscale>  0 0.12497207E+03</rscale>
<asrwt>0</asrwt>
<pdfrwt beam="1">  1        2 0.44271988E+00 0.12497207E+03</pdfrwt>
<pdfrwt beam="2">  1       -2 0.89645013E-03 0.12497207E+03</pdfrwt>
<totfact> 0.61548937E+03</totfact>
</mgrwt>
</event>
<event>
 4    1  0.5097315E-001  0.8599386E+02  0.7546771E-02  0.1312854E+00
          2   -1    0    0  501    0  0.00000000000E+00  0.00000000000E+00  0.29738675183E+04  0.29738675183E+04  0.00000000000E+00 0. -1.
         -2   -1    0    0    0  501 -0.00000000000E+00 -0.00000000000E+00 -0.16604903556E+02  0.16604903556E+02  0.00000000000E+00 0.  1.
         24    1    1    2    0    0  0.22973187841E+02  0.19999019584E+02  0.28573708703E+04  0.28586645894E+04  0.80419002446E+02 0. -1.
        -24    1    1    2    0    0 -0.22973187841E+02 -0.19999019584E+02  0.99891744482E+02  0.13180783252E+03  0.80419002446E+02 0.  1.
<mgrwt>
<rscale>  0 0.85993861E+02</rscale>
<asrwt>0</asrwt>
<pdfrwt beam="1">  1        2 0.45751766E+00 0.85993861E+02</pdfrwt>
<pdfrwt beam="2">  1       -2 0.25546029E-02 0.85993861E+02</pdfrwt>
<totfact> 0.12187089E+03</totfact>
</mgrwt>
</event>
<event>
 4    1  0.5097315E-001  0.8704458E+02  0.7546771E-02  0.1310171E+00
          2   -1    0    0  501    0  0.00000000000E+00  0.00000000000E+00  0.19863990640E+02  0.19863990640E+02  0.00000000000E+00 0. -1.
         -2   -1    0    0    0  501 -0.00000000000E+00 -0.00000000000E+00 -0.67211622431E+03  0.67211622431E+03  0.00000000000E+00 0.  1.
         24    1    1    2    0    0 -0.77305801695E+01  0.32400323576E+02 -0.98588957382E+02  0.13151631575E+03  0.80419002446E+02 0. -1.
        -24    1    1    2    0    0  0.77305801695E+01 -0.32400323576E+02 -0.55366327629E+03  0.56046389920E+03  0.80419002446E+02 0.  1.
<mgrwt>
<rscale>  0 0.87044579E+02</rscale>
<asrwt>0</asrwt>
<pdfrwt beam="1">  1        2 0.30559988E-02 0.87044579E+02</pdfrwt>
<pdfrwt beam="2">  1       -2 0.10340249E+00 0.87044579E+02</pdfrwt>
<totfact> 0.22381094E+03</totfact>
</mgrwt>
</event>
<event>
 4    1  0.5097315E-001  0.1260138E+03  0.7546771E-02  0.1233493E+00
          2   -1    0    0  501    0  0.00000000000E+00  0.00000000000E+00  0.74971773331E+03  0.74971773331E+03  0.00000000000E+00 0. -1.
         -2   -1    0    0    0  501 -0.00000000000E+00 -0.00000000000E+00 -0.21186383070E+02  0.21186383070E+02  0.00000000000E+00 0.  1.
         24    1    1    2    0    0 -0.96414173293E+02 -0.10796157260E+02  0.37063808503E+03  0.39147420841E+03  0.80419002446E+02 0.  0.
        -24    1    1    2    0    0  0.96414173293E+02  0.10796157260E+02  0.35789326520E+03  0.37942990796E+03  0.80419002446E+02 0.  1.
<mgrwt>
<rscale>  0 0.12601375E+03</rscale>
<asrwt>0</asrwt>
<pdfrwt beam="1">  1        2 0.11534117E+00 0.12601375E+03</pdfrwt>
<pdfrwt beam="2">  1       -2 0.32594441E-02 0.12601375E+03</pdfrwt>
<totfact> 0.13668247E+04</totfact>
</mgrwt>
</event>
<event>
 4    1  0.5097315E-001  0.8214693E+02  0.7546771E-02  0.1323067E+00
         -3   -1    0    0    0  501 -0.00000000000E+00  0.00000000000E+00  0.18653751394E+02  0.18653751394E+02  0.00000000000E+00 0.  1.
          3   -1    0    0  501    0  0.00000000000E+00 -0.00000000000E+00 -0.52254971022E+03  0.52254971022E+03  0.00000000000E+00 0. -1.
         24    1    1    2    0    0 -0.52090277624E+01  0.15930100998E+02 -0.10184114846E+03  0.13084241500E+03  0.80419002446E+02 0.  0.
        -24    1    1    2    0    0  0.52090277624E+01 -0.15930100998E+02 -0.40205481036E+03  0.41036104662E+03  0.80419002446E+02 0. -1.
<mgrwt>
<rscale>  0 0.82146930E+02</rscale>
<asrwt>0</asrwt>
<pdfrwt beam="1">  1        3 0.80392261E-01 0.82146930E+02</pdfrwt>
<pdfrwt beam="2">  1       -3 0.28698080E-02 0.82146930E+02</pdfrwt>
<totfact> 0.16843164E+03</totfact>
</mgrwt>
</event>
<event>
 4    1  0.5097315E-001  0.8595241E+02  0.7546771E-02  0.1312961E+00
         -2   -1    0    0    0  501 -0.00000000000E+00  0.00000000000E+00  0.39171612020E+01  0.39171612020E+01  0.00000000000E+00 0.  1.
          2   -1    0    0  501    0  0.00000000000E+00 -0.00000000000E+00 -0.23659218272E+04  0.23659218272E+04  0.00000000000E+00 0. -1.
         24    1    1    2    0    0 -0.29890641953E+02 -0.52105344556E+01 -0.17146665902E+04  0.17168195396E+04  0.80419002446E+02 0. -1.
        -24    1    1    2    0    0  0.29890641953E+02  0.52105344556E+01 -0.64733807586E+03  0.65301944884E+03  0.80419002446E+02 0.  1.
<mgrwt>
<rscale>  0 0.85952406E+02</rscale>
<asrwt>0</asrwt>
<pdfrwt beam="1">  1        2 0.36398819E+00 0.85952406E+02</pdfrwt>
<pdfrwt beam="2">  1       -2 0.60263983E-03 0.85952406E+02</pdfrwt>
<totfact> 0.20121082E+04</totfact>
</mgrwt>
</event>
<event>
 4    1  0.5097315E-001  0.8063822E+02  0.7546771E-02  0.1327250E+00
          2   -1    0    0  501    0  0.00000000000E+00  0.00000000000E+00  0.52047945928E+03  0.52047945928E+03  0.00000000000E+00 0. -1.
         -2   -1    0    0    0  501 -0.00000000000E+00 -0.00000000000E+00 -0.17445602106E+02  0.17445602106E+02  0.00000000000E+00 0.  1.
         24    1    1    2    0    0 -0.43774359934E+01  0.40179893634E+01  0.39481851848E+03  0.40296921058E+03  0.80419002446E+02 0.  0.
        -24    1    1    2    0    0  0.43774359934E+01 -0.40179893634E+01  0.10821533869E+03  0.13495585081E+03  0.80419002446E+02 0.  1.
<mgrwt>
<rscale>  0 0.80638218E+02</rscale>
<asrwt>0</asrwt>
<pdfrwt beam="1">  1        2 0.80073751E-01 0.80638218E+02</pdfrwt>
<pdfrwt beam="2">  1       -2 0.26839392E-02 0.80638218E+02</pdfrwt>
<totfact> 0.26394390E+04</totfact>
</mgrwt>
</event>
<event>
 4    1  0.5097315E-001  0.9949363E+02  0.7546771E-02  0.1281364E+00
         -2   -1    0    0    0  501 -0.00000000000E+00  0.00000000000E+00  0.47925686431E+02  0.47925686431E+02  0.00000000000E+00 0.  1.
          2   -1    0    0  501    0  0.00000000000E+00 -0.00000000000E+00 -0.20947146489E+03  0.20947146489E+03  0.00000000000E+00 0. -1.
         24    1    1    2    0    0  0.23858348159E+02 -0.53502718810E+02 -0.65570052086E+02  0.11915707861E+03  0.80419002446E+02 0.  1.
        -24    1    1    2    0    0 -0.23858348159E+02  0.53502718810E+02 -0.95975726368E+02  0.13824007271E+03  0.80419002446E+02 0. -1.
<mgrwt>
<rscale>  0 0.99493619E+02</rscale>
<asrwt>0</asrwt>
<pdfrwt beam="1">  1        2 0.32226379E-01 0.99493631E+02</pdfrwt>
<pdfrwt beam="2">  1       -2 0.73731825E-02 0.99493631E+02</pdfrwt>
<totfact> 0.15804594E+04</totfact>
</mgrwt>
</event>
<event>
 4    1  0.5097315E-001  0.9732452E+02  0.7546771E-02  0.1286025E+00
          2   -1    0    0  501    0  0.00000000000E+00  0.00000000000E+00  0.24480252134E+03  0.24480252134E+03  0.00000000000E+00 0. -1.
         -2   -1    0    0    0  501 -0.00000000000E+00 -0.00000000000E+00 -0.38912235122E+02  0.38912235122E+02  0.00000000000E+00 0.  1.
         24    1    1    2    0    0  0.45782827910E+02 -0.30145946238E+02  0.11360123218E+03  0.14959044526E+03  0.80419002446E+02 0.  1.
        -24    1    1    2    0    0 -0.45782827910E+02  0.30145946238E+02  0.92289054045E+02  0.13412431121E+03  0.80419002446E+02 0. -1.
<mgrwt>
<rscale>  0 0.97324516E+02</rscale>
<asrwt>0</asrwt>
<pdfrwt beam="1">  1        2 0.37661925E-01 0.97324516E+02</pdfrwt>
<pdfrwt beam="2">  1       -2 0.59864979E-02 0.97324516E+02</pdfrwt>
<totfact> 0.18320698E+04</totfact>
</mgrwt>
</event>
<event>
 4    1  0.5097315E-001  0.8761230E+02  0.7546771E-02  0.1308739E+00
         -3   -1    0    0    0  501 -0.00000000000E+00  0.00000000000E+00  0.86134405297E+03  0.86134405297E+03  0.00000000000E+00 0.  1.
          3   -1    0    0  501    0  0.00000000000E+00 -0.00000000000E+00 -0.18207067616E+02  0.18207067616E+02  0.00000000000E+00 0. -1.
         24    1    1    2    0    0 -0.31360611883E+02 -0.15007033872E+02  0.73579857397E+03  0.74099625941E+03  0.80419002446E+02 0.  1.
        -24    1    1    2    0    0  0.31360611883E+02  0.15007033872E+02  0.10733841138E+03  0.13855486118E+03  0.80419002446E+02 0. -1.
<mgrwt>
<rscale>  0 0.87612299E+02</rscale>
<asrwt>0</asrwt>
<pdfrwt beam="1">  1        3 0.28010880E-02 0.87612299E+02</pdfrwt>
<pdfrwt beam="2">  1       -3 0.13251444E+00 0.87612299E+02</pdfrwt>
<totfact> 0.57105122E+02</totfact>
</mgrwt>
</event>
<event>
 4    1  0.5097315E-001  0.8990187E+02  0.7546771E-02  0.1303090E+00
          2   -1    0    0  501    0  0.00000000000E+00  0.00000000000E+00  0.90926012323E+03  0.90926012323E+03  0.00000000000E+00 0. -1.
         -2   -1    0    0    0  501 -0.00000000000E+00 -0.00000000000E+00 -0.92559302173E+01  0.92559302173E+01  0.00000000000E+00 0.  1.
         24    1    1    2    0    0  0.20432469922E+02 -0.34606998634E+02  0.54145176302E+03  0.54886460790E+03  0.80419002446E+02 0. -1.
        -24    1    1    2    0    0 -0.20432469922E+02  0.34606998634E+02  0.35855242999E+03  0.36965144554E+03  0.80419002446E+02 0.  1.
<mgrwt>
<rscale>  0 0.89901869E+02</rscale>
<asrwt>0</asrwt>
<pdfrwt beam="1">  1        2 0.13988610E+00 0.89901869E+02</pdfrwt>
<pdfrwt beam="2">  1       -2 0.14239900E-02 0.89901869E+02</pdfrwt>
<totfact> 0.34560093E+04</totfact>
</mgrwt>
</event>
<event>
 4    1  0.5097315E-001  0.8203684E+02  0.7546771E-02  0.1323369E+00
          2   -1    0    0  501    0  0.00000000000E+00  0.00000000000E+00  0.73784142833E+03  0.73784142833E+03  0.00000000000E+00 0. -1.
         -2   -1    0    0    0  501 -0.00000000000E+00 -0.00000000000E+00 -0.23917472056E+02  0.23917472056E+02  0.00000000000E+00 0.  1.
         24    1    1    2    0    0  0.93604542918E+00  0.16184897301E+02  0.65653671516E+03  0.66164227600E+03  0.80419002446E+02 0. -1.
        -24    1    1    2    0    0 -0.93604542918E+00 -0.16184897301E+02  0.57387241113E+02  0.10011662439E+03  0.80419002446E+02 0.  1.
<mgrwt>
<rscale>  0 0.82036840E+02</rscale>
<asrwt>0</asrwt>
<pdfrwt beam="1">  1        2 0.11351405E+00 0.82036840E+02</pdfrwt>
<pdfrwt beam="2">  1       -2 0.36796117E-02 0.82036840E+02</pdfrwt>
<totfact> 0.11290436E+04</totfact>
</mgrwt>
</event>
<event>
 4    1  0.5097315E-001  0.1081459E+03  0.7546771E-02  0.1264042E+00
         -2   -1    0    0    0  501 -0.00000000000E+00  0.00000000000E+00  0.79886866022E+02  0.79886866022E+02  0.00000000000E+00 0.  1.
          2   -1    0    0  501    0  0.00000000000E+00 -0.00000000000E+00 -0.39452930727E+03  0.39452930727E+03  0.00000000000E+00 0. -1.
         24    1    1    2    0    0  0.28745927784E+02  0.66347513240E+02 -0.34543811286E+03  0.36197103012E+03  0.80419002446E+02 0. -1.
        -24    1    1    2    0    0 -0.28745927784E+02 -0.66347513240E+02  0.30795671615E+02  0.11244514317E+03  0.80419002446E+02 0.  1.
<mgrwt>
<rscale>  0 0.10814591E+03</rscale>
<asrwt>0</asrwt>
<pdfrwt beam="1">  1        2 0.60696817E-01 0.10814591E+03</pdfrwt>
<pdfrwt beam="2">  1       -2 0.12290287E-01 0.10814591E+03</pdfrwt>
<totfact> 0.36848875E+03</totfact>
</mgrwt>
</event>
<event>
 4    1  0.5097315E-001  0.9130892E+02  0.7546771E-02  0.1299713E+00
          2   -1    0    0  501    0  0.00000000000E+00  0.00000000000E+00  0.32414742110E+02  0.32414742110E+02  0.00000000000E+00 0. -1.
         -2   -1    0    0    0  501 -0.00000000000E+00 -0.00000000000E+00 -0.35158627141E+03  0.35158627141E+03  0.00000000000E+00 0.  1.
         24    1    1    2    0    0 -0.39881794524E+01 -0.43060347988E+02 -0.25906296587E+03  0.27468333656E+03  0.80419002446E+02 0.  1.
        -24    1    1    2    0    0  0.39881794524E+01  0.43060347988E+02 -0.60108563435E+02  0.10931767696E+03  0.80419002446E+02 0. -1.
<mgrwt>
<rscale>  0 0.91308911E+02</rscale>
<asrwt>0</asrwt>
<pdfrwt beam="1">  1        2 0.49868833E-02 0.91308922E+02</pdfrwt>
<pdfrwt beam="2">  1       -2 0.54090196E-01 0.91308922E+02</pdfrwt>
<totfact> 0.47416422E+03</totfact>
</mgrwt>
</event>
<event>
 4    1  0.5097315E-001  0.1407531E+03  0.7546771E-02  0.1212319E+00
         -1   -1    0    0    0  501 -0.00000000000E+00  0.00000000000E+00  0.14225713325E+03  0.14225713325E+03  0.00000000000E+00 0.  1.
          1   -1    0    0  501    0  0.00000000000E+00 -0.00000000000E+00 -0.45807780349E+03  0.45807780349E+03  0.00000000000E+00 0. -1.
         24    1    1    2    0    0  0.64409403091E+01 -0.11533743803E+03  0.92505587267E+02  0.16843013375E+03  0.80419002446E+02 0.  1.
        -24    1    1    2    0    0 -0.64409403091E+01  0.11533743803E+03 -0.40832625751E+03  0.43190480299E+03  0.80419002446E+02 0. -1.
<mgrwt>
<rscale>  0 0.14075307E+03</rscale>
<asrwt>0</asrwt>
<pdfrwt beam="1">  1        1 0.70473509E-01 0.14075307E+03</pdfrwt>
<pdfrwt beam="2">  1       -1 0.21885713E-01 0.14075307E+03</pdfrwt>
<totfact> 0.88159769E+02</totfact>
</mgrwt>
</event>
<event>
 4    1  0.5097315E-001  0.9589429E+02  0.7546771E-02  0.1289175E+00
          2   -1    0    0  501    0  0.00000000000E+00  0.00000000000E+00  0.12690876023E+04  0.12690876023E+04  0.00000000000E+00 0. -1.
         -2   -1    0    0    0  501 -0.00000000000E+00 -0.00000000000E+00 -0.10159927098E+02  0.10159927098E+02  0.00000000000E+00 0.  1.
         24    1    1    2    0    0  0.45904885462E+02 -0.24924689111E+02  0.97201399101E+03  0.97673277477E+03  0.80419002446E+02 0. -1.
        -24    1    1    2    0    0 -0.45904885462E+02  0.24924689111E+02  0.28691368420E+03  0.30251475463E+03  0.80419002446E+02 0.  1.
<mgrwt>
<rscale>  0 0.95894289E+02</rscale>
<asrwt>0</asrwt>
<pdfrwt beam="1">  1        2 0.19524412E+00 0.95894289E+02</pdfrwt>
<pdfrwt beam="2">  1       -2 0.15630667E-02 0.95894289E+02</pdfrwt>
<totfact> 0.19007814E+04</totfact>
</mgrwt>
</event>
<event>
 4    1  0.5097315E-001  0.9930992E+02  0.7546771E-02  0.1281754E+00
          2   -1    0    0  501    0  0.00000000000E+00  0.00000000000E+00  0.74280729813E+02  0.74280729813E+02  0.00000000000E+00 0. -1.
         -2   -1    0    0    0  501 -0.00000000000E+00 -0.00000000000E+00 -0.21002877630E+03  0.21002877630E+03  0.00000000000E+00 0.  1.
         24    1    1    2    0    0  0.45506296903E+01  0.58090759013E+02  0.18342008034E+02  0.10098955256E+03  0.80419002446E+02 0. -1.
        -24    1    1    2    0    0 -0.45506296903E+01 -0.58090759013E+02 -0.15409005452E+03  0.18331995355E+03  0.80419002446E+02 0.  1.
<mgrwt>
<rscale>  0 0.99309921E+02</rscale>
<asrwt>0</asrwt>
<pdfrwt beam="1">  1        2 0.11427805E-01 0.99309921E+02</pdfrwt>
<pdfrwt beam="2">  1       -2 0.32312120E-01 0.99309921E+02</pdfrwt>
<totfact> 0.45103942E+03</totfact>
</mgrwt>
</event>
<event>
 4    1  0.5097315E-001  0.8375918E+02  0.7546771E-02  0.1318710E+00
          1   -1    0    0  501    0  0.00000000000E+00  0.00000000000E+00  0.12345040181E+04  0.12345040181E+04  0.00000000000E+00 0. -1.
         -1   -1    0    0    0  501 -0.00000000000E+00 -0.00000000000E+00 -0.69025491231E+01  0.69025491231E+01  0.00000000000E+00 0.  1.
         24    1    1    2    0    0  0.22124016926E+02 -0.76753771378E+01  0.35289029043E+03  0.36269430182E+03  0.80419002446E+02 0.  1.
        -24    1    1    2    0    0 -0.22124016926E+02  0.76753771378E+01  0.87471117856E+03  0.87871226541E+03  0.80419002446E+02 0.  0.
<mgrwt>
<rscale>  0 0.83759176E+02</rscale>
<asrwt>0</asrwt>
<pdfrwt beam="1">  1        1 0.18992352E+00 0.83759176E+02</pdfrwt>
<pdfrwt beam="2">  1       -1 0.10619316E-02 0.83759176E+02</pdfrwt>
<totfact> 0.17298288E+04</totfact>
</mgrwt>
</event>
<event>
 4    1  0.5097315E-001  0.1052224E+03  0.7546771E-02  0.1269682E+00
          3   -1    0    0  501    0  0.00000000000E+00  0.00000000000E+00  0.17575251820E+04  0.17575251820E+04  0.00000000000E+00 0. -1.
         -3   -1    0    0    0  501 -0.00000000000E+00 -0.00000000000E+00 -0.69562209094E+01  0.69562209094E+01  0.00000000000E+00 0.  1.
         24    1    1    2    0    0 -0.27943716516E+02  0.61835904519E+02  0.60423404903E+03  0.61332742670E+03  0.80419002446E+02 0.  0.
        -24    1    1    2    0    0  0.27943716516E+02 -0.61835904519E+02  0.11463349121E+04  0.11511539762E+04  0.80419002446E+02 0. -1.
<mgrwt>
<rscale>  0 0.10522237E+03</rscale>
<asrwt>0</asrwt>
<pdfrwt beam="1">  1        3 0.27038814E+00 0.10522237E+03</pdfrwt>
<pdfrwt beam="2">  1       -3 0.10701892E-02 0.10522237E+03</pdfrwt>
<totfact> 0.36460581E+02</totfact>
</mgrwt>
</event>
<event>
 4    1  0.5097315E-001  0.9024131E+02  0.7546771E-02  0.1302268E+00
          2   -1    0    0  501    0  0.00000000000E+00  0.00000000000E+00  0.76038840446E+02  0.76038840446E+02  0.00000000000E+00 0. -1.
         -2   -1    0    0    0  501 -0.00000000000E+00 -0.00000000000E+00 -0.16889667744E+03  0.16889667744E+03  0.00000000000E+00 0.  1.
         24    1    1    2    0    0  0.77038728283E+01  0.40211037313E+02  0.27651956571E+02  0.94382857738E+02  0.80419002446E+02 0. -1.
        -24    1    1    2    0    0 -0.77038728283E+01 -0.40211037313E+02 -0.12050979356E+03  0.15055266015E+03  0.80419002446E+02 0.  1.
<mgrwt>
<rscale>  0 0.90241305E+02</rscale>
<asrwt>0</asrwt>
<pdfrwt beam="1">  1        2 0.11698283E-01 0.90241305E+02</pdfrwt>
<pdfrwt beam="2">  1       -2 0.25984104E-01 0.90241305E+02</pdfrwt>
<totfact> 0.64072658E+03</totfact>
</mgrwt>
</event>
<event>
 4    1  0.5097315E-001  0.8113137E+02  0.7546771E-02  0.1325871E+00
          4   -1    0    0  501    0  0.00000000000E+00  0.00000000000E+00  0.10433780987E+03  0.10433780987E+03  0.00000000000E+00 0. -1.
         -4   -1    0    0    0  501 -0.00000000000E+00 -0.00000000000E+00 -0.71353261793E+02  0.71353261793E+02  0.00000000000E+00 0.  1.
         24    1    1    2    0    0 -0.71374759656E+01 -0.80086758750E+01  0.46393067761E+02  0.93459162970E+02  0.80419002446E+02 0. -1.
        -24    1    1    2    0    0  0.71374759656E+01  0.80086758750E+01 -0.13408519686E+02  0.82231908691E+02  0.80419002446E+02 0.  1.
<mgrwt>
<rscale>  0 0.81131365E+02</rscale>
<asrwt>0</asrwt>
<pdfrwt beam="1">  1        4 0.16051971E-01 0.81131365E+02</pdfrwt>
<pdfrwt beam="2">  1       -4 0.10977425E-01 0.81131365E+02</pdfrwt>
<totfact> 0.30998678E+03</totfact>
</mgrwt>
</event>
<event>
 4    1  0.5097315E-001  0.9270326E+02  0.7546771E-02  0.1296434E+00
          2   -1    0    0  501    0  0.00000000000E+00  0.00000000000E+00  0.83278968803E+02  0.83278968803E+02  0.00000000000E+00 0. -1.
         -2   -1    0    0    0  501 -0.00000000000E+00 -0.00000000000E+00 -0.14471157385E+03  0.14471157385E+03  0.00000000000E+00 0.  1.
         24    1    1    2    0    0 -0.38745831733E+02 -0.25008686047E+02 -0.91775514184E+02  0.13044782410E+03  0.80419002446E+02 0.  1.
        -24    1    1    2    0    0  0.38745831733E+02  0.25008686047E+02  0.30342909133E+02  0.97542718557E+02  0.80419002446E+02 0. -1.
<mgrwt>
<rscale>  0 0.92703247E+02</rscale>
<asrwt>0</asrwt>
<pdfrwt beam="1">  1        2 0.12812149E-01 0.92703258E+02</pdfrwt>
<pdfrwt beam="2">  1       -2 0.22263319E-01 0.92703258E+02</pdfrwt>
<totfact> 0.75224029E+03</totfact>
</mgrwt>
</event>
<event>
 4    1  0.5097315E-001  0.1214353E+03  0.7546771E-02  0.1240748E+00
         -2   -1    0    0    0  501 -0.00000000000E+00  0.00000000000E+00  0.40949739510E+02  0.40949739510E+02  0.00000000000E+00 0.  1.
          2   -1    0    0  501    0  0.00000000000E+00 -0.00000000000E+00 -0.10737690706E+04  0.10737690706E+04  0.00000000000E+00 0. -1.
         24    1    1    2    0    0 -0.29983240610E+01 -0.90941270735E+02 -0.97079516870E+03  0.97836076178E+03  0.80419002446E+02 0. -1.
        -24    1    1    2    0    0  0.29983240610E+01  0.90941270735E+02 -0.62024162395E+02  0.13635804833E+03  0.80419002446E+02 0.  1.
<mgrwt>
<rscale>  0 0.12143525E+03</rscale>
<asrwt>0</asrwt>
<pdfrwt beam="1">  1        2 0.16519523E+00 0.12143525E+03</pdfrwt>
<pdfrwt beam="2">  1       -2 0.62999602E-02 0.12143525E+03</pdfrwt>
<totfact> 0.31942811E+03</totfact>
</mgrwt>
</event>
<event>
 4    1  0.5097315E-001  0.1124038E+03  0.7546771E-02  0.1256182E+00
         -1   -1    0    0    0  501 -0.00000000000E+00  0.00000000000E+00  0.71790411621E+02  0.71790411621E+02  0.00000000000E+00 0.  1.
          1   -1    0    0  501    0  0.00000000000E+00 -0.00000000000E+00 -0.18284868830E+03  0.18284868830E+03  0.00000000000E+00 0. -1.
         24    1    1    2    0    0 -0.21691257974E+02 -0.75477735006E+02 -0.30875988819E+02  0.11656732730E+03  0.80419002446E+02 0.  1.
        -24    1    1    2    0    0  0.21691257974E+02  0.75477735006E+02 -0.80182287865E+02  0.13807177262E+03  0.80419002446E+02 0.  0.
<mgrwt>
<rscale>  0 0.11240380E+03</rscale>
<asrwt>0</asrwt>
<pdfrwt beam="1">  1        1 0.28130567E-01 0.11240380E+03</pdfrwt>
<pdfrwt beam="2">  1       -1 0.11044679E-01 0.11240380E+03</pdfrwt>
<totfact> 0.80051334E+03</totfact>
</mgrwt>
</event>
<event>
 4    1  0.5097315E-001  0.9540132E+02  0.7546771E-02  0.1290275E+00
          2   -1    0    0  501    0  0.00000000000E+00  0.00000000000E+00  0.11284709973E+02  0.11284709973E+02  0.00000000000E+00 0. -1.
         -2   -1    0    0    0  501 -0.00000000000E+00 -0.00000000000E+00 -0.10504542270E+04  0.10504542270E+04  0.00000000000E+00 0.  1.
         24    1    1    2    0    0 -0.59189679782E+01  0.50981974894E+02 -0.26376727680E+03  0.28048990750E+03  0.80419002446E+02 0. -1.
        -24    1    1    2    0    0  0.59189679782E+01 -0.50981974894E+02 -0.77540224021E+03  0.78124902946E+03  0.80419002446E+02 0.  1.
<mgrwt>
<rscale>  0 0.95401320E+02</rscale>
<asrwt>0</asrwt>
<pdfrwt beam="1">  1        2 0.17361087E-02 0.95401320E+02</pdfrwt>
<pdfrwt beam="2">  1       -2 0.16160839E+00 0.95401320E+02</pdfrwt>
<totfact> 0.16237372E+03</totfact>
</mgrwt>
</event>
<event>
 4    1  0.5097315E-001  0.8693515E+02  0.7546771E-02  0.1310448E+00
         -2   -1    0    0    0  501 -0.00000000000E+00  0.00000000000E+00  0.11747222236E+02  0.11747222236E+02  0.00000000000E+00 0.  1.
          2   -1    0    0  501    0  0.00000000000E+00 -0.00000000000E+00 -0.14073585536E+04  0.14073585536E+04  0.00000000000E+00 0. -1.
         24    1    1    2    0    0 -0.29933730703E+02  0.13945486312E+02 -0.12205965269E+04  0.12236885234E+04  0.80419002446E+02 0. -1.
        -24    1    1    2    0    0  0.29933730703E+02 -0.13945486312E+02 -0.17501480449E+03  0.19541725249E+03  0.80419002446E+02 0.  1.
<mgrwt>
<rscale>  0 0.86935153E+02</rscale>
<asrwt>0</asrwt>
<pdfrwt beam="1">  1        2 0.21651675E+00 0.86935153E+02</pdfrwt>
<pdfrwt beam="2">  1       -2 0.18072646E-02 0.86935153E+02</pdfrwt>
<totfact> 0.12978917E+04</totfact>
</mgrwt>
</event>
<event>
 4    1  0.5097315E-001  0.1004714E+03  0.7546771E-02  0.1279308E+00
         -1   -1    0    0    0  501 -0.00000000000E+00  0.00000000000E+00  0.13712088197E+02  0.13712088197E+02  0.00000000000E+00 0.  1.
          1   -1    0    0  501    0  0.00000000000E+00 -0.00000000000E+00 -0.74097261878E+03  0.74097261878E+03  0.00000000000E+00 0. -1.
         24    1    1    2    0    0  0.20598346164E+02 -0.56595040874E+02 -0.33326937366E+03  0.34808473378E+03  0.80419002446E+02 0.  1.
        -24    1    1    2    0    0 -0.20598346164E+02  0.56595040874E+02 -0.39399115692E+03  0.40659997319E+03  0.80419002446E+02 0. -1.
<mgrwt>
<rscale>  0 0.10047142E+03</rscale>
<asrwt>0</asrwt>
<pdfrwt beam="1">  1        1 0.11399578E+00 0.10047142E+03</pdfrwt>
<pdfrwt beam="2">  1       -1 0.21095522E-02 0.10047142E+03</pdfrwt>
<totfact> 0.15259954E+04</totfact>
</mgrwt>
</event>
<event>
 4    1  0.5097315E-001  0.9181439E+02  0.7546771E-02  0.1298516E+00
          2   -1    0    0  501    0  0.00000000000E+00  0.00000000000E+00  0.18121345688E+04  0.18121345688E+04  0.00000000000E+00 0. -1.
         -2   -1    0    0    0  501 -0.00000000000E+00 -0.00000000000E+00 -0.46680719459E+01  0.46680719459E+01  0.00000000000E+00 0.  1.
         24    1    1    2    0    0  0.71249730433E+01  0.43725232214E+02  0.85027331445E+03  0.85521610508E+03  0.80419002446E+02 0. -1.
        -24    1    1    2    0    0 -0.71249730433E+01 -0.43725232214E+02  0.95719318243E+03  0.96158653569E+03  0.80419002446E+02 0.  1.
<mgrwt>
<rscale>  0 0.91814374E+02</rscale>
<asrwt>0</asrwt>
<pdfrwt beam="1">  1        2 0.27878937E+00 0.91814385E+02</pdfrwt>
<pdfrwt beam="2">  1       -2 0.71816636E-03 0.91814385E+02</pdfrwt>
<totfact> 0.30092246E+04</totfact>
</mgrwt>
</event>
<event>
 4    1  0.5097315E-001  0.8245017E+02  0.7546771E-02  0.1322239E+00
          3   -1    0    0  501    0  0.00000000000E+00  0.00000000000E+00  0.19169466843E+03  0.19169466843E+03  0.00000000000E+00 0. -1.
         -3   -1    0    0    0  501 -0.00000000000E+00 -0.00000000000E+00 -0.38010908267E+02  0.38010908267E+02  0.00000000000E+00 0.  1.
         24    1    1    2    0    0  0.13434540805E+02 -0.12260698643E+02  0.10657889005E+03  0.13474823701E+03  0.80419002446E+02 0.  0.
        -24    1    1    2    0    0 -0.13434540805E+02  0.12260698643E+02  0.47104870108E+02  0.94957339685E+02  0.80419002446E+02 0.  0.
<mgrwt>
<rscale>  0 0.82450162E+02</rscale>
<asrwt>0</asrwt>
<pdfrwt beam="1">  1        3 0.29491487E-01 0.82450173E+02</pdfrwt>
<pdfrwt beam="2">  1       -3 0.58478322E-02 0.82450173E+02</pdfrwt>
<totfact> 0.40362632E+03</totfact>
</mgrwt>
</event>
<event>
 4    1  0.5097315E-001  0.8273367E+02  0.7546771E-02  0.1321468E+00
          1   -1    0    0  501    0  0.00000000000E+00  0.00000000000E+00  0.18212847315E+04  0.18212847315E+04  0.00000000000E+00 0. -1.
         -1   -1    0    0    0  501 -0.00000000000E+00 -0.00000000000E+00 -0.57209777850E+01  0.57209777850E+01  0.00000000000E+00 0.  1.
         24    1    1    2    0    0 -0.94738119283E+01 -0.16967359812E+02  0.37272028251E+03  0.38179218085E+03  0.80419002446E+02 0.  0.
        -24    1    1    2    0    0  0.94738119283E+01  0.16967359812E+02  0.14428434712E+04  0.14452135285E+04  0.80419002446E+02 0. -1.
<mgrwt>
<rscale>  0 0.82733671E+02</rscale>
<asrwt>0</asrwt>
<pdfrwt beam="1">  1        1 0.28019719E+00 0.82733671E+02</pdfrwt>
<pdfrwt beam="2">  1       -1 0.88015188E-03 0.82733671E+02</pdfrwt>
<totfact> 0.95110447E+03</totfact>
</mgrwt>
</event>
<event>
 4    1  0.5097315E-001  0.1087504E+03  0.7546771E-02  0.1262902E+00
         -2   -1    0    0    0  501 -0.00000000000E+00  0.00000000000E+00  0.19793547409E+02  0.19793547409E+02  0.00000000000E+00 0.  1.
          2   -1    0    0  501    0  0.00000000000E+00 -0.00000000000E+00 -0.27535046205E+04  0.27535046205E+04  0.00000000000E+00 0. -1.
         24    1    1    2    0    0  0.62570444882E+02  0.38005010609E+02 -0.25938664991E+04  0.25961452333E+04  0.80419002446E+02 0. -1.
        -24    1    1    2    0    0 -0.62570444882E+02 -0.38005010609E+02 -0.13984457400E+03  0.17715293460E+03  0.80419002446E+02 0.  1.
<mgrwt>
<rscale>  0 0.10875044E+03</rscale>
<asrwt>0</asrwt>
<pdfrwt beam="1">  1        2 0.42361600E+00 0.10875044E+03</pdfrwt>
<pdfrwt beam="2">  1       -2 0.30451619E-02 0.10875044E+03</pdfrwt>
<totfact> 0.12417782E+03</totfact>
</mgrwt>
</event>
<event>
 4    1  0.5097315E-001  0.9673500E+02  0.7546771E-02  0.1287316E+00
         -2   -1    0    0    0  501 -0.00000000000E+00  0.00000000000E+00  0.34534227030E+02  0.34534227030E+02  0.00000000000E+00 0.  1.
          2   -1    0    0  501    0  0.00000000000E+00 -0.00000000000E+00 -0.56759782667E+03  0.56759782667E+03  0.00000000000E+00 0. -1.
         24    1    1    2    0    0  0.42178162262E+02  0.33338382090E+02 -0.48417695153E+03  0.49374586726E+03  0.80419002446E+02 0. -1.
        -24    1    1    2    0    0 -0.42178162262E+02 -0.33338382090E+02 -0.48886648106E+02  0.10838618643E+03  0.80419002446E+02 0.  1.
<mgrwt>
<rscale>  0 0.96735004E+02</rscale>
<asrwt>0</asrwt>
<pdfrwt beam="1">  1        2 0.87322745E-01 0.96735004E+02</pdfrwt>
<pdfrwt beam="2">  1       -2 0.53129579E-02 0.96735004E+02</pdfrwt>
<totfact> 0.89674391E+03</totfact>
</mgrwt>
</event>
<event>
 4    1  0.5097315E-001  0.1182685E+03  0.7546771E-02  0.1245981E+00
          2   -1    0    0  501    0  0.00000000000E+00  0.00000000000E+00  0.31966471969E+03  0.31966471969E+03  0.00000000000E+00 0. -1.
         -2   -1    0    0    0  501 -0.00000000000E+00 -0.00000000000E+00 -0.69069291730E+02  0.69069291730E+02  0.00000000000E+00 0.  1.
         24    1    1    2    0    0  0.64432459631E+02 -0.58040425389E+02  0.24296317653E+03  0.27021945514E+03  0.80419002446E+02 0. -1.
        -24    1    1    2    0    0 -0.64432459631E+02  0.58040425389E+02  0.76322514313E+01  0.11851455628E+03  0.80419002446E+02 0.  1.
<mgrwt>
<rscale>  0 0.11826855E+03</rscale>
<asrwt>0</asrwt>
<pdfrwt beam="1">  1        2 0.49179187E-01 0.11826855E+03</pdfrwt>
<pdfrwt beam="2">  1       -2 0.10626045E-01 0.11826855E+03</pdfrwt>
<totfact> 0.58233493E+03</totfact>
</mgrwt>
</event>
<event>
 4    1  0.5097315E-001  0.9196106E+02  0.7546771E-02  0.1298171E+00
         -1   -1    0    0    0  501 -0.00000000000E+00  0.00000000000E+00  0.99984123171E+01  0.99984123171E+01  0.00000000000E+00 0.  1.
          1   -1    0    0  501    0  0.00000000000E+00 -0.00000000000E+00 -0.95347967206E+03  0.95347967206E+03  0.00000000000E+00 0. -1.
         24    1    1    2    0    0 -0.19817745554E+02  0.39960894179E+02 -0.63361858327E+03  0.64025724605E+03  0.80419002446E+02 0. -1.
        -24    1    1    2    0    0  0.19817745554E+02 -0.39960894179E+02 -0.30986267648E+03  0.32322083833E+03  0.80419002446E+02 0.  1.
<mgrwt>
<rscale>  0 0.91961047E+02</rscale>
<asrwt>0</asrwt>
<pdfrwt beam="1">  1        1 0.14668920E+00 0.91961059E+02</pdfrwt>
<pdfrwt beam="2">  1       -1 0.15382170E-02 0.91961059E+02</pdfrwt>
<totfact> 0.16191523E+04</totfact>
</mgrwt>
</event>
<event>
 4    1  0.5097315E-001  0.9169329E+02  0.7546771E-02  0.1298802E+00
          1   -1    0    0  501    0  0.00000000000E+00  0.00000000000E+00  0.66334073885E+02  0.66334073885E+02  0.00000000000E+00 0. -1.
         -1   -1    0    0    0  501 -0.00000000000E+00 -0.00000000000E+00 -0.25626441535E+03  0.25626441535E+03  0.00000000000E+00 0.  1.
         24    1    1    2    0    0  0.31913205302E+02  0.30364292019E+02 -0.20963572509E+03  0.22881170445E+03  0.80419002446E+02 0.  1.
        -24    1    1    2    0    0 -0.31913205302E+02 -0.30364292019E+02  0.19705383628E+02  0.93786784787E+02  0.80419002446E+02 0. -1.
<mgrwt>
<rscale>  0 0.91693287E+02</rscale>
<asrwt>0</asrwt>
<pdfrwt beam="1">  1        1 0.10205242E-01 0.91693287E+02</pdfrwt>
<pdfrwt beam="2">  1       -1 0.39425295E-01 0.91693287E+02</pdfrwt>
<totfact> 0.37017247E+03</totfact>
</mgrwt>
</event>
<event>
 4    1  0.5097315E-001  0.8325878E+02  0.7546771E-02  0.1320050E+00
         -1   -1    0    0    0  501 -0.00000000000E+00  0.00000000000E+00  0.33486906044E+01  0.33486906044E+01  0.00000000000E+00 0.  1.
          1   -1    0    0  501    0  0.00000000000E+00 -0.00000000000E+00 -0.21123627507E+04  0.21123627507E+04  0.00000000000E+00 0. -1.
         24    1    1    2    0    0  0.20049756692E+02 -0.79253923775E+01 -0.12041927583E+04  0.12070676119E+04  0.80419002446E+02 0.  0.
        -24    1    1    2    0    0 -0.20049756692E+02  0.79253923775E+01 -0.90482130181E+03  0.90864382942E+03  0.80419002446E+02 0. -1.
<mgrwt>
<rscale>  0 0.83258767E+02</rscale>
<asrwt>0</asrwt>
<pdfrwt beam="1">  1        1 0.32497815E+00 0.83258777E+02</pdfrwt>
<pdfrwt beam="2">  1       -1 0.51518433E-03 0.83258777E+02</pdfrwt>
<totfact> 0.13249528E+04</totfact>
</mgrwt>
</event>
<event>
 4    1  0.5097315E-001  0.1184650E+03  0.7546771E-02  0.1245651E+00
         -1   -1    0    0    0  501 -0.00000000000E+00  0.00000000000E+00  0.15480564151E+02  0.15480564151E+02  0.00000000000E+00 0.  1.
          1   -1    0    0  501    0  0.00000000000E+00 -0.00000000000E+00 -0.18445673238E+04  0.18445673238E+04  0.00000000000E+00 0. -1.
         24    1    1    2    0    0 -0.71673107836E+02 -0.49292101617E+02 -0.25133277243E+03  0.27785270220E+03  0.80419002446E+02 0. -1.
        -24    1    1    2    0    0  0.71673107836E+02  0.49292101617E+02 -0.15777539872E+04  0.15821951858E+04  0.80419002446E+02 0.  1.
<mgrwt>
<rscale>  0 0.11846502E+03</rscale>
<asrwt>0</asrwt>
<pdfrwt beam="1">  1        1 0.28377941E+00 0.11846502E+03</pdfrwt>
<pdfrwt beam="2">  1       -1 0.23816267E-02 0.11846502E+03</pdfrwt>
<totfact> 0.22557892E+03</totfact>
</mgrwt>
</event>
<event>
 4    1  0.5097315E-001  0.8266822E+02  0.7546771E-02  0.1321646E+00
         -3   -1    0    0    0  501 -0.00000000000E+00  0.00000000000E+00  0.32931169252E+03  0.32931169252E+03  0.00000000000E+00 0.  1.
          3   -1    0    0  501    0  0.00000000000E+00 -0.00000000000E+00 -0.21137063018E+02  0.21137063018E+02  0.00000000000E+00 0. -1.
         24    1    1    2    0    0  0.82924584985E+01  0.17264252928E+02  0.17772286120E+03  0.19600880247E+03  0.80419002446E+02 0. -1.
        -24    1    1    2    0    0 -0.82924584985E+01 -0.17264252928E+02  0.13045176830E+03  0.15443995307E+03  0.80419002446E+02 0. -1.
<mgrwt>
<rscale>  0 0.82668224E+02</rscale>
<asrwt>0</asrwt>
<pdfrwt beam="1">  1        3 0.32518561E-02 0.82668224E+02</pdfrwt>
<pdfrwt beam="2">  1       -3 0.50663334E-01 0.82668224E+02</pdfrwt>
<totfact> 0.36012772E+03</totfact>
</mgrwt>
</event>
<event>
 4    1  0.5097315E-001  0.8496058E+02  0.7546771E-02  0.1315536E+00
          4   -1    0    0  501    0  0.00000000000E+00  0.00000000000E+00  0.94266104044E+03  0.94266104044E+03  0.00000000000E+00 0. -1.
         -4   -1    0    0    0  501 -0.00000000000E+00 -0.00000000000E+00 -0.10533656410E+02  0.10533656410E+02  0.00000000000E+00 0.  1.
         24    1    1    2    0    0 -0.26045495999E+02 -0.85274236044E+01  0.71510902105E+03  0.72013832891E+03  0.80419002446E+02 0. -1.
        -24    1    1    2    0    0  0.26045495999E+02  0.85274236044E+01  0.21701836298E+03  0.23305636795E+03  0.80419002446E+02 0.  1.
<mgrwt>
<rscale>  0 0.84960584E+02</rscale>
<asrwt>0</asrwt>
<pdfrwt beam="1">  1        4 0.14502471E+00 0.84960584E+02</pdfrwt>
<pdfrwt beam="2">  1       -4 0.16205633E-02 0.84960584E+02</pdfrwt>
<totfact> 0.73172821E+02</totfact>
</mgrwt>
</event>
<event>
 4    1  0.5097315E-001  0.8703608E+02  0.7546771E-02  0.1310192E+00
         -1   -1    0    0    0  501 -0.00000000000E+00  0.00000000000E+00  0.10427676750E+04  0.10427676750E+04  0.00000000000E+00 0.  1.
          1   -1    0    0  501    0  0.00000000000E+00 -0.00000000000E+00 -0.73290212084E+01  0.73290212084E+01  0.00000000000E+00 0. -1.
         24    1    1    2    0    0  0.25622509508E+02 -0.21249714779E+02  0.56694882523E+03  0.57359066394E+03  0.80419002446E+02 0.  0.
        -24    1    1    2    0    0 -0.25622509508E+02  0.21249714779E+02  0.46848982860E+03  0.47650603231E+03  0.80419002446E+02 0.  1.
<mgrwt>
<rscale>  0 0.87036081E+02</rscale>
<asrwt>0</asrwt>
<pdfrwt beam="1">  1        1 0.11275426E-02 0.87036081E+02</pdfrwt>
<pdfrwt beam="2">  1       -1 0.16042568E+00 0.87036081E+02</pdfrwt>
<totfact> 0.39915121E+03</totfact>
</mgrwt>
</event>
<event>
 4    1  0.5097315E-001  0.9664744E+02  0.7546771E-02  0.1287508E+00
          2   -1    0    0  501    0  0.00000000000E+00  0.00000000000E+00  0.68048696806E+02  0.68048696806E+02  0.00000000000E+00 0. -1.
         -2   -1    0    0    0  501 -0.00000000000E+00 -0.00000000000E+00 -0.19666237995E+03  0.19666237995E+03  0.00000000000E+00 0.  1.
         24    1    1    2    0    0  0.42266848387E+02 -0.32970067849E+02  0.84315777098E+01  0.97014531404E+02  0.80419002446E+02 0. -1.
        -24    1    1    2    0    0 -0.42266848387E+02  0.32970067849E+02 -0.13704526086E+03  0.16769654535E+03  0.80419002446E+02 0.  1.
<mgrwt>
<rscale>  0 0.96647441E+02</rscale>
<asrwt>0</asrwt>
<pdfrwt beam="1">  1        2 0.10469030E-01 0.96647441E+02</pdfrwt>
<pdfrwt beam="2">  1       -2 0.30255750E-01 0.96647441E+02</pdfrwt>
<totfact> 0.56287228E+03</totfact>
</mgrwt>
</event>
<event>
 4    1  0.5097315E-001  0.8497502E+02  0.7546771E-02  0.1315498E+00
         -3   -1    0    0    0  501 -0.00000000000E+00  0.00000000000E+00  0.20037057405E+02  0.20037057405E+02  0.00000000000E+00 0.  1.
          3   -1    0    0  501    0  0.00000000000E+00 -0.00000000000E+00 -0.37004158258E+03  0.37004158258E+03  0.00000000000E+00 0. -1.
         24    1    1    2    0    0  0.27449369144E+02  0.25715401330E+00 -0.20653419909E+03  0.22333187266E+03  0.80419002446E+02 0. -1.
        -24    1    1    2    0    0 -0.27449369144E+02 -0.25715401330E+00 -0.14347032608E+03  0.16674676733E+03  0.80419002446E+02 0.  1.
<mgrwt>
<rscale>  0 0.84975007E+02</rscale>
<asrwt>0</asrwt>
<pdfrwt beam="1">  1        3 0.56929471E-01 0.84975017E+02</pdfrwt>
<pdfrwt beam="2">  1       -3 0.30826244E-02 0.84975017E+02</pdfrwt>
<totfact> 0.31173405E+03</totfact>
</mgrwt>
</event>
<event>
 4    1  0.5097315E-001  0.9285630E+02  0.7546771E-02  0.1296079E+00
          1   -1    0    0  501    0  0.00000000000E+00  0.00000000000E+00  0.16836850993E+03  0.16836850993E+03  0.00000000000E+00 0. -1.
         -1   -1    0    0    0  501 -0.00000000000E+00 -0.00000000000E+00 -0.77961224497E+02  0.77961224497E+02  0.00000000000E+00 0.  1.
         24    1    1    2    0    0 -0.13234176598E+02  0.44496436807E+02 -0.26942407206E+02  0.96686015427E+02  0.80419002446E+02 0.  1.
        -24    1    1    2    0    0  0.13234176598E+02 -0.44496436807E+02  0.11734969264E+03  0.14964371900E+03  0.80419002446E+02 0. -1.
<mgrwt>
<rscale>  0 0.92856299E+02</rscale>
<asrwt>0</asrwt>
<pdfrwt beam="1">  1        1 0.25902848E-01 0.92856299E+02</pdfrwt>
<pdfrwt beam="2">  1       -1 0.11994035E-01 0.92856299E+02</pdfrwt>
<totfact> 0.76982217E+03</totfact>
</mgrwt>
</event>
<event>
 4    1  0.5097315E-001  0.9387183E+02  0.7546771E-02  0.1293737E+00
          2   -1    0    0  501    0  0.00000000000E+00  0.00000000000E+00  0.23387205225E+04  0.23387205225E+04  0.00000000000E+00 0. -1.
         -2   -1    0    0    0  501 -0.00000000000E+00 -0.00000000000E+00 -0.79295710559E+01  0.79295710559E+01  0.00000000000E+00 0.  1.
         24    1    1    2    0    0  0.26647945041E+02  0.40430075831E+02  0.20154183370E+04  0.20176032794E+04  0.80419002446E+02 0. -1.
        -24    1    1    2    0    0 -0.26647945041E+02 -0.40430075831E+02  0.31537261449E+03  0.32904681419E+03  0.80419002446E+02 0.  1.
<mgrwt>
<rscale>  0 0.93871827E+02</rscale>
<asrwt>0</asrwt>
<pdfrwt beam="1">  1        2 0.35980261E+00 0.93871827E+02</pdfrwt>
<pdfrwt beam="2">  1       -2 0.12199359E-02 0.93871827E+02</pdfrwt>
<totfact> 0.77054609E+03</totfact>
</mgrwt>
</event>
<event>
 4    1  0.5097315E-001  0.1709562E+03  0.7546771E-02  0.1176854E+00
          2   -1    0    0  501    0  0.00000000000E+00  0.00000000000E+00  0.15913868113E+04  0.15913868113E+04  0.00000000000E+00 0. -1.
         -2   -1    0    0    0  501 -0.00000000000E+00 -0.00000000000E+00 -0.40293944097E+02  0.40293944097E+02  0.00000000000E+00 0.  1.
         24    1    1    2    0    0 -0.73555044079E+02 -0.13171355430E+03  0.13774028693E+04  0.13879714281E+04  0.80419002446E+02 0. -1.
        -24    1    1    2    0    0  0.73555044079E+02  0.13171355430E+03  0.17368999795E+03  0.24370932735E+03  0.80419002446E+02 0.  1.
<mgrwt>
<rscale>  0 0.17095620E+03</rscale>
<asrwt>0</asrwt>
<pdfrwt beam="1">  1        2 0.24482869E+00 0.17095620E+03</pdfrwt>
<pdfrwt beam="2">  1       -2 0.61990696E-02 0.17095620E+03</pdfrwt>
<totfact> 0.17242605E+03</totfact>
</mgrwt>
</event>
<event>
 4    1  0.5097315E-001  0.1351169E+03  0.7546771E-02  0.1220055E+00
         -2   -1    0    0    0  501 -0.00000000000E+00  0.00000000000E+00  0.40170114506E+02  0.40170114506E+02  0.00000000000E+00 0.  1.
          2   -1    0    0  501    0  0.00000000000E+00 -0.00000000000E+00 -0.65755659777E+03  0.65755659777E+03  0.00000000000E+00 0. -1.
         24    1    1    2    0    0  0.42850830213E+02 -0.99765576121E+02 -0.50256607769E+03  0.52041256924E+03  0.80419002446E+02 0. -1.
        -24    1    1    2    0    0 -0.42850830213E+02  0.99765576121E+02 -0.11482040558E+03  0.17731414303E+03  0.80419002446E+02 0.  1.
<mgrwt>
<rscale>  0 0.13511691E+03</rscale>
<asrwt>0</asrwt>
<pdfrwt beam="1">  1        2 0.10116255E+00 0.13511691E+03</pdfrwt>
<pdfrwt beam="2">  1       -2 0.61800176E-02 0.13511691E+03</pdfrwt>
<totfact> 0.61711782E+03</totfact>
</mgrwt>
</event>
<event>
 4    1  0.5097315E-001  0.8109981E+02  0.7546771E-02  0.1325959E+00
         -1   -1    0    0    0  501 -0.00000000000E+00  0.00000000000E+00  0.81786022388E+02  0.81786022388E+02  0.00000000000E+00 0.  1.
          1   -1    0    0  501    0  0.00000000000E+00 -0.00000000000E+00 -0.86754813659E+02  0.86754813659E+02  0.00000000000E+00 0. -1.
         24    1    1    2    0    0 -0.94074455860E+01  0.46328389272E+01  0.20288454179E+02  0.83599046384E+02  0.80419002446E+02 0.  0.
        -24    1    1    2    0    0  0.94074455860E+01 -0.46328389272E+01 -0.25257245450E+02  0.84941789662E+02  0.80419002446E+02 0. -1.
<mgrwt>
<rscale>  0 0.81099810E+02</rscale>
<asrwt>0</asrwt>
<pdfrwt beam="1">  1        1 0.13346894E-01 0.81099810E+02</pdfrwt>
<pdfrwt beam="2">  1       -1 0.12582465E-01 0.81099810E+02</pdfrwt>
<totfact> 0.16279862E+04</totfact>
</mgrwt>
</event>
<event>
 4    1  0.5097315E-001  0.9100439E+02  0.7546771E-02  0.1300438E+00
          1   -1    0    0  501    0  0.00000000000E+00  0.00000000000E+00  0.63302666804E+03  0.63302666804E+03  0.00000000000E+00 0. -1.
         -1   -1    0    0    0  501 -0.00000000000E+00 -0.00000000000E+00 -0.13397476408E+02  0.13397476408E+02  0.00000000000E+00 0.  1.
         24    1    1    2    0    0 -0.27844236540E+02 -0.32237833267E+02  0.35934490380E+03  0.37068929745E+03  0.80419002446E+02 0.  1.
        -24    1    1    2    0    0  0.27844236540E+02  0.32237833267E+02  0.26028428783E+03  0.27573484699E+03  0.80419002446E+02 0.  1.
<mgrwt>
<rscale>  0 0.91004381E+02</rscale>
<asrwt>0</asrwt>
<pdfrwt beam="1">  1        1 0.97388695E-01 0.91004393E+02</pdfrwt>
<pdfrwt beam="2">  1       -1 0.20611507E-02 0.91004393E+02</pdfrwt>
<totfact> 0.19490914E+04</totfact>
</mgrwt>
</event>
<event>
 4    1  0.5097315E-001  0.8740401E+02  0.7546771E-02  0.1309263E+00
          2   -1    0    0  501    0  0.00000000000E+00  0.00000000000E+00  0.28324092049E+03  0.28324092049E+03  0.00000000000E+00 0. -1.
         -2   -1    0    0    0  501 -0.00000000000E+00 -0.00000000000E+00 -0.36948073479E+02  0.36948073479E+02  0.00000000000E+00 0.  1.
         24    1    1    2    0    0 -0.29634673967E+02  0.17147326338E+02  0.20633602477E+03  0.22408484058E+03  0.80419002446E+02 0. -1.
        -24    1    1    2    0    0  0.29634673967E+02 -0.17147326338E+02  0.39956822234E+02  0.96104153391E+02  0.80419002446E+02 0.  1.
<mgrwt>
<rscale>  0 0.87404008E+02</rscale>
<asrwt>0</asrwt>
<pdfrwt beam="1">  1        2 0.43575525E-01 0.87404008E+02</pdfrwt>
<pdfrwt beam="2">  1       -2 0.56843192E-02 0.87404008E+02</pdfrwt>
<totfact> 0.16805848E+04</totfact>
</mgrwt>
</event>
<event>
 4    1  0.5097315E-001  0.8628604E+02  0.7546771E-02  0.1312103E+00
          2   -1    0    0  501    0  0.00000000000E+00  0.00000000000E+00  0.22344196519E+02  0.22344196519E+02  0.00000000000E+00 0. -1.
         -2   -1    0    0    0  501 -0.00000000000E+00 -0.00000000000E+00 -0.34089254836E+03  0.34089254836E+03  0.00000000000E+00 0.  1.
         24    1    1    2    0    0 -0.30848051506E+02  0.51442423921E+01 -0.13200704664E+03  0.15770587125E+03  0.80419002446E+02 0.  1.
        -24    1    1    2    0    0  0.30848051506E+02 -0.51442423921E+01 -0.18654130520E+03  0.20553087363E+03  0.80419002446E+02 0.  0.
<mgrwt>
<rscale>  0 0.86286044E+02</rscale>
<asrwt>0</asrwt>
<pdfrwt beam="1">  1        2 0.34375692E-02 0.86286044E+02</pdfrwt>
<pdfrwt beam="2">  1       -2 0.52445000E-01 0.86286044E+02</pdfrwt>
<totfact> 0.81441013E+03</totfact>
</mgrwt>
</event>
<event>
 4    1  0.5097315E-001  0.8858298E+02  0.7546771E-02  0.1306320E+00
          1   -1    0    0  501    0  0.00000000000E+00  0.00000000000E+00  0.37081238578E+03  0.37081238578E+03  0.00000000000E+00 0. -1.
         -1   -1    0    0    0  501 -0.00000000000E+00 -0.00000000000E+00 -0.57601662674E+02  0.57601662674E+02  0.00000000000E+00 0.  1.
         24    1    1    2    0    0 -0.37141125751E+02 -0.51436431726E+00 -0.13769844008E+02  0.89646820084E+02  0.80419002446E+02 0.  0.
        -24    1    1    2    0    0  0.37141125751E+02  0.51436431726E+00  0.32698056711E+03  0.33876722837E+03  0.80419002446E+02 0. -1.
<mgrwt>
<rscale>  0 0.88582977E+02</rscale>
<asrwt>0</asrwt>
<pdfrwt beam="1">  1        1 0.57048058E-01 0.88582977E+02</pdfrwt>
<pdfrwt beam="2">  1       -1 0.88617945E-02 0.88582977E+02</pdfrwt>
<totfact> 0.46089274E+03</totfact>
</mgrwt>
</event>
<event>
 4    1  0.5097315E-001  0.8609597E+02  0.7546771E-02  0.1312591E+00
          1   -1    0    0  501    0  0.00000000000E+00  0.00000000000E+00  0.13911620525E+04  0.13911620525E+04  0.00000000000E+00 0. -1.
         -1   -1    0    0    0  501 -0.00000000000E+00 -0.00000000000E+00 -0.53766369309E+01  0.53766369309E+01  0.00000000000E+00 0.  1.
         24    1    1    2    0    0  0.13209958291E+02  0.27763231614E+02  0.62667892051E+03  0.63256540009E+03  0.80419002446E+02 0.  1.
        -24    1    1    2    0    0 -0.13209958291E+02 -0.27763231614E+02  0.75910649505E+03  0.76397328933E+03  0.80419002446E+02 0. -1.
<mgrwt>
<rscale>  0 0.86095970E+02</rscale>
<asrwt>0</asrwt>
<pdfrwt beam="1">  1        1 0.21402465E+00 0.86095970E+02</pdfrwt>
<pdfrwt beam="2">  1       -1 0.82717602E-03 0.86095970E+02</pdfrwt>
<totfact> 0.19455184E+04</totfact>
</mgrwt>
</event>
<event>
 4    1  0.5097315E-001  0.9197990E+02  0.7546771E-02  0.1298127E+00
          2   -1    0    0  501    0  0.00000000000E+00  0.00000000000E+00  0.67186269779E+03  0.67186269779E+03  0.00000000000E+00 0. -1.
         -2   -1    0    0    0  501 -0.00000000000E+00 -0.00000000000E+00 -0.13708176200E+02  0.13708176200E+02  0.00000000000E+00 0.  1.
         24    1    1    2    0    0 -0.17820878402E+02  0.40932847952E+02  0.23127695196E+03  0.24889621574E+03  0.80419002446E+02 0.  0.
        -24    1    1    2    0    0  0.17820878402E+02 -0.40932847952E+02  0.42687756963E+03  0.43667465825E+03  0.80419002446E+02 0.  1.
<mgrwt>
<rscale>  0 0.91979888E+02</rscale>
<asrwt>0</asrwt>
<pdfrwt beam="1">  1        2 0.10336347E+00 0.91979900E+02</pdfrwt>
<pdfrwt beam="2">  1       -2 0.21089507E-02 0.91979900E+02</pdfrwt>
<totfact> 0.28511860E+04</totfact>
</mgrwt>
</event>
<event>
 4    1  0.5097315E-001  0.8429792E+02  0.7546771E-02  0.1317279E+00
          2   -1    0    0  501    0  0.00000000000E+00  0.00000000000E+00  0.80450594085E+03  0.80450594085E+03  0.00000000000E+00 0. -1.
         -2   -1    0    0    0  501 -0.00000000000E+00 -0.00000000000E+00 -0.17684691956E+02  0.17684691956E+02  0.00000000000E+00 0.  1.
         24    1    1    2    0    0  0.22507289852E+02 -0.11504144599E+02  0.68425374985E+03  0.68942681524E+03  0.80419002446E+02 0. -1.
        -24    1    1    2    0    0 -0.22507289852E+02  0.11504144599E+02  0.10256749905E+03  0.13276381757E+03  0.80419002446E+02 0.  1.
<mgrwt>
<rscale>  0 0.84297920E+02</rscale>
<asrwt>0</asrwt>
<pdfrwt beam="1">  1        2 0.12377012E+00 0.84297920E+02</pdfrwt>
<pdfrwt beam="2">  1       -2 0.27207225E-02 0.84297920E+02</pdfrwt>
<totfact> 0.15818615E+04</totfact>
</mgrwt>
</event>
<event>
 4    1  0.5097315E-001  0.1653577E+03  0.7546771E-02  0.1182777E+00
         -1   -1    0    0    0  501 -0.00000000000E+00  0.00000000000E+00  0.34638941652E+02  0.34638941652E+02  0.00000000000E+00 0.  1.
          1   -1    0    0  501    0  0.00000000000E+00 -0.00000000000E+00 -0.80048875611E+03  0.80048875611E+03  0.00000000000E+00 0. -1.
         24    1    1    2    0    0  0.10058629126E+02 -0.14413460269E+03 -0.33372761082E+03  0.37244770625E+03  0.80419002446E+02 0. -1.
        -24    1    1    2    0    0 -0.10058629126E+02  0.14413460269E+03 -0.43212220363E+03  0.46267999151E+03  0.80419002446E+02 0.  1.
<mgrwt>
<rscale>  0 0.16535772E+03</rscale>
<asrwt>0</asrwt>
<pdfrwt beam="1">  1        1 0.12315211E+00 0.16535772E+03</pdfrwt>
<pdfrwt beam="2">  1       -1 0.53290682E-02 0.16535772E+03</pdfrwt>
<totfact> 0.36216176E+03</totfact>
</mgrwt>
</event>
<event>
 4    1  0.5097315E-001  0.8300520E+02  0.7546771E-02  0.1320733E+00
         -2   -1    0    0    0  501 -0.00000000000E+00  0.00000000000E+00  0.16493721737E+02  0.16493721737E+02  0.00000000000E+00 0.  1.
          2   -1    0    0  501    0  0.00000000000E+00 -0.00000000000E+00 -0.44932794818E+03  0.44932794818E+03  0.00000000000E+00 0. -1.
         24    1    1    2    0    0 -0.64913051324E+01  0.19506654516E+02 -0.27818494228E+03  0.29030453782E+03  0.80419002446E+02 0. -1.
        -24    1    1    2    0    0  0.64913051324E+01 -0.19506654516E+02 -0.15464928416E+03  0.17551713209E+03  0.80419002446E+02 0.  1.
<mgrwt>
<rscale>  0 0.83005196E+02</rscale>
<asrwt>0</asrwt>
<pdfrwt beam="1">  1        2 0.69127379E-01 0.83005196E+02</pdfrwt>
<pdfrwt beam="2">  1       -2 0.25374955E-02 0.83005196E+02</pdfrwt>
<totfact> 0.33611460E+04</totfact>
</mgrwt>
</event>
<event>
 4    1  0.5097315E-001  0.1306194E+03  0.7546771E-02  0.1226539E+00
         -2   -1    0    0    0  501 -0.00000000000E+00  0.00000000000E+00  0.16977283586E+03  0.16977283586E+03  0.00000000000E+00 0.  1.
          2   -1    0    0  501    0  0.00000000000E+00 -0.00000000000E+00 -0.16156195813E+04  0.16156195813E+04  0.00000000000E+00 0. -1.
         24    1    1    2    0    0  0.96332673981E+02  0.36252417971E+02 -0.15874098611E+04  0.15927747816E+04  0.80419002446E+02 0. -1.
        -24    1    1    2    0    0 -0.96332673981E+02 -0.36252417971E+02  0.14156311561E+03  0.19261763559E+03  0.80419002446E+02 0.  1.
<mgrwt>
<rscale>  0 0.13061944E+03</rscale>
<asrwt>0</asrwt>
<pdfrwt beam="1">  1        2 0.24855685E+00 0.13061944E+03</pdfrwt>
<pdfrwt beam="2">  1       -2 0.26118899E-01 0.13061944E+03</pdfrwt>
<totfact> 0.16436187E+02</totfact>
</mgrwt>
</event>
<event>
 4    1  0.5097315E-001  0.9786177E+02  0.7546771E-02  0.1284858E+00
          3   -1    0    0  501    0  0.00000000000E+00  0.00000000000E+00  0.14854853916E+03  0.14854853916E+03  0.00000000000E+00 0. -1.
         -3   -1    0    0    0  501 -0.00000000000E+00 -0.00000000000E+00 -0.31342396767E+03  0.31342396767E+03  0.00000000000E+00 0.  1.
         24    1    1    2    0    0 -0.42392508426E+02  0.36229612940E+02 -0.28830130865E+03  0.30445782984E+03  0.80419002446E+02 0.  1.
        -24    1    1    2    0    0  0.42392508426E+02 -0.36229612940E+02  0.12342588014E+03  0.15751467699E+03  0.80419002446E+02 0. -1.
<mgrwt>
<rscale>  0 0.97861768E+02</rscale>
<asrwt>0</asrwt>
<pdfrwt beam="1">  1        3 0.22853622E-01 0.97861768E+02</pdfrwt>
<pdfrwt beam="2">  1       -3 0.48219072E-01 0.97861768E+02</pdfrwt>
<totfact> 0.17040851E+02</totfact>
</mgrwt>
</event>
<event>
 4    1  0.5097315E-001  0.9631982E+02  0.7546771E-02  0.1288231E+00
          1   -1    0    0  501    0  0.00000000000E+00  0.00000000000E+00  0.16881885139E+04  0.16881885139E+04  0.00000000000E+00 0. -1.
         -1   -1    0    0    0  501 -0.00000000000E+00 -0.00000000000E+00 -0.11803768838E+02  0.11803768838E+02  0.00000000000E+00 0.  1.
         24    1    1    2    0    0  0.52228741373E+02  0.90802007205E+01  0.21680799874E+03  0.23724083911E+03  0.80419002446E+02 0.  1.
        -24    1    1    2    0    0 -0.52228741373E+02 -0.90802007205E+01  0.14595767463E+04  0.14627514436E+04  0.80419002446E+02 0. -1.
<mgrwt>
<rscale>  0 0.96319818E+02</rscale>
<asrwt>0</asrwt>
<pdfrwt beam="1">  1        1 0.25972112E+00 0.96319818E+02</pdfrwt>
<pdfrwt beam="2">  1       -1 0.18159658E-02 0.96319818E+02</pdfrwt>
<totfact> 0.41627282E+03</totfact>
</mgrwt>
</event>
<event>
 4    1  0.5097315E-001  0.8930883E+02  0.7546771E-02  0.1304534E+00
          2   -1    0    0  501    0  0.00000000000E+00  0.00000000000E+00  0.18404490532E+04  0.18404490532E+04  0.00000000000E+00 0. -1.
         -2   -1    0    0    0  501 -0.00000000000E+00 -0.00000000000E+00 -0.95029817638E+01  0.95029817638E+01  0.00000000000E+00 0.  1.
         24    1    1    2    0    0  0.22218378788E+02 -0.31862131051E+02  0.15976751065E+04  0.16001693078E+04  0.80419002446E+02 0. -1.
        -24    1    1    2    0    0 -0.22218378788E+02  0.31862131051E+02  0.23327096493E+03  0.24978272716E+03  0.80419002446E+02 0.  1.
<mgrwt>
<rscale>  0 0.89308833E+02</rscale>
<asrwt>0</asrwt>
<pdfrwt beam="1">  1        2 0.28314572E+00 0.89308833E+02</pdfrwt>
<pdfrwt beam="2">  1       -2 0.14619987E-02 0.89308833E+02</pdfrwt>
<totfact> 0.10625020E+04</totfact>
</mgrwt>
</event>
<event>
 4    1  0.5097315E-001  0.8231866E+02  0.7546771E-02  0.1322597E+00
          1   -1    0    0  501    0  0.00000000000E+00  0.00000000000E+00  0.29029337307E+02  0.29029337307E+02  0.00000000000E+00 0. -1.
         -1   -1    0    0    0  501 -0.00000000000E+00 -0.00000000000E+00 -0.40728449040E+03  0.40728449040E+03  0.00000000000E+00 0.  1.
         24    1    1    2    0    0 -0.79480731963E+01  0.15683539570E+02 -0.33165917313E+03  0.34172235566E+03  0.80419002446E+02 0.  1.
        -24    1    1    2    0    0  0.79480731963E+01 -0.15683539570E+02 -0.46595979959E+02  0.94591472045E+02  0.80419002446E+02 0. -1.
<mgrwt>
<rscale>  0 0.82318657E+02</rscale>
<asrwt>0</asrwt>
<pdfrwt beam="1">  1        1 0.44660520E-02 0.82318657E+02</pdfrwt>
<pdfrwt beam="2">  1       -1 0.62659151E-01 0.82318657E+02</pdfrwt>
<totfact> 0.47820392E+03</totfact>
</mgrwt>
</event>
<event>
 4    1  0.5097315E-001  0.1052515E+03  0.7546771E-02  0.1269625E+00
          1   -1    0    0  501    0  0.00000000000E+00  0.00000000000E+00  0.53200009908E+03  0.53200009908E+03  0.00000000000E+00 0. -1.
         -1   -1    0    0    0  501 -0.00000000000E+00 -0.00000000000E+00 -0.24712456447E+02  0.24712456447E+02  0.00000000000E+00 0.  1.
         24    1    1    2    0    0  0.64264994829E+02  0.21924292440E+02  0.14321482998E+03  0.17773116676E+03  0.80419002446E+02 0.  1.
        -24    1    1    2    0    0 -0.64264994829E+02 -0.21924292440E+02  0.36407281266E+03  0.37898138876E+03  0.80419002446E+02 0. -1.
<mgrwt>
<rscale>  0 0.10525151E+03</rscale>
<asrwt>0</asrwt>
<pdfrwt beam="1">  1        1 0.81846160E-01 0.10525151E+03</pdfrwt>
<pdfrwt beam="2">  1       -1 0.38019168E-02 0.10525151E+03</pdfrwt>
<totfact> 0.10298159E+04</totfact>
</mgrwt>
</event>
<event>
 4    1  0.5097315E-001  0.1066545E+03  0.7546771E-02  0.1266894E+00
         -1   -1    0    0    0  501 -0.00000000000E+00  0.00000000000E+00  0.57599066674E+01  0.57599066674E+01  0.00000000000E+00 0.  1.
          1   -1    0    0  501    0  0.00000000000E+00 -0.00000000000E+00 -0.28347336620E+04  0.28347336620E+04  0.00000000000E+00 0. -1.
         24    1    1    2    0    0  0.16272072670E+02  0.68140854165E+02 -0.63228679111E+03  0.64121896301E+03  0.80419002446E+02 0.  1.
        -24    1    1    2    0    0 -0.16272072670E+02 -0.68140854165E+02 -0.21966869642E+04  0.21992746056E+04  0.80419002446E+02 0. -1.
<mgrwt>
<rscale>  0 0.10665445E+03</rscale>
<asrwt>0</asrwt>
<pdfrwt beam="1">  1        1 0.43611328E+00 0.10665445E+03</pdfrwt>
<pdfrwt beam="2">  1       -1 0.88613866E-03 0.10665445E+03</pdfrwt>
<totfact> 0.21303564E+03</totfact>
</mgrwt>
</event>
<event>
 4    1  0.5097315E-001  0.8552586E+02  0.7546771E-02  0.1314063E+00
          2   -1    0    0  501    0  0.00000000000E+00  0.00000000000E+00  0.11709272497E+04  0.11709272497E+04  0.00000000000E+00 0. -1.
         -2   -1    0    0    0  501 -0.00000000000E+00 -0.00000000000E+00 -0.11281957791E+02  0.11281957791E+02  0.00000000000E+00 0.  1.
         24    1    1    2    0    0  0.96662983425E+01  0.27459403694E+02  0.97471078538E+03  0.97845581774E+03  0.80419002446E+02 0.  0.
        -24    1    1    2    0    0 -0.96662983425E+01 -0.27459403694E+02  0.18493450648E+03  0.20375338971E+03  0.80419002446E+02 0.  1.
<mgrwt>
<rscale>  0 0.85525856E+02</rscale>
<asrwt>0</asrwt>
<pdfrwt beam="1">  1        2 0.18014256E+00 0.85525856E+02</pdfrwt>
<pdfrwt beam="2">  1       -2 0.17356867E-02 0.85525856E+02</pdfrwt>
<totfact> 0.18326130E+04</totfact>
</mgrwt>
</event>
<event>
 4    1  0.5097315E-001  0.8695189E+02  0.7546771E-02  0.1310406E+00
          3   -1    0    0  501    0  0.00000000000E+00  0.00000000000E+00  0.28229904498E+03  0.28229904498E+03  0.00000000000E+00 0. -1.
         -3   -1    0    0    0  501 -0.00000000000E+00 -0.00000000000E+00 -0.50097439914E+02  0.50097439914E+02  0.00000000000E+00 0.  1.
         24    1    1    2    0    0  0.15422710734E+02  0.29249888996E+02  0.27206066506E+01  0.86994446188E+02  0.80419002446E+02 0.  1.
        -24    1    1    2    0    0 -0.15422710734E+02 -0.29249888996E+02  0.22948099842E+03  0.24540203871E+03  0.80419002446E+02 0. -1.
<mgrwt>
<rscale>  0 0.86951895E+02</rscale>
<asrwt>0</asrwt>
<pdfrwt beam="1">  1        3 0.43430622E-01 0.86951895E+02</pdfrwt>
<pdfrwt beam="2">  1       -3 0.77072986E-02 0.86951895E+02</pdfrwt>
<totfact> 0.12734798E+03</totfact>
</mgrwt>
</event>
<event>
 4    1  0.5097315E-001  0.8189010E+02  0.7546771E-02  0.1323772E+00
          2   -1    0    0  501    0  0.00000000000E+00  0.00000000000E+00  0.47845702280E+03  0.47845702280E+03  0.00000000000E+00 0. -1.
         -2   -1    0    0    0  501 -0.00000000000E+00 -0.00000000000E+00 -0.20680508602E+02  0.20680508602E+02  0.00000000000E+00 0.  1.
         24    1    1    2    0    0 -0.14047866298E+02 -0.64366044742E+01  0.37056485956E+03  0.37950534057E+03  0.80419002446E+02 0. -1.
        -24    1    1    2    0    0  0.14047866298E+02  0.64366044742E+01  0.87211654635E+02  0.11963219083E+03  0.80419002446E+02 0. -1.
<mgrwt>
<rscale>  0 0.81890099E+02</rscale>
<asrwt>0</asrwt>
<pdfrwt beam="1">  1        2 0.73608764E-01 0.81890099E+02</pdfrwt>
<pdfrwt beam="2">  1       -2 0.31816171E-02 0.81890099E+02</pdfrwt>
<totfact> 0.22624356E+04</totfact>
</mgrwt>
</event>
<event>
 4    1  0.5097315E-001  0.8748230E+02  0.7546771E-02  0.1309066E+00
          2   -1    0    0  501    0  0.00000000000E+00  0.00000000000E+00  0.24103312708E+03  0.24103312708E+03  0.00000000000E+00 0. -1.
         -2   -1    0    0    0  501 -0.00000000000E+00 -0.00000000000E+00 -0.37258731667E+02  0.37258731667E+02  0.00000000000E+00 0.  1.
         24    1    1    2    0    0 -0.13190403652E+02  0.31811154367E+02  0.15538364721E+03  0.17831777832E+03  0.80419002446E+02 0. -1.
        -24    1    1    2    0    0  0.13190403652E+02 -0.31811154367E+02  0.48390748198E+02  0.99974080422E+02  0.80419002446E+02 0.  1.
<mgrwt>
<rscale>  0 0.87482297E+02</rscale>
<asrwt>0</asrwt>
<pdfrwt beam="1">  1        2 0.37082019E-01 0.87482297E+02</pdfrwt>
<pdfrwt beam="2">  1       -2 0.57321127E-02 0.87482297E+02</pdfrwt>
<totfact> 0.19654513E+04</totfact>
</mgrwt>
</event>
<event>
 4    1  0.5097315E-001  0.8128349E+02  0.7546771E-02  0.1325448E+00
         -1   -1    0    0    0  501 -0.00000000000E+00  0.00000000000E+00  0.47892994896E+01  0.47892994896E+01  0.00000000000E+00 0.  1.
          1   -1    0    0  501    0  0.00000000000E+00 -0.00000000000E+00 -0.24568946477E+04  0.24568946477E+04  0.00000000000E+00 0. -1.
         24    1    1    2    0    0 -0.11745499452E+02 -0.13540467281E+01 -0.41099303417E+03  0.41895379255E+03  0.80419002446E+02 0.  1.
        -24    1    1    2    0    0  0.11745499452E+02  0.13540467281E+01 -0.20411123140E+04  0.20427301546E+04  0.80419002446E+02 0.  0.
<mgrwt>
<rscale>  0 0.81283493E+02</rscale>
<asrwt>0</asrwt>
<pdfrwt beam="1">  1        1 0.37798443E+00 0.81283493E+02</pdfrwt>
<pdfrwt beam="2">  1       -1 0.73681406E-03 0.81283493E+02</pdfrwt>
<totfact> 0.48602805E+03</totfact>
</mgrwt>
</event>
<event>
 4    1  0.5097315E-001  0.8716908E+02  0.7546771E-02  0.1309856E+00
         -1   -1    0    0    0  501 -0.00000000000E+00  0.00000000000E+00  0.12550777708E+03  0.12550777708E+03  0.00000000000E+00 0.  1.
          1   -1    0    0  501    0  0.00000000000E+00 -0.00000000000E+00 -0.74728296608E+02  0.74728296608E+02  0.00000000000E+00 0. -1.
         24    1    1    2    0    0  0.14492829294E+02 -0.30351130654E+02  0.69012134991E+02  0.11118059167E+03  0.80419002446E+02 0.  1.
        -24    1    1    2    0    0 -0.14492829294E+02  0.30351130654E+02 -0.18232654518E+02  0.89055482021E+02  0.80419002446E+02 0. -1.
<mgrwt>
<rscale>  0 0.87169084E+02</rscale>
<asrwt>0</asrwt>
<pdfrwt beam="1">  1        1 0.11496661E-01 0.87169084E+02</pdfrwt>
<pdfrwt beam="2">  1       -1 0.19308889E-01 0.87169084E+02</pdfrwt>
<totfact> 0.10230545E+04</totfact>
</mgrwt>
</event>
<event>
 4    1  0.5097315E-001  0.9125618E+02  0.7546771E-02  0.1299838E+00
          1   -1    0    0  501    0  0.00000000000E+00  0.00000000000E+00  0.19224527596E+03  0.19224527596E+03  0.00000000000E+00 0. -1.
         -1   -1    0    0    0  501 -0.00000000000E+00 -0.00000000000E+00 -0.54239563905E+02  0.54239563905E+02  0.00000000000E+00 0.  1.
         24    1    1    2    0    0 -0.40174092871E+02 -0.15700868122E+02  0.13700517661E+02  0.92278898652E+02  0.80419002446E+02 0.  0.
        -24    1    1    2    0    0  0.40174092871E+02  0.15700868122E+02  0.12430519439E+03  0.15420594121E+03  0.80419002446E+02 0.  1.
<mgrwt>
<rscale>  0 0.91256183E+02</rscale>
<asrwt>0</asrwt>
<pdfrwt beam="1">  1        1 0.29576196E-01 0.91256183E+02</pdfrwt>
<pdfrwt beam="2">  1       -1 0.83445484E-02 0.91256183E+02</pdfrwt>
<totfact> 0.11291284E+04</totfact>
</mgrwt>
</event>
<event>
 4    1  0.5097315E-001  0.1786457E+03  0.7546771E-02  0.1169120E+00
         -2   -1    0    0    0  501 -0.00000000000E+00  0.00000000000E+00  0.48321666632E+02  0.48321666632E+02  0.00000000000E+00 0.  1.
          2   -1    0    0  501    0  0.00000000000E+00 -0.00000000000E+00 -0.73090364702E+03  0.73090364702E+03  0.00000000000E+00 0. -1.
         24    1    1    2    0    0  0.15790412200E+03  0.22657334890E+02 -0.46225037350E+03  0.49557006600E+03  0.80419002446E+02 0. -1.
        -24    1    1    2    0    0 -0.15790412200E+03 -0.22657334890E+02 -0.22033160690E+03  0.28365524765E+03  0.80419002446E+02 0.  1.
<mgrwt>
<rscale>  0 0.17864569E+03</rscale>
<asrwt>0</asrwt>
<pdfrwt beam="1">  1        2 0.11244672E+00 0.17864569E+03</pdfrwt>
<pdfrwt beam="2">  1       -2 0.74341024E-02 0.17864569E+03</pdfrwt>
<totfact> 0.41492900E+03</totfact>
</mgrwt>
</event>
<event>
 4    1  0.5097315E-001  0.8082045E+02  0.7546771E-02  0.1326739E+00
         -1   -1    0    0    0  501 -0.00000000000E+00  0.00000000000E+00  0.13824148449E+03  0.13824148449E+03  0.00000000000E+00 0.  1.
          1   -1    0    0  501    0  0.00000000000E+00 -0.00000000000E+00 -0.54566458776E+02  0.54566458776E+02  0.00000000000E+00 0. -1.
         24    1    1    2    0    0 -0.80453918070E+01  0.18682425805E-01  0.77137545023E+02  0.11172352252E+03  0.80419002446E+02 0.  0.
        -24    1    1    2    0    0  0.80453918070E+01 -0.18682425805E-01  0.65374806861E+01  0.81084420738E+02  0.80419002446E+02 0. -1.
<mgrwt>
<rscale>  0 0.80820447E+02</rscale>
<asrwt>0</asrwt>
<pdfrwt beam="1">  1        1 0.83948399E-02 0.80820447E+02</pdfrwt>
<pdfrwt beam="2">  1       -1 0.21267921E-01 0.80820447E+02</pdfrwt>
<totfact> 0.13135728E+04</totfact>
</mgrwt>
</event>
<event>
 4    1  0.5097315E-001  0.8056057E+02  0.7546771E-02  0.1327468E+00
         -2   -1    0    0    0  501 -0.00000000000E+00  0.00000000000E+00  0.11756741623E+04  0.11756741623E+04  0.00000000000E+00 0.  1.
          2   -1    0    0  501    0  0.00000000000E+00 -0.00000000000E+00 -0.61247329771E+01  0.61247329771E+01  0.00000000000E+00 0. -1.
         24    1    1    2    0    0  0.44606149461E+01  0.17006813646E+01  0.39913748516E+03  0.40718636694E+03  0.80419002446E+02 0.  0.
        -24    1    1    2    0    0 -0.44606149461E+01 -0.17006813646E+01  0.77041194418E+03  0.77461252836E+03  0.80419002446E+02 0.  1.
<mgrwt>
<rscale>  0 0.80560569E+02</rscale>
<asrwt>0</asrwt>
<pdfrwt beam="1">  1        2 0.94226755E-03 0.80560569E+02</pdfrwt>
<pdfrwt beam="2">  1       -2 0.18087277E+00 0.80560569E+02</pdfrwt>
<totfact> 0.27266518E+03</totfact>
</mgrwt>
</event>
<event>
 4    1  0.5097315E-001  0.8773632E+02  0.7546771E-02  0.1308428E+00
         -2   -1    0    0    0  501 -0.00000000000E+00  0.00000000000E+00  0.48598798204E+03  0.48598798204E+03  0.00000000000E+00 0.  1.
          2   -1    0    0  501    0  0.00000000000E+00 -0.00000000000E+00 -0.16128159687E+02  0.16128159687E+02  0.00000000000E+00 0. -1.
         24    1    1    2    0    0  0.19712636343E+02 -0.29014775161E+02  0.20132521939E+03  0.21961216981E+03  0.80419002446E+02 0. -1.
        -24    1    1    2    0    0 -0.19712636343E+02  0.29014775161E+02  0.26853460296E+03  0.28250397192E+03  0.80419002446E+02 0.  1.
<mgrwt>
<rscale>  0 0.87736316E+02</rscale>
<asrwt>0</asrwt>
<pdfrwt beam="1">  1        2 0.24812557E-02 0.87736316E+02</pdfrwt>
<pdfrwt beam="2">  1       -2 0.74767371E-01 0.87736316E+02</pdfrwt>
<totfact> 0.60652921E+03</totfact>
</mgrwt>
</event>
<event>
 4    1  0.5097315E-001  0.8546411E+02  0.7546771E-02  0.1314223E+00
         -1   -1    0    0    0  501 -0.00000000000E+00  0.00000000000E+00  0.27613352673E+03  0.27613352673E+03  0.00000000000E+00 0.  1.
          1   -1    0    0  501    0  0.00000000000E+00 -0.00000000000E+00 -0.53469619990E+02  0.53469619990E+02  0.00000000000E+00 0. -1.
         24    1    1    2    0    0  0.23596753184E+02 -0.16735932004E+02  0.22848033540E+03  0.24394134090E+03  0.80419002446E+02 0.  1.
        -24    1    1    2    0    0 -0.23596753184E+02  0.16735932004E+02 -0.58164286535E+01  0.85661805827E+02  0.80419002446E+02 0. -1.
<mgrwt>
<rscale>  0 0.85464110E+02</rscale>
<asrwt>0</asrwt>
<pdfrwt beam="1">  1        1 0.82260955E-02 0.85464110E+02</pdfrwt>
<pdfrwt beam="2">  1       -1 0.42482080E-01 0.85464110E+02</pdfrwt>
<totfact> 0.42937278E+03</totfact>
</mgrwt>
</event>
<event>
 4    1  0.5097315E-001  0.1184624E+03  0.7546771E-02  0.1245655E+00
         -2   -1    0    0    0  501 -0.00000000000E+00  0.00000000000E+00  0.15760374485E+02  0.15760374485E+02  0.00000000000E+00 0.  1.
          2   -1    0    0  501    0  0.00000000000E+00 -0.00000000000E+00 -0.13945701045E+04  0.13945701045E+04  0.00000000000E+00 0. -1.
         24    1    1    2    0    0 -0.32804084834E+02 -0.80560698787E+02 -0.11133900877E+04  0.11196744337E+04  0.80419002446E+02 0. -1.
        -24    1    1    2    0    0  0.32804084834E+02  0.80560698787E+02 -0.26541964231E+03  0.29065604527E+03  0.80419002446E+02 0.  1.
<mgrwt>
<rscale>  0 0.11846244E+03</rscale>
<asrwt>0</asrwt>
<pdfrwt beam="1">  1        2 0.21454918E+00 0.11846244E+03</pdfrwt>
<pdfrwt beam="2">  1       -2 0.24246737E-02 0.11846244E+03</pdfrwt>
<totfact> 0.87703639E+03</totfact>
</mgrwt>
</event>
<event>
 4    1  0.5097315E-001  0.1050911E+03  0.7546771E-02  0.1269940E+00
         -2   -1    0    0    0  501 -0.00000000000E+00  0.00000000000E+00  0.14732130640E+02  0.14732130640E+02  0.00000000000E+00 0.  1.
          2   -1    0    0  501    0  0.00000000000E+00 -0.00000000000E+00 -0.75354853183E+03  0.75354853183E+03  0.00000000000E+00 0. -1.
         24    1    1    2    0    0  0.67609642587E+02 -0.24221247132E+01 -0.39698917431E+03  0.41066354956E+03  0.80419002446E+02 0. -1.
        -24    1    1    2    0    0 -0.67609642587E+02  0.24221247132E+01 -0.34182722688E+03  0.35761711291E+03  0.80419002446E+02 0.  1.
<mgrwt>
<rscale>  0 0.10509113E+03</rscale>
<asrwt>0</asrwt>
<pdfrwt beam="1">  1        2 0.11593054E+00 0.10509113E+03</pdfrwt>
<pdfrwt beam="2">  1       -2 0.22664816E-02 0.10509113E+03</pdfrwt>
<totfact> 0.22741870E+04</totfact>
</mgrwt>
</event>
<event>
 4    1  0.5097315E-001  0.9111177E+02  0.7546771E-02  0.1300181E+00
          1   -1    0    0  501    0  0.00000000000E+00  0.00000000000E+00  0.58791007354E+01  0.58791007354E+01  0.00000000000E+00 0. -1.
         -1   -1    0    0    0  501 -0.00000000000E+00 -0.00000000000E+00 -0.14487235383E+04  0.14487235383E+04  0.00000000000E+00 0.  1.
         24    1    1    2    0    0 -0.15530889784E+02  0.39911536593E+02 -0.83720086970E+03  0.84214408000E+03  0.80419002446E+02 0.  1.
        -24    1    1    2    0    0  0.15530889784E+02 -0.39911536593E+02 -0.60564356783E+03  0.61245855901E+03  0.80419002446E+02 0.  0.
<mgrwt>
<rscale>  0 0.91111773E+02</rscale>
<asrwt>0</asrwt>
<pdfrwt beam="1">  1        1 0.90447634E-03 0.91111773E+02</pdfrwt>
<pdfrwt beam="2">  1       -1 0.22288072E+00 0.91111773E+02</pdfrwt>
<totfact> 0.20882807E+03</totfact>
</mgrwt>
</event>
<event>
 4    1  0.5097315E-001  0.8711629E+02  0.7546771E-02  0.1309989E+00
         -1   -1    0    0    0  501 -0.00000000000E+00  0.00000000000E+00  0.23956563259E+02  0.23956563259E+02  0.00000000000E+00 0.  1.
          1   -1    0    0  501    0  0.00000000000E+00 -0.00000000000E+00 -0.85787230338E+03  0.85787230338E+03  0.00000000000E+00 0. -1.
         24    1    1    2    0    0 -0.32707425160E+02 -0.72288510440E+01 -0.66791971432E+02  0.10977438385E+03  0.80419002446E+02 0.  1.
        -24    1    1    2    0    0  0.32707425160E+02  0.72288510440E+01 -0.76712376869E+03  0.77205448278E+03  0.80419002446E+02 0. -1.
<mgrwt>
<rscale>  0 0.87116290E+02</rscale>
<asrwt>0</asrwt>
<pdfrwt beam="1">  1        1 0.13198036E+00 0.87116290E+02</pdfrwt>
<pdfrwt beam="2">  1       -1 0.36856248E-02 0.87116290E+02</pdfrwt>
<totfact> 0.54470735E+03</totfact>
</mgrwt>
</event>
<event>
 4    1  0.5097315E-001  0.8392317E+02  0.7546771E-02  0.1318273E+00
          2   -1    0    0  501    0  0.00000000000E+00  0.00000000000E+00  0.12870482575E+04  0.12870482575E+04  0.00000000000E+00 0. -1.
         -2   -1    0    0    0  501 -0.00000000000E+00 -0.00000000000E+00 -0.57780224552E+01  0.57780224552E+01  0.00000000000E+00 0.  1.
         24    1    1    2    0    0 -0.19050684467E+02  0.14592930081E+02  0.78932899387E+03  0.79377790263E+03  0.80419002446E+02 0.  0.
        -24    1    1    2    0    0  0.19050684467E+02 -0.14592930081E+02  0.49194124117E+03  0.49904837732E+03  0.80419002446E+02 0.  0.
<mgrwt>
<rscale>  0 0.83923168E+02</rscale>
<asrwt>0</asrwt>
<pdfrwt beam="1">  1        2 0.19800720E+00 0.83923168E+02</pdfrwt>
<pdfrwt beam="2">  1       -2 0.88892756E-03 0.83923168E+02</pdfrwt>
<totfact> 0.40948134E+04</totfact>
</mgrwt>
</event>
<event>
 4    1  0.5097315E-001  0.9904556E+02  0.7546771E-02  0.1282316E+00
          2   -1    0    0  501    0  0.00000000000E+00  0.00000000000E+00  0.29440788002E+03  0.29440788002E+03  0.00000000000E+00 0. -1.
         -2   -1    0    0    0  501 -0.00000000000E+00 -0.00000000000E+00 -0.33468642667E+02  0.33468642667E+02  0.00000000000E+00 0.  1.
         24    1    1    2    0    0  0.63880264852E+01 -0.57463033440E+02  0.14135082084E+03  0.17259802316E+03  0.80419002446E+02 0.  0.
        -24    1    1    2    0    0 -0.63880264852E+01  0.57463033440E+02  0.11958841651E+03  0.15527849952E+03  0.80419002446E+02 0.  1.
<mgrwt>
<rscale>  0 0.99045560E+02</rscale>
<asrwt>0</asrwt>
<pdfrwt beam="1">  1        2 0.45293518E-01 0.99045560E+02</pdfrwt>
<pdfrwt beam="2">  1       -2 0.51490222E-02 0.99045560E+02</pdfrwt>
<totfact> 0.18945530E+04</totfact>
</mgrwt>
</event>
<event>
 4    1  0.5097315E-001  0.8492143E+02  0.7546771E-02  0.1315638E+00
          2   -1    0    0  501    0  0.00000000000E+00  0.00000000000E+00  0.39078492246E+03  0.39078492246E+03  0.00000000000E+00 0. -1.
         -2   -1    0    0    0  501 -0.00000000000E+00 -0.00000000000E+00 -0.11121771310E+03  0.11121771310E+03  0.00000000000E+00 0.  1.
         24    1    1    2    0    0 -0.47829627670E+01 -0.26861813324E+02  0.36901677238E+03  0.37866215549E+03  0.80419002446E+02 0. -1.
        -24    1    1    2    0    0  0.47829627670E+01  0.26861813324E+02 -0.89449563017E+02  0.12334048008E+03  0.80419002446E+02 0.  1.
<mgrwt>
<rscale>  0 0.84921433E+02</rscale>
<asrwt>0</asrwt>
<pdfrwt beam="1">  1        2 0.60120757E-01 0.84921433E+02</pdfrwt>
<pdfrwt beam="2">  1       -2 0.17110418E-01 0.84921433E+02</pdfrwt>
<totfact> 0.21562756E+03</totfact>
</mgrwt>
</event>
<event>
 4    1  0.5097315E-001  0.8408282E+02  0.7546771E-02  0.1317849E+00
          2   -1    0    0  501    0  0.00000000000E+00  0.00000000000E+00  0.39238242639E+03  0.39238242639E+03  0.00000000000E+00 0. -1.
         -2   -1    0    0    0  501 -0.00000000000E+00 -0.00000000000E+00 -0.23221053009E+02  0.23221053009E+02  0.00000000000E+00 0.  1.
         24    1    1    2    0    0 -0.13018755683E+02  0.20813871795E+02  0.28294556188E+03  0.29517471470E+03  0.80419002446E+02 0. -1.
        -24    1    1    2    0    0  0.13018755683E+02 -0.20813871795E+02  0.86215811498E+02  0.12042876469E+03  0.80419002446E+02 0.  1.
<mgrwt>
<rscale>  0 0.84082824E+02</rscale>
<asrwt>0</asrwt>
<pdfrwt beam="1">  1        2 0.60366522E-01 0.84082824E+02</pdfrwt>
<pdfrwt beam="2">  1       -2 0.35724700E-02 0.84082824E+02</pdfrwt>
<totfact> 0.23637543E+04</totfact>
</mgrwt>
</event>
<event>
 4    1  0.5097315E-001  0.8637714E+02  0.7546771E-02  0.1311870E+00
          2   -1    0    0  501    0  0.00000000000E+00  0.00000000000E+00  0.12993512149E+04  0.12993512149E+04  0.00000000000E+00 0. -1.
         -2   -1    0    0    0  501 -0.00000000000E+00 -0.00000000000E+00 -0.90895871573E+01  0.90895871573E+01  0.00000000000E+00 0.  1.
         24    1    1    2    0    0  0.28809443285E+02  0.12798821023E+02  0.10421497348E+04  0.10457232328E+04  0.80419002446E+02 0.  0.
        -24    1    1    2    0    0 -0.28809443285E+02 -0.12798821023E+02  0.24811189294E+03  0.26271756929E+03  0.80419002446E+02 0.  0.
<mgrwt>
<rscale>  0 0.86377137E+02</rscale>
<asrwt>0</asrwt>
<pdfrwt beam="1">  1        2 0.19990004E+00 0.86377137E+02</pdfrwt>
<pdfrwt beam="2">  1       -2 0.13983991E-02 0.86377137E+02</pdfrwt>
<totfact> 0.21296377E+04</totfact>
</mgrwt>
</event>
<event>
 4    1  0.5097315E-001  0.8511255E+02  0.7546771E-02  0.1315138E+00
         -2   -1    0    0    0  501 -0.00000000000E+00  0.00000000000E+00  0.25894136879E+02  0.25894136879E+02  0.00000000000E+00 0.  1.
          2   -1    0    0  501    0  0.00000000000E+00 -0.00000000000E+00 -0.54102154483E+03  0.54102154483E+03  0.00000000000E+00 0. -1.
         24    1    1    2    0    0 -0.66192125017E+01 -0.27076122758E+02 -0.45454221753E+03  0.46244218435E+03  0.80419002446E+02 0.  0.
        -24    1    1    2    0    0  0.66192125017E+01  0.27076122758E+02 -0.60585190429E+02  0.10447349736E+03  0.80419002446E+02 0.  0.
<mgrwt>
<rscale>  0 0.85112551E+02</rscale>
<asrwt>0</asrwt>
<pdfrwt beam="1">  1        2 0.83234071E-01 0.85112551E+02</pdfrwt>
<pdfrwt beam="2">  1       -2 0.39837140E-02 0.85112551E+02</pdfrwt>
<totfact> 0.14323386E+04</totfact>
</mgrwt>
</event>
<event>
 4    1  0.5097315E-001  0.9223402E+02  0.7546771E-02  0.1297530E+00
         -2   -1    0    0    0  501 -0.00000000000E+00  0.00000000000E+00  0.48316141295E+01  0.48316141295E+01  0.00000000000E+00 0.  1.
          2   -1    0    0  501    0  0.00000000000E+00 -0.00000000000E+00 -0.18312504228E+04  0.18312504228E+04  0.00000000000E+00 0. -1.
         24    1    1    2    0    0  0.25682050779E+02  0.37152798064E+02 -0.10933783721E+04  0.10972617640E+04  0.80419002446E+02 0. -1.
        -24    1    1    2    0    0 -0.25682050779E+02 -0.37152798064E+02 -0.73304043652E+03  0.73882027291E+03  0.80419002446E+02 0.  1.
<mgrwt>
<rscale>  0 0.92234018E+02</rscale>
<asrwt>0</asrwt>
<pdfrwt beam="1">  1        2 0.28173064E+00 0.92234018E+02</pdfrwt>
<pdfrwt beam="2">  1       -2 0.74332576E-03 0.92234018E+02</pdfrwt>
<totfact> 0.28050654E+04</totfact>
</mgrwt>
</event>
<event>
 4    1  0.5097315E-001  0.8262581E+02  0.7546771E-02  0.1321761E+00
          1   -1    0    0  501    0  0.00000000000E+00  0.00000000000E+00  0.14765692708E+03  0.14765692708E+03  0.00000000000E+00 0. -1.
         -1   -1    0    0    0  501 -0.00000000000E+00 -0.00000000000E+00 -0.50298383884E+02  0.50298383884E+02  0.00000000000E+00 0.  1.
         24    1    1    2    0    0  0.91662163140E+01  0.16606886578E+02  0.20549535478E+02  0.85142865620E+02  0.80419002446E+02 0.  1.
        -24    1    1    2    0    0 -0.91662163140E+01 -0.16606886578E+02  0.76809007716E+02  0.11281244534E+03  0.80419002446E+02 0.  0.
<mgrwt>
<rscale>  0 0.82625808E+02</rscale>
<asrwt>0</asrwt>
<pdfrwt beam="1">  1        1 0.22716450E-01 0.82625808E+02</pdfrwt>
<pdfrwt beam="2">  1       -1 0.77382130E-02 0.82625808E+02</pdfrwt>
<totfact> 0.17325661E+04</totfact>
</mgrwt>
</event>
<event>
 4    1  0.5097315E-001  0.1112420E+03  0.7546771E-02  0.1258287E+00
          2   -1    0    0  501    0  0.00000000000E+00  0.00000000000E+00  0.39285490644E+03  0.39285490644E+03  0.00000000000E+00 0. -1.
         -2   -1    0    0    0  501 -0.00000000000E+00 -0.00000000000E+00 -0.32242198019E+02  0.32242198019E+02  0.00000000000E+00 0.  1.
         24    1    1    2    0    0 -0.31140376218E+02 -0.70269748678E+02  0.21256303170E+03  0.23991210685E+03  0.80419002446E+02 0.  0.
        -24    1    1    2    0    0  0.31140376218E+02  0.70269748678E+02  0.14804967672E+03  0.18518499761E+03  0.80419002446E+02 0.  1.
<mgrwt>
<rscale>  0 0.11124197E+03</rscale>
<asrwt>0</asrwt>
<pdfrwt beam="1">  1        2 0.60439213E-01 0.11124197E+03</pdfrwt>
<pdfrwt beam="2">  1       -2 0.49603384E-02 0.11124197E+03</pdfrwt>
<totfact> 0.14949934E+04</totfact>
</mgrwt>
</event>
<event>
 4    1  0.5097315E-001  0.1115211E+03  0.7546771E-02  0.1257779E+00
          2   -1    0    0  501    0  0.00000000000E+00  0.00000000000E+00  0.55512454811E+02  0.55512454811E+02  0.00000000000E+00 0. -1.
         -2   -1    0    0    0  501 -0.00000000000E+00 -0.00000000000E+00 -0.49973164605E+03  0.49973164605E+03  0.00000000000E+00 0.  1.
         24    1    1    2    0    0  0.75772009386E+02  0.15110822176E+02 -0.15905072805E+02  0.11264955237E+03  0.80419002446E+02 0. -1.
        -24    1    1    2    0    0 -0.75772009386E+02 -0.15110822176E+02 -0.42831411843E+03  0.44259454849E+03  0.80419002446E+02 0.  1.
<mgrwt>
<rscale>  0 0.11152108E+03</rscale>
<asrwt>0</asrwt>
<pdfrwt beam="1">  1        2 0.85403781E-02 0.11152108E+03</pdfrwt>
<pdfrwt beam="2">  1       -2 0.76881788E-01 0.11152108E+03</pdfrwt>
<totfact> 0.11722795E+03</totfact>
</mgrwt>
</event>
<event>
 4    1  0.5097315E-001  0.8089949E+02  0.7546771E-02  0.1326518E+00
         -1   -1    0    0    0  501 -0.00000000000E+00  0.00000000000E+00  0.17392027847E+03  0.17392027847E+03  0.00000000000E+00 0.  1.
          1   -1    0    0  501    0  0.00000000000E+00 -0.00000000000E+00 -0.25737625449E+03  0.25737625449E+03  0.00000000000E+00 0. -1.
         24    1    1    2    0    0  0.85766818601E+01 -0.19880923776E+01  0.15753280804E+03  0.17709125768E+03  0.80419002446E+02 0.  1.
        -24    1    1    2    0    0 -0.85766818601E+01  0.19880923776E+01 -0.24098878406E+03  0.25420527528E+03  0.80419002446E+02 0. -1.
<mgrwt>
<rscale>  0 0.80899493E+02</rscale>
<asrwt>0</asrwt>
<pdfrwt beam="1">  1        1 0.39596347E-01 0.80899493E+02</pdfrwt>
<pdfrwt beam="2">  1       -1 0.26756966E-01 0.80899493E+02</pdfrwt>
<totfact> 0.12846848E+03</totfact>
</mgrwt>
</event>
<event>
 4    1  0.5097315E-001  0.1443725E+03  0.7546771E-02  0.1207564E+00
         -2   -1    0    0    0  501 -0.00000000000E+00  0.00000000000E+00  0.17478987110E+03  0.17478987110E+03  0.00000000000E+00 0.  1.
          2   -1    0    0  501    0  0.00000000000E+00 -0.00000000000E+00 -0.24099183885E+03  0.24099183885E+03  0.00000000000E+00 0. -1.
         24    1    1    2    0    0 -0.89909556920E+02 -0.79325125588E+02 -0.18086099799E+03  0.23141763226E+03  0.80419002446E+02 0. -1.
        -24    1    1    2    0    0  0.89909556920E+02  0.79325125588E+02  0.11465903023E+03  0.18436407769E+03  0.80419002446E+02 0.  1.
<mgrwt>
<rscale>  0 0.14437250E+03</rscale>
<asrwt>0</asrwt>
<pdfrwt beam="1">  1        2 0.37075668E-01 0.14437250E+03</pdfrwt>
<pdfrwt beam="2">  1       -2 0.26890749E-01 0.14437250E+03</pdfrwt>
<totfact> 0.16980838E+03</totfact>
</mgrwt>
</event>
<event>
 4    1  0.5097315E-001  0.1148779E+03  0.7546771E-02  0.1251794E+00
         -2   -1    0    0    0  501 -0.00000000000E+00  0.00000000000E+00  0.80824336337E+02  0.80824336337E+02  0.00000000000E+00 0.  1.
          2   -1    0    0  501    0  0.00000000000E+00 -0.00000000000E+00 -0.87231407206E+03  0.87231407206E+03  0.00000000000E+00 0. -1.
         24    1    1    2    0    0 -0.71757604569E+02 -0.39756202350E+02 -0.82540332249E+03  0.83335920837E+03  0.80419002446E+02 0. -1.
        -24    1    1    2    0    0  0.71757604569E+02  0.39756202350E+02  0.33913586764E+02  0.11977920003E+03  0.80419002446E+02 0.  1.
<mgrwt>
<rscale>  0 0.11487787E+03</rscale>
<asrwt>0</asrwt>
<pdfrwt beam="1">  1        2 0.13420216E+00 0.11487787E+03</pdfrwt>
<pdfrwt beam="2">  1       -2 0.12434514E-01 0.11487787E+03</pdfrwt>
<totfact> 0.14689642E+03</totfact>
</mgrwt>
</event>
<event>
 4    1  0.5097315E-001  0.8139928E+02  0.7546771E-02  0.1325127E+00
         -2   -1    0    0    0  501 -0.00000000000E+00  0.00000000000E+00  0.18319040273E+02  0.18319040273E+02  0.00000000000E+00 0.  1.
          2   -1    0    0  501    0  0.00000000000E+00 -0.00000000000E+00 -0.10100625308E+04  0.10100625308E+04  0.00000000000E+00 0. -1.
         24    1    1    2    0    0 -0.97017013583E+01 -0.80314353095E+01 -0.90783827035E+03  0.91148020715E+03  0.80419002446E+02 0.  1.
        -24    1    1    2    0    0  0.97017013583E+01  0.80314353095E+01 -0.83905220224E+02  0.11690136397E+03  0.80419002446E+02 0.  1.
<mgrwt>
<rscale>  0 0.81399281E+02</rscale>
<asrwt>0</asrwt>
<pdfrwt beam="1">  1        2 0.15539425E+00 0.81399281E+02</pdfrwt>
<pdfrwt beam="2">  1       -2 0.28183137E-02 0.81399281E+02</pdfrwt>
<totfact> 0.11202588E+04</totfact>
</mgrwt>
</event>
<event>
 4    1  0.5097315E-001  0.1036029E+03  0.7546771E-02  0.1272897E+00
          3   -1    0    0  501    0  0.00000000000E+00  0.00000000000E+00  0.43204025262E+02  0.43204025262E+02  0.00000000000E+00 0. -1.
         -3   -1    0    0    0  501 -0.00000000000E+00 -0.00000000000E+00 -0.24849011510E+03  0.24849011510E+03  0.00000000000E+00 0.  1.
         24    1    1    2    0    0 -0.17656471882E+02 -0.62885504030E+02 -0.10474016000E+03  0.14732296049E+03  0.80419002446E+02 0. -1.
        -24    1    1    2    0    0  0.17656471882E+02  0.62885504030E+02 -0.10054592984E+03  0.14437117987E+03  0.80419002446E+02 0.  0.
<mgrwt>
<rscale>  0 0.10360286E+03</rscale>
<asrwt>0</asrwt>
<pdfrwt beam="1">  1        3 0.66467734E-02 0.10360286E+03</pdfrwt>
<pdfrwt beam="2">  1       -3 0.38229247E-01 0.10360286E+03</pdfrwt>
<totfact> 0.21317768E+03</totfact>
</mgrwt>
</event>
<event>
 4    1  0.5097315E-001  0.9567772E+02  0.7546771E-02  0.1289657E+00
         -4   -1    0    0    0  501 -0.00000000000E+00  0.00000000000E+00  0.38840013210E+03  0.38840013210E+03  0.00000000000E+00 0.  1.
          4   -1    0    0  501    0  0.00000000000E+00 -0.00000000000E+00 -0.35680781341E+02  0.35680781341E+02  0.00000000000E+00 0. -1.
         24    1    1    2    0    0 -0.47026194743E+02  0.21807048402E+02  0.52820563522E+02  0.10928969868E+03  0.80419002446E+02 0. -1.
        -24    1    1    2    0    0  0.47026194743E+02 -0.21807048402E+02  0.29989878724E+03  0.31479121476E+03  0.80419002446E+02 0.  1.
<mgrwt>
<rscale>  0 0.95677721E+02</rscale>
<asrwt>0</asrwt>
<pdfrwt beam="1">  1        4 0.54893513E-02 0.95677721E+02</pdfrwt>
<pdfrwt beam="2">  1       -4 0.59753863E-01 0.95677721E+02</pdfrwt>
<totfact> 0.84060494E+02</totfact>
</mgrwt>
</event>
<event>
 4    1  0.5097315E-001  0.1418262E+03  0.7546771E-02  0.1210893E+00
         -2   -1    0    0    0  501 -0.00000000000E+00  0.00000000000E+00  0.37280410810E+02  0.37280410810E+02  0.00000000000E+00 0.  1.
          2   -1    0    0  501    0  0.00000000000E+00 -0.00000000000E+00 -0.78117867276E+03  0.78117867276E+03  0.00000000000E+00 0. -1.
         24    1    1    2    0    0 -0.87061241651E+02  0.77896102586E+02 -0.59954544775E+03  0.61609205682E+03  0.80419002446E+02 0. -1.
        -24    1    1    2    0    0  0.87061241651E+02 -0.77896102586E+02 -0.14435281419E+03  0.20236702675E+03  0.80419002446E+02 0.  1.
<mgrwt>
<rscale>  0 0.14182623E+03</rscale>
<asrwt>0</asrwt>
<pdfrwt beam="1">  1        2 0.12018135E+00 0.14182623E+03</pdfrwt>
<pdfrwt beam="2">  1       -2 0.57354469E-02 0.14182623E+03</pdfrwt>
<totfact> 0.56352005E+03</totfact>
</mgrwt>
</event>
<event>
 4    1  0.5097315E-001  0.8565972E+02  0.7546771E-02  0.1313716E+00
         -1   -1    0    0    0  501 -0.00000000000E+00  0.00000000000E+00  0.51363443296E+02  0.51363443296E+02  0.00000000000E+00 0.  1.
          1   -1    0    0  501    0  0.00000000000E+00 -0.00000000000E+00 -0.20047549904E+03  0.20047549904E+03  0.00000000000E+00 0. -1.
         24    1    1    2    0    0 -0.28153949565E+02  0.88163196876E+01 -0.70494522319E+01  0.85949305408E+02  0.80419002446E+02 0.  1.
        -24    1    1    2    0    0  0.28153949565E+02 -0.88163196876E+01 -0.14206260351E+03  0.16588963693E+03  0.80419002446E+02 0. -1.
<mgrwt>
<rscale>  0 0.85659724E+02</rscale>
<asrwt>0</asrwt>
<pdfrwt beam="1">  1        1 0.30842385E-01 0.85659724E+02</pdfrwt>
<pdfrwt beam="2">  1       -1 0.79020680E-02 0.85659724E+02</pdfrwt>
<totfact> 0.11563089E+04</totfact>
</mgrwt>
</event>
<event>
 4    1  0.5097315E-001  0.9402738E+02  0.7546771E-02  0.1293382E+00
          2   -1    0    0  501    0  0.00000000000E+00  0.00000000000E+00  0.77229024214E+03  0.77229024214E+03  0.00000000000E+00 0. -1.
         -2   -1    0    0    0  501 -0.00000000000E+00 -0.00000000000E+00 -0.13621180947E+02  0.13621180947E+02  0.00000000000E+00 0.  1.
         24    1    1    2    0    0 -0.33297456825E+02 -0.35569819350E+02  0.53629419368E+03  0.54447461907E+03  0.80419002446E+02 0. -1.
        -24    1    1    2    0    0  0.33297456825E+02  0.35569819350E+02  0.22237486751E+03  0.24143680402E+03  0.80419002446E+02 0.  1.
<mgrwt>
<rscale>  0 0.94027382E+02</rscale>
<asrwt>0</asrwt>
<pdfrwt beam="1">  1        2 0.11881385E+00 0.94027382E+02</pdfrwt>
<pdfrwt beam="2">  1       -2 0.20955669E-02 0.94027382E+02</pdfrwt>
<totfact> 0.24468918E+04</totfact>
</mgrwt>
</event>
<event>
 4    1  0.5097315E-001  0.8126702E+02  0.7546771E-02  0.1325494E+00
          1   -1    0    0  501    0  0.00000000000E+00  0.00000000000E+00  0.20145065745E+02  0.20145065745E+02  0.00000000000E+00 0. -1.
         -1   -1    0    0    0  501 -0.00000000000E+00 -0.00000000000E+00 -0.38321404090E+03  0.38321404090E+03  0.00000000000E+00 0.  1.
         24    1    1    2    0    0 -0.11229339834E+02  0.33186932953E+01 -0.25820003297E+03  0.27068724531E+03  0.80419002446E+02 0.  0.
        -24    1    1    2    0    0  0.11229339834E+02 -0.33186932953E+01 -0.10486894219E+03  0.13267186133E+03  0.80419002446E+02 0. -1.
<mgrwt>
<rscale>  0 0.81267015E+02</rscale>
<asrwt>0</asrwt>
<pdfrwt beam="1">  1        1 0.30992410E-02 0.81267015E+02</pdfrwt>
<pdfrwt beam="2">  1       -1 0.58956003E-01 0.81267015E+02</pdfrwt>
<totfact> 0.87955568E+03</totfact>
</mgrwt>
</event>
<event>
 4    1  0.5097315E-001  0.1967124E+03  0.7546771E-02  0.1152543E+00
          4   -1    0    0  501    0  0.00000000000E+00  0.00000000000E+00  0.13681008650E+03  0.13681008650E+03  0.00000000000E+00 0. -1.
         -4   -1    0    0    0  501 -0.00000000000E+00 -0.00000000000E+00 -0.30565835144E+03  0.30565835144E+03  0.00000000000E+00 0.  1.
         24    1    1    2    0    0 -0.69134336168E+02 -0.16567739526E+03 -0.23980855709E+02  0.19816874913E+03  0.80419002446E+02 0.  1.
        -24    1    1    2    0    0  0.69134336168E+02  0.16567739526E+03 -0.14486740924E+03  0.24429968881E+03  0.80419002446E+02 0. -1.
<mgrwt>
<rscale>  0 0.19671241E+03</rscale>
<asrwt>0</asrwt>
<pdfrwt beam="1">  1        4 0.21047706E-01 0.19671241E+03</pdfrwt>
<pdfrwt beam="2">  1       -4 0.47024362E-01 0.19671241E+03</pdfrwt>
<totfact> 0.16032513E+02</totfact>
</mgrwt>
</event>
<event>
 4    1  0.5097315E-001  0.8311249E+02  0.7546771E-02  0.1320444E+00
         -1   -1    0    0    0  501 -0.00000000000E+00  0.00000000000E+00  0.24781295345E+03  0.24781295345E+03  0.00000000000E+00 0.  1.
          1   -1    0    0  501    0  0.00000000000E+00 -0.00000000000E+00 -0.82219179305E+02  0.82219179305E+02  0.00000000000E+00 0. -1.
         24    1    1    2    0    0 -0.19046206182E+01  0.20900776100E+02  0.21695526320E+03  0.23233009320E+03  0.80419002446E+02 0.  1.
        -24    1    1    2    0    0  0.19046206182E+01 -0.20900776100E+02 -0.51361489055E+02  0.97702039557E+02  0.80419002446E+02 0. -1.
<mgrwt>
<rscale>  0 0.83112490E+02</rscale>
<asrwt>0</asrwt>
<pdfrwt beam="1">  1        1 0.12649105E-01 0.83112490E+02</pdfrwt>
<pdfrwt beam="2">  1       -1 0.38125070E-01 0.83112490E+02</pdfrwt>
<totfact> 0.29482391E+03</totfact>
</mgrwt>
</event>
<event>
 4    1  0.5097315E-001  0.1086123E+03  0.7546771E-02  0.1263162E+00
          2   -1    0    0  501    0  0.00000000000E+00  0.00000000000E+00  0.25251296323E+03  0.25251296323E+03  0.00000000000E+00 0. -1.
         -2   -1    0    0    0  501 -0.00000000000E+00 -0.00000000000E+00 -0.49759587832E+02  0.49759587832E+02  0.00000000000E+00 0.  1.
         24    1    1    2    0    0 -0.55602339112E+02 -0.47305198849E+02  0.64003475663E+02  0.12606769136E+03  0.80419002446E+02 0.  1.
        -24    1    1    2    0    0  0.55602339112E+02  0.47305198849E+02  0.13874989973E+03  0.17620485970E+03  0.80419002446E+02 0. -1.
<mgrwt>
<rscale>  0 0.10861225E+03</rscale>
<asrwt>0</asrwt>
<pdfrwt beam="1">  1        2 0.38848147E-01 0.10861226E+03</pdfrwt>
<pdfrwt beam="2">  1       -2 0.76553214E-02 0.10861226E+03</pdfrwt>
<totfact> 0.12339730E+04</totfact>
</mgrwt>
</event>
<event>
 4    1  0.5097315E-001  0.8603516E+02  0.7546771E-02  0.1312747E+00
          1   -1    0    0  501    0  0.00000000000E+00  0.00000000000E+00  0.39896271765E+03  0.39896271765E+03  0.00000000000E+00 0. -1.
         -1   -1    0    0    0  501 -0.00000000000E+00 -0.00000000000E+00 -0.28932144459E+03  0.28932144459E+03  0.00000000000E+00 0.  1.
         24    1    1    2    0    0 -0.16657634827E+02 -0.25638938599E+02 -0.27810428584E+03  0.29110829897E+03  0.80419002446E+02 0.  1.
        -24    1    1    2    0    0  0.16657634827E+02  0.25638938599E+02  0.38774555890E+03  0.39717586327E+03  0.80419002446E+02 0. -1.
<mgrwt>
<rscale>  0 0.86035155E+02</rscale>
<asrwt>0</asrwt>
<pdfrwt beam="1">  1        1 0.61378880E-01 0.86035155E+02</pdfrwt>
<pdfrwt beam="2">  1       -1 0.44510991E-01 0.86035155E+02</pdfrwt>
<totfact> 0.31778987E+02</totfact>
</mgrwt>
</event>
<event>
 4    1  0.5097315E-001  0.9591656E+02  0.7546771E-02  0.1289125E+00
         -1   -1    0    0    0  501 -0.00000000000E+00  0.00000000000E+00  0.20470718366E+03  0.20470718366E+03  0.00000000000E+00 0.  1.
          1   -1    0    0  501    0  0.00000000000E+00 -0.00000000000E+00 -0.45391542895E+02  0.45391542895E+02  0.00000000000E+00 0. -1.
         24    1    1    2    0    0  0.35822512717E+02 -0.38072477221E+02  0.67215399257E+02  0.11712340411E+03  0.80419002446E+02 0.  0.
        -24    1    1    2    0    0 -0.35822512717E+02  0.38072477221E+02  0.92100241512E+02  0.13297532245E+03  0.80419002446E+02 0. -1.
<mgrwt>
<rscale>  0 0.95916548E+02</rscale>
<asrwt>0</asrwt>
<pdfrwt beam="1">  1        1 0.69833144E-02 0.95916560E+02</pdfrwt>
<pdfrwt beam="2">  1       -1 0.31493412E-01 0.95916560E+02</pdfrwt>
<totfact> 0.89916298E+03</totfact>
</mgrwt>
</event>
<event>
 4    1  0.5097315E-001  0.8125723E+02  0.7546771E-02  0.1325521E+00
          2   -1    0    0  501    0  0.00000000000E+00  0.00000000000E+00  0.20481399393E+03  0.20481399393E+03  0.00000000000E+00 0. -1.
         -2   -1    0    0    0  501 -0.00000000000E+00 -0.00000000000E+00 -0.73879993987E+02  0.73879993987E+02  0.00000000000E+00 0.  1.
         24    1    1    2    0    0  0.11598547416E+02  0.99755231393E+00  0.17008378444E+03  0.18849729732E+03  0.80419002446E+02 0.  0.
        -24    1    1    2    0    0 -0.11598547416E+02 -0.99755231393E+00 -0.39149784503E+02  0.90196690592E+02  0.80419002446E+02 0.  1.
<mgrwt>
<rscale>  0 0.81257230E+02</rscale>
<asrwt>0</asrwt>
<pdfrwt beam="1">  1        2 0.31509845E-01 0.81257230E+02</pdfrwt>
<pdfrwt beam="2">  1       -2 0.11366153E-01 0.81257230E+02</pdfrwt>
<totfact> 0.81422968E+03</totfact>
</mgrwt>
</event>
<event>
 4    1  0.5097315E-001  0.8427554E+02  0.7546771E-02  0.1317338E+00
         -4   -1    0    0    0  501 -0.00000000000E+00  0.00000000000E+00  0.27268010428E+02  0.27268010428E+02  0.00000000000E+00 0.  1.
          4   -1    0    0  501    0  0.00000000000E+00 -0.00000000000E+00 -0.28019232556E+03  0.28019232556E+03  0.00000000000E+00 0. -1.
         24    1    1    2    0    0 -0.14479548929E+02  0.20627510381E+02 -0.16725303194E+03  0.18728572869E+03  0.80419002446E+02 0. -1.
        -24    1    1    2    0    0  0.14479548929E+02 -0.20627510381E+02 -0.85671283188E+02  0.12017460730E+03  0.80419002446E+02 0.  1.
<mgrwt>
<rscale>  0 0.84275545E+02</rscale>
<asrwt>0</asrwt>
<pdfrwt beam="1">  1        4 0.43106510E-01 0.84275545E+02</pdfrwt>
<pdfrwt beam="2">  1       -4 0.41950787E-02 0.84275545E+02</pdfrwt>
<totfact> 0.24161969E+03</totfact>
</mgrwt>
</event>
<event>
 4    1  0.5097315E-001  0.9663787E+02  0.7546771E-02  0.1287529E+00
         -2   -1    0    0    0  501 -0.00000000000E+00  0.00000000000E+00  0.41309720582E+01  0.41309720582E+01  0.00000000000E+00 0.  1.
          2   -1    0    0  501    0  0.00000000000E+00 -0.00000000000E+00 -0.22777303845E+04  0.22777303845E+04  0.00000000000E+00 0. -1.
         24    1    1    2    0    0  0.30617193715E+02  0.43980055408E+02 -0.10381340842E+04  0.10426222953E+04  0.80419002446E+02 0. -1.
        -24    1    1    2    0    0 -0.30617193715E+02 -0.43980055408E+02 -0.12354653282E+04  0.12392390613E+04  0.80419002446E+02 0.  1.
<mgrwt>
<rscale>  0 0.96637861E+02</rscale>
<asrwt>0</asrwt>
<pdfrwt beam="1">  1        2 0.35042124E+00 0.96637873E+02</pdfrwt>
<pdfrwt beam="2">  1       -2 0.63553202E-03 0.96637873E+02</pdfrwt>
<totfact> 0.20858679E+04</totfact>
</mgrwt>
</event>
<event>
 4    1  0.5097315E-001  0.1162042E+03  0.7546771E-02  0.1249494E+00
          2   -1    0    0  501    0  0.00000000000E+00  0.00000000000E+00  0.39168501840E+03  0.39168501840E+03  0.00000000000E+00 0. -1.
         -2   -1    0    0    0  501 -0.00000000000E+00 -0.00000000000E+00 -0.34565322117E+02  0.34565322117E+02  0.00000000000E+00 0.  1.
         24    1    1    2    0    0  0.57458145980E+02  0.61112666569E+02  0.16767625779E+03  0.20400671542E+03  0.80419002446E+02 0.  1.
        -24    1    1    2    0    0 -0.57458145980E+02 -0.61112666569E+02  0.18944343849E+03  0.22224362510E+03  0.80419002446E+02 0.  0.
<mgrwt>
<rscale>  0 0.11620420E+03</rscale>
<asrwt>0</asrwt>
<pdfrwt beam="1">  1        2 0.60259230E-01 0.11620421E+03</pdfrwt>
<pdfrwt beam="2">  1       -2 0.53177421E-02 0.11620421E+03</pdfrwt>
<totfact> 0.13564266E+04</totfact>
</mgrwt>
</event>
<event>
 4    1  0.5097315E-001  0.9351337E+02  0.7546771E-02  0.1294560E+00
         -1   -1    0    0    0  501 -0.00000000000E+00  0.00000000000E+00  0.31638354930E+03  0.31638354930E+03  0.00000000000E+00 0.  1.
          1   -1    0    0  501    0  0.00000000000E+00 -0.00000000000E+00 -0.27640153233E+02  0.27640153233E+02  0.00000000000E+00 0. -1.
         24    1    1    2    0    0  0.45985680244E+02 -0.12761309592E+02  0.14505999234E+03  0.17258954529E+03  0.80419002446E+02 0.  1.
        -24    1    1    2    0    0 -0.45985680244E+02  0.12761309592E+02  0.14368340373E+03  0.17143415725E+03  0.80419002446E+02 0. -1.
<mgrwt>
<rscale>  0 0.93513367E+02</rscale>
<asrwt>0</asrwt>
<pdfrwt beam="1">  1        1 0.42523315E-02 0.93513367E+02</pdfrwt>
<pdfrwt beam="2">  1       -1 0.48674390E-01 0.93513367E+02</pdfrwt>
<totfact> 0.82346311E+03</totfact>
</mgrwt>
</event>
<event>
 4    1  0.5097315E-001  0.8284618E+02  0.7546771E-02  0.1321163E+00
          1   -1    0    0  501    0  0.00000000000E+00  0.00000000000E+00  0.56022114048E+03  0.56022114048E+03  0.00000000000E+00 0. -1.
         -1   -1    0    0    0  501 -0.00000000000E+00 -0.00000000000E+00 -0.18686357104E+03  0.18686357104E+03  0.00000000000E+00 0.  1.
         24    1    1    2    0    0  0.85881275284E+01 -0.17958794533E+02 -0.17441066068E+03  0.19308694608E+03  0.80419002446E+02 0.  1.
        -24    1    1    2    0    0 -0.85881275284E+01  0.17958794533E+02  0.54776823011E+03  0.55399776544E+03  0.80419002446E+02 0. -1.
<mgrwt>
<rscale>  0 0.82846184E+02</rscale>
<asrwt>0</asrwt>
<pdfrwt beam="1">  1        1 0.86187867E-01 0.82846184E+02</pdfrwt>
<pdfrwt beam="2">  1       -1 0.28748242E-01 0.82846184E+02</pdfrwt>
<totfact> 0.43466398E+02</totfact>
</mgrwt>
</event>
<event>
 4    1  0.5097315E-001  0.1068416E+03  0.7546771E-02  0.1266533E+00
          2   -1    0    0  501    0  0.00000000000E+00  0.00000000000E+00  0.28847556466E+04  0.28847556466E+04  0.00000000000E+00 0. -1.
         -2   -1    0    0    0  501 -0.00000000000E+00 -0.00000000000E+00 -0.38898637427E+02  0.38898637427E+02  0.00000000000E+00 0.  1.
         24    1    1    2    0    0 -0.18208463329E+02  0.67943821641E+02  0.28084080950E+04  0.28104396729E+04  0.80419002446E+02 0. -1.
        -24    1    1    2    0    0  0.18208463329E+02 -0.67943821641E+02  0.37448914121E+02  0.11321461107E+03  0.80419002446E+02 0.  1.
<mgrwt>
<rscale>  0 0.10684160E+03</rscale>
<asrwt>0</asrwt>
<pdfrwt beam="1">  1        2 0.44380839E+00 0.10684160E+03</pdfrwt>
<pdfrwt beam="2">  1       -2 0.59844080E-02 0.10684160E+03</pdfrwt>
<totfact> 0.38611394E+02</totfact>
</mgrwt>
</event>
<event>
 4    1  0.5097315E-001  0.8324739E+02  0.7546771E-02  0.1320080E+00
         -3   -1    0    0    0  501 -0.00000000000E+00  0.00000000000E+00  0.14109944013E+02  0.14109944013E+02  0.00000000000E+00 0.  1.
          3   -1    0    0  501    0  0.00000000000E+00 -0.00000000000E+00 -0.73438768710E+03  0.73438768710E+03  0.00000000000E+00 0. -1.
         24    1    1    2    0    0  0.75925957801E+01 -0.20131165547E+02 -0.14475589037E+03  0.16698621227E+03  0.80419002446E+02 0.  1.
        -24    1    1    2    0    0 -0.75925957801E+01  0.20131165547E+02 -0.57552185271E+03  0.58151141884E+03  0.80419002446E+02 0.  0.
<mgrwt>
<rscale>  0 0.83247386E+02</rscale>
<asrwt>0</asrwt>
<pdfrwt beam="1">  1        3 0.11298274E+00 0.83247386E+02</pdfrwt>
<pdfrwt beam="2">  1       -3 0.21707603E-02 0.83247386E+02</pdfrwt>
<totfact> 0.12126067E+03</totfact>
</mgrwt>
</event>
<event>
 4    1  0.5097315E-001  0.9400236E+02  0.7546771E-02  0.1293439E+00
         -2   -1    0    0    0  501 -0.00000000000E+00  0.00000000000E+00  0.82123634009E+01  0.82123634009E+01  0.00000000000E+00 0.  1.
          2   -1    0    0  501    0  0.00000000000E+00 -0.00000000000E+00 -0.18593436864E+04  0.18593436864E+04  0.00000000000E+00 0. -1.
         24    1    1    2    0    0 -0.33555107056E+02  0.35260209823E+02 -0.15316624645E+04  0.15345443456E+04  0.80419002446E+02 0. -1.
        -24    1    1    2    0    0  0.33555107056E+02 -0.35260209823E+02 -0.31946885849E+03  0.33301170415E+03  0.80419002446E+02 0.  1.
<mgrwt>
<rscale>  0 0.94002359E+02</rscale>
<asrwt>0</asrwt>
<pdfrwt beam="1">  1        2 0.28605275E+00 0.94002359E+02</pdfrwt>
<pdfrwt beam="2">  1       -2 0.12634411E-02 0.94002359E+02</pdfrwt>
<totfact> 0.12828821E+04</totfact>
</mgrwt>
</event>
<event>
 4    1  0.5097315E-001  0.1127675E+03  0.7546771E-02  0.1255529E+00
         -2   -1    0    0    0  501 -0.00000000000E+00  0.00000000000E+00  0.12163532796E+02  0.12163532796E+02  0.00000000000E+00 0.  1.
          2   -1    0    0  501    0  0.00000000000E+00 -0.00000000000E+00 -0.10730313104E+04  0.10730313104E+04  0.00000000000E+00 0. -1.
         24    1    1    2    0    0  0.71877553383E+02  0.32907689985E+02 -0.61740645744E+03  0.62762030590E+03  0.80419002446E+02 0. -1.
        -24    1    1    2    0    0 -0.71877553383E+02 -0.32907689985E+02 -0.44346132012E+03  0.45757453725E+03  0.80419002446E+02 0.  1.
<mgrwt>
<rscale>  0 0.11276753E+03</rscale>
<asrwt>0</asrwt>
<pdfrwt beam="1">  1        2 0.16508173E+00 0.11276753E+03</pdfrwt>
<pdfrwt beam="2">  1       -2 0.18713129E-02 0.11276753E+03</pdfrwt>
<totfact> 0.19063800E+04</totfact>
</mgrwt>
</event>
<event>
 4    1  0.5097315E-001  0.8793226E+02  0.7546771E-02  0.1307938E+00
         -2   -1    0    0    0  501 -0.00000000000E+00  0.00000000000E+00  0.18729174036E+03  0.18729174036E+03  0.00000000000E+00 0.  1.
          2   -1    0    0  501    0  0.00000000000E+00 -0.00000000000E+00 -0.45938572541E+02  0.45938572541E+02  0.00000000000E+00 0. -1.
         24    1    1    2    0    0  0.27171643399E+02  0.22947062350E+02  0.33555240673E+02  0.94117139812E+02  0.80419002446E+02 0.  0.
        -24    1    1    2    0    0 -0.27171643399E+02 -0.22947062350E+02  0.10779792715E+03  0.13911317309E+03  0.80419002446E+02 0. -1.
<mgrwt>
<rscale>  0 0.87932257E+02</rscale>
<asrwt>0</asrwt>
<pdfrwt beam="1">  1        2 0.70674728E-02 0.87932257E+02</pdfrwt>
<pdfrwt beam="2">  1       -2 0.28814113E-01 0.87932257E+02</pdfrwt>
<totfact> 0.98731938E+03</totfact>
</mgrwt>
</event>
<event>
 4    1  0.5097315E-001  0.1322516E+03  0.7546771E-02  0.1224153E+00
          1   -1    0    0  501    0  0.00000000000E+00  0.00000000000E+00  0.80275388821E+03  0.80275388821E+03  0.00000000000E+00 0. -1.
         -1   -1    0    0    0  501 -0.00000000000E+00 -0.00000000000E+00 -0.24132520879E+02  0.24132520879E+02  0.00000000000E+00 0.  1.
         24    1    1    2    0    0  0.52159025229E+02 -0.91119164178E+02  0.26044647588E+03  0.29210075102E+03  0.80419002446E+02 0.  1.
        -24    1    1    2    0    0 -0.52159025229E+02  0.91119164178E+02  0.51817489145E+03  0.53478565807E+03  0.80419002446E+02 0.  0.
<mgrwt>
<rscale>  0 0.13225159E+03</rscale>
<asrwt>0</asrwt>
<pdfrwt beam="1">  1        1 0.12350058E+00 0.13225159E+03</pdfrwt>
<pdfrwt beam="2">  1       -1 0.37126961E-02 0.13225159E+03</pdfrwt>
<totfact> 0.60935169E+03</totfact>
</mgrwt>
</event>
<event>
 4    1  0.5097315E-001  0.8644729E+02  0.7546771E-02  0.1311691E+00
          3   -1    0    0  501    0  0.00000000000E+00  0.00000000000E+00  0.15571892290E+04  0.15571892290E+04  0.00000000000E+00 0. -1.
         -3   -1    0    0    0  501 -0.00000000000E+00 -0.00000000000E+00 -0.26566352139E+02  0.26566352139E+02  0.00000000000E+00 0.  1.
         24    1    1    2    0    0 -0.18054007546E+02  0.26076251530E+02  0.48518315677E+02  0.99132038176E+02  0.80419002446E+02 0.  1.
        -24    1    1    2    0    0  0.18054007546E+02 -0.26076251530E+02  0.14821045612E+04  0.14846235430E+04  0.80419002446E+02 0. -1.
<mgrwt>
<rscale>  0 0.86447291E+02</rscale>
<asrwt>0</asrwt>
<pdfrwt beam="1">  1        3 0.23956750E+00 0.86447291E+02</pdfrwt>
<pdfrwt beam="2">  1       -3 0.40871323E-02 0.86447291E+02</pdfrwt>
<totfact> 0.68077040E+01</totfact>
</mgrwt>
</event>
<event>
 4    1  0.5097315E-001  0.1005709E+03  0.7546771E-02  0.1279100E+00
         -1   -1    0    0    0  501 -0.00000000000E+00  0.00000000000E+00  0.14483968387E+02  0.14483968387E+02  0.00000000000E+00 0.  1.
          1   -1    0    0  501    0  0.00000000000E+00 -0.00000000000E+00 -0.12826717924E+04  0.12826717924E+04  0.00000000000E+00 0. -1.
         24    1    1    2    0    0 -0.80905383497E+01  0.59848372815E+02 -0.19632983294E+03  0.22058989958E+03  0.80419002446E+02 0.  1.
        -24    1    1    2    0    0  0.80905383497E+01 -0.59848372815E+02 -0.10718579911E+04  0.10765658612E+04  0.80419002446E+02 0. -1.
<mgrwt>
<rscale>  0 0.10057087E+03</rscale>
<asrwt>0</asrwt>
<pdfrwt beam="1">  1        1 0.19733415E+00 0.10057087E+03</pdfrwt>
<pdfrwt beam="2">  1       -1 0.22283025E-02 0.10057087E+03</pdfrwt>
<totfact> 0.56718756E+03</totfact>
</mgrwt>
</event>
<event>
 4    1  0.5097315E-001  0.1244962E+03  0.7546771E-02  0.1235859E+00
         -2   -1    0    0    0  501 -0.00000000000E+00  0.00000000000E+00  0.34343949379E+02  0.34343949379E+02  0.00000000000E+00 0.  1.
          2   -1    0    0  501    0  0.00000000000E+00 -0.00000000000E+00 -0.15397781344E+04  0.15397781344E+04  0.00000000000E+00 0. -1.
         24    1    1    2    0    0 -0.83161151683E+02 -0.46003275635E+02 -0.14144609994E+04  0.14199292986E+04  0.80419002446E+02 0. -1.
        -24    1    1    2    0    0  0.83161151683E+02  0.46003275635E+02 -0.90973185646E+02  0.15419278511E+03  0.80419002446E+02 0.  1.
<mgrwt>
<rscale>  0 0.12449616E+03</rscale>
<asrwt>0</asrwt>
<pdfrwt beam="1">  1        2 0.23688900E+00 0.12449616E+03</pdfrwt>
<pdfrwt beam="2">  1       -2 0.52836832E-02 0.12449616E+03</pdfrwt>
<totfact> 0.23366860E+03</totfact>
</mgrwt>
</event>
<event>
 4    1  0.5097315E-001  0.1033701E+03  0.7546771E-02  0.1273365E+00
         -2   -1    0    0    0  501 -0.00000000000E+00  0.00000000000E+00  0.77138124006E+01  0.77138124006E+01  0.00000000000E+00 0.  1.
          2   -1    0    0  501    0  0.00000000000E+00 -0.00000000000E+00 -0.15805230893E+04  0.15805230893E+04  0.00000000000E+00 0. -1.
         24    1    1    2    0    0  0.62129401275E+02  0.18923470235E+02 -0.10655512513E+04  0.10705535229E+04  0.80419002446E+02 0. -1.
        -24    1    1    2    0    0 -0.62129401275E+02 -0.18923470235E+02 -0.50725802564E+03  0.51768337887E+03  0.80419002446E+02 0.  1.
<mgrwt>
<rscale>  0 0.10337009E+03</rscale>
<asrwt>0</asrwt>
<pdfrwt beam="1">  1        2 0.24315744E+00 0.10337009E+03</pdfrwt>
<pdfrwt beam="2">  1       -2 0.11867402E-02 0.10337009E+03</pdfrwt>
<totfact> 0.19500566E+04</totfact>
</mgrwt>
</event>
<event>
 4    1  0.5097315E-001  0.8568770E+02  0.7546771E-02  0.1313644E+00
         -1   -1    0    0    0  501 -0.00000000000E+00  0.00000000000E+00  0.75460675772E+02  0.75460675772E+02  0.00000000000E+00 0.  1.
          1   -1    0    0  501    0  0.00000000000E+00 -0.00000000000E+00 -0.42261806742E+03  0.42261806742E+03  0.00000000000E+00 0. -1.
         24    1    1    2    0    0 -0.29512606479E+02 -0.20427289383E+01  0.44919347884E+02  0.96747767165E+02  0.80419002446E+02 0.  1.
        -24    1    1    2    0    0  0.29512606479E+02  0.20427289383E+01 -0.39207673953E+03  0.40133097603E+03  0.80419002446E+02 0. -1.
<mgrwt>
<rscale>  0 0.85687704E+02</rscale>
<asrwt>0</asrwt>
<pdfrwt beam="1">  1        1 0.65018165E-01 0.85687704E+02</pdfrwt>
<pdfrwt beam="2">  1       -1 0.11609335E-01 0.85687704E+02</pdfrwt>
<totfact> 0.26022470E+03</totfact>
</mgrwt>
</event>
<event>
 4    1  0.5097315E-001  0.8527600E+02  0.7546771E-02  0.1314712E+00
          1   -1    0    0  501    0  0.00000000000E+00  0.00000000000E+00  0.12216564411E+04  0.12216564411E+04  0.00000000000E+00 0. -1.
         -1   -1    0    0    0  501 -0.00000000000E+00 -0.00000000000E+00 -0.60553443570E+01  0.60553443570E+01  0.00000000000E+00 0.  1.
         24    1    1    2    0    0  0.28061392387E+02 -0.41639275849E+01  0.52782844638E+03  0.53467267071E+03  0.80419002446E+02 0.  1.
        -24    1    1    2    0    0 -0.28061392387E+02  0.41639275849E+01  0.68777265035E+03  0.69303911474E+03  0.80419002446E+02 0. -1.
<mgrwt>
<rscale>  0 0.85275999E+02</rscale>
<asrwt>0</asrwt>
<pdfrwt beam="1">  1        1 0.18794695E+00 0.85275999E+02</pdfrwt>
<pdfrwt beam="2">  1       -1 0.93159241E-03 0.85275999E+02</pdfrwt>
<totfact> 0.21245510E+04</totfact>
</mgrwt>
</event>
<event>
 4    1  0.5097315E-001  0.9336949E+02  0.7546771E-02  0.1294891E+00
         -2   -1    0    0    0  501 -0.00000000000E+00  0.00000000000E+00  0.61770863598E+02  0.61770863598E+02  0.00000000000E+00 0.  1.
          2   -1    0    0  501    0  0.00000000000E+00 -0.00000000000E+00 -0.16566887061E+03  0.16566887061E+03  0.00000000000E+00 0. -1.
         24    1    1    2    0    0  0.28775488703E+02  0.37717588974E+02 -0.95713629817E+02  0.13371222889E+03  0.80419002446E+02 0.  0.
        -24    1    1    2    0    0 -0.28775488703E+02 -0.37717588974E+02 -0.81843771925E+01  0.93727505315E+02  0.80419002446E+02 0. -1.
<mgrwt>
<rscale>  0 0.93369488E+02</rscale>
<asrwt>0</asrwt>
<pdfrwt beam="1">  1        2 0.25487518E-01 0.93369488E+02</pdfrwt>
<pdfrwt beam="2">  1       -2 0.95032099E-02 0.93369488E+02</pdfrwt>
<totfact> 0.13691678E+04</totfact>
</mgrwt>
</event>
<event>
 4    1  0.5097315E-001  0.1041692E+03  0.7546771E-02  0.1271765E+00
          2   -1    0    0  501    0  0.00000000000E+00  0.00000000000E+00  0.62067453431E+03  0.62067453431E+03  0.00000000000E+00 0. -1.
         -2   -1    0    0    0  501 -0.00000000000E+00 -0.00000000000E+00 -0.17943144776E+02  0.17943144776E+02  0.00000000000E+00 0.  1.
         24    1    1    2    0    0  0.34180487815E+02  0.56707236038E+02  0.35250143445E+03  0.36757107287E+03  0.80419002446E+02 0.  0.
        -24    1    1    2    0    0 -0.34180487815E+02 -0.56707236038E+02  0.25022995508E+03  0.27104660621E+03  0.80419002446E+02 0.  0.
<mgrwt>
<rscale>  0 0.10416925E+03</rscale>
<asrwt>0</asrwt>
<pdfrwt beam="1">  1        2 0.95488374E-01 0.10416925E+03</pdfrwt>
<pdfrwt beam="2">  1       -2 0.27604843E-02 0.10416925E+03</pdfrwt>
<totfact> 0.21404847E+04</totfact>
</mgrwt>
</event>
<event>
 4    1  0.5097315E-001  0.8897118E+02  0.7546771E-02  0.1305362E+00
         -1   -1    0    0    0  501 -0.00000000000E+00  0.00000000000E+00  0.12066958109E+03  0.12066958109E+03  0.00000000000E+00 0.  1.
          1   -1    0    0  501    0  0.00000000000E+00 -0.00000000000E+00 -0.14539851680E+03  0.14539851680E+03  0.00000000000E+00 0. -1.
         24    1    1    2    0    0  0.70123830277E+01 -0.37409633136E+02  0.86191166441E+02  0.12387407838E+03  0.80419002446E+02 0.  1.
        -24    1    1    2    0    0 -0.70123830277E+01  0.37409633136E+02 -0.11092010216E+03  0.14219401951E+03  0.80419002446E+02 0. -1.
<mgrwt>
<rscale>  0 0.88971176E+02</rscale>
<asrwt>0</asrwt>
<pdfrwt beam="1">  1        1 0.22369003E-01 0.88971176E+02</pdfrwt>
<pdfrwt beam="2">  1       -1 0.18564551E-01 0.88971176E+02</pdfrwt>
<totfact> 0.46766677E+03</totfact>
</mgrwt>
</event>
<event>
 4    1  0.5097315E-001  0.1711094E+03  0.7546771E-02  0.1176696E+00
          1   -1    0    0  501    0  0.00000000000E+00  0.00000000000E+00  0.25736232510E+04  0.25736232510E+04  0.00000000000E+00 0. -1.
         -1   -1    0    0    0  501 -0.00000000000E+00 -0.00000000000E+00 -0.24852563587E+02  0.24852563587E+02  0.00000000000E+00 0.  1.
         24    1    1    2    0    0  0.14797663753E+03 -0.30234702725E+02  0.31766054357E+03  0.36081388471E+03  0.80419002446E+02 0.  1.
        -24    1    1    2    0    0 -0.14797663753E+03  0.30234702725E+02  0.22311101439E+04  0.22376619299E+04  0.80419002446E+02 0. -1.
<mgrwt>
<rscale>  0 0.17110943E+03</rscale>
<asrwt>0</asrwt>
<pdfrwt beam="1">  1        1 0.39594183E+00 0.17110943E+03</pdfrwt>
<pdfrwt beam="2">  1       -1 0.38234734E-02 0.17110943E+03</pdfrwt>
<totfact> 0.38121962E+02</totfact>
</mgrwt>
</event>
<event>
 4    1  0.5097315E-001  0.8075177E+02  0.7546771E-02  0.1326931E+00
          2   -1    0    0  501    0  0.00000000000E+00  0.00000000000E+00  0.32610061306E+02  0.32610061306E+02  0.00000000000E+00 0. -1.
         -2   -1    0    0    0  501 -0.00000000000E+00 -0.00000000000E+00 -0.21859951342E+03  0.21859951342E+03  0.00000000000E+00 0.  1.
         24    1    1    2    0    0  0.72906566382E+01  0.69132085446E+00 -0.56321512154E+02  0.98452832790E+02  0.80419002446E+02 0. -1.
        -24    1    1    2    0    0 -0.72906566382E+01 -0.69132085446E+00 -0.12966793996E+03  0.15275674193E+03  0.80419002446E+02 0.  0.
<mgrwt>
<rscale>  0 0.80751765E+02</rscale>
<asrwt>0</asrwt>
<pdfrwt beam="1">  1        2 0.50169327E-02 0.80751765E+02</pdfrwt>
<pdfrwt beam="2">  1       -2 0.33630693E-01 0.80751765E+02</pdfrwt>
<totfact> 0.11459789E+04</totfact>
</mgrwt>
</event>
<event>
 4    1  0.5097315E-001  0.8109364E+02  0.7546771E-02  0.1325976E+00
         -2   -1    0    0    0  501 -0.00000000000E+00  0.00000000000E+00  0.22205160331E+02  0.22205160331E+02  0.00000000000E+00 0.  1.
          2   -1    0    0  501    0  0.00000000000E+00 -0.00000000000E+00 -0.29616162066E+03  0.29616162066E+03  0.00000000000E+00 0. -1.
         24    1    1    2    0    0  0.64732781207E+01 -0.81887842305E+01 -0.13624167215E+03  0.15854957806E+03  0.80419002446E+02 0. -1.
        -24    1    1    2    0    0 -0.64732781207E+01  0.81887842305E+01 -0.13771478817E+03  0.15981720293E+03  0.80419002446E+02 0.  1.
<mgrwt>
<rscale>  0 0.81093632E+02</rscale>
<asrwt>0</asrwt>
<pdfrwt beam="1">  1        2 0.45563326E-01 0.81093642E+02</pdfrwt>
<pdfrwt beam="2">  1       -2 0.34161785E-02 0.81093642E+02</pdfrwt>
<totfact> 0.33692738E+04</totfact>
</mgrwt>
</event>
<event>
 4    1  0.5097315E-001  0.8199299E+02  0.7546771E-02  0.1323489E+00
         -2   -1    0    0    0  501 -0.00000000000E+00  0.00000000000E+00  0.23898624224E+02  0.23898624224E+02  0.00000000000E+00 0.  1.
          2   -1    0    0  501    0  0.00000000000E+00 -0.00000000000E+00 -0.21825351908E+04  0.21825351908E+04  0.00000000000E+00 0. -1.
         24    1    1    2    0    0  0.15981625668E+02 -0.47052759936E+00 -0.21089867362E+04  0.21105799921E+04  0.80419002446E+02 0. -1.
        -24    1    1    2    0    0 -0.15981625668E+02  0.47052759936E+00 -0.49649830404E+02  0.95853822922E+02  0.80419002446E+02 0.  1.
<mgrwt>
<rscale>  0 0.81992986E+02</rscale>
<asrwt>0</asrwt>
<pdfrwt beam="1">  1        2 0.33577472E+00 0.81992986E+02</pdfrwt>
<pdfrwt beam="2">  1       -2 0.36767106E-02 0.81992986E+02</pdfrwt>
<totfact> 0.18916337E+03</totfact>
</mgrwt>
</event>
<event>
 4    1  0.5097315E-001  0.1340486E+03  0.7546771E-02  0.1221569E+00
         -2   -1    0    0    0  501 -0.00000000000E+00  0.00000000000E+00  0.22335917229E+03  0.22335917229E+03  0.00000000000E+00 0.  1.
          2   -1    0    0  501    0  0.00000000000E+00 -0.00000000000E+00 -0.80449565281E+02  0.80449565281E+02  0.00000000000E+00 0. -1.
         24    1    1    2    0    0 -0.88863912738E+02  0.60041821173E+02  0.71842552472E+02  0.15208676332E+03  0.80419002446E+02 0.  1.
        -24    1    1    2    0    0  0.88863912738E+02 -0.60041821173E+02  0.71067054542E+02  0.15172197426E+03  0.80419002446E+02 0. -1.
<mgrwt>
<rscale>  0 0.13404863E+03</rscale>
<asrwt>0</asrwt>
<pdfrwt beam="1">  1        2 0.12376856E-01 0.13404865E+03</pdfrwt>
<pdfrwt beam="2">  1       -2 0.34362949E-01 0.13404865E+03</pdfrwt>
<totfact> 0.37406919E+03</totfact>
</mgrwt>
</event>
<event>
 4    1  0.5097315E-001  0.8713596E+02  0.7546771E-02  0.1309939E+00
         -1   -1    0    0    0  501 -0.00000000000E+00  0.00000000000E+00  0.51825184846E+03  0.51825184846E+03  0.00000000000E+00 0.  1.
          1   -1    0    0  501    0  0.00000000000E+00 -0.00000000000E+00 -0.38174717171E+02  0.38174717171E+02  0.00000000000E+00 0. -1.
         24    1    1    2    0    0  0.59280503025E+01  0.33019964979E+02  0.45843575944E+03  0.46664335563E+03  0.80419002446E+02 0.  1.
        -24    1    1    2    0    0 -0.59280503025E+01 -0.33019964979E+02  0.21641371846E+02  0.89783209997E+02  0.80419002446E+02 0. -1.
<mgrwt>
<rscale>  0 0.87135962E+02</rscale>
<asrwt>0</asrwt>
<pdfrwt beam="1">  1        1 0.58730338E-02 0.87135962E+02</pdfrwt>
<pdfrwt beam="2">  1       -1 0.79731048E-01 0.87135962E+02</pdfrwt>
<totfact> 0.20731544E+03</totfact>
</mgrwt>
</event>
<event>
 4    1  0.5097315E-001  0.9119758E+02  0.7546771E-02  0.1299977E+00
          2   -1    0    0  501    0  0.00000000000E+00  0.00000000000E+00  0.89912210997E+03  0.89912210997E+03  0.00000000000E+00 0. -1.
         -2   -1    0    0    0  501 -0.00000000000E+00 -0.00000000000E+00 -0.17141213565E+02  0.17141213565E+02  0.00000000000E+00 0.  1.
         24    1    1    2    0    0  0.12495720461E+02 -0.41153851997E+02  0.75183107837E+03  0.75734204223E+03  0.80419002446E+02 0. -1.
        -24    1    1    2    0    0 -0.12495720461E+02  0.41153851997E+02  0.13014981803E+03  0.15892128131E+03  0.80419002446E+02 0.  1.
<mgrwt>
<rscale>  0 0.91197580E+02</rscale>
<asrwt>0</asrwt>
<pdfrwt beam="1">  1        2 0.13832644E+00 0.91197580E+02</pdfrwt>
<pdfrwt beam="2">  1       -2 0.26371105E-02 0.91197580E+02</pdfrwt>
<totfact> 0.14496253E+04</totfact>
</mgrwt>
</event>
<event>
 4    1  0.5097315E-001  0.9166143E+02  0.7546771E-02  0.1298877E+00
          2   -1    0    0  501    0  0.00000000000E+00  0.00000000000E+00  0.19250725305E+04  0.19250725305E+04  0.00000000000E+00 0. -1.
         -2   -1    0    0    0  501 -0.00000000000E+00 -0.00000000000E+00 -0.66408736046E+01  0.66408736046E+01  0.00000000000E+00 0.  1.
         24    1    1    2    0    0  0.43923628691E+02  0.23058363369E+01  0.15247122254E+04  0.15274649548E+04  0.80419002446E+02 0. -1.
        -24    1    1    2    0    0 -0.43923628691E+02 -0.23058363369E+01  0.39371943152E+03  0.40424844929E+03  0.80419002446E+02 0.  1.
<mgrwt>
<rscale>  0 0.91661431E+02</rscale>
<asrwt>0</asrwt>
<pdfrwt beam="1">  1        2 0.29616456E+00 0.91661431E+02</pdfrwt>
<pdfrwt beam="2">  1       -2 0.10216744E-02 0.91661431E+02</pdfrwt>
<totfact> 0.16053181E+04</totfact>
</mgrwt>
</event>
<event>
 4    1  0.5097315E-001  0.1026326E+03  0.7546771E-02  0.1274855E+00
          2   -1    0    0  501    0  0.00000000000E+00  0.00000000000E+00  0.23815839024E+03  0.23815839024E+03  0.00000000000E+00 0. -1.
         -2   -1    0    0    0  501 -0.00000000000E+00 -0.00000000000E+00 -0.56658016392E+02  0.56658016392E+02  0.00000000000E+00 0.  1.
         24    1    1    2    0    0 -0.54356033962E+02  0.33341609125E+02  0.15979213391E+03  0.18991309418E+03  0.80419002446E+02 0. -1.
        -24    1    1    2    0    0  0.54356033962E+02 -0.33341609125E+02  0.21708239934E+02  0.10490331245E+03  0.80419002446E+02 0.  1.
<mgrwt>
<rscale>  0 0.10263263E+03</rscale>
<asrwt>0</asrwt>
<pdfrwt beam="1">  1        2 0.36639752E-01 0.10263263E+03</pdfrwt>
<pdfrwt beam="2">  1       -2 0.87166181E-02 0.10263263E+03</pdfrwt>
<totfact> 0.10700051E+04</totfact>
</mgrwt>
</event>
<event>
 4    1  0.5097315E-001  0.8086267E+02  0.7546771E-02  0.1326621E+00
         -1   -1    0    0    0  501 -0.00000000000E+00  0.00000000000E+00  0.36069577762E+03  0.36069577762E+03  0.00000000000E+00 0.  1.
          1   -1    0    0  501    0  0.00000000000E+00 -0.00000000000E+00 -0.26779611054E+02  0.26779611054E+02  0.00000000000E+00 0. -1.
         24    1    1    2    0    0 -0.83656283714E+01  0.12536522979E+01  0.27707525305E+03  0.28863379426E+03  0.80419002446E+02 0.  0.
        -24    1    1    2    0    0  0.83656283714E+01 -0.12536522979E+01  0.56840913512E+02  0.98841594410E+02  0.80419002446E+02 0. -1.
<mgrwt>
<rscale>  0 0.80862670E+02</rscale>
<asrwt>0</asrwt>
<pdfrwt beam="1">  1        1 0.41199404E-02 0.80862670E+02</pdfrwt>
<pdfrwt beam="2">  1       -1 0.55491655E-01 0.80862670E+02</pdfrwt>
<totfact> 0.66803888E+03</totfact>
</mgrwt>
</event>
<event>
 4    1  0.5097315E-001  0.1019623E+03  0.7546771E-02  0.1276223E+00
         -2   -1    0    0    0  501 -0.00000000000E+00  0.00000000000E+00  0.31274527845E+03  0.31274527845E+03  0.00000000000E+00 0.  1.
          2   -1    0    0  501    0  0.00000000000E+00 -0.00000000000E+00 -0.33453800282E+02  0.33453800282E+02  0.00000000000E+00 0. -1.
         24    1    1    2    0    0  0.48552176081E+02 -0.39645627099E+02  0.12587529151E+03  0.16199041489E+03  0.80419002446E+02 0. -1.
        -24    1    1    2    0    0 -0.48552176081E+02  0.39645627099E+02  0.15341618666E+03  0.18420866384E+03  0.80419002446E+02 0.  1.
<mgrwt>
<rscale>  0 0.10196227E+03</rscale>
<asrwt>0</asrwt>
<pdfrwt beam="1">  1        2 0.51467387E-02 0.10196227E+03</pdfrwt>
<pdfrwt beam="2">  1       -2 0.48114656E-01 0.10196227E+03</pdfrwt>
<totfact> 0.57913322E+03</totfact>
</mgrwt>
</event>
<event>
 4    1  0.5097315E-001  0.8252133E+02  0.7546771E-02  0.1322045E+00
          2   -1    0    0  501    0  0.00000000000E+00  0.00000000000E+00  0.13360358436E+02  0.13360358436E+02  0.00000000000E+00 0. -1.
         -2   -1    0    0    0  501 -0.00000000000E+00 -0.00000000000E+00 -0.51076401442E+03  0.51076401442E+03  0.00000000000E+00 0.  1.
         24    1    1    2    0    0 -0.18222286582E+02 -0.32407836341E+01 -0.23673899168E+03  0.25070923506E+03  0.80419002446E+02 0.  0.
        -24    1    1    2    0    0  0.18222286582E+02  0.32407836341E+01 -0.26066466430E+03  0.27341513779E+03  0.80419002446E+02 0.  1.
<mgrwt>
<rscale>  0 0.82521333E+02</rscale>
<asrwt>0</asrwt>
<pdfrwt beam="1">  1        2 0.20554394E-02 0.82521333E+02</pdfrwt>
<pdfrwt beam="2">  1       -2 0.78579091E-01 0.82521333E+02</pdfrwt>
<totfact> 0.69671973E+03</totfact>
</mgrwt>
</event>
<event>
 4    1  0.5097315E-001  0.9362447E+02  0.7546771E-02  0.1294305E+00
         -2   -1    0    0    0  501 -0.00000000000E+00  0.00000000000E+00  0.33628095656E+02  0.33628095656E+02  0.00000000000E+00 0.  1.
          2   -1    0    0  501    0  0.00000000000E+00 -0.00000000000E+00 -0.26180263282E+03  0.26180263282E+03  0.00000000000E+00 0. -1.
         24    1    1    2    0    0  0.46171046863E+02 -0.12905650990E+02 -0.10433338615E+03  0.14018199890E+03  0.80419002446E+02 0. -1.
        -24    1    1    2    0    0 -0.46171046863E+02  0.12905650990E+02 -0.12384115101E+03  0.15524872957E+03  0.80419002446E+02 0.  0.
<mgrwt>
<rscale>  0 0.93624460E+02</rscale>
<asrwt>0</asrwt>
<pdfrwt beam="1">  1        2 0.40277327E-01 0.93624472E+02</pdfrwt>
<pdfrwt beam="2">  1       -2 0.51735533E-02 0.93624472E+02</pdfrwt>
<totfact> 0.21151487E+04</totfact>
</mgrwt>
</event>
<event>
 4    1  0.5097315E-001  0.1062092E+03  0.7546771E-02  0.1267755E+00
          1   -1    0    0  501    0  0.00000000000E+00  0.00000000000E+00  0.22458651821E+04  0.22458651821E+04  0.00000000000E+00 0. -1.
         -1   -1    0    0    0  501 -0.00000000000E+00 -0.00000000000E+00 -0.12983563223E+02  0.12983563223E+02  0.00000000000E+00 0.  1.
         24    1    1    2    0    0  0.63954646362E+02  0.26888440081E+02  0.23206033095E+03  0.25521049774E+03  0.80419002446E+02 0.  1.
        -24    1    1    2    0    0 -0.63954646362E+02 -0.26888440081E+02  0.20008212880E+04  0.20036382476E+04  0.80419002446E+02 0. -1.
<mgrwt>
<rscale>  0 0.10620923E+03</rscale>
<asrwt>0</asrwt>
<pdfrwt beam="1">  1        1 0.34551741E+00 0.10620923E+03</pdfrwt>
<pdfrwt beam="2">  1       -1 0.19974730E-02 0.10620923E+03</pdfrwt>
<totfact> 0.16187680E+03</totfact>
</mgrwt>
</event>
<event>
 4    1  0.5097315E-001  0.8090056E+02  0.7546771E-02  0.1326515E+00
          1   -1    0    0  501    0  0.00000000000E+00  0.00000000000E+00  0.29260038051E+03  0.29260038051E+03  0.00000000000E+00 0. -1.
         -1   -1    0    0    0  501 -0.00000000000E+00 -0.00000000000E+00 -0.26596423399E+03  0.26596423399E+03  0.00000000000E+00 0.  1.
         24    1    1    2    0    0  0.44631365770E+01 -0.76003270616E+01 -0.25396228407E+03  0.26653656831E+03  0.80419002446E+02 0.  1.
        -24    1    1    2    0    0 -0.44631365770E+01  0.76003270616E+01  0.28059843059E+03  0.29202804619E+03  0.80419002446E+02 0. -1.
<mgrwt>
<rscale>  0 0.80900559E+02</rscale>
<asrwt>0</asrwt>
<pdfrwt beam="1">  1        1 0.45015443E-01 0.80900559E+02</pdfrwt>
<pdfrwt beam="2">  1       -1 0.40917574E-01 0.80900559E+02</pdfrwt>
<totfact> 0.53846262E+02</totfact>
</mgrwt>
</event>
<event>
 4    1  0.5097315E-001  0.1909429E+03  0.7546771E-02  0.1157614E+00
         -2   -1    0    0    0  501 -0.00000000000E+00  0.00000000000E+00  0.32208690039E+02  0.32208690039E+02  0.00000000000E+00 0.  1.
          2   -1    0    0  501    0  0.00000000000E+00 -0.00000000000E+00 -0.13657495933E+04  0.13657495933E+04  0.00000000000E+00 0. -1.
         24    1    1    2    0    0 -0.16322755780E+03  0.57868254178E+02 -0.37757969288E+03  0.42311418187E+03  0.80419002446E+02 0.  0.
        -24    1    1    2    0    0  0.16322755780E+03 -0.57868254178E+02 -0.95596121042E+03  0.97484410151E+03  0.80419002446E+02 0.  0.
<mgrwt>
<rscale>  0 0.19094291E+03</rscale>
<asrwt>0</asrwt>
<pdfrwt beam="1">  1        2 0.21011534E+00 0.19094294E+03</pdfrwt>
<pdfrwt beam="2">  1       -2 0.49551826E-02 0.19094294E+03</pdfrwt>
<totfact> 0.31918146E+03</totfact>
</mgrwt>
</event>
<event>
 4    1  0.5097315E-001  0.1260842E+03  0.7546771E-02  0.1233385E+00
          1   -1    0    0  501    0  0.00000000000E+00  0.00000000000E+00  0.25457212625E+02  0.25457212625E+02  0.00000000000E+00 0. -1.
         -1   -1    0    0    0  501 -0.00000000000E+00 -0.00000000000E+00 -0.81914183411E+03  0.81914183411E+03  0.00000000000E+00 0.  1.
         24    1    1    2    0    0  0.80701602469E+02  0.54011629810E+02 -0.60271302071E+03  0.61575986073E+03  0.80419002446E+02 0.  1.
        -24    1    1    2    0    0 -0.80701602469E+02 -0.54011629810E+02 -0.19097160078E+03  0.22883918601E+03  0.80419002446E+02 0. -1.
<mgrwt>
<rscale>  0 0.12608418E+03</rscale>
<asrwt>0</asrwt>
<pdfrwt beam="1">  1        1 0.39164944E-02 0.12608418E+03</pdfrwt>
<pdfrwt beam="2">  1       -1 0.12602182E+00 0.12608418E+03</pdfrwt>
<totfact> 0.13410275E+03</totfact>
</mgrwt>
</event>
<event>
 4    1  0.5097315E-001  0.8105938E+02  0.7546771E-02  0.1326072E+00
         -2   -1    0    0    0  501 -0.00000000000E+00  0.00000000000E+00  0.96993658503E+02  0.96993658503E+02  0.00000000000E+00 0.  1.
          2   -1    0    0  501    0  0.00000000000E+00 -0.00000000000E+00 -0.12562909644E+03  0.12562909644E+03  0.00000000000E+00 0. -1.
         24    1    1    2    0    0 -0.85304134357E+01 -0.55352188108E+01 -0.89876040196E+02  0.12103026546E+03  0.80419002446E+02 0. -1.
        -24    1    1    2    0    0  0.85304134357E+01  0.55352188108E+01  0.61240602259E+02  0.10159248949E+03  0.80419002446E+02 0.  0.
<mgrwt>
<rscale>  0 0.81059377E+02</rscale>
<asrwt>0</asrwt>
<pdfrwt beam="1">  1        2 0.19327553E-01 0.81059377E+02</pdfrwt>
<pdfrwt beam="2">  1       -2 0.14922101E-01 0.81059377E+02</pdfrwt>
<totfact> 0.89859818E+03</totfact>
</mgrwt>
</event>
<event>
 4    1  0.5097315E-001  0.8667820E+02  0.7546771E-02  0.1311101E+00
         -1   -1    0    0    0  501 -0.00000000000E+00  0.00000000000E+00  0.28457880481E+02  0.28457880481E+02  0.00000000000E+00 0.  1.
          1   -1    0    0  501    0  0.00000000000E+00 -0.00000000000E+00 -0.20647844260E+04  0.20647844260E+04  0.00000000000E+00 0. -1.
         24    1    1    2    0    0 -0.32253388897E+02 -0.23691049207E+01 -0.40741426502E+02  0.95775641691E+02  0.80419002446E+02 0.  1.
        -24    1    1    2    0    0  0.32253388897E+02  0.23691049207E+01 -0.19955851190E+04  0.19974666648E+04  0.80419002446E+02 0. -1.
<mgrwt>
<rscale>  0 0.86678196E+02</rscale>
<asrwt>0</asrwt>
<pdfrwt beam="1">  1        1 0.31765917E+00 0.86678196E+02</pdfrwt>
<pdfrwt beam="2">  1       -1 0.43781350E-02 0.86678196E+02</pdfrwt>
<totfact> 0.68108580E+02</totfact>
</mgrwt>
</event>
<event>
 4    1  0.5097315E-001  0.8812658E+02  0.7546771E-02  0.1307453E+00
         -2   -1    0    0    0  501 -0.00000000000E+00  0.00000000000E+00  0.67238043649E+02  0.67238043649E+02  0.00000000000E+00 0.  1.
          2   -1    0    0  501    0  0.00000000000E+00 -0.00000000000E+00 -0.30957023679E+04  0.30957023679E+04  0.00000000000E+00 0. -1.
         24    1    1    2    0    0  0.13101784938E+02 -0.33577085941E+02 -0.30659186133E+04  0.30671849042E+04  0.80419002446E+02 0. -1.
        -24    1    1    2    0    0 -0.13101784938E+02  0.33577085941E+02  0.37454289006E+02  0.95755507352E+02  0.80419002446E+02 0.  1.
<mgrwt>
<rscale>  0 0.88126576E+02</rscale>
<asrwt>0</asrwt>
<pdfrwt beam="1">  1        2 0.47626189E+00 0.88126576E+02</pdfrwt>
<pdfrwt beam="2">  1       -2 0.10344315E-01 0.88126576E+02</pdfrwt>
<totfact> 0.12877431E+02</totfact>
</mgrwt>
</event>
<event>
 4    1  0.5097315E-001  0.8501834E+02  0.7546771E-02  0.1315385E+00
         -1   -1    0    0    0  501 -0.00000000000E+00  0.00000000000E+00  0.15722591421E+02  0.15722591421E+02  0.00000000000E+00 0.  1.
          1   -1    0    0  501    0  0.00000000000E+00 -0.00000000000E+00 -0.48027036310E+03  0.48027036310E+03  0.00000000000E+00 0. -1.
         24    1    1    2    0    0 -0.27461267411E+02  0.26040808192E+01 -0.18098469171E+03  0.19995893837E+03  0.80419002446E+02 0. -1.
        -24    1    1    2    0    0  0.27461267411E+02 -0.26040808192E+01 -0.28356307997E+03  0.29603401615E+03  0.80419002446E+02 0.  1.
<mgrwt>
<rscale>  0 0.85018342E+02</rscale>
<asrwt>0</asrwt>
<pdfrwt beam="1">  1        1 0.73887740E-01 0.85018342E+02</pdfrwt>
<pdfrwt beam="2">  1       -1 0.24188605E-02 0.85018342E+02</pdfrwt>
<totfact> 0.22122728E+04</totfact>
</mgrwt>
</event>
<event>
 4    1  0.5097315E-001  0.9297497E+02  0.7546771E-02  0.1295803E+00
          1   -1    0    0  501    0  0.00000000000E+00  0.00000000000E+00  0.31672511965E+03  0.31672511965E+03  0.00000000000E+00 0. -1.
         -1   -1    0    0    0  501 -0.00000000000E+00 -0.00000000000E+00 -0.71792926918E+02  0.71792926918E+02  0.00000000000E+00 0.  1.
         24    1    1    2    0    0 -0.13412752760E+02  0.44690353312E+02 -0.30473707980E+02  0.97841670305E+02  0.80419002446E+02 0.  1.
        -24    1    1    2    0    0  0.13412752760E+02 -0.44690353312E+02  0.27540590071E+03  0.29067637626E+03  0.80419002446E+02 0. -1.
<mgrwt>
<rscale>  0 0.92974973E+02</rscale>
<asrwt>0</asrwt>
<pdfrwt beam="1">  1        1 0.48726941E-01 0.92974973E+02</pdfrwt>
<pdfrwt beam="2">  1       -1 0.11045066E-01 0.92974973E+02</pdfrwt>
<totfact> 0.40245314E+03</totfact>
</mgrwt>
</event>
<event>
 4    1  0.5097315E-001  0.9069336E+02  0.7546771E-02  0.1301181E+00
         -2   -1    0    0    0  501 -0.00000000000E+00  0.00000000000E+00  0.30530220315E+01  0.30530220315E+01  0.00000000000E+00 0.  1.
          2   -1    0    0  501    0  0.00000000000E+00 -0.00000000000E+00 -0.26944446898E+04  0.26944446898E+04  0.00000000000E+00 0. -1.
         24    1    1    2    0    0 -0.33886402382E+02  0.24693737636E+02 -0.13599135117E+04  0.13629343506E+04  0.80419002446E+02 0.  1.
        -24    1    1    2    0    0  0.33886402382E+02 -0.24693737636E+02 -0.13314781561E+04  0.13345633612E+04  0.80419002446E+02 0. -1.
<mgrwt>
<rscale>  0 0.90693356E+02</rscale>
<asrwt>0</asrwt>
<pdfrwt beam="1">  1        2 0.41453243E+00 0.90693356E+02</pdfrwt>
<pdfrwt beam="2">  1       -2 0.46969289E-03 0.90693356E+02</pdfrwt>
<totfact> 0.19203088E+04</totfact>
</mgrwt>
</event>
<event>
 4    1  0.5097315E-001  0.8278579E+02  0.7546771E-02  0.1321327E+00
         -2   -1    0    0    0  501 -0.00000000000E+00  0.00000000000E+00  0.87183292185E+01  0.87183292185E+01  0.00000000000E+00 0.  1.
          2   -1    0    0  501    0  0.00000000000E+00 -0.00000000000E+00 -0.10537274598E+04  0.10537274598E+04  0.00000000000E+00 0. -1.
         24    1    1    2    0    0  0.53058380285E+01 -0.18924017435E+02 -0.79022236899E+03  0.79454696447E+03  0.80419002446E+02 0.  0.
        -24    1    1    2    0    0 -0.53058380285E+01  0.18924017435E+02 -0.25478676155E+03  0.26789882450E+03  0.80419002446E+02 0.  0.
<mgrwt>
<rscale>  0 0.82785786E+02</rscale>
<asrwt>0</asrwt>
<pdfrwt beam="1">  1        2 0.16211190E+00 0.82785786E+02</pdfrwt>
<pdfrwt beam="2">  1       -2 0.13412816E-02 0.82785786E+02</pdfrwt>
<totfact> 0.30657531E+04</totfact>
</mgrwt>
</event>
<event>
 4    1  0.5097315E-001  0.1108458E+03  0.7546771E-02  0.1259012E+00
         -3   -1    0    0    0  501 -0.00000000000E+00  0.00000000000E+00  0.13718029395E+03  0.13718029395E+03  0.00000000000E+00 0.  1.
          3   -1    0    0  501    0  0.00000000000E+00 -0.00000000000E+00 -0.10628270671E+03  0.10628270671E+03  0.00000000000E+00 0. -1.
         24    1    1    2    0    0 -0.54169144233E+02 -0.53714835237E+02  0.63725434819E+02  0.12785822894E+03  0.80419002446E+02 0.  1.
        -24    1    1    2    0    0  0.54169144233E+02  0.53714835237E+02 -0.32827847583E+02  0.11560477171E+03  0.80419002446E+02 0. -1.
<mgrwt>
<rscale>  0 0.11084582E+03</rscale>
<asrwt>0</asrwt>
<pdfrwt beam="1">  1        3 0.16351186E-01 0.11084582E+03</pdfrwt>
<pdfrwt beam="2">  1       -3 0.21104661E-01 0.11084582E+03</pdfrwt>
<totfact> 0.14466577E+03</totfact>
</mgrwt>
</event>
<event>
 4    1  0.5097315E-001  0.8083467E+02  0.7546771E-02  0.1326699E+00
         -2   -1    0    0    0  501 -0.00000000000E+00  0.00000000000E+00  0.11786508812E+03  0.11786508812E+03  0.00000000000E+00 0.  1.
          2   -1    0    0  501    0  0.00000000000E+00 -0.00000000000E+00 -0.63544242237E+02  0.63544242237E+02  0.00000000000E+00 0. -1.
         24    1    1    2    0    0 -0.68164402345E+01  0.45348002990E+01 -0.52356478999E+01  0.81004050729E+02  0.80419002446E+02 0. -1.
        -24    1    1    2    0    0  0.68164402345E+01 -0.45348002990E+01  0.59556493785E+02  0.10040527963E+03  0.80419002446E+02 0.  1.
<mgrwt>
<rscale>  0 0.80834672E+02</rscale>
<asrwt>0</asrwt>
<pdfrwt beam="1">  1        2 0.97760373E-02 0.80834672E+02</pdfrwt>
<pdfrwt beam="2">  1       -2 0.18133090E-01 0.80834672E+02</pdfrwt>
<totfact> 0.14456046E+04</totfact>
</mgrwt>
</event>
<event>
 4    1  0.5097315E-001  0.9432731E+02  0.7546771E-02  0.1292698E+00
          2   -1    0    0  501    0  0.00000000000E+00  0.00000000000E+00  0.25335197696E+02  0.25335197696E+02  0.00000000000E+00 0. -1.
         -2   -1    0    0    0  501 -0.00000000000E+00 -0.00000000000E+00 -0.35137904394E+03  0.35137904394E+03  0.00000000000E+00 0.  1.
         24    1    1    2    0    0 -0.79023789919E+00 -0.49292964728E+02 -0.16731321299E+03  0.19207120566E+03  0.80419002446E+02 0.  0.
        -24    1    1    2    0    0  0.79023789919E+00  0.49292964728E+02 -0.15873063325E+03  0.18464303598E+03  0.80419002446E+02 0.  1.
<mgrwt>
<rscale>  0 0.94327297E+02</rscale>
<asrwt>0</asrwt>
<pdfrwt beam="1">  1        2 0.38977228E-02 0.94327309E+02</pdfrwt>
<pdfrwt beam="2">  1       -2 0.54058313E-01 0.94327309E+02</pdfrwt>
<totfact> 0.65613456E+03</totfact>
</mgrwt>
</event>
<event>
 4    1  0.5097315E-001  0.9571724E+02  0.7546771E-02  0.1289569E+00
         -2   -1    0    0    0  501 -0.00000000000E+00  0.00000000000E+00  0.14218869248E+02  0.14218869248E+02  0.00000000000E+00 0.  1.
          2   -1    0    0  501    0  0.00000000000E+00 -0.00000000000E+00 -0.86244841897E+03  0.86244841897E+03  0.00000000000E+00 0. -1.
         24    1    1    2    0    0  0.96758411941E+00  0.51900276088E+02 -0.64454651655E+03  0.65161491913E+03  0.80419002446E+02 0. -1.
        -24    1    1    2    0    0 -0.96758411941E+00 -0.51900276088E+02 -0.20368303317E+03  0.22505236909E+03  0.80419002446E+02 0.  1.
<mgrwt>
<rscale>  0 0.95717244E+02</rscale>
<asrwt>0</asrwt>
<pdfrwt beam="1">  1        2 0.13268442E+00 0.95717244E+02</pdfrwt>
<pdfrwt beam="2">  1       -2 0.21875175E-02 0.95717244E+02</pdfrwt>
<totfact> 0.20103710E+04</totfact>
</mgrwt>
</event>
<event>
 4    1  0.5097315E-001  0.8664193E+02  0.7546771E-02  0.1311194E+00
         -2   -1    0    0    0  501 -0.00000000000E+00  0.00000000000E+00  0.21206047612E+02  0.21206047612E+02  0.00000000000E+00 0.  1.
          2   -1    0    0  501    0  0.00000000000E+00 -0.00000000000E+00 -0.41320308043E+03  0.41320308043E+03  0.00000000000E+00 0. -1.
         24    1    1    2    0    0 -0.29297554081E+02  0.13463341092E+02 -0.27821890072E+03  0.29139763365E+03  0.80419002446E+02 0. -1.
        -24    1    1    2    0    0  0.29297554081E+02 -0.13463341092E+02 -0.11377813210E+03  0.14301149439E+03  0.80419002446E+02 0.  1.
<mgrwt>
<rscale>  0 0.86641931E+02</rscale>
<asrwt>0</asrwt>
<pdfrwt beam="1">  1        2 0.63569705E-01 0.86641931E+02</pdfrwt>
<pdfrwt beam="2">  1       -2 0.32624688E-02 0.86641931E+02</pdfrwt>
<totfact> 0.25641345E+04</totfact>
</mgrwt>
</event>
<event>
 4    1  0.5097315E-001  0.8372550E+02  0.7546771E-02  0.1318800E+00
         -2   -1    0    0    0  501 -0.00000000000E+00  0.00000000000E+00  0.73378706899E+01  0.73378706899E+01  0.00000000000E+00 0.  1.
          2   -1    0    0  501    0  0.00000000000E+00 -0.00000000000E+00 -0.95745890608E+03  0.95745890608E+03  0.00000000000E+00 0. -1.
         24    1    1    2    0    0  0.56473465115E+01 -0.22602025895E+02 -0.49790048122E+03  0.50489092807E+03  0.80419002446E+02 0.  0.
        -24    1    1    2    0    0 -0.56473465115E+01  0.22602025895E+02 -0.45222055418E+03  0.45990584870E+03  0.80419002446E+02 0. -1.
<mgrwt>
<rscale>  0 0.83725504E+02</rscale>
<asrwt>0</asrwt>
<pdfrwt beam="1">  1        2 0.14730138E+00 0.83725504E+02</pdfrwt>
<pdfrwt beam="2">  1       -2 0.11289031E-02 0.83725504E+02</pdfrwt>
<totfact> 0.44589159E+04</totfact>
</mgrwt>
</event>
<event>
 4    1  0.5097315E-001  0.1485071E+03  0.7546771E-02  0.1202320E+00
         -1   -1    0    0    0  501 -0.00000000000E+00  0.00000000000E+00  0.18843160126E+03  0.18843160126E+03  0.00000000000E+00 0.  1.
          1   -1    0    0  501    0  0.00000000000E+00 -0.00000000000E+00 -0.44047352161E+03  0.44047352161E+03  0.00000000000E+00 0. -1.
         24    1    1    2    0    0 -0.39012758979E+02  0.11859662481E+03  0.14343422830E+03  0.20646488462E+03  0.80419002446E+02 0.  1.
        -24    1    1    2    0    0  0.39012758979E+02 -0.11859662481E+03 -0.39547614865E+03  0.42244023824E+03  0.80419002446E+02 0. -1.
<mgrwt>
<rscale>  0 0.14850714E+03</rscale>
<asrwt>0</asrwt>
<pdfrwt beam="1">  1        1 0.67765157E-01 0.14850714E+03</pdfrwt>
<pdfrwt beam="2">  1       -1 0.28989477E-01 0.14850714E+03</pdfrwt>
<totfact> 0.58351868E+02</totfact>
</mgrwt>
</event>
<event>
 4    1  0.5097315E-001  0.8132342E+02  0.7546771E-02  0.1325337E+00
         -2   -1    0    0    0  501 -0.00000000000E+00  0.00000000000E+00  0.94603995108E+01  0.94603995108E+01  0.00000000000E+00 0.  1.
          2   -1    0    0  501    0  0.00000000000E+00 -0.00000000000E+00 -0.70058741784E+03  0.70058741784E+03  0.00000000000E+00 0. -1.
         24    1    1    2    0    0 -0.38189172294E+01  0.11475870870E+02 -0.32904906421E+03  0.33894952773E+03  0.80419002446E+02 0.  0.
        -24    1    1    2    0    0  0.38189172294E+01 -0.11475870870E+02 -0.36207795412E+03  0.37109828962E+03  0.80419002446E+02 0.  1.
<mgrwt>
<rscale>  0 0.81323412E+02</rscale>
<asrwt>0</asrwt>
<pdfrwt beam="1">  1        2 0.10778269E+00 0.81323422E+02</pdfrwt>
<pdfrwt beam="2">  1       -2 0.14554459E-02 0.81323422E+02</pdfrwt>
<totfact> 0.45525089E+04</totfact>
</mgrwt>
</event>
<event>
 4    1  0.5097315E-001  0.8092365E+02  0.7546771E-02  0.1326451E+00
          3   -1    0    0  501    0  0.00000000000E+00  0.00000000000E+00  0.51338253727E+01  0.51338253727E+01  0.00000000000E+00 0. -1.
         -3   -1    0    0    0  501 -0.00000000000E+00 -0.00000000000E+00 -0.13111967640E+04  0.13111967640E+04  0.00000000000E+00 0.  1.
         24    1    1    2    0    0 -0.10889064517E+01  0.89574254049E+01 -0.76149657965E+03  0.76578435474E+03  0.80419002446E+02 0.  1.
        -24    1    1    2    0    0  0.10889064517E+01 -0.89574254049E+01 -0.54456635896E+03  0.55054623462E+03  0.80419002446E+02 0.  0.
<mgrwt>
<rscale>  0 0.80923650E+02</rscale>
<asrwt>0</asrwt>
<pdfrwt beam="1">  1        3 0.78981938E-03 0.80923650E+02</pdfrwt>
<pdfrwt beam="2">  1       -3 0.20172255E+00 0.80923650E+02</pdfrwt>
<totfact> 0.12897947E+03</totfact>
</mgrwt>
</event>
<event>
 4    1  0.5097315E-001  0.9808034E+02  0.7546771E-02  0.1284385E+00
          4   -1    0    0  501    0  0.00000000000E+00  0.00000000000E+00  0.12356665464E+03  0.12356665464E+03  0.00000000000E+00 0. -1.
         -4   -1    0    0    0  501 -0.00000000000E+00 -0.00000000000E+00 -0.15519403603E+03  0.15519403603E+03  0.00000000000E+00 0.  1.
         24    1    1    2    0    0 -0.48413964508E+02 -0.28436346021E+02  0.82581846588E+02  0.12821667237E+03  0.80419002446E+02 0. -1.
        -24    1    1    2    0    0  0.48413964508E+02  0.28436346021E+02 -0.11420922798E+03  0.15054401830E+03  0.80419002446E+02 0.  1.
<mgrwt>
<rscale>  0 0.98080343E+02</rscale>
<asrwt>0</asrwt>
<pdfrwt beam="1">  1        4 0.19010255E-01 0.98080343E+02</pdfrwt>
<pdfrwt beam="2">  1       -4 0.23876006E-01 0.98080343E+02</pdfrwt>
<totfact> 0.62292993E+02</totfact>
</mgrwt>
</event>
<event>
 4    1  0.5097315E-001  0.8086139E+02  0.7546771E-02  0.1326625E+00
         -1   -1    0    0    0  501 -0.00000000000E+00  0.00000000000E+00  0.32559093623E+02  0.32559093623E+02  0.00000000000E+00 0.  1.
          1   -1    0    0  501    0  0.00000000000E+00 -0.00000000000E+00 -0.20084853197E+03  0.20084853197E+03  0.00000000000E+00 0. -1.
         24    1    1    2    0    0 -0.59533740685E+01  0.59921568203E+01 -0.82789687794E+02  0.11572682042E+03  0.80419002446E+02 0. -1.
        -24    1    1    2    0    0  0.59533740685E+01 -0.59921568203E+01 -0.85499750551E+02  0.11768080517E+03  0.80419002446E+02 0.  0.
<mgrwt>
<rscale>  0 0.80861391E+02</rscale>
<asrwt>0</asrwt>
<pdfrwt beam="1">  1        1 0.30899774E-01 0.80861391E+02</pdfrwt>
<pdfrwt beam="2">  1       -1 0.50090913E-02 0.80861391E+02</pdfrwt>
<totfact> 0.22440783E+04</totfact>
</mgrwt>
</event>
<event>
 4    1  0.5097315E-001  0.1850275E+03  0.7546771E-02  0.1163024E+00
         -2   -1    0    0    0  501 -0.00000000000E+00  0.00000000000E+00  0.20226928223E+03  0.20226928223E+03  0.00000000000E+00 0.  1.
          2   -1    0    0  501    0  0.00000000000E+00 -0.00000000000E+00 -0.17175900593E+03  0.17175900593E+03  0.00000000000E+00 0. -1.
         24    1    1    2    0    0 -0.10795640925E+03  0.12693832428E+03  0.37834393864E+02  0.18885598159E+03  0.80419002446E+02 0.  1.
        -24    1    1    2    0    0  0.10795640925E+03 -0.12693832428E+03 -0.73241175637E+01  0.18517230657E+03  0.80419002446E+02 0. -1.
<mgrwt>
<rscale>  0 0.18502743E+03</rscale>
<asrwt>0</asrwt>
<pdfrwt beam="1">  1        2 0.26424462E-01 0.18502745E+03</pdfrwt>
<pdfrwt beam="2">  1       -2 0.31118351E-01 0.18502745E+03</pdfrwt>
<totfact> 0.19039020E+03</totfact>
</mgrwt>
</event>
<event>
 4    1  0.5097315E-001  0.1247047E+03  0.7546771E-02  0.1235532E+00
          2   -1    0    0  501    0  0.00000000000E+00  0.00000000000E+00  0.12781287043E+04  0.12781287043E+04  0.00000000000E+00 0. -1.
         -2   -1    0    0    0  501 -0.00000000000E+00 -0.00000000000E+00 -0.13389423608E+02  0.13389423608E+02  0.00000000000E+00 0.  1.
         24    1    1    2    0    0  0.79153040705E+02 -0.53092595461E+02  0.43726595641E+03  0.45470073690E+03  0.80419002446E+02 0.  0.
        -24    1    1    2    0    0 -0.79153040705E+02  0.53092595461E+02  0.82747332430E+03  0.83681739103E+03  0.80419002446E+02 0.  1.
<mgrwt>
<rscale>  0 0.12470464E+03</rscale>
<asrwt>0</asrwt>
<pdfrwt beam="1">  1        2 0.19663509E+00 0.12470466E+03</pdfrwt>
<pdfrwt beam="2">  1       -2 0.20599123E-02 0.12470466E+03</pdfrwt>
<totfact> 0.12851433E+04</totfact>
</mgrwt>
</event>
<event>
 4    1  0.5097315E-001  0.8559247E+02  0.7546771E-02  0.1313890E+00
         -2   -1    0    0    0  501 -0.00000000000E+00  0.00000000000E+00  0.23884964041E+03  0.23884964041E+03  0.00000000000E+00 0.  1.
          2   -1    0    0  501    0  0.00000000000E+00 -0.00000000000E+00 -0.95336907968E+02  0.95336907968E+02  0.00000000000E+00 0. -1.
         24    1    1    2    0    0 -0.24136877313E+02  0.16621274977E+02 -0.65857345726E+02  0.10799658128E+03  0.80419002446E+02 0. -1.
        -24    1    1    2    0    0  0.24136877313E+02 -0.16621274977E+02  0.20937007816E+03  0.22618996709E+03  0.80419002446E+02 0.  1.
<mgrwt>
<rscale>  0 0.85592474E+02</rscale>
<asrwt>0</asrwt>
<pdfrwt beam="1">  1        2 0.14667217E-01 0.85592474E+02</pdfrwt>
<pdfrwt beam="2">  1       -2 0.36746098E-01 0.85592474E+02</pdfrwt>
<totfact> 0.26309412E+03</totfact>
</mgrwt>
</event>
<event>
 4    1  0.5097315E-001  0.1087617E+03  0.7546771E-02  0.1262880E+00
          1   -1    0    0  501    0  0.00000000000E+00  0.00000000000E+00  0.10779795587E+04  0.10779795587E+04  0.00000000000E+00 0. -1.
         -1   -1    0    0    0  501 -0.00000000000E+00 -0.00000000000E+00 -0.11839711994E+02  0.11839711994E+02  0.00000000000E+00 0.  1.
         24    1    1    2    0    0  0.71963408966E+02 -0.13533508435E+02  0.38567234428E+03  0.40071468799E+03  0.80419002446E+02 0.  1.
        -24    1    1    2    0    0 -0.71963408966E+02  0.13533508435E+02  0.68046750238E+03  0.68910458266E+03  0.80419002446E+02 0. -1.
<mgrwt>
<rscale>  0 0.10876168E+03</rscale>
<asrwt>0</asrwt>
<pdfrwt beam="1">  1        1 0.16584293E+00 0.10876168E+03</pdfrwt>
<pdfrwt beam="2">  1       -1 0.18214950E-02 0.10876168E+03</pdfrwt>
<totfact> 0.10482051E+04</totfact>
</mgrwt>
</event>
<event>
 4    1  0.5097315E-001  0.9143776E+02  0.7546771E-02  0.1299407E+00
         -2   -1    0    0    0  501 -0.00000000000E+00  0.00000000000E+00  0.52963968469E+01  0.52963968469E+01  0.00000000000E+00 0.  1.
          2   -1    0    0  501    0  0.00000000000E+00 -0.00000000000E+00 -0.15851883708E+04  0.15851883708E+04  0.00000000000E+00 0. -1.
         24    1    1    2    0    0  0.32578683281E+02 -0.28849131934E+02 -0.73865348095E+03  0.74429149122E+03  0.80419002446E+02 0. -1.
        -24    1    1    2    0    0 -0.32578683281E+02  0.28849131934E+02 -0.84123849297E+03  0.84619327640E+03  0.80419002446E+02 0.  0.
<mgrwt>
<rscale>  0 0.91437744E+02</rscale>
<asrwt>0</asrwt>
<pdfrwt beam="1">  1        2 0.24387507E+00 0.91437756E+02</pdfrwt>
<pdfrwt beam="2">  1       -2 0.81483051E-03 0.91437756E+02</pdfrwt>
<totfact> 0.32751825E+04</totfact>
</mgrwt>
</event>
<event>
 4    1  0.5097315E-001  0.1053913E+03  0.7546771E-02  0.1269351E+00
         -2   -1    0    0    0  501 -0.00000000000E+00  0.00000000000E+00  0.91365797837E+01  0.91365797837E+01  0.00000000000E+00 0.  1.
          2   -1    0    0  501    0  0.00000000000E+00 -0.00000000000E+00 -0.14042187938E+04  0.14042187938E+04  0.00000000000E+00 0. -1.
         24    1    1    2    0    0  0.32164421174E+02  0.60046279461E+02 -0.95647186153E+03  0.96226074612E+03  0.80419002446E+02 0. -1.
        -24    1    1    2    0    0 -0.32164421174E+02 -0.60046279461E+02 -0.43861035251E+03  0.45109462749E+03  0.80419002446E+02 0.  1.
<mgrwt>
<rscale>  0 0.10539128E+03</rscale>
<asrwt>0</asrwt>
<pdfrwt beam="1">  1        2 0.21603356E+00 0.10539128E+03</pdfrwt>
<pdfrwt beam="2">  1       -2 0.14056283E-02 0.10539128E+03</pdfrwt>
<totfact> 0.18901880E+04</totfact>
</mgrwt>
</event>
<event>
 4    1  0.5097315E-001  0.9371480E+02  0.7546771E-02  0.1294097E+00
          1   -1    0    0  501    0  0.00000000000E+00  0.00000000000E+00  0.16863381295E+04  0.16863381295E+04  0.00000000000E+00 0. -1.
         -1   -1    0    0    0  501 -0.00000000000E+00 -0.00000000000E+00 -0.17484586265E+02  0.17484586265E+02  0.00000000000E+00 0.  1.
         24    1    1    2    0    0 -0.34273216227E+02 -0.33772685979E+02  0.12057936733E+03  0.15271492216E+03  0.80419002446E+02 0.  1.
        -24    1    1    2    0    0  0.34273216227E+02  0.33772685979E+02  0.15482741759E+04  0.15511077937E+04  0.80419002446E+02 0. -1.
<mgrwt>
<rscale>  0 0.93714799E+02</rscale>
<asrwt>0</asrwt>
<pdfrwt beam="1">  1        1 0.25943651E+00 0.93714799E+02</pdfrwt>
<pdfrwt beam="2">  1       -1 0.26899377E-02 0.93714799E+02</pdfrwt>
<totfact> 0.23767111E+03</totfact>
</mgrwt>
</event>
<event>
 4    1  0.5097315E-001  0.8046643E+02  0.7546771E-02  0.1327733E+00
          2   -1    0    0  501    0  0.00000000000E+00  0.00000000000E+00  0.78914986329E+03  0.78914986329E+03  0.00000000000E+00 0. -1.
         -2   -1    0    0    0  501 -0.00000000000E+00 -0.00000000000E+00 -0.11351879055E+02  0.11351879055E+02  0.00000000000E+00 0.  1.
         24    1    1    2    0    0  0.14362826957E+01 -0.23594183174E+01  0.59964031693E+03  0.60501516956E+03  0.80419002446E+02 0. -1.
        -24    1    1    2    0    0 -0.14362826957E+01  0.23594183174E+01  0.17815766731E+03  0.19548657278E+03  0.80419002446E+02 0.  0.
<mgrwt>
<rscale>  0 0.80466426E+02</rscale>
<asrwt>0</asrwt>
<pdfrwt beam="1">  1        2 0.12140763E+00 0.80466426E+02</pdfrwt>
<pdfrwt beam="2">  1       -2 0.17464436E-02 0.80466426E+02</pdfrwt>
<totfact> 0.30466919E+04</totfact>
</mgrwt>
</event>
<event>
 4    1  0.5097315E-001  0.1106655E+03  0.7546771E-02  0.1259342E+00
          2   -1    0    0  501    0  0.00000000000E+00  0.00000000000E+00  0.29532631377E+03  0.29532631377E+03  0.00000000000E+00 0. -1.
         -2   -1    0    0    0  501 -0.00000000000E+00 -0.00000000000E+00 -0.59096081012E+02  0.59096081012E+02  0.00000000000E+00 0.  1.
         24    1    1    2    0    0  0.75487315712E+02  0.90165118341E+01  0.21489913062E+03  0.24171984738E+03  0.80419002446E+02 0. -1.
        -24    1    1    2    0    0 -0.75487315712E+02 -0.90165118341E+01  0.21331102137E+02  0.11270254741E+03  0.80419002446E+02 0.  1.
<mgrwt>
<rscale>  0 0.11066548E+03</rscale>
<asrwt>0</asrwt>
<pdfrwt beam="1">  1        2 0.45434817E-01 0.11066548E+03</pdfrwt>
<pdfrwt beam="2">  1       -2 0.90917049E-02 0.11066548E+03</pdfrwt>
<totfact> 0.80398513E+03</totfact>
</mgrwt>
</event>
<event>
 4    1  0.5097315E-001  0.9672081E+02  0.7546771E-02  0.1287347E+00
          2   -1    0    0  501    0  0.00000000000E+00  0.00000000000E+00  0.15863468619E+03  0.15863468619E+03  0.00000000000E+00 0. -1.
         -2   -1    0    0    0  501 -0.00000000000E+00 -0.00000000000E+00 -0.59621255285E+02  0.59621255285E+02  0.00000000000E+00 0.  1.
         24    1    1    2    0    0  0.49404879616E+02 -0.21138879302E+02  0.38113607050E+02  0.10395940239E+03  0.80419002446E+02 0. -1.
        -24    1    1    2    0    0 -0.49404879616E+02  0.21138879302E+02  0.60899823859E+02  0.11429653909E+03  0.80419002446E+02 0.  0.
<mgrwt>
<rscale>  0 0.96720797E+02</rscale>
<asrwt>0</asrwt>
<pdfrwt beam="1">  1        2 0.24405336E-01 0.96720809E+02</pdfrwt>
<pdfrwt beam="2">  1       -2 0.91725009E-02 0.96720809E+02</pdfrwt>
<totfact> 0.15217248E+04</totfact>
</mgrwt>
</event>
<event>
 4    1  0.5097315E-001  0.1662160E+03  0.7546771E-02  0.1181852E+00
         -2   -1    0    0    0  501 -0.00000000000E+00  0.00000000000E+00  0.10482689545E+03  0.10482689545E+03  0.00000000000E+00 0.  1.
          2   -1    0    0  501    0  0.00000000000E+00 -0.00000000000E+00 -0.36118599755E+03  0.36118599755E+03  0.00000000000E+00 0. -1.
         24    1    1    2    0    0 -0.76855776618E+02 -0.12350597588E+03 -0.24932140774E+03  0.29964798812E+03  0.80419002446E+02 0. -1.
        -24    1    1    2    0    0  0.76855776618E+02  0.12350597588E+03 -0.70376943635E+01  0.16636490487E+03  0.80419002446E+02 0.  1.
<mgrwt>
<rscale>  0 0.16621598E+03</rscale>
<asrwt>0</asrwt>
<pdfrwt beam="1">  1        2 0.55567076E-01 0.16621598E+03</pdfrwt>
<pdfrwt beam="2">  1       -2 0.16127215E-01 0.16621598E+03</pdfrwt>
<totfact> 0.26547888E+03</totfact>
</mgrwt>
</event>
<event>
 4    1  0.5097315E-001  0.9766966E+02  0.7546771E-02  0.1285274E+00
          3   -1    0    0  501    0  0.00000000000E+00  0.00000000000E+00  0.27423918971E+02  0.27423918971E+02  0.00000000000E+00 0. -1.
         -3   -1    0    0    0  501 -0.00000000000E+00 -0.00000000000E+00 -0.63226750598E+03  0.63226750598E+03  0.00000000000E+00 0.  1.
         24    1    1    2    0    0 -0.45722165457E+02  0.31330991870E+02 -0.52364968316E+03  0.53268034889E+03  0.80419002446E+02 0.  1.
        -24    1    1    2    0    0  0.45722165457E+02 -0.31330991870E+02 -0.81193903848E+02  0.12701107606E+03  0.80419002446E+02 0. -1.
<mgrwt>
<rscale>  0 0.97669665E+02</rscale>
<asrwt>0</asrwt>
<pdfrwt beam="1">  1        3 0.42190646E-02 0.97669665E+02</pdfrwt>
<pdfrwt beam="2">  1       -3 0.97271920E-01 0.97669665E+02</pdfrwt>
<totfact> 0.63213028E+02</totfact>
</mgrwt>
</event>
<event>
 4    1  0.5097315E-001  0.8794460E+02  0.7546771E-02  0.1307907E+00
         -1   -1    0    0    0  501 -0.00000000000E+00  0.00000000000E+00  0.54634190945E+03  0.54634190945E+03  0.00000000000E+00 0.  1.
          1   -1    0    0  501    0  0.00000000000E+00 -0.00000000000E+00 -0.15989969434E+03  0.15989969434E+03  0.00000000000E+00 0. -1.
         24    1    1    2    0    0 -0.27158944263E+02  0.23009295253E+02  0.53034825757E+03  0.53759048186E+03  0.80419002446E+02 0.  1.
        -24    1    1    2    0    0  0.27158944263E+02 -0.23009295253E+02 -0.14390604245E+03  0.16865112193E+03  0.80419002446E+02 0. -1.
<mgrwt>
<rscale>  0 0.87944595E+02</rscale>
<asrwt>0</asrwt>
<pdfrwt beam="1">  1        1 0.24599953E-01 0.87944595E+02</pdfrwt>
<pdfrwt beam="2">  1       -1 0.84052600E-01 0.87944595E+02</pdfrwt>
<totfact> 0.29228739E+02</totfact>
</mgrwt>
</event>
<event>
 4    1  0.5097315E-001  0.8074938E+02  0.7546771E-02  0.1326938E+00
          2   -1    0    0  501    0  0.00000000000E+00  0.00000000000E+00  0.46708772131E+03  0.46708772131E+03  0.00000000000E+00 0. -1.
         -2   -1    0    0    0  501 -0.00000000000E+00 -0.00000000000E+00 -0.52782186578E+02  0.52782186578E+02  0.00000000000E+00 0.  1.
         24    1    1    2    0    0 -0.72286870396E+01 -0.99613528369E+00  0.43007941155E+03  0.43759428972E+03  0.80419002446E+02 0. -1.
        -24    1    1    2    0    0  0.72286870396E+01  0.99613528369E+00 -0.15773876813E+02  0.82275618174E+02  0.80419002446E+02 0.  1.
<mgrwt>
<rscale>  0 0.80749379E+02</rscale>
<asrwt>0</asrwt>
<pdfrwt beam="1">  1        2 0.71859647E-01 0.80749379E+02</pdfrwt>
<pdfrwt beam="2">  1       -2 0.81203367E-02 0.80749379E+02</pdfrwt>
<totfact> 0.57693433E+03</totfact>
</mgrwt>
</event>
<event>
 4    1  0.5097315E-001  0.1598310E+03  0.7546771E-02  0.1188888E+00
         -2   -1    0    0    0  501 -0.00000000000E+00  0.00000000000E+00  0.51917643561E+02  0.51917643561E+02  0.00000000000E+00 0.  1.
          2   -1    0    0  501    0  0.00000000000E+00 -0.00000000000E+00 -0.49585551586E+03  0.49585551586E+03  0.00000000000E+00 0. -1.
         24    1    1    2    0    0 -0.36077157078E+02  0.13333105021E+03 -0.24597070014E+03  0.29333859531E+03  0.80419002446E+02 0.  0.
        -24    1    1    2    0    0  0.36077157078E+02 -0.13333105021E+03 -0.19796717215E+03  0.25443456411E+03  0.80419002446E+02 0.  0.
<mgrwt>
<rscale>  0 0.15983099E+03</rscale>
<asrwt>0</asrwt>
<pdfrwt beam="1">  1        2 0.76285467E-01 0.15983099E+03</pdfrwt>
<pdfrwt beam="2">  1       -2 0.79873294E-02 0.15983099E+03</pdfrwt>
<totfact> 0.57788485E+03</totfact>
</mgrwt>
</event>
<event>
 4    1  0.5097315E-001  0.8965866E+02  0.7546771E-02  0.1303680E+00
          2   -1    0    0  501    0  0.00000000000E+00  0.00000000000E+00  0.22844345697E+04  0.22844345697E+04  0.00000000000E+00 0. -1.
         -2   -1    0    0    0  501 -0.00000000000E+00 -0.00000000000E+00 -0.35285509153E+01  0.35285509153E+01  0.00000000000E+00 0.  1.
         24    1    1    2    0    0  0.39606961769E+02 -0.16577359198E+01  0.12003100450E+04  0.12036539700E+04  0.80419002446E+02 0.  1.
        -24    1    1    2    0    0 -0.39606961769E+02  0.16577359198E+01  0.10805959738E+04  0.10843091506E+04  0.80419002446E+02 0.  0.
<mgrwt>
<rscale>  0 0.89658661E+02</rscale>
<asrwt>0</asrwt>
<pdfrwt beam="1">  1        2 0.35145029E+00 0.89658661E+02</pdfrwt>
<pdfrwt beam="2">  1       -2 0.54285581E-03 0.89658661E+02</pdfrwt>
<totfact> 0.25713962E+04</totfact>
</mgrwt>
</event>
<event>
 4    1  0.5097315E-001  0.9024934E+02  0.7546771E-02  0.1302249E+00
          2   -1    0    0  501    0  0.00000000000E+00  0.00000000000E+00  0.18804466821E+04  0.18804466821E+04  0.00000000000E+00 0. -1.
         -2   -1    0    0    0  501 -0.00000000000E+00 -0.00000000000E+00 -0.48653805109E+01  0.48653805109E+01  0.00000000000E+00 0.  1.
         24    1    1    2    0    0 -0.88543586064E+01  0.39991586046E+02  0.12500840307E+04  0.12533375548E+04  0.80419002446E+02 0.  1.
        -24    1    1    2    0    0  0.88543586064E+01 -0.39991586046E+02  0.62549727088E+03  0.63197450776E+03  0.80419002446E+02 0. -1.
<mgrwt>
<rscale>  0 0.90249336E+02</rscale>
<asrwt>0</asrwt>
<pdfrwt beam="1">  1        2 0.28929891E+00 0.90249336E+02</pdfrwt>
<pdfrwt beam="2">  1       -2 0.74852158E-03 0.90249336E+02</pdfrwt>
<totfact> 0.26202663E+04</totfact>
</mgrwt>
</event>
<event>
 4    1  0.5097315E-001  0.8407933E+02  0.7546771E-02  0.1317858E+00
          1   -1    0    0  501    0  0.00000000000E+00  0.00000000000E+00  0.12290956787E+04  0.12290956787E+04  0.00000000000E+00 0. -1.
         -1   -1    0    0    0  501 -0.00000000000E+00 -0.00000000000E+00 -0.36710429329E+02  0.36710429329E+02  0.00000000000E+00 0.  1.
         24    1    1    2    0    0 -0.21757774325E+02 -0.11345336492E+02  0.14980930125E+02  0.85403522325E+02  0.80419002446E+02 0.  1.
        -24    1    1    2    0    0  0.21757774325E+02  0.11345336492E+02  0.11774043192E+04  0.11804025857E+04  0.80419002446E+02 0. -1.
<mgrwt>
<rscale>  0 0.84079328E+02</rscale>
<asrwt>0</asrwt>
<pdfrwt beam="1">  1        1 0.18909161E+00 0.84079328E+02</pdfrwt>
<pdfrwt beam="2">  1       -1 0.56477593E-02 0.84079328E+02</pdfrwt>
<totfact> 0.15924358E+03</totfact>
</mgrwt>
</event>
<event>
 4    1  0.5097315E-001  0.8252765E+02  0.7546771E-02  0.1322028E+00
          1   -1    0    0  501    0  0.00000000000E+00  0.00000000000E+00  0.44042565061E+03  0.44042565061E+03  0.00000000000E+00 0. -1.
         -1   -1    0    0    0  501 -0.00000000000E+00 -0.00000000000E+00 -0.22899938767E+02  0.22899938767E+02  0.00000000000E+00 0.  1.
         24    1    1    2    0    0  0.18478918784E+02 -0.14581138513E+01  0.76754209938E+02  0.11270324411E+03  0.80419002446E+02 0.  0.
        -24    1    1    2    0    0 -0.18478918784E+02  0.14581138513E+01  0.34077150190E+03  0.35062234526E+03  0.80419002446E+02 0. -1.
<mgrwt>
<rscale>  0 0.82527647E+02</rscale>
<asrwt>0</asrwt>
<pdfrwt beam="1">  1        1 0.67757786E-01 0.82527647E+02</pdfrwt>
<pdfrwt beam="2">  1       -1 0.35230678E-02 0.82527647E+02</pdfrwt>
<totfact> 0.14337204E+04</totfact>
</mgrwt>
</event>
<event>
 4    1  0.5097315E-001  0.8282736E+02  0.7546771E-02  0.1321214E+00
         -2   -1    0    0    0  501 -0.00000000000E+00  0.00000000000E+00  0.16282956909E+02  0.16282956909E+02  0.00000000000E+00 0.  1.
          2   -1    0    0  501    0  0.00000000000E+00 -0.00000000000E+00 -0.16836433332E+04  0.16836433332E+04  0.00000000000E+00 0. -1.
         24    1    1    2    0    0  0.90310807167E+01 -0.17652075011E+02 -0.15696499384E+04  0.15718337384E+04  0.80419002446E+02 0. -1.
        -24    1    1    2    0    0 -0.90310807167E+01  0.17652075011E+02 -0.97710437902E+02  0.12809255170E+03  0.80419002446E+02 0.  1.
<mgrwt>
<rscale>  0 0.82827363E+02</rscale>
<asrwt>0</asrwt>
<pdfrwt beam="1">  1        2 0.25902195E+00 0.82827363E+02</pdfrwt>
<pdfrwt beam="2">  1       -2 0.25050712E-02 0.82827363E+02</pdfrwt>
<totfact> 0.58668047E+03</totfact>
</mgrwt>
</event>
<event>
 4    1  0.5097315E-001  0.8830561E+02  0.7546771E-02  0.1307008E+00
         -1   -1    0    0    0  501 -0.00000000000E+00  0.00000000000E+00  0.10230071508E+02  0.10230071508E+02  0.00000000000E+00 0.  1.
          1   -1    0    0  501    0  0.00000000000E+00 -0.00000000000E+00 -0.76700997556E+03  0.76700997556E+03  0.00000000000E+00 0. -1.
         24    1    1    2    0    0 -0.28099770904E+01 -0.36369887810E+02 -0.34777818378E+03  0.35881408246E+03  0.80419002446E+02 0.  0.
        -24    1    1    2    0    0  0.28099770904E+01  0.36369887810E+02 -0.40900172028E+03  0.41842596461E+03  0.80419002446E+02 0. -1.
<mgrwt>
<rscale>  0 0.88305609E+02</rscale>
<asrwt>0</asrwt>
<pdfrwt beam="1">  1        1 0.11800157E+00 0.88305609E+02</pdfrwt>
<pdfrwt beam="2">  1       -1 0.15738567E-02 0.88305609E+02</pdfrwt>
<totfact> 0.21785225E+04</totfact>
</mgrwt>
</event>
<event>
 4    1  0.5097315E-001  0.8780806E+02  0.7546771E-02  0.1308248E+00
         -3   -1    0    0    0  501 -0.00000000000E+00  0.00000000000E+00  0.38278337609E+03  0.38278337609E+03  0.00000000000E+00 0.  1.
          3   -1    0    0  501    0  0.00000000000E+00 -0.00000000000E+00 -0.20157081358E+02  0.20157081358E+02  0.00000000000E+00 0. -1.
         24    1    1    2    0    0  0.34756213686E+02  0.59194882433E+01  0.17591219825E+03  0.19660964416E+03  0.80419002446E+02 0.  0.
        -24    1    1    2    0    0 -0.34756213686E+02 -0.59194882433E+01  0.18671409649E+03  0.20633081329E+03  0.80419002446E+02 0.  0.
<mgrwt>
<rscale>  0 0.87808044E+02</rscale>
<asrwt>0</asrwt>
<pdfrwt beam="1">  1        3 0.31010897E-02 0.87808055E+02</pdfrwt>
<pdfrwt beam="2">  1       -3 0.58889745E-01 0.87808055E+02</pdfrwt>
<totfact> 0.29031565E+03</totfact>
</mgrwt>
</event>
<event>
 4    1  0.5097315E-001  0.1140655E+03  0.7546771E-02  0.1253221E+00
         -2   -1    0    0    0  501 -0.00000000000E+00  0.00000000000E+00  0.47491507929E+03  0.47491507929E+03  0.00000000000E+00 0.  1.
          2   -1    0    0  501    0  0.00000000000E+00 -0.00000000000E+00 -0.35514908116E+02  0.35514908116E+02  0.00000000000E+00 0. -1.
         24    1    1    2    0    0  0.59057096998E+02  0.55281027984E+02  0.97677623504E+02  0.15017278997E+03  0.80419002446E+02 0. -1.
        -24    1    1    2    0    0 -0.59057096998E+02 -0.55281027984E+02  0.34172254767E+03  0.36025719743E+03  0.80419002446E+02 0.  1.
<mgrwt>
<rscale>  0 0.11406555E+03</rscale>
<asrwt>0</asrwt>
<pdfrwt beam="1">  1        2 0.54638324E-02 0.11406555E+03</pdfrwt>
<pdfrwt beam="2">  1       -2 0.73063854E-01 0.11406555E+03</pdfrwt>
<totfact> 0.23053605E+03</totfact>
</mgrwt>
</event>
<event>
 4    1  0.5097315E-001  0.8727997E+02  0.7546771E-02  0.1309576E+00
          2   -1    0    0  501    0  0.00000000000E+00  0.00000000000E+00  0.18192249916E+04  0.18192249916E+04  0.00000000000E+00 0. -1.
         -2   -1    0    0    0  501 -0.00000000000E+00 -0.00000000000E+00 -0.92316084700E+02  0.92316084700E+02  0.00000000000E+00 0.  1.
         24    1    1    2    0    0 -0.75597295390E+01 -0.33067006077E+02  0.17972969554E+04  0.17994149433E+04  0.80419002446E+02 0. -1.
        -24    1    1    2    0    0  0.75597295390E+01  0.33067006077E+02 -0.70388048416E+02  0.11212613306E+03  0.80419002446E+02 0.  1.
<mgrwt>
<rscale>  0 0.87279965E+02</rscale>
<asrwt>0</asrwt>
<pdfrwt beam="1">  1        2 0.27988074E+00 0.87279965E+02</pdfrwt>
<pdfrwt beam="2">  1       -2 0.14202476E-01 0.87279965E+02</pdfrwt>
<totfact> 0.36785285E+02</totfact>
</mgrwt>
</event>
<event>
 4    1  0.5097315E-001  0.1328996E+03  0.7546771E-02  0.1223216E+00
         -2   -1    0    0    0  501 -0.00000000000E+00  0.00000000000E+00  0.16200825206E+04  0.16200825206E+04  0.00000000000E+00 0.  1.
          2   -1    0    0  501    0  0.00000000000E+00 -0.00000000000E+00 -0.14661342337E+02  0.14661342337E+02  0.00000000000E+00 0. -1.
         24    1    1    2    0    0  0.80299817312E+02 -0.68898727240E+02  0.38882274380E+03  0.41090806433E+03  0.80419002446E+02 0. -1.
        -24    1    1    2    0    0 -0.80299817312E+02  0.68898727240E+02  0.12165984344E+04  0.12238357986E+04  0.80419002446E+02 0.  1.
<mgrwt>
<rscale>  0 0.13289963E+03</rscale>
<asrwt>0</asrwt>
<pdfrwt beam="1">  1        2 0.22555924E-02 0.13289963E+03</pdfrwt>
<pdfrwt beam="2">  1       -2 0.24924332E+00 0.13289963E+03</pdfrwt>
<totfact> 0.33170860E+02</totfact>
</mgrwt>
</event>
<event>
 4    1  0.5097315E-001  0.1073230E+03  0.7546771E-02  0.1265609E+00
         -2   -1    0    0    0  501 -0.00000000000E+00  0.00000000000E+00  0.43883372606E+02  0.43883372606E+02  0.00000000000E+00 0.  1.
          2   -1    0    0  501    0  0.00000000000E+00 -0.00000000000E+00 -0.75936704125E+03  0.75936704125E+03  0.00000000000E+00 0. -1.
         24    1    1    2    0    0 -0.51564461507E+02 -0.48909240316E+02 -0.68262466173E+03  0.69100987854E+03  0.80419002446E+02 0. -1.
        -24    1    1    2    0    0  0.51564461507E+02  0.48909240316E+02 -0.32859006912E+02  0.11224053532E+03  0.80419002446E+02 0.  1.
<mgrwt>
<rscale>  0 0.10732299E+03</rscale>
<asrwt>0</asrwt>
<pdfrwt beam="1">  1        2 0.11682570E+00 0.10732299E+03</pdfrwt>
<pdfrwt beam="2">  1       -2 0.67512880E-02 0.10732299E+03</pdfrwt>
<totfact> 0.44980629E+03</totfact>
</mgrwt>
</event>
<event>
 4    1  0.5097315E-001  0.8163313E+02  0.7546771E-02  0.1324480E+00
          1   -1    0    0  501    0  0.00000000000E+00  0.00000000000E+00  0.20167573472E+03  0.20167573472E+03  0.00000000000E+00 0. -1.
         -1   -1    0    0    0  501 -0.00000000000E+00 -0.00000000000E+00 -0.33756202843E+02  0.33756202843E+02  0.00000000000E+00 0.  1.
         24    1    1    2    0    0  0.11116954678E+02  0.85537026441E+01  0.66849001835E+02  0.10551188327E+03  0.80419002446E+02 0. -1.
        -24    1    1    2    0    0 -0.11116954678E+02 -0.85537026441E+01  0.10107053004E+03  0.12992005429E+03  0.80419002446E+02 0.  0.
<mgrwt>
<rscale>  0 0.81633133E+02</rscale>
<asrwt>0</asrwt>
<pdfrwt beam="1">  1        1 0.31027035E-01 0.81633133E+02</pdfrwt>
<pdfrwt beam="2">  1       -1 0.51932621E-02 0.81633133E+02</pdfrwt>
<totfact> 0.21205351E+04</totfact>
</mgrwt>
</event>
<event>
 4    1  0.5097315E-001  0.8199563E+02  0.7546771E-02  0.1323482E+00
         -1   -1    0    0    0  501 -0.00000000000E+00  0.00000000000E+00  0.59507391563E+02  0.59507391563E+02  0.00000000000E+00 0.  1.
          1   -1    0    0  501    0  0.00000000000E+00 -0.00000000000E+00 -0.14830297040E+03  0.14830297040E+03  0.00000000000E+00 0. -1.
         24    1    1    2    0    0  0.99218725452E+01  0.12554846605E+02  0.63102208924E+01  0.82238084670E+02  0.80419002446E+02 0.  1.
        -24    1    1    2    0    0 -0.99218725452E+01 -0.12554846605E+02 -0.95105799730E+02  0.12557227729E+03  0.80419002446E+02 0. -1.
<mgrwt>
<rscale>  0 0.81995632E+02</rscale>
<asrwt>0</asrwt>
<pdfrwt beam="1">  1        1 0.22815841E-01 0.81995632E+02</pdfrwt>
<pdfrwt beam="2">  1       -1 0.91549835E-02 0.81995632E+02</pdfrwt>
<totfact> 0.13398247E+04</totfact>
</mgrwt>
</event>
<event>
 4    1  0.5097315E-001  0.8328237E+02  0.7546771E-02  0.1319986E+00
          1   -1    0    0  501    0  0.00000000000E+00  0.00000000000E+00  0.40611263161E+02  0.40611263161E+02  0.00000000000E+00 0. -1.
         -1   -1    0    0    0  501 -0.00000000000E+00 -0.00000000000E+00 -0.28202563397E+03  0.28202563397E+03  0.00000000000E+00 0.  1.
         24    1    1    2    0    0 -0.21514483893E+02  0.24214957607E+01 -0.22201988223E+03  0.23712608612E+03  0.80419002446E+02 0.  1.
        -24    1    1    2    0    0  0.21514483893E+02 -0.24214957607E+01 -0.19394488584E+02  0.85510811017E+02  0.80419002446E+02 0. -1.
<mgrwt>
<rscale>  0 0.83282367E+02</rscale>
<asrwt>0</asrwt>
<pdfrwt beam="1">  1        1 0.62478866E-02 0.83282367E+02</pdfrwt>
<pdfrwt beam="2">  1       -1 0.43388559E-01 0.83282367E+02</pdfrwt>
<totfact> 0.59502513E+03</totfact>
</mgrwt>
</event>
<event>
 4    1  0.5097315E-001  0.1007208E+03  0.7546771E-02  0.1278787E+00
          2   -1    0    0  501    0  0.00000000000E+00  0.00000000000E+00  0.30425799256E+03  0.30425799256E+03  0.00000000000E+00 0. -1.
         -2   -1    0    0    0  501 -0.00000000000E+00 -0.00000000000E+00 -0.18782289853E+03  0.18782289853E+03  0.00000000000E+00 0.  1.
         24    1    1    2    0    0 -0.60628638262E+02 -0.12783497842E+01  0.28135327389E+03  0.29883832859E+03  0.80419002446E+02 0. -1.
        -24    1    1    2    0    0  0.60628638262E+02  0.12783497842E+01 -0.16491817986E+03  0.19324256249E+03  0.80419002446E+02 0.  1.
<mgrwt>
<rscale>  0 0.10072081E+03</rscale>
<asrwt>0</asrwt>
<pdfrwt beam="1">  1        2 0.46808922E-01 0.10072081E+03</pdfrwt>
<pdfrwt beam="2">  1       -2 0.28895831E-01 0.10072081E+03</pdfrwt>
<totfact> 0.11551368E+03</totfact>
</mgrwt>
</event>
<event>
 4    1  0.5097315E-001  0.8382658E+02  0.7546771E-02  0.1318530E+00
          3   -1    0    0  501    0  0.00000000000E+00  0.00000000000E+00  0.13038153942E+03  0.13038153942E+03  0.00000000000E+00 0. -1.
         -3   -1    0    0    0  501 -0.00000000000E+00 -0.00000000000E+00 -0.60300714536E+02  0.60300714536E+02  0.00000000000E+00 0.  1.
         24    1    1    2    0    0  0.23570120480E+02 -0.20319746051E+01  0.39656783114E+01  0.83920331619E+02  0.80419002446E+02 0.  1.
        -24    1    1    2    0    0 -0.23570120480E+02  0.20319746051E+01  0.66115146569E+02  0.10676192233E+03  0.80419002446E+02 0. -1.
<mgrwt>
<rscale>  0 0.83826580E+02</rscale>
<asrwt>0</asrwt>
<pdfrwt beam="1">  1        3 0.20058698E-01 0.83826580E+02</pdfrwt>
<pdfrwt beam="2">  1       -3 0.92770330E-02 0.83826580E+02</pdfrwt>
<totfact> 0.38467667E+03</totfact>
</mgrwt>
</event>
<event>
 4    1  0.5097315E-001  0.9514673E+02  0.7546771E-02  0.1290846E+00
          1   -1    0    0  501    0  0.00000000000E+00  0.00000000000E+00  0.18878806491E+04  0.18878806491E+04  0.00000000000E+00 0. -1.
         -1   -1    0    0    0  501 -0.00000000000E+00 -0.00000000000E+00 -0.65549213345E+01  0.65549213345E+01  0.00000000000E+00 0.  1.
         24    1    1    2    0    0 -0.17607737965E+01  0.50819122658E+02  0.44989142732E+03  0.45984257728E+03  0.80419002446E+02 0.  1.
        -24    1    1    2    0    0  0.17607737965E+01 -0.50819122658E+02  0.14314343004E+04  0.14345929931E+04  0.80419002446E+02 0. -1.
<mgrwt>
<rscale>  0 0.95146726E+02</rscale>
<asrwt>0</asrwt>
<pdfrwt beam="1">  1        1 0.29044274E+00 0.95146726E+02</pdfrwt>
<pdfrwt beam="2">  1       -1 0.10084509E-02 0.95146726E+02</pdfrwt>
<totfact> 0.71815502E+03</totfact>
</mgrwt>
</event>
<event>
 4    1  0.5097315E-001  0.9128844E+02  0.7546771E-02  0.1299761E+00
          2   -1    0    0  501    0  0.00000000000E+00  0.00000000000E+00  0.31507731093E+04  0.31507731093E+04  0.00000000000E+00 0. -1.
         -2   -1    0    0    0  501 -0.00000000000E+00 -0.00000000000E+00 -0.76411016732E+01  0.76411016732E+01  0.00000000000E+00 0.  1.
         24    1    1    2    0    0  0.42938347040E+02  0.47604336945E+01  0.28485331015E+04  0.28499955105E+04  0.80419002446E+02 0. -1.
        -24    1    1    2    0    0 -0.42938347040E+02 -0.47604336945E+01  0.29459890605E+03  0.30841870043E+03  0.80419002446E+02 0.  1.
<mgrwt>
<rscale>  0 0.91288440E+02</rscale>
<asrwt>0</asrwt>
<pdfrwt beam="1">  1        2 0.48473329E+00 0.91288440E+02</pdfrwt>
<pdfrwt beam="2">  1       -2 0.11755566E-02 0.91288440E+02</pdfrwt>
<totfact> 0.29210576E+03</totfact>
</mgrwt>
</event>
<event>
 4    1  0.5097315E-001  0.8316684E+02  0.7546771E-02  0.1320297E+00
          2   -1    0    0  501    0  0.00000000000E+00  0.00000000000E+00  0.24654669139E+02  0.24654669139E+02  0.00000000000E+00 0. -1.
         -2   -1    0    0    0  501 -0.00000000000E+00 -0.00000000000E+00 -0.35262568949E+03  0.35262568949E+03  0.00000000000E+00 0.  1.
         24    1    1    2    0    0  0.16684965729E+02  0.13081258518E+02 -0.78697254300E+02  0.11449882617E+03  0.80419002446E+02 0. -1.
        -24    1    1    2    0    0 -0.16684965729E+02 -0.13081258518E+02 -0.24927376605E+03  0.26278153246E+03  0.80419002446E+02 0.  1.
<mgrwt>
<rscale>  0 0.83166841E+02</rscale>
<asrwt>0</asrwt>
<pdfrwt beam="1">  1        2 0.37930261E-02 0.83166841E+02</pdfrwt>
<pdfrwt beam="2">  1       -2 0.54250106E-01 0.83166841E+02</pdfrwt>
<totfact> 0.66658721E+03</totfact>
</mgrwt>
</event>
<event>
 4    1  0.5097315E-001  0.1028914E+03  0.7546771E-02  0.1274331E+00
         -2   -1    0    0    0  501 -0.00000000000E+00  0.00000000000E+00  0.16908951335E+02  0.16908951335E+02  0.00000000000E+00 0.  1.
          2   -1    0    0  501    0  0.00000000000E+00 -0.00000000000E+00 -0.20121007065E+04  0.20121007065E+04  0.00000000000E+00 0. -1.
         24    1    1    2    0    0 -0.10639172297E+02  0.63294782467E+02 -0.18395947614E+04  0.18424699519E+04  0.80419002446E+02 0. -1.
        -24    1    1    2    0    0  0.10639172297E+02 -0.63294782467E+02 -0.15559699379E+03  0.18653970598E+03  0.80419002446E+02 0.  1.
<mgrwt>
<rscale>  0 0.10289139E+03</rscale>
<asrwt>0</asrwt>
<pdfrwt beam="1">  1        2 0.30955376E+00 0.10289139E+03</pdfrwt>
<pdfrwt beam="2">  1       -2 0.26013788E-02 0.10289139E+03</pdfrwt>
<totfact> 0.38186017E+03</totfact>
</mgrwt>
</event>
<event>
 4    1  0.5097315E-001  0.8330444E+02  0.7546771E-02  0.1319927E+00
          4   -1    0    0  501    0  0.00000000000E+00  0.00000000000E+00  0.23501059312E+03  0.23501059312E+03  0.00000000000E+00 0. -1.
         -4   -1    0    0    0  501 -0.00000000000E+00 -0.00000000000E+00 -0.41707444952E+02  0.41707444952E+02  0.00000000000E+00 0.  1.
         24    1    1    2    0    0 -0.18652090398E+02  0.11158533619E+02  0.17141625542E+03  0.19058636343E+03  0.80419002446E+02 0. -1.
        -24    1    1    2    0    0  0.18652090398E+02 -0.11158533619E+02  0.21886892753E+02  0.86131674647E+02  0.80419002446E+02 0.  1.
<mgrwt>
<rscale>  0 0.83304437E+02</rscale>
<asrwt>0</asrwt>
<pdfrwt beam="1">  1        4 0.36155475E-01 0.83304437E+02</pdfrwt>
<pdfrwt beam="2">  1       -4 0.64165302E-02 0.83304437E+02</pdfrwt>
<totfact> 0.17215180E+03</totfact>
</mgrwt>
</event>
<event>
 4    1  0.5097315E-001  0.8180306E+02  0.7546771E-02  0.1324011E+00
          1   -1    0    0  501    0  0.00000000000E+00  0.00000000000E+00  0.14651181543E+04  0.14651181543E+04  0.00000000000E+00 0. -1.
         -1   -1    0    0    0  501 -0.00000000000E+00 -0.00000000000E+00 -0.46299332889E+01  0.46299332889E+01  0.00000000000E+00 0.  1.
         24    1    1    2    0    0 -0.13940060906E+02  0.54954237488E+01  0.64482101492E+03  0.64998914008E+03  0.80419002446E+02 0.  1.
        -24    1    1    2    0    0  0.13940060906E+02 -0.54954237488E+01  0.81566720609E+03  0.81975894752E+03  0.80419002446E+02 0. -1.
<mgrwt>
<rscale>  0 0.81803062E+02</rscale>
<asrwt>0</asrwt>
<pdfrwt beam="1">  1        1 0.22540242E+00 0.81803062E+02</pdfrwt>
<pdfrwt beam="2">  1       -1 0.71229860E-03 0.81803062E+02</pdfrwt>
<totfact> 0.21420462E+04</totfact>
</mgrwt>
</event>
<event>
 4    1  0.5097315E-001  0.9161553E+02  0.7546771E-02  0.1298986E+00
          1   -1    0    0  501    0  0.00000000000E+00  0.00000000000E+00  0.76129712398E+03  0.76129712398E+03  0.00000000000E+00 0. -1.
         -1   -1    0    0    0  501 -0.00000000000E+00 -0.00000000000E+00 -0.99377784611E+02  0.99377784611E+02  0.00000000000E+00 0.  1.
         24    1    1    2    0    0 -0.29877969311E+02  0.32148038410E+02 -0.74805041332E+02  0.11827594678E+03  0.80419002446E+02 0.  1.
        -24    1    1    2    0    0  0.29877969311E+02 -0.32148038410E+02  0.73672438070E+03  0.74239896181E+03  0.80419002446E+02 0. -1.
<mgrwt>
<rscale>  0 0.91615530E+02</rscale>
<asrwt>0</asrwt>
<pdfrwt beam="1">  1        1 0.11712263E+00 0.91615530E+02</pdfrwt>
<pdfrwt beam="2">  1       -1 0.15288890E-01 0.91615530E+02</pdfrwt>
<totfact> 0.78092744E+02</totfact>
</mgrwt>
</event>
<event>
 4    1  0.5097315E-001  0.8913229E+02  0.7546771E-02  0.1304967E+00
          2   -1    0    0  501    0  0.00000000000E+00  0.00000000000E+00  0.63469872027E+02  0.63469872027E+02  0.00000000000E+00 0. -1.
         -2   -1    0    0    0  501 -0.00000000000E+00 -0.00000000000E+00 -0.16088757801E+03  0.16088757801E+03  0.00000000000E+00 0.  1.
         24    1    1    2    0    0 -0.37015039739E+02 -0.10355505532E+02  0.41461675644E+01  0.89228674324E+02  0.80419002446E+02 0. -1.
        -24    1    1    2    0    0  0.37015039739E+02  0.10355505532E+02 -0.10156387355E+03  0.13512877572E+03  0.80419002446E+02 0.  1.
<mgrwt>
<rscale>  0 0.89132293E+02</rscale>
<asrwt>0</asrwt>
<pdfrwt beam="1">  1        2 0.97645958E-02 0.89132293E+02</pdfrwt>
<pdfrwt beam="2">  1       -2 0.24751935E-01 0.89132293E+02</pdfrwt>
<totfact> 0.86518447E+03</totfact>
</mgrwt>
</event>
<event>
 4    1  0.5097315E-001  0.8407589E+02  0.7546771E-02  0.1317867E+00
         -1   -1    0    0    0  501 -0.00000000000E+00  0.00000000000E+00  0.50918895398E+02  0.50918895398E+02  0.00000000000E+00 0.  1.
          1   -1    0    0  501    0  0.00000000000E+00 -0.00000000000E+00 -0.55890784852E+03  0.55890784852E+03  0.00000000000E+00 0. -1.
         24    1    1    2    0    0 -0.20794980713E+02  0.13004139714E+02  0.10352567936E+02  0.84710864060E+02  0.80419002446E+02 0.  1.
        -24    1    1    2    0    0  0.20794980713E+02 -0.13004139714E+02 -0.51834152105E+03  0.52511587986E+03  0.80419002446E+02 0. -1.
<mgrwt>
<rscale>  0 0.84075887E+02</rscale>
<asrwt>0</asrwt>
<pdfrwt beam="1">  1        1 0.85985828E-01 0.84075887E+02</pdfrwt>
<pdfrwt beam="2">  1       -1 0.78336758E-02 0.84075887E+02</pdfrwt>
<totfact> 0.32874417E+03</totfact>
</mgrwt>
</event>
<event>
 4    1  0.5097315E-001  0.9286527E+02  0.7546771E-02  0.1296058E+00
         -2   -1    0    0    0  501 -0.00000000000E+00  0.00000000000E+00  0.50158345017E+01  0.50158345017E+01  0.00000000000E+00 0.  1.
          2   -1    0    0  501    0  0.00000000000E+00 -0.00000000000E+00 -0.20349280858E+04  0.20349280858E+04  0.00000000000E+00 0. -1.
         24    1    1    2    0    0  0.18213748055E+02  0.42720029228E+02 -0.14166262497E+04  0.14196668232E+04  0.80419002446E+02 0. -1.
        -24    1    1    2    0    0 -0.18213748055E+02 -0.42720029228E+02 -0.61328600158E+03  0.62027709712E+03  0.80419002446E+02 0.  1.
<mgrwt>
<rscale>  0 0.92865265E+02</rscale>
<asrwt>0</asrwt>
<pdfrwt beam="1">  1        2 0.31306554E+00 0.92865265E+02</pdfrwt>
<pdfrwt beam="2">  1       -2 0.77166763E-03 0.92865265E+02</pdfrwt>
<totfact> 0.21033733E+04</totfact>
</mgrwt>
</event>
<event>
 4    1  0.5097315E-001  0.8604636E+02  0.7546771E-02  0.1312719E+00
         -2   -1    0    0    0  501 -0.00000000000E+00  0.00000000000E+00  0.84459937032E+01  0.84459937032E+01  0.00000000000E+00 0.  1.
          2   -1    0    0  501    0  0.00000000000E+00 -0.00000000000E+00 -0.11228943120E+04  0.11228943120E+04  0.00000000000E+00 0. -1.
         24    1    1    2    0    0 -0.30479408532E+02 -0.27868544735E+01 -0.82213405105E+03  0.82662468796E+03  0.80419002446E+02 0. -1.
        -24    1    1    2    0    0  0.30479408532E+02  0.27868544735E+01 -0.29231426721E+03  0.30471561770E+03  0.80419002446E+02 0.  1.
<mgrwt>
<rscale>  0 0.86046365E+02</rscale>
<asrwt>0</asrwt>
<pdfrwt beam="1">  1        2 0.17275285E+00 0.86046365E+02</pdfrwt>
<pdfrwt beam="2">  1       -2 0.12993845E-02 0.86046365E+02</pdfrwt>
<totfact> 0.29433184E+04</totfact>
</mgrwt>
</event>
<event>
 4    1  0.5097315E-001  0.9457529E+02  0.7546771E-02  0.1292136E+00
          1   -1    0    0  501    0  0.00000000000E+00  0.00000000000E+00  0.17266123547E+04  0.17266123547E+04  0.00000000000E+00 0. -1.
         -1   -1    0    0    0  501 -0.00000000000E+00 -0.00000000000E+00 -0.11906171276E+02  0.11906171276E+02  0.00000000000E+00 0.  1.
         24    1    1    2    0    0 -0.30306509206E+02  0.39481439923E+02  0.20401888429E+03  0.22487371946E+03  0.80419002446E+02 0.  1.
        -24    1    1    2    0    0  0.30306509206E+02 -0.39481439923E+02  0.15106872991E+04  0.15136448065E+04  0.80419002446E+02 0. -1.
<mgrwt>
<rscale>  0 0.94575285E+02</rscale>
<asrwt>0</asrwt>
<pdfrwt beam="1">  1        1 0.26563247E+00 0.94575285E+02</pdfrwt>
<pdfrwt beam="2">  1       -1 0.18317200E-02 0.94575285E+02</pdfrwt>
<totfact> 0.38869055E+03</totfact>
</mgrwt>
</event>
<event>
 4    1  0.5097315E-001  0.8052505E+02  0.7546771E-02  0.1327568E+00
         -2   -1    0    0    0  501 -0.00000000000E+00  0.00000000000E+00  0.17730296079E+03  0.17730296079E+03  0.00000000000E+00 0.  1.
          2   -1    0    0  501    0  0.00000000000E+00 -0.00000000000E+00 -0.67267120335E+03  0.67267120335E+03  0.00000000000E+00 0. -1.
         24    1    1    2    0    0 -0.27123703434E+01  0.31163174776E+01 -0.66095691235E+03  0.66584406908E+03  0.80419002446E+02 0. -1.
        -24    1    1    2    0    0  0.27123703434E+01 -0.31163174776E+01  0.16558866979E+03  0.18413009506E+03  0.80419002446E+02 0.  1.
<mgrwt>
<rscale>  0 0.80525054E+02</rscale>
<asrwt>0</asrwt>
<pdfrwt beam="1">  1        2 0.10348788E+00 0.80525054E+02</pdfrwt>
<pdfrwt beam="2">  1       -2 0.27277379E-01 0.80525054E+02</pdfrwt>
<totfact> 0.54257384E+02</totfact>
</mgrwt>
</event>
<event>
 4    1  0.5097315E-001  0.1029540E+03  0.7546771E-02  0.1274204E+00
          1   -1    0    0  501    0  0.00000000000E+00  0.00000000000E+00  0.92718602545E+02  0.92718602545E+02  0.00000000000E+00 0. -1.
         -1   -1    0    0    0  501 -0.00000000000E+00 -0.00000000000E+00 -0.11502523839E+03  0.11502523839E+03  0.00000000000E+00 0.  1.
         24    1    1    2    0    0 -0.22459922723E+02 -0.60231606839E+02 -0.30149861021E+01  0.10299806157E+03  0.80419002446E+02 0. -1.
        -24    1    1    2    0    0  0.22459922723E+02  0.60231606839E+02 -0.19291649744E+02  0.10474577937E+03  0.80419002446E+02 0.  1.
<mgrwt>
<rscale>  0 0.10295394E+03</rscale>
<asrwt>0</asrwt>
<pdfrwt beam="1">  1        1 0.14264400E-01 0.10295395E+03</pdfrwt>
<pdfrwt beam="2">  1       -1 0.17696190E-01 0.10295395E+03</pdfrwt>
<totfact> 0.90209952E+03</totfact>
</mgrwt>
</event>
<event>
 4    1  0.5097315E-001  0.9344881E+02  0.7546771E-02  0.1294708E+00
          1   -1    0    0  501    0  0.00000000000E+00  0.00000000000E+00  0.58932600340E+01  0.58932600340E+01  0.00000000000E+00 0. -1.
         -1   -1    0    0    0  501 -0.00000000000E+00 -0.00000000000E+00 -0.16495449443E+04  0.16495449443E+04  0.00000000000E+00 0.  1.
         24    1    1    2    0    0 -0.39473571710E+02 -0.26595135960E+02 -0.10857719236E+04  0.10897859194E+04  0.80419002446E+02 0. -1.
        -24    1    1    2    0    0  0.39473571710E+02  0.26595135960E+02 -0.55787976067E+03  0.56565228493E+03  0.80419002446E+02 0.  0.
<mgrwt>
<rscale>  0 0.93448810E+02</rscale>
<asrwt>0</asrwt>
<pdfrwt beam="1">  1        1 0.90665560E-03 0.93448810E+02</pdfrwt>
<pdfrwt beam="2">  1       -1 0.25377609E+00 0.93448810E+02</pdfrwt>
<totfact> 0.13421669E+03</totfact>
</mgrwt>
</event>
<event>
 4    1  0.5097315E-001  0.8586936E+02  0.7546771E-02  0.1313175E+00
         -1   -1    0    0    0  501 -0.00000000000E+00  0.00000000000E+00  0.68681772895E+01  0.68681772895E+01  0.00000000000E+00 0.  1.
          1   -1    0    0  501    0  0.00000000000E+00 -0.00000000000E+00 -0.11681668199E+04  0.11681668199E+04  0.00000000000E+00 0. -1.
         24    1    1    2    0    0 -0.29339143907E+02 -0.67487259787E+01 -0.41347070451E+03  0.42229322764E+03  0.80419002446E+02 0.  1.
        -24    1    1    2    0    0  0.29339143907E+02  0.67487259787E+01 -0.74782793809E+03  0.75274176954E+03  0.80419002446E+02 0. -1.
<mgrwt>
<rscale>  0 0.85869358E+02</rscale>
<asrwt>0</asrwt>
<pdfrwt beam="1">  1        1 0.17971812E+00 0.85869358E+02</pdfrwt>
<pdfrwt beam="2">  1       -1 0.10566418E-02 0.85869358E+02</pdfrwt>
<totfact> 0.19340192E+04</totfact>
</mgrwt>
</event>
<event>
 4    1  0.5097315E-001  0.8505644E+02  0.7546771E-02  0.1315285E+00
          2   -1    0    0  501    0  0.00000000000E+00  0.00000000000E+00  0.44814338308E+02  0.44814338308E+02  0.00000000000E+00 0. -1.
         -2   -1    0    0    0  501 -0.00000000000E+00 -0.00000000000E+00 -0.16855522966E+03  0.16855522966E+03  0.00000000000E+00 0.  1.
         24    1    1    2    0    0  0.20047331935E+02 -0.19117690338E+02 -0.39943311655E+02  0.93968429283E+02  0.80419002446E+02 0. -1.
        -24    1    1    2    0    0 -0.20047331935E+02  0.19117690338E+02 -0.83797579697E+02  0.11940113868E+03  0.80419002446E+02 0.  1.
<mgrwt>
<rscale>  0 0.85056437E+02</rscale>
<asrwt>0</asrwt>
<pdfrwt beam="1">  1        2 0.68945135E-02 0.85056437E+02</pdfrwt>
<pdfrwt beam="2">  1       -2 0.25931574E-01 0.85056437E+02</pdfrwt>
<totfact> 0.12208059E+04</totfact>
</mgrwt>
</event>
<event>
 4    1  0.5097315E-001  0.9734518E+02  0.7546771E-02  0.1285980E+00
         -2   -1    0    0    0  501 -0.00000000000E+00  0.00000000000E+00  0.25670760887E+02  0.25670760887E+02  0.00000000000E+00 0.  1.
          2   -1    0    0  501    0  0.00000000000E+00 -0.00000000000E+00 -0.40316576388E+03  0.40316576388E+03  0.00000000000E+00 0. -1.
         24    1    1    2    0    0 -0.33847460334E+02 -0.43165006481E+02 -0.25103902515E+03  0.26925206862E+03  0.80419002446E+02 0. -1.
        -24    1    1    2    0    0  0.33847460334E+02  0.43165006481E+02 -0.12645597784E+03  0.15958445614E+03  0.80419002446E+02 0.  1.
<mgrwt>
<rscale>  0 0.97345181E+02</rscale>
<asrwt>0</asrwt>
<pdfrwt beam="1">  1        2 0.62025504E-01 0.97345181E+02</pdfrwt>
<pdfrwt beam="2">  1       -2 0.39493477E-02 0.97345181E+02</pdfrwt>
<totfact> 0.20138240E+04</totfact>
</mgrwt>
</event>
<event>
 4    1  0.5097315E-001  0.8279381E+02  0.7546771E-02  0.1321305E+00
          2   -1    0    0  501    0  0.00000000000E+00  0.00000000000E+00  0.44820213563E+03  0.44820213563E+03  0.00000000000E+00 0. -1.
         -2   -1    0    0    0  501 -0.00000000000E+00 -0.00000000000E+00 -0.43803034635E+02  0.43803034635E+02  0.00000000000E+00 0.  1.
         24    1    1    2    0    0  0.18069983849E+02  0.78150152990E+01  0.40066213177E+03  0.40912706897E+03  0.80419002446E+02 0. -1.
        -24    1    1    2    0    0 -0.18069983849E+02 -0.78150152990E+01  0.37369692294E+01  0.82878101292E+02  0.80419002446E+02 0.  1.
<mgrwt>
<rscale>  0 0.82793809E+02</rscale>
<asrwt>0</asrwt>
<pdfrwt beam="1">  1        2 0.68954172E-01 0.82793809E+02</pdfrwt>
<pdfrwt beam="2">  1       -2 0.67389287E-02 0.82793809E+02</pdfrwt>
<totfact> 0.80117000E+03</totfact>
</mgrwt>
</event>
<event>
 4    1  0.5097315E-001  0.1057028E+03  0.7546771E-02  0.1268741E+00
         -2   -1    0    0    0  501 -0.00000000000E+00  0.00000000000E+00  0.14657058516E+02  0.14657058516E+02  0.00000000000E+00 0.  1.
          2   -1    0    0  501    0  0.00000000000E+00 -0.00000000000E+00 -0.81673402299E+03  0.81673402299E+03  0.00000000000E+00 0. -1.
         24    1    1    2    0    0  0.62813144989E+02 -0.27574728403E+02 -0.50835610743E+03  0.51922924103E+03  0.80419002446E+02 0. -1.
        -24    1    1    2    0    0 -0.62813144989E+02  0.27574728403E+02 -0.29372085705E+03  0.31216184048E+03  0.80419002446E+02 0.  1.
<mgrwt>
<rscale>  0 0.10570276E+03</rscale>
<asrwt>0</asrwt>
<pdfrwt beam="1">  1        2 0.12565137E+00 0.10570276E+03</pdfrwt>
<pdfrwt beam="2">  1       -2 0.22549325E-02 0.10570276E+03</pdfrwt>
<totfact> 0.20775963E+04</totfact>
</mgrwt>
</event>
<event>
 4    1  0.5097315E-001  0.8552298E+02  0.7546771E-02  0.1314071E+00
          2   -1    0    0  501    0  0.00000000000E+00  0.00000000000E+00  0.41484623392E+03  0.41484623392E+03  0.00000000000E+00 0. -1.
         -2   -1    0    0    0  501 -0.00000000000E+00 -0.00000000000E+00 -0.30889508129E+02  0.30889508129E+02  0.00000000000E+00 0.  1.
         24    1    1    2    0    0  0.25627714424E+02  0.13790751428E+02  0.33799026159E+03  0.34864250666E+03  0.80419002446E+02 0. -1.
        -24    1    1    2    0    0 -0.25627714424E+02 -0.13790751428E+02  0.45966464203E+02  0.97093235384E+02  0.80419002446E+02 0.  1.
<mgrwt>
<rscale>  0 0.85522982E+02</rscale>
<asrwt>0</asrwt>
<pdfrwt beam="1">  1        2 0.63822494E-01 0.85522982E+02</pdfrwt>
<pdfrwt beam="2">  1       -2 0.47522323E-02 0.85522982E+02</pdfrwt>
<totfact> 0.14684139E+04</totfact>
</mgrwt>
</event>
<event>
 4    1  0.5097315E-001  0.1680938E+03  0.7546771E-02  0.1179850E+00
         -4   -1    0    0    0  501 -0.00000000000E+00  0.00000000000E+00  0.25066650567E+03  0.25066650567E+03  0.00000000000E+00 0.  1.
          4   -1    0    0  501    0  0.00000000000E+00 -0.00000000000E+00 -0.17381419371E+03  0.17381419371E+03  0.00000000000E+00 0. -1.
         24    1    1    2    0    0  0.13174215971E+03 -0.66575707916E+02 -0.87402484217E+02  0.18945905027E+03  0.80419002446E+02 0.  1.
        -24    1    1    2    0    0 -0.13174215971E+03  0.66575707916E+02  0.16425479618E+03  0.23502164911E+03  0.80419002446E+02 0. -1.
<mgrwt>
<rscale>  0 0.16809384E+03</rscale>
<asrwt>0</asrwt>
<pdfrwt beam="1">  1        4 0.26740645E-01 0.16809384E+03</pdfrwt>
<pdfrwt beam="2">  1       -4 0.38564078E-01 0.16809384E+03</pdfrwt>
<totfact> 0.14961924E+02</totfact>
</mgrwt>
</event>
<event>
 4    1  0.5097315E-001  0.1372806E+03  0.7546771E-02  0.1217036E+00
         -2   -1    0    0    0  501 -0.00000000000E+00  0.00000000000E+00  0.42448265947E+03  0.42448265947E+03  0.00000000000E+00 0.  1.
          2   -1    0    0  501    0  0.00000000000E+00 -0.00000000000E+00 -0.21207230786E+03  0.21207230786E+03  0.00000000000E+00 0. -1.
         24    1    1    2    0    0  0.71672961929E+02  0.85098395989E+02 -0.17680226277E+03  0.22384147638E+03  0.80419002446E+02 0. -1.
        -24    1    1    2    0    0 -0.71672961929E+02 -0.85098395989E+02  0.38921261438E+03  0.41271349096E+03  0.80419002446E+02 0.  1.
<mgrwt>
<rscale>  0 0.13728061E+03</rscale>
<asrwt>0</asrwt>
<pdfrwt beam="1">  1        2 0.32626509E-01 0.13728061E+03</pdfrwt>
<pdfrwt beam="2">  1       -2 0.65305024E-01 0.13728061E+03</pdfrwt>
<totfact> 0.35503305E+02</totfact>
</mgrwt>
</event>
<event>
 4    1  0.5097315E-001  0.8062834E+02  0.7546771E-02  0.1327278E+00
         -1   -1    0    0    0  501 -0.00000000000E+00  0.00000000000E+00  0.98826954004E+01  0.98826954004E+01  0.00000000000E+00 0.  1.
          1   -1    0    0  501    0  0.00000000000E+00 -0.00000000000E+00 -0.21989247530E+04  0.21989247530E+04  0.00000000000E+00 0. -1.
         24    1    1    2    0    0 -0.32254223680E+01 -0.48280433677E+01 -0.16995004250E+03  0.18810621003E+03  0.80419002446E+02 0.  0.
        -24    1    1    2    0    0  0.32254223680E+01  0.48280433677E+01 -0.20190920151E+04  0.20207012384E+04  0.80419002446E+02 0. -1.
<mgrwt>
<rscale>  0 0.80628341E+02</rscale>
<asrwt>0</asrwt>
<pdfrwt beam="1">  1        1 0.33829599E+00 0.80628341E+02</pdfrwt>
<pdfrwt beam="2">  1       -1 0.15204153E-02 0.80628341E+02</pdfrwt>
<totfact> 0.25542240E+03</totfact>
</mgrwt>
</event>
<event>
 4    1  0.5097315E-001  0.1118102E+03  0.7546771E-02  0.1257254E+00
          2   -1    0    0  501    0  0.00000000000E+00  0.00000000000E+00  0.37362916044E+03  0.37362916044E+03  0.00000000000E+00 0. -1.
         -2   -1    0    0    0  501 -0.00000000000E+00 -0.00000000000E+00 -0.73808540855E+02  0.73808540855E+02  0.00000000000E+00 0.  1.
         24    1    1    2    0    0 -0.65313019729E+02  0.42053780472E+02  0.31532142718E+03  0.33455811063E+03  0.80419002446E+02 0. -1.
        -24    1    1    2    0    0  0.65313019729E+02 -0.42053780472E+02 -0.15500807590E+02  0.11287959066E+03  0.80419002446E+02 0.  1.
<mgrwt>
<rscale>  0 0.11181023E+03</rscale>
<asrwt>0</asrwt>
<pdfrwt beam="1">  1        2 0.57481408E-01 0.11181023E+03</pdfrwt>
<pdfrwt beam="2">  1       -2 0.11355160E-01 0.11181023E+03</pdfrwt>
<totfact> 0.44332090E+03</totfact>
</mgrwt>
</event>
<event>
 4    1  0.5097315E-001  0.8429065E+02  0.7546771E-02  0.1317298E+00
          4   -1    0    0  501    0  0.00000000000E+00  0.00000000000E+00  0.19358029913E+04  0.19358029913E+04  0.00000000000E+00 0. -1.
         -4   -1    0    0    0  501 -0.00000000000E+00 -0.00000000000E+00 -0.48595350712E+01  0.48595350712E+01  0.00000000000E+00 0.  1.
         24    1    1    2    0    0  0.11425339788E+02 -0.22520197628E+02  0.14454952971E+04  0.14479508167E+04  0.80419002446E+02 0.  0.
        -24    1    1    2    0    0 -0.11425339788E+02  0.22520197628E+02  0.48544815909E+03  0.49271170963E+03  0.80419002446E+02 0. -1.
<mgrwt>
<rscale>  0 0.84290650E+02</rscale>
<asrwt>0</asrwt>
<pdfrwt beam="1">  1        4 0.29781523E+00 0.84290650E+02</pdfrwt>
<pdfrwt beam="2">  1       -4 0.74762232E-03 0.84290650E+02</pdfrwt>
<totfact> 0.27499924E+02</totfact>
</mgrwt>
</event>
<event>
 4    1  0.5097315E-001  0.8205970E+02  0.7546771E-02  0.1323306E+00
         -2   -1    0    0    0  501 -0.00000000000E+00  0.00000000000E+00  0.10155069910E+02  0.10155069910E+02  0.00000000000E+00 0.  1.
          2   -1    0    0  501    0  0.00000000000E+00 -0.00000000000E+00 -0.67510910640E+03  0.67510910640E+03  0.00000000000E+00 0. -1.
         24    1    1    2    0    0  0.29582778801E+01  0.16056879048E+02 -0.28677233333E+03  0.29828201738E+03  0.80419002446E+02 0.  1.
        -24    1    1    2    0    0 -0.29582778801E+01 -0.16056879048E+02 -0.37818170316E+03  0.38698215893E+03  0.80419002446E+02 0. -1.
<mgrwt>
<rscale>  0 0.82059688E+02</rscale>
<asrwt>0</asrwt>
<pdfrwt beam="1">  1        2 0.10386300E+00 0.82059698E+02</pdfrwt>
<pdfrwt beam="2">  1       -2 0.15623176E-02 0.82059698E+02</pdfrwt>
<totfact> 0.43005728E+04</totfact>
</mgrwt>
</event>
<event>
 4    1  0.5097315E-001  0.8128539E+02  0.7546771E-02  0.1325443E+00
         -1   -1    0    0    0  501 -0.00000000000E+00  0.00000000000E+00  0.26934589756E+03  0.26934589756E+03  0.00000000000E+00 0.  1.
          1   -1    0    0  501    0  0.00000000000E+00 -0.00000000000E+00 -0.17996912891E+04  0.17996912891E+04  0.00000000000E+00 0. -1.
         24    1    1    2    0    0  0.11039372661E+02 -0.42698298560E+01  0.26227112474E+03  0.27457869185E+03  0.80419002446E+02 0.  1.
        -24    1    1    2    0    0 -0.11039372661E+02  0.42698298560E+01 -0.17926165163E+04  0.17944584949E+04  0.80419002446E+02 0. -1.
<mgrwt>
<rscale>  0 0.81285393E+02</rscale>
<asrwt>0</asrwt>
<pdfrwt beam="1">  1        1 0.27687557E+00 0.81285393E+02</pdfrwt>
<pdfrwt beam="2">  1       -1 0.41437832E-01 0.81285393E+02</pdfrwt>
<totfact> 0.30436358E+01</totfact>
</mgrwt>
</event>
<event>
 4    1  0.5097315E-001  0.1073301E+03  0.7546771E-02  0.1265595E+00
          1   -1    0    0  501    0  0.00000000000E+00  0.00000000000E+00  0.67968207539E+03  0.67968207539E+03  0.00000000000E+00 0. -1.
         -1   -1    0    0    0  501 -0.00000000000E+00 -0.00000000000E+00 -0.17106302577E+02  0.17106302577E+02  0.00000000000E+00 0.  1.
         24    1    1    2    0    0 -0.58232894660E+02  0.40761195981E+02  0.29785248032E+03  0.31660047553E+03  0.80419002446E+02 0.  0.
        -24    1    1    2    0    0  0.58232894660E+02 -0.40761195981E+02  0.36472329249E+03  0.38018790244E+03  0.80419002446E+02 0. -1.
<mgrwt>
<rscale>  0 0.10733015E+03</rscale>
<asrwt>0</asrwt>
<pdfrwt beam="1">  1        1 0.10456645E+00 0.10733015E+03</pdfrwt>
<pdfrwt beam="2">  1       -1 0.26317394E-02 0.10733015E+03</pdfrwt>
<totfact> 0.12621918E+04</totfact>
</mgrwt>
</event>
<event>
 4    1  0.5097315E-001  0.8990963E+02  0.7546771E-02  0.1303071E+00
         -2   -1    0    0    0  501 -0.00000000000E+00  0.00000000000E+00  0.18434679290E+03  0.18434679290E+03  0.00000000000E+00 0.  1.
          2   -1    0    0  501    0  0.00000000000E+00 -0.00000000000E+00 -0.63865594721E+02  0.63865594721E+02  0.00000000000E+00 0. -1.
         24    1    1    2    0    0  0.70358114892E+01 -0.39585634287E+02 -0.92356445344E+01  0.90382731589E+02  0.80419002446E+02 0. -1.
        -24    1    1    2    0    0 -0.70358114892E+01  0.39585634287E+02  0.12971684271E+03  0.15782965603E+03  0.80419002446E+02 0.  1.
<mgrwt>
<rscale>  0 0.89909627E+02</rscale>
<asrwt>0</asrwt>
<pdfrwt beam="1">  1        2 0.98254761E-02 0.89909627E+02</pdfrwt>
<pdfrwt beam="2">  1       -2 0.28361045E-01 0.89909627E+02</pdfrwt>
<totfact> 0.67765036E+03</totfact>
</mgrwt>
</event>
<event>
 4    1  0.5097315E-001  0.8506520E+02  0.7546771E-02  0.1315262E+00
         -2   -1    0    0    0  501 -0.00000000000E+00  0.00000000000E+00  0.20675457074E+03  0.20675457074E+03  0.00000000000E+00 0.  1.
          2   -1    0    0  501    0  0.00000000000E+00 -0.00000000000E+00 -0.55134612502E+02  0.55134612502E+02  0.00000000000E+00 0. -1.
         24    1    1    2    0    0 -0.27517926822E+02  0.34110668883E+01 -0.33241548530E+01  0.85130121777E+02  0.80419002446E+02 0. -1.
        -24    1    1    2    0    0  0.27517926822E+02 -0.34110668883E+01  0.15494411309E+03  0.17675906146E+03  0.80419002446E+02 0.  1.
<mgrwt>
<rscale>  0 0.85065196E+02</rscale>
<asrwt>0</asrwt>
<pdfrwt beam="1">  1        2 0.84822482E-02 0.85065196E+02</pdfrwt>
<pdfrwt beam="2">  1       -2 0.31808395E-01 0.85065196E+02</pdfrwt>
<totfact> 0.65778176E+03</totfact>
</mgrwt>
</event>
<event>
 4    1  0.5097315E-001  0.8220642E+02  0.7546771E-02  0.1322904E+00
          1   -1    0    0  501    0  0.00000000000E+00  0.00000000000E+00  0.21642040842E+04  0.21642040842E+04  0.00000000000E+00 0. -1.
         -1   -1    0    0    0  501 -0.00000000000E+00 -0.00000000000E+00 -0.31642574056E+01  0.31642574056E+01  0.00000000000E+00 0.  1.
         24    1    1    2    0    0 -0.93317536355E+01  0.14268799443E+02  0.95614659910E+03  0.95967401507E+03  0.80419002446E+02 0.  1.
        -24    1    1    2    0    0  0.93317536355E+01 -0.14268799443E+02  0.12048932276E+04  0.12076943265E+04  0.80419002446E+02 0. -1.
<mgrwt>
<rscale>  0 0.82206424E+02</rscale>
<asrwt>0</asrwt>
<pdfrwt beam="1">  1        1 0.33295329E+00 0.82206424E+02</pdfrwt>
<pdfrwt beam="2">  1       -1 0.48681056E-03 0.82206424E+02</pdfrwt>
<totfact> 0.13294940E+04</totfact>
</mgrwt>
</event>
<event>
 4    1  0.5097315E-001  0.9474328E+02  0.7546771E-02  0.1291755E+00
          1   -1    0    0  501    0  0.00000000000E+00  0.00000000000E+00  0.16457498928E+03  0.16457498928E+03  0.00000000000E+00 0. -1.
         -1   -1    0    0    0  501 -0.00000000000E+00 -0.00000000000E+00 -0.55996371262E+02  0.55996371262E+02  0.00000000000E+00 0.  1.
         24    1    1    2    0    0  0.47396811138E+02  0.16205404584E+02  0.36517125997E+02  0.10153713256E+03  0.80419002446E+02 0.  1.
        -24    1    1    2    0    0 -0.47396811138E+02 -0.16205404584E+02  0.72061492022E+02  0.11903422798E+03  0.80419002446E+02 0. -1.
<mgrwt>
<rscale>  0 0.94743278E+02</rscale>
<asrwt>0</asrwt>
<pdfrwt beam="1">  1        1 0.25319229E-01 0.94743278E+02</pdfrwt>
<pdfrwt beam="2">  1       -1 0.86148264E-02 0.94743278E+02</pdfrwt>
<totfact> 0.13087343E+04</totfact>
</mgrwt>
</event>
<event>
 4    1  0.5097315E-001  0.1040192E+03  0.7546771E-02  0.1272064E+00
          2   -1    0    0  501    0  0.00000000000E+00  0.00000000000E+00  0.10284761222E+04  0.10284761222E+04  0.00000000000E+00 0. -1.
         -2   -1    0    0    0  501 -0.00000000000E+00 -0.00000000000E+00 -0.60656098415E+02  0.60656098415E+02  0.00000000000E+00 0.  1.
         24    1    1    2    0    0  0.42676816706E+02  0.50313642221E+02  0.97900310914E+03  0.98451362456E+03  0.80419002446E+02 0. -1.
        -24    1    1    2    0    0 -0.42676816706E+02 -0.50313642221E+02 -0.11183085403E+02  0.10461859601E+03  0.80419002446E+02 0.  1.
<mgrwt>
<rscale>  0 0.10401918E+03</rscale>
<asrwt>0</asrwt>
<pdfrwt beam="1">  1        2 0.15822708E+00 0.10401918E+03</pdfrwt>
<pdfrwt beam="2">  1       -2 0.93317082E-02 0.10401918E+03</pdfrwt>
<totfact> 0.18518574E+03</totfact>
</mgrwt>
</event>
<event>
 4    1  0.5097315E-001  0.8271191E+02  0.7546771E-02  0.1321527E+00
          2   -1    0    0  501    0  0.00000000000E+00  0.00000000000E+00  0.89952325913E+03  0.89952325913E+03  0.00000000000E+00 0. -1.
         -2   -1    0    0    0  501 -0.00000000000E+00 -0.00000000000E+00 -0.17064815868E+02  0.17064815868E+02  0.00000000000E+00 0.  1.
         24    1    1    2    0    0  0.79585438947E+01 -0.17626848463E+02  0.78244169632E+03  0.78680128896E+03  0.80419002446E+02 0. -1.
        -24    1    1    2    0    0 -0.79585438947E+01  0.17626848463E+02  0.10001674694E+03  0.12978678604E+03  0.80419002446E+02 0.  1.
<mgrwt>
<rscale>  0 0.82711911E+02</rscale>
<asrwt>0</asrwt>
<pdfrwt beam="1">  1        2 0.13838816E+00 0.82711911E+02</pdfrwt>
<pdfrwt beam="2">  1       -2 0.26253570E-02 0.82711911E+02</pdfrwt>
<totfact> 0.14467498E+04</totfact>
</mgrwt>
</event>
<event>
 4    1  0.5097315E-001  0.9015577E+02  0.7546771E-02  0.1302475E+00
         -2   -1    0    0    0  501 -0.00000000000E+00  0.00000000000E+00  0.45957488329E+02  0.45957488329E+02  0.00000000000E+00 0.  1.
          2   -1    0    0  501    0  0.00000000000E+00 -0.00000000000E+00 -0.17688967115E+03  0.17688967115E+03  0.00000000000E+00 0. -1.
         24    1    1    2    0    0  0.22031398261E+02  0.34285048970E+02 -0.66897672844E+02  0.11226469471E+03  0.80419002446E+02 0. -1.
        -24    1    1    2    0    0 -0.22031398261E+02 -0.34285048970E+02 -0.64034509981E+02  0.11058246477E+03  0.80419002446E+02 0.  1.
<mgrwt>
<rscale>  0 0.90155771E+02</rscale>
<asrwt>0</asrwt>
<pdfrwt beam="1">  1        2 0.27213795E-01 0.90155771E+02</pdfrwt>
<pdfrwt beam="2">  1       -2 0.70703829E-02 0.90155771E+02</pdfrwt>
<totfact> 0.19987522E+04</totfact>
</mgrwt>
</event>
<event>
 4    1  0.5097315E-001  0.8413841E+02  0.7546771E-02  0.1317701E+00
          2   -1    0    0  501    0  0.00000000000E+00  0.00000000000E+00  0.20003960700E+03  0.20003960700E+03  0.00000000000E+00 0. -1.
         -2   -1    0    0    0  501 -0.00000000000E+00 -0.00000000000E+00 -0.84417389254E+02  0.84417389254E+02  0.00000000000E+00 0.  1.
         24    1    1    2    0    0  0.22748090969E+02  0.97252848007E+01  0.16620202926E+03  0.18628576782E+03  0.80419002446E+02 0. -1.
        -24    1    1    2    0    0 -0.22748090969E+02 -0.97252848007E+01 -0.50579811508E+02  0.98171228442E+02  0.80419002446E+02 0.  1.
<mgrwt>
<rscale>  0 0.84138414E+02</rscale>
<asrwt>0</asrwt>
<pdfrwt beam="1">  1        2 0.30775324E-01 0.84138414E+02</pdfrwt>
<pdfrwt beam="2">  1       -2 0.12987291E-01 0.84138414E+02</pdfrwt>
<totfact> 0.67842246E+03</totfact>
</mgrwt>
</event>
<event>
 4    1  0.5097315E-001  0.1036498E+03  0.7546771E-02  0.1272803E+00
         -1   -1    0    0    0  501 -0.00000000000E+00  0.00000000000E+00  0.77194281210E+01  0.77194281210E+01  0.00000000000E+00 0.  1.
          1   -1    0    0  501    0  0.00000000000E+00 -0.00000000000E+00 -0.14828622462E+04  0.14828622462E+04  0.00000000000E+00 0. -1.
         24    1    1    2    0    0  0.12459473645E+02  0.64193694695E+02 -0.92234270699E+03  0.92814834699E+03  0.80419002446E+02 0.  0.
        -24    1    1    2    0    0 -0.12459473645E+02 -0.64193694695E+02 -0.55280011109E+03  0.56243332734E+03  0.80419002446E+02 0. -1.
<mgrwt>
<rscale>  0 0.10364983E+03</rscale>
<asrwt>0</asrwt>
<pdfrwt beam="1">  1        1 0.22813255E+00 0.10364984E+03</pdfrwt>
<pdfrwt beam="2">  1       -1 0.11876048E-02 0.10364984E+03</pdfrwt>
<totfact> 0.10319841E+04</totfact>
</mgrwt>
</event>
<event>
 4    1  0.5097315E-001  0.8346202E+02  0.7546771E-02  0.1319504E+00
          2   -1    0    0  501    0  0.00000000000E+00  0.00000000000E+00  0.12949461147E+02  0.12949461147E+02  0.00000000000E+00 0. -1.
         -2   -1    0    0    0  501 -0.00000000000E+00 -0.00000000000E+00 -0.54453495914E+03  0.54453495914E+03  0.00000000000E+00 0.  1.
         24    1    1    2    0    0 -0.16701861759E+02  0.14823665157E+02 -0.23509469676E+03  0.24947029008E+03  0.80419002446E+02 0.  1.
        -24    1    1    2    0    0  0.16701861759E+02 -0.14823665157E+02 -0.29649080123E+03  0.30801413020E+03  0.80419002446E+02 0. -1.
<mgrwt>
<rscale>  0 0.83462022E+02</rscale>
<asrwt>0</asrwt>
<pdfrwt beam="1">  1        2 0.19922243E-02 0.83462022E+02</pdfrwt>
<pdfrwt beam="2">  1       -2 0.83774631E-01 0.83462022E+02</pdfrwt>
<totfact> 0.63297487E+03</totfact>
</mgrwt>
</event>
<event>
 4    1  0.5097315E-001  0.1081930E+03  0.7546771E-02  0.1263953E+00
          1   -1    0    0  501    0  0.00000000000E+00  0.00000000000E+00  0.18512484314E+03  0.18512484314E+03  0.00000000000E+00 0. -1.
         -1   -1    0    0    0  501 -0.00000000000E+00 -0.00000000000E+00 -0.95721225299E+02  0.95721225299E+02  0.00000000000E+00 0.  1.
         24    1    1    2    0    0 -0.36644928814E+02  0.62415249812E+02 -0.37108293355E+02  0.11437987413E+03  0.80419002446E+02 0.  1.
        -24    1    1    2    0    0  0.36644928814E+02 -0.62415249812E+02  0.12651191119E+03  0.16646619430E+03  0.80419002446E+02 0. -1.
<mgrwt>
<rscale>  0 0.10819302E+03</rscale>
<asrwt>0</asrwt>
<pdfrwt beam="1">  1        1 0.28480745E-01 0.10819302E+03</pdfrwt>
<pdfrwt beam="2">  1       -1 0.14726342E-01 0.10819302E+03</pdfrwt>
<totfact> 0.50465420E+03</totfact>
</mgrwt>
</event>
<event>
 4    1  0.5097315E-001  0.8060023E+02  0.7546771E-02  0.1327357E+00
          1   -1    0    0  501    0  0.00000000000E+00  0.00000000000E+00  0.10740524521E+03  0.10740524521E+03  0.00000000000E+00 0. -1.
         -1   -1    0    0    0  501 -0.00000000000E+00 -0.00000000000E+00 -0.10240930692E+03  0.10240930692E+03  0.00000000000E+00 0.  1.
         24    1    1    2    0    0 -0.17443997710E+01  0.51125605850E+01 -0.64624709842E+02  0.10330900388E+03  0.80419002446E+02 0.  1.
        -24    1    1    2    0    0  0.17443997710E+01 -0.51125605850E+01  0.69620648138E+02  0.10650554825E+03  0.80419002446E+02 0.  0.
<mgrwt>
<rscale>  0 0.80600231E+02</rscale>
<asrwt>0</asrwt>
<pdfrwt beam="1">  1        1 0.16523884E-01 0.80600231E+02</pdfrwt>
<pdfrwt beam="2">  1       -1 0.15755278E-01 0.80600231E+02</pdfrwt>
<totfact> 0.87693477E+03</totfact>
</mgrwt>
</event>
<event>
 4    1  0.5097315E-001  0.8114525E+02  0.7546771E-02  0.1325832E+00
          1   -1    0    0  501    0  0.00000000000E+00  0.00000000000E+00  0.27771764692E+03  0.27771764692E+03  0.00000000000E+00 0. -1.
         -1   -1    0    0    0  501 -0.00000000000E+00 -0.00000000000E+00 -0.75974666851E+03  0.75974666851E+03  0.00000000000E+00 0.  1.
         24    1    1    2    0    0 -0.41290629221E+01 -0.10014277602E+02 -0.75158844353E+03  0.75595617553E+03  0.80419002446E+02 0.  1.
        -24    1    1    2    0    0  0.41290629221E+01  0.10014277602E+02  0.26955942195E+03  0.28150813990E+03  0.80419002446E+02 0. -1.
<mgrwt>
<rscale>  0 0.81145246E+02</rscale>
<asrwt>0</asrwt>
<pdfrwt beam="1">  1        1 0.42725792E-01 0.81145246E+02</pdfrwt>
<pdfrwt beam="2">  1       -1 0.11688410E+00 0.81145246E+02</pdfrwt>
<totfact> 0.72915156E+01</totfact>
</mgrwt>
</event>
<event>
 4    1  0.5097315E-001  0.8097264E+02  0.7546771E-02  0.1326314E+00
          1   -1    0    0  501    0  0.00000000000E+00  0.00000000000E+00  0.90077109347E+02  0.90077109347E+02  0.00000000000E+00 0. -1.
         -1   -1    0    0    0  501 -0.00000000000E+00 -0.00000000000E+00 -0.16436690864E+03  0.16436690864E+03  0.00000000000E+00 0.  1.
         24    1    1    2    0    0  0.76333502596E+00  0.94217442610E+01 -0.13210733840E+03  0.15494810989E+03  0.80419002446E+02 0.  0.
        -24    1    1    2    0    0 -0.76333502596E+00 -0.94217442610E+01  0.57817539106E+02  0.99495908097E+02  0.80419002446E+02 0. -1.
<mgrwt>
<rscale>  0 0.80972637E+02</rscale>
<asrwt>0</asrwt>
<pdfrwt beam="1">  1        1 0.13858017E-01 0.80972637E+02</pdfrwt>
<pdfrwt beam="2">  1       -1 0.25287216E-01 0.80972637E+02</pdfrwt>
<totfact> 0.51872209E+03</totfact>
</mgrwt>
</event>
<event>
 4    1  0.5097315E-001  0.8731290E+02  0.7546771E-02  0.1309493E+00
          2   -1    0    0  501    0  0.00000000000E+00  0.00000000000E+00  0.22374846514E+04  0.22374846514E+04  0.00000000000E+00 0. -1.
         -2   -1    0    0    0  501 -0.00000000000E+00 -0.00000000000E+00 -0.34096703914E+01  0.34096703914E+01  0.00000000000E+00 0.  1.
         24    1    1    2    0    0 -0.33396698205E+02 -0.64020974464E+01  0.11472386817E+04  0.11505564459E+04  0.80419002446E+02 0.  0.
        -24    1    1    2    0    0  0.33396698205E+02  0.64020974464E+01  0.10868362993E+04  0.10903378760E+04  0.80419002446E+02 0. -1.
<mgrwt>
<rscale>  0 0.87312899E+02</rscale>
<asrwt>0</asrwt>
<pdfrwt beam="1">  1        2 0.34422724E+00 0.87312899E+02</pdfrwt>
<pdfrwt beam="2">  1       -2 0.52456646E-03 0.87312899E+02</pdfrwt>
<totfact> 0.28464042E+04</totfact>
</mgrwt>
</event>
<event>
 4    1  0.5097315E-001  0.8371663E+02  0.7546771E-02  0.1318823E+00
          1   -1    0    0  501    0  0.00000000000E+00  0.00000000000E+00  0.11471289874E+03  0.11471289874E+03  0.00000000000E+00 0. -1.
         -1   -1    0    0    0  501 -0.00000000000E+00 -0.00000000000E+00 -0.10744976293E+03  0.10744976293E+03  0.00000000000E+00 0.  1.
         24    1    1    2    0    0 -0.22809019116E+02 -0.45833907511E+01 -0.69327930730E+02  0.10869607517E+03  0.80419002446E+02 0.  1.
        -24    1    1    2    0    0  0.22809019116E+02  0.45833907511E+01  0.76591066545E+02  0.11346658650E+03  0.80419002446E+02 0. -1.
<mgrwt>
<rscale>  0 0.83716634E+02</rscale>
<asrwt>0</asrwt>
<pdfrwt beam="1">  1        1 0.17648138E-01 0.83716634E+02</pdfrwt>
<pdfrwt beam="2">  1       -1 0.16530733E-01 0.83716634E+02</pdfrwt>
<totfact> 0.75142182E+03</totfact>
</mgrwt>
</event>
<event>
 4    1  0.5097315E-001  0.8314998E+02  0.7546771E-02  0.1320343E+00
          2   -1    0    0  501    0  0.00000000000E+00  0.00000000000E+00  0.49749079752E+03  0.49749079752E+03  0.00000000000E+00 0. -1.
         -2   -1    0    0    0  501 -0.00000000000E+00 -0.00000000000E+00 -0.25044777851E+02  0.25044777851E+02  0.00000000000E+00 0.  1.
         24    1    1    2    0    0  0.20947046428E+02 -0.28151832163E+01  0.41052809602E+03  0.41886422333E+03  0.80419002446E+02 0. -1.
        -24    1    1    2    0    0 -0.20947046428E+02  0.28151832163E+01  0.61917923652E+02  0.10367135204E+03  0.80419002446E+02 0.  0.
<mgrwt>
<rscale>  0 0.83149985E+02</rscale>
<asrwt>0</asrwt>
<pdfrwt beam="1">  1        2 0.76537038E-01 0.83149985E+02</pdfrwt>
<pdfrwt beam="2">  1       -2 0.38530431E-02 0.83149985E+02</pdfrwt>
<totfact> 0.16436422E+04</totfact>
</mgrwt>
</event>
<event>
 4    1  0.5097315E-001  0.1078190E+03  0.7546771E-02  0.1264663E+00
          2   -1    0    0  501    0  0.00000000000E+00  0.00000000000E+00  0.47281229330E+02  0.47281229330E+02  0.00000000000E+00 0. -1.
         -2   -1    0    0    0  501 -0.00000000000E+00 -0.00000000000E+00 -0.38292427271E+03  0.38292427271E+03  0.00000000000E+00 0.  1.
         24    1    1    2    0    0  0.46381312104E+02  0.54831576423E+02 -0.39133273260E+02  0.11470116353E+03  0.80419002446E+02 0. -1.
        -24    1    1    2    0    0 -0.46381312104E+02 -0.54831576423E+02 -0.29650977012E+03  0.31550433851E+03  0.80419002446E+02 0.  1.
<mgrwt>
<rscale>  0 0.10781903E+03</rscale>
<asrwt>0</asrwt>
<pdfrwt beam="1">  1        2 0.72740353E-02 0.10781903E+03</pdfrwt>
<pdfrwt beam="2">  1       -2 0.58911426E-01 0.10781903E+03</pdfrwt>
<totfact> 0.24992117E+03</totfact>
</mgrwt>
</event>
<event>
 4    1  0.5097315E-001  0.1870176E+03  0.7546771E-02  0.1161179E+00
          2   -1    0    0  501    0  0.00000000000E+00  0.00000000000E+00  0.18343443868E+04  0.18343443868E+04  0.00000000000E+00 0. -1.
         -2   -1    0    0    0  501 -0.00000000000E+00 -0.00000000000E+00 -0.19679558283E+02  0.19679558283E+02  0.00000000000E+00 0.  1.
         24    1    1    2    0    0 -0.27165537326E+02 -0.16664444831E+03  0.74379011480E+03  0.76694151628E+03  0.80419002446E+02 0.  1.
        -24    1    1    2    0    0  0.27165537326E+02  0.16664444831E+03  0.10708747137E+04  0.10870824288E+04  0.80419002446E+02 0. -1.
<mgrwt>
<rscale>  0 0.18701755E+03</rscale>
<asrwt>0</asrwt>
<pdfrwt beam="1">  1        2 0.28220669E+00 0.18701757E+03</pdfrwt>
<pdfrwt beam="2">  1       -2 0.30276258E-02 0.18701757E+03</pdfrwt>
<totfact> 0.37861992E+03</totfact>
</mgrwt>
</event>
<event>
 4    1  0.5097315E-001  0.8097406E+02  0.7546771E-02  0.1326310E+00
          4   -1    0    0  501    0  0.00000000000E+00  0.00000000000E+00  0.57912927537E+02  0.57912927537E+02  0.00000000000E+00 0. -1.
         -4   -1    0    0    0  501 -0.00000000000E+00 -0.00000000000E+00 -0.13954847038E+03  0.13954847038E+03  0.00000000000E+00 0.  1.
         24    1    1    2    0    0  0.17310708910E+01  0.93051694705E+01  0.20683866253E+01  0.81000475078E+02  0.80419002446E+02 0.  0.
        -24    1    1    2    0    0 -0.17310708910E+01 -0.93051694705E+01 -0.83703929464E+02  0.11646092283E+03  0.80419002446E+02 0.  0.
<mgrwt>
<rscale>  0 0.80974062E+02</rscale>
<asrwt>0</asrwt>
<pdfrwt beam="1">  1        4 0.89096811E-02 0.80974062E+02</pdfrwt>
<pdfrwt beam="2">  1       -4 0.21468996E-01 0.80974062E+02</pdfrwt>
<totfact> 0.26251759E+03</totfact>
</mgrwt>
</event>
